                         Program Version 5.0.4 -  RELEASE  -
|  1> !ri-mp2 aug-cc-pvqz aug-cc-pvqz/c tightscf
|  2> %pal nprocs 16 end
|  3>
|  4> * xyz 0 1
|  5> C     -1.019949    1.869903    0.005061
|  6> C     -2.035560    0.925894   -0.000762
|  7> C      0.315136    1.486331    0.004036
|  8> C     -0.402977   -0.840723   -0.007286
|  9> C     -1.742943   -0.445332   -0.006521
| 10> C      0.587891    0.126743   -0.001813
| 11> N     -2.757551   -1.389060   -0.067066
| 12> N      1.997431   -0.318897    0.000986
| 13> O      2.865495    0.541162   -0.001230
| 14> O      2.215470   -1.522514    0.006001
| 15> H     -1.272850    2.921047    0.010796
| 16> H     -3.069081    1.248201   -0.005007
| 17> H      1.119865    2.202562    0.008669
| 18> H     -0.125177   -1.883684   -0.015106
| 19> H     -3.666794   -1.094774    0.247033
| 20> H     -2.522433   -2.323737    0.221720
| 21> *
| 22>
| 23>                          ****END OF INPUT****

CARTESIAN COORDINATES (ANGSTROEM)
---------------------------------
  C     -1.019949    1.869903    0.005061
  C     -2.035560    0.925894   -0.000762
  C      0.315136    1.486331    0.004036
  C     -0.402977   -0.840723   -0.007286
  C     -1.742943   -0.445332   -0.006521
  C      0.587891    0.126743   -0.001813
  N     -2.757551   -1.389060   -0.067066
  N      1.997431   -0.318897    0.000986
  O      2.865495    0.541162   -0.001230
  O      2.215470   -1.522514    0.006001
  H     -1.272850    2.921047    0.010796
  H     -3.069081    1.248201   -0.005007
  H      1.119865    2.202562    0.008669
  H     -0.125177   -1.883684   -0.015106
  H     -3.666794   -1.094774    0.247033
  H     -2.522433   -2.323737    0.221720

 Total Charge           Charge          ....    0
 Multiplicity           Mult            ....    1
 Number of Electrons    NEL             ....   72
 Basis Dimension        Dim             .... 1076

ORBITAL ENERGIES
----------------

  NO   OCC          E(Eh)            E(eV)
   0   2.0000     -20.597273      -560.4803
   1   2.0000     -20.596686      -560.4643
   2   2.0000     -15.849217      -431.2791
   3   2.0000     -15.585255      -424.0963
   4   2.0000     -11.309255      -307.7405
   5   2.0000     -11.307742      -307.6993
   6   2.0000     -11.262082      -306.4568
   7   2.0000     -11.259128      -306.3764
   8   2.0000     -11.257126      -306.3220
   9   2.0000     -11.255176      -306.2689
  10   2.0000      -1.603103       -43.6227
  11   2.0000      -1.396053       -37.9885
  12   2.0000      -1.253175       -34.1006
  13   2.0000      -1.176884       -32.0247
  14   2.0000      -1.081490       -29.4288
  15   2.0000      -1.026713       -27.9383
  16   2.0000      -0.957856       -26.0646
  17   2.0000      -0.858241       -23.3539
  18   2.0000      -0.828788       -22.5525
  19   2.0000      -0.778028       -21.1712
  20   2.0000      -0.733411       -19.9571
  21   2.0000      -0.716609       -19.4999
  22   2.0000      -0.710873       -19.3438
  23   2.0000      -0.698847       -19.0166
  24   2.0000      -0.674147       -18.3445
  25   2.0000      -0.628775       -17.1098
  26   2.0000      -0.623355       -16.9623
  27   2.0000      -0.565632       -15.3916
  28   2.0000      -0.554543       -15.0899
  29   2.0000      -0.537134       -14.6162
  30   2.0000      -0.492653       -13.4058
  31   2.0000      -0.491354       -13.3704
  32   2.0000      -0.479816       -13.0565
  33   2.0000      -0.452142       -12.3034
  34   2.0000      -0.374707       -10.1963
  35   2.0000      -0.322406        -8.7731
  36   0.0000       0.015371         0.4183
  37   0.0000       0.024455         0.6654
  38   0.0000       0.031448         0.8557
  39   0.0000       0.038523         1.0483
  40   0.0000       0.042780         1.1641

MULLIKEN ATOMIC CHARGES
-----------------------
   0 C :   -0.401732
   1 C :   -0.186523
   2 C :   -0.191907
   3 C :   -0.331242
   4 C :    0.585593
   5 C :   -0.000623
   6 N :   -0.805806
   7 N :    0.725202
   8 O :   -0.592047
   9 O :   -0.603589
  10 H :    0.187731
  11 H :    0.291305
  12 H :    0.366552
  13 H :    0.413960
  14 H :    0.269896
  15 H :    0.273231
Sum of atomic charges:    0.0000000

LOEWDIN ATOMIC CHARGES
----------------------
   0 C :    0.354448
   1 C :    0.357508
   2 C :    0.317224
   3 C :    0.316581
   4 C :   -0.221716
   5 C :   -0.303185
   6 N :    1.277444
   7 N :   -0.832242
   8 O :    0.542296
   9 O :    0.542094
  10 H :   -0.316719
  11 H :   -0.316352
  12 H :   -0.357668
  13 H :   -0.359078
  14 H :   -0.501154
  15 H :   -0.499481

  Mayer bond orders larger than 0.100000
B(  0-C ,  1-C ) :   1.2201 B(  0-C ,  2-C ) :   1.3231 B(  0-C ,  4-C ) :  -0.2298
B(  0-C ,  5-C ) :  -0.2990 B(  0-C , 10-H ) :   1.2109 B(  1-C ,  4-C ) :   1.1054
B(  1-C , 10-H ) :  -0.1352 B(  1-C , 11-H ) :   0.9752 B(  2-C ,  5-C ) :   1.2003
B(  2-C , 10-H ) :  -0.1029 B(  2-C , 12-H ) :   0.8472 B(  3-C ,  4-C ) :   1.3822
B(  3-C ,  5-C ) :   1.3670 B(  3-C ,  7-N ) :  -0.1176 B(  3-C , 13-H ) :   0.7900
B(  4-C ,  5-C ) :  -0.4132 B(  4-C ,  6-N ) :   0.7682 B(  4-C , 11-H ) :  -0.1269
B(  5-C ,  7-N ) :   0.8490 B(  5-C ,  8-O ) :   0.2440 B(  5-C ,  9-O ) :   0.2288
B(  5-C , 13-H ) :  -0.1102 B(  6-N , 14-H ) :   0.9503 B(  6-N , 15-H ) :   0.9304
B(  7-N ,  8-O ) :   1.1647 B(  7-N ,  9-O ) :   1.1695

MP2 TOTAL ENERGY:     -491.390905117 Eh
FINAL SINGLE POINT ENERGY      -491.390905116846

DIPOLE MOMENT
-------------
                                X             Y             Z
Electronic contribution:      6.95682      -0.76785      -0.11551
Nuclear contribution   :     -9.26188       1.02216       0.45795
                        -----------------------------------------
Total Dipole Moment    :     -2.30506       0.25431       0.34244
                        -----------------------------------------
Magnitude (a.u.)       :      2.34419
Magnitude (Debye)      :      5.95846

Rotational constants in cm-1:     0.090880     0.033034     0.024239
Rotational constants in MHz :  2724.517637   990.324372   726.669246

                             ****ORCA TERMINATED NORMALLY****
TOTAL RUN TIME: 0 days 0 hours 53 minutes 16 seconds 95 msec
