                         Program Version 5.0.4 -  RELEASE  -
|  1> !ri-mp2 aug-cc-pvqz aug-cc-pvqz/c tightscf
|  2> %pal nprocs 16 end
|  3>
|  4> * xyz 0 1
|  5> Cl     2.402272   -0.042853    0.000005
|  6> Cl    -0.367556    2.071610   -0.000009
|  7> O     -1.150299   -1.778024    0.000004
|  8> O     -2.691642   -0.125824   -0.000006
|  9> C      0.277438   -1.865987    0.000008
| 10> C      0.741846   -0.443903    0.000003
| 11> C     -0.314842    0.367425   -0.000002
| 12> C     -1.548384   -0.464123   -0.000002
| 13> H      0.604505   -2.409285   -0.888461
| 14> H      0.604501   -2.409278    0.888482
| 15> *
| 16>
| 17>                          ****END OF INPUT****

CARTESIAN COORDINATES (ANGSTROEM)
---------------------------------
  Cl     2.402272   -0.042853    0.000005
  Cl    -0.367556    2.071610   -0.000009
  O     -1.150299   -1.778024    0.000004
  O     -2.691642   -0.125824   -0.000006
  C      0.277438   -1.865987    0.000008
  C      0.741846   -0.443903    0.000003
  C     -0.314842    0.367425   -0.000002
  C     -1.548384   -0.464123   -0.000002
  H      0.604505   -2.409285   -0.888461
  H      0.604501   -2.409278    0.888482

 Total Charge           Charge          ....    0
 Multiplicity           Mult            ....    1
 Number of Electrons    NEL             ....   76
 Basis Dimension        Dim             ....  740

ORBITAL ENERGIES
----------------

  NO   OCC          E(Eh)            E(eV)
   0   2.0000    -104.891953     -2854.2552
   1   2.0000    -104.873289     -2853.7473
   2   2.0000     -20.627970      -561.3156
   3   2.0000     -20.563266      -559.5549
   4   2.0000     -11.408447      -310.4396
   5   2.0000     -11.358661      -309.0849
   6   2.0000     -11.341784      -308.6256
   7   2.0000     -11.338074      -308.5247
   8   2.0000     -10.616845      -288.8990
   9   2.0000     -10.598130      -288.3898
  10   2.0000      -8.084032      -219.9777
  11   2.0000      -8.082088      -219.9248
  12   2.0000      -8.082023      -219.9230
  13   2.0000      -8.065379      -219.4701
  14   2.0000      -8.063340      -219.4146
  15   2.0000      -8.063327      -219.4143
  16   2.0000      -1.485542       -40.4237
  17   2.0000      -1.394705       -37.9518
  18   2.0000      -1.233139       -33.5554
  19   2.0000      -1.171118       -31.8677
  20   2.0000      -1.072559       -29.1858
  21   2.0000      -1.006855       -27.3979
  22   2.0000      -0.837318       -22.7846
  23   2.0000      -0.798235       -21.7211
  24   2.0000      -0.721686       -19.6381
  25   2.0000      -0.716583       -19.4992
  26   2.0000      -0.669095       -18.2070
  27   2.0000      -0.651399       -17.7255
  28   2.0000      -0.598513       -16.2864
  29   2.0000      -0.597856       -16.2685
  30   2.0000      -0.588410       -16.0115
  31   2.0000      -0.571832       -15.5604
  32   2.0000      -0.514898       -14.0111
  33   2.0000      -0.500187       -13.6108
  34   2.0000      -0.493018       -13.4157
  35   2.0000      -0.482754       -13.1364
  36   2.0000      -0.463218       -12.6048
  37   2.0000      -0.391927       -10.6649
  38   0.0000       0.021188         0.5765
  39   0.0000       0.033118         0.9012
  40   0.0000       0.043193         1.1753
  41   0.0000       0.050439         1.3725
  42   0.0000       0.065199         1.7742

MULLIKEN ATOMIC CHARGES
-----------------------
   0 Cl:   -0.128193
   1 Cl:   -0.131092
   2 O :   -0.657509
   3 O :   -0.685121
   4 C :    0.022694
   5 C :   -0.013017
   6 C :   -0.097919
   7 C :    1.072338
   8 H :    0.308909
   9 H :    0.308910
Sum of atomic charges:    0.0000000

LOEWDIN ATOMIC CHARGES
----------------------
   0 Cl:    1.241788
   1 Cl:    1.210782
   2 O :    0.830802
   3 O :    0.637987
   4 C :    0.031161
   5 C :   -1.033033
   6 C :   -1.074695
   7 C :   -1.222293
   8 H :   -0.311249
   9 H :   -0.311250

  Mayer bond orders larger than 0.100000
B(  0-Cl,  5-C ) :   0.9427 B(  0-Cl,  6-C ) :  -0.1855 B(  1-Cl,  6-C ) :   0.9187
B(  2-O ,  4-C ) :   0.7076 B(  2-O ,  5-C ) :   0.1177 B(  2-O ,  7-C ) :   1.0346
B(  3-O ,  6-C ) :   0.1959 B(  3-O ,  7-C ) :   1.4499 B(  4-C ,  5-C ) :   0.9113
B(  4-C ,  6-C ) :  -0.1691 B(  4-C ,  8-H ) :   0.9129 B(  4-C ,  9-H ) :   0.9129
B(  5-C ,  6-C ) :   1.0630 B(  6-C ,  7-C ) :   1.1948

MP2 TOTAL ENERGY:    -1223.105062490 Eh
FINAL SINGLE POINT ENERGY     -1223.105062489948

DIPOLE MOMENT
-------------
                                X             Y             Z
Electronic contribution:      3.31866       6.62604      -0.00002
Nuclear contribution   :     -1.64465      -7.23263       0.00002
                        -----------------------------------------
Total Dipole Moment    :      1.67400      -0.60659       0.00001
                        -----------------------------------------
Magnitude (a.u.)       :      1.78052
Magnitude (Debye)      :      4.52572

Rotational constants in cm-1:     0.063775     0.043637     0.026036
Rotational constants in MHz :  1911.933449  1308.202021   780.554286

                             ****ORCA TERMINATED NORMALLY****
TOTAL RUN TIME: 0 days 0 hours 21 minutes 58 seconds 770 msec
