                         Program Version 5.0.4 -  RELEASE  -
|  1> !ri-mp2 aug-cc-pvqz aug-cc-pvqz/c tightscf
|  2> %pal nprocs 16 end
|  3>
|  4> * xyz 0 1
|  5> C     -2.171508   -0.232104   -0.260028
|  6> H     -2.449028    0.531540   -0.977091
|  7> H     -2.897472   -1.011714   -0.074136
|  8> C     -0.999134   -0.216949    0.359116
|  9> H     -0.751263   -1.006444    1.058838
| 10> C      0.047693    0.833307    0.160729
| 11> H     -0.219239    1.524237   -0.645289
| 12> H      0.146644    1.464630    1.055798
| 13> C      1.439026    0.311691   -0.117058
| 14> H      2.190418    1.104526   -0.313882
| 15> O      1.760435   -0.847806   -0.120099
| 16> *
| 17>
| 18>                          ****END OF INPUT****

CARTESIAN COORDINATES (ANGSTROEM)
---------------------------------
  C     -2.171508   -0.232104   -0.260028
  H     -2.449028    0.531540   -0.977091
  H     -2.897472   -1.011714   -0.074136
  C     -0.999134   -0.216949    0.359116
  H     -0.751263   -1.006444    1.058838
  C      0.047693    0.833307    0.160729
  H     -0.219239    1.524237   -0.645289
  H      0.146644    1.464630    1.055798
  C      1.439026    0.311691   -0.117058
  H      2.190418    1.104526   -0.313882
  O      1.760435   -0.847806   -0.120099

 Total Charge           Charge          ....    0
 Multiplicity           Mult            ....    1
 Number of Electrons    NEL             ....   38
 Basis Dimension        Dim             ....  676

ORBITAL ENERGIES
----------------

  NO   OCC          E(Eh)            E(eV)
   0   2.0000     -20.560239      -559.4726
   1   2.0000     -11.337244      -308.5021
   2   2.0000     -11.253285      -306.2174
   3   2.0000     -11.242158      -305.9147
   4   2.0000     -11.228689      -305.5482
   5   2.0000      -1.400673       -38.1142
   6   2.0000      -1.092516       -29.7289
   7   2.0000      -0.988222       -26.8909
   8   2.0000      -0.823791       -22.4165
   9   2.0000      -0.756886       -20.5959
  10   2.0000      -0.681936       -18.5564
  11   2.0000      -0.659715       -17.9517
  12   2.0000      -0.626426       -17.0459
  13   2.0000      -0.595099       -16.1935
  14   2.0000      -0.573903       -15.6167
  15   2.0000      -0.509292       -13.8585
  16   2.0000      -0.505661       -13.7597
  17   2.0000      -0.431149       -11.7322
  18   2.0000      -0.373223       -10.1559
  19   0.0000       0.023289         0.6337
  20   0.0000       0.029937         0.8146
  21   0.0000       0.034657         0.9431
  22   0.0000       0.041425         1.1272
  23   0.0000       0.048960         1.3323

MULLIKEN ATOMIC CHARGES
-----------------------
   0 C :   -0.884485
   1 H :    0.356844
   2 H :    0.373104
   3 C :   -0.359567
   4 H :    0.452841
   5 C :   -0.396290
   6 H :    0.240317
   7 H :    0.279360
   8 C :    0.214356
   9 H :    0.460121
  10 O :   -0.736602
Sum of atomic charges:    0.0000000

LOEWDIN ATOMIC CHARGES
----------------------
   0 C :    0.796836
   1 H :   -0.354478
   2 H :   -0.355592
   3 C :    0.324071
   4 H :   -0.336078
   5 C :    0.424170
   6 H :   -0.322897
   7 H :   -0.297615
   8 C :   -0.245125
   9 H :   -0.343903
  10 O :    0.710610

  Mayer bond orders larger than 0.100000
B(  0-C ,  1-H ) :   0.8760 B(  0-C ,  2-H ) :   0.9366 B(  0-C ,  3-C ) :   1.8473
B(  3-C ,  4-H ) :   0.7405 B(  3-C ,  5-C ) :   0.8418 B(  3-C ,  8-C ) :  -0.1380
B(  5-C ,  6-H ) :   0.9209 B(  5-C ,  7-H ) :   0.8611 B(  5-C ,  8-C ) :   1.1064
B(  5-C , 10-O ) :   0.1373 B(  8-C ,  9-H ) :   0.7379 B(  8-C , 10-O ) :   1.5731

MP2 TOTAL ENERGY:     -230.840812333 Eh
FINAL SINGLE POINT ENERGY      -230.840812333152

DIPOLE MOMENT
-------------
                                X             Y             Z
Electronic contribution:      3.58922      -1.52555      -0.03398
Nuclear contribution   :     -4.02413       2.64061       0.10421
                        -----------------------------------------
Total Dipole Moment    :     -0.43490       1.11507       0.07023
                        -----------------------------------------
Magnitude (a.u.)       :      1.19894
Magnitude (Debye)      :      3.04746

Rotational constants in cm-1:     0.457612     0.099298     0.087278
Rotational constants in MHz : 13718.865390  2976.893852  2616.537323

                             ****ORCA TERMINATED NORMALLY****
TOTAL RUN TIME: 0 days 0 hours 11 minutes 48 seconds 181 msec
