                         Program Version 5.0.4 -  RELEASE  -
|  1> !ri-mp2 aug-cc-pvqz aug-cc-pvqz/c tightscf
|  2> %pal nprocs 16 end
|  3>
|  4> * xyz 0 1
|  5> S      1.423113   -1.504035   -0.000003
|  6> S      1.033270    1.806919    0.000000
|  7> N     -0.098633   -0.682408    0.000000
|  8> N     -1.561189    0.904248    0.000002
|  9> C     -0.213029    0.685854    0.000000
| 10> C     -1.351292   -1.279776    0.000001
| 11> C     -2.265069   -0.285493    0.000003
| 12> H      2.055117   -0.283372   -0.000002
| 13> H     -1.946319    1.831522    0.000004
| 14> H     -1.478172   -2.345480    0.000001
| 15> H     -3.337664   -0.325200    0.000003
| 16> *
| 17>
| 18>                          ****END OF INPUT****

CARTESIAN COORDINATES (ANGSTROEM)
---------------------------------
  S      1.423113   -1.504035   -0.000003
  S      1.033270    1.806919    0.000000
  N     -0.098633   -0.682408    0.000000
  N     -1.561189    0.904248    0.000002
  C     -0.213029    0.685854    0.000000
  C     -1.351292   -1.279776    0.000001
  C     -2.265069   -0.285493    0.000003
  H      2.055117   -0.283372   -0.000002
  H     -1.946319    1.831522    0.000004
  H     -1.478172   -2.345480    0.000001
  H     -3.337664   -0.325200    0.000003

 Total Charge           Charge          ....    0
 Multiplicity           Mult            ....    1
 Number of Electrons    NEL             ....   68
 Basis Dimension        Dim             ....  752

ORBITAL ENERGIES
----------------

  NO   OCC          E(Eh)            E(eV)
   0   2.0000     -92.004324     -2503.5649
   1   2.0000     -91.896628     -2500.6344
   2   2.0000     -15.654641      -425.9844
   3   2.0000     -15.640481      -425.5991
   4   2.0000     -11.374958      -309.5283
   5   2.0000     -11.298924      -307.4594
   6   2.0000     -11.296988      -307.4067
   7   2.0000      -9.003474      -244.9970
   8   2.0000      -8.900696      -242.2003
   9   2.0000      -6.685159      -181.9124
  10   2.0000      -6.683643      -181.8712
  11   2.0000      -6.682478      -181.8395
  12   2.0000      -6.582590      -179.1214
  13   2.0000      -6.580512      -179.0648
  14   2.0000      -6.580286      -179.0587
  15   2.0000      -1.391952       -37.8769
  16   2.0000      -1.240925       -33.7673
  17   2.0000      -1.084051       -29.4985
  18   2.0000      -1.000515       -27.2254
  19   2.0000      -0.936858       -25.4932
  20   2.0000      -0.868239       -23.6260
  21   2.0000      -0.810156       -22.0455
  22   2.0000      -0.735076       -20.0024
  23   2.0000      -0.667183       -18.1550
  24   2.0000      -0.660446       -17.9716
  25   2.0000      -0.645026       -17.5520
  26   2.0000      -0.604259       -16.4427
  27   2.0000      -0.532645       -14.4940
  28   2.0000      -0.517303       -14.0765
  29   2.0000      -0.512216       -13.9381
  30   2.0000      -0.412475       -11.2240
  31   2.0000      -0.369828       -10.0635
  32   2.0000      -0.333033        -9.0623
  33   2.0000      -0.295545        -8.0422
  34   0.0000       0.016287         0.4432
  35   0.0000       0.026418         0.7189
  36   0.0000       0.036805         1.0015
  37   0.0000       0.044685         1.2159
  38   0.0000       0.055416         1.5079

MULLIKEN ATOMIC CHARGES
-----------------------
   0 S :    0.036285
   1 S :   -0.251126
   2 N :   -0.208514
   3 N :   -0.467431
   4 C :    0.252603
   5 C :   -0.422512
   6 C :   -0.164371
   7 H :    0.100913
   8 H :    0.197948
   9 H :    0.433136
  10 H :    0.493070
Sum of atomic charges:    0.0000000

LOEWDIN ATOMIC CHARGES
----------------------
   0 S :    1.459741
   1 S :    1.009575
   2 N :   -0.181697
   3 N :    0.712161
   4 C :   -1.252204
   5 C :    0.094991
   6 C :    0.216074
   7 H :   -0.947641
   8 H :   -0.478939
   9 H :   -0.325362
  10 H :   -0.306699

  Mayer bond orders larger than 0.100000
B(  0-S ,  2-N ) :   0.6996 B(  0-S ,  7-H ) :   0.9950 B(  1-S ,  4-C ) :   1.2883
B(  2-N ,  4-C ) :   1.1345 B(  2-N ,  5-C ) :   1.1662 B(  3-N ,  4-C ) :   1.1140
B(  3-N ,  6-C ) :   0.9166 B(  3-N ,  8-H ) :   1.0935 B(  5-C ,  6-C ) :   1.6412
B(  5-C ,  9-H ) :   0.8943 B(  6-C , 10-H ) :   0.7998

MP2 TOTAL ENERGY:    -1021.324489302 Eh
FINAL SINGLE POINT ENERGY     -1021.324489301788

DIPOLE MOMENT
-------------
                                X             Y             Z
Electronic contribution:      2.91013       0.15894      -0.00000
Nuclear contribution   :     -4.62980      -1.09218       0.00001
                        -----------------------------------------
Total Dipole Moment    :     -1.71967      -0.93324       0.00000
                        -----------------------------------------
Magnitude (a.u.)       :      1.95658
Magnitude (Debye)      :      4.97323

Rotational constants in cm-1:     0.073117     0.070566     0.035909
Rotational constants in MHz :  2192.006568  2115.502522  1076.537583

                             ****ORCA TERMINATED NORMALLY****
TOTAL RUN TIME: 0 days 0 hours 19 minutes 34 seconds 24 msec
