                         Program Version 5.0.4 -  RELEASE  -
|  1> !ri-mp2 aug-cc-pvqz aug-cc-pvqz/c tightscf
|  2> %pal nprocs 16 end
|  3>
|  4> * xyz 0 1
|  5> C     -0.725688    1.839957    0.003904
|  6> C     -1.772672    0.931790   -0.002269
|  7> C      0.599144    1.416167    0.004591
|  8> C     -0.184148   -0.880797   -0.007062
|  9> C     -1.513782   -0.444159   -0.007235
| 10> C      0.841141    0.050127   -0.000913
| 11> N     -2.554624   -1.364322   -0.068662
| 12> Cl     2.499376   -0.526961    0.002399
| 13> H     -0.942366    2.899755    0.008952
| 14> H     -2.796213    1.283658   -0.007912
| 15> H      1.416937    2.119885    0.009926
| 16> H      0.045646   -1.937052   -0.016153
| 17> H     -3.451270   -1.039482    0.252768
| 18> H     -2.343722   -2.296693    0.246175
| 19> *
| 20>
| 21>                          ****END OF INPUT****

CARTESIAN COORDINATES (ANGSTROEM)
---------------------------------
  C     -0.725688    1.839957    0.003904
  C     -1.772672    0.931790   -0.002269
  C      0.599144    1.416167    0.004591
  C     -0.184148   -0.880797   -0.007062
  C     -1.513782   -0.444159   -0.007235
  C      0.841141    0.050127   -0.000913
  N     -2.554624   -1.364322   -0.068662
  Cl     2.499376   -0.526961    0.002399
  H     -0.942366    2.899755    0.008952
  H     -2.796213    1.283658   -0.007912
  H      1.416937    2.119885    0.009926
  H      0.045646   -1.937052   -0.016153
  H     -3.451270   -1.039482    0.252768
  H     -2.343722   -2.296693    0.246175

 Total Charge           Charge          ....    0
 Multiplicity           Mult            ....    1
 Number of Electrons    NEL             ....   66
 Basis Dimension        Dim             ....  920

ORBITAL ENERGIES
----------------

  NO   OCC          E(Eh)            E(eV)
   0   2.0000    -104.834825     -2852.7006
   1   2.0000     -15.574036      -423.7911
   2   2.0000     -11.303666      -307.5884
   3   2.0000     -11.292932      -307.2963
   4   2.0000     -11.247606      -306.0629
   5   2.0000     -11.236299      -305.7553
   6   2.0000     -11.231986      -305.6379
   7   2.0000     -11.231488      -305.6243
   8   2.0000     -10.560068      -287.3541
   9   2.0000      -8.027180      -218.4307
  10   2.0000      -8.025481      -218.3845
  11   2.0000      -8.025445      -218.3835
  12   2.0000      -1.238863       -33.7112
  13   2.0000      -1.173002       -31.9190
  14   2.0000      -1.103074       -30.0162
  15   2.0000      -1.013210       -27.5709
  16   2.0000      -0.988685       -26.9035
  17   2.0000      -0.842305       -22.9203
  18   2.0000      -0.819893       -22.3104
  19   2.0000      -0.710713       -19.3395
  20   2.0000      -0.701227       -19.0813
  21   2.0000      -0.667842       -18.1729
  22   2.0000      -0.617946       -16.8152
  23   2.0000      -0.608300       -16.5527
  24   2.0000      -0.583983       -15.8910
  25   2.0000      -0.558260       -15.1910
  26   2.0000      -0.530276       -14.4295
  27   2.0000      -0.505102       -13.7445
  28   2.0000      -0.500443       -13.6178
  29   2.0000      -0.451624       -12.2893
  30   2.0000      -0.440931       -11.9984
  31   2.0000      -0.342088        -9.3087
  32   2.0000      -0.306289        -8.3345
  33   0.0000       0.020289         0.5521
  34   0.0000       0.027670         0.7529
  35   0.0000       0.033128         0.9014
  36   0.0000       0.042808         1.1649
  37   0.0000       0.046800         1.2735

MULLIKEN ATOMIC CHARGES
-----------------------
   0 C :   -0.382762
   1 C :   -0.194924
   2 C :   -0.150697
   3 C :   -0.201549
   4 C :    0.582597
   5 C :   -0.429513
   6 N :   -0.792103
   7 Cl:   -0.342135
   8 H :    0.215186
   9 H :    0.293391
  10 H :    0.436370
  11 H :    0.414989
  12 H :    0.274678
  13 H :    0.276472
Sum of atomic charges:    0.0000000

LOEWDIN ATOMIC CHARGES
----------------------
   0 C :    0.319436
   1 C :    0.337421
   2 C :    0.195359
   3 C :    0.194563
   4 C :   -0.253782
   5 C :   -0.848462
   6 N :    1.273546
   7 Cl:    1.168403
   8 H :   -0.320205
   9 H :   -0.325645
  10 H :   -0.366906
  11 H :   -0.363463
  12 H :   -0.505433
  13 H :   -0.504833

  Mayer bond orders larger than 0.100000
B(  0-C ,  1-C ) :   1.2237 B(  0-C ,  2-C ) :   1.2688 B(  0-C ,  4-C ) :  -0.2101
B(  0-C ,  5-C ) :  -0.1102 B(  0-C ,  8-H ) :   1.1609 B(  1-C ,  4-C ) :   1.1103
B(  1-C ,  8-H ) :  -0.1499 B(  1-C ,  9-H ) :   0.9615 B(  2-C ,  5-C ) :   1.2353
B(  2-C ,  7-Cl) :  -0.1874 B(  2-C , 10-H ) :   0.8366 B(  3-C ,  4-C ) :   1.2389
B(  3-C ,  5-C ) :   1.3111 B(  3-C ,  7-Cl) :  -0.2461 B(  3-C , 11-H ) :   0.8541
B(  4-C ,  5-C ) :  -0.2253 B(  4-C ,  6-N ) :   0.8065 B(  5-C ,  7-Cl) :   1.1505
B(  6-N , 12-H ) :   0.9378 B(  6-N , 13-H ) :   0.9302

MP2 TOTAL ENERGY:     -746.241040571 Eh
FINAL SINGLE POINT ENERGY      -746.241040570729

DIPOLE MOMENT
-------------
                                X             Y             Z
Electronic contribution:     10.21826      -1.78519      -0.11718
Nuclear contribution   :    -11.33071       1.72555       0.47601
                        -----------------------------------------
Total Dipole Moment    :     -1.11245      -0.05964       0.35884
                        -----------------------------------------
Magnitude (a.u.)       :      1.17042
Magnitude (Debye)      :      2.97496

Rotational constants in cm-1:     0.114179     0.039631     0.029439
Rotational constants in MHz :  3423.004681  1188.117452   882.546841

                             ****ORCA TERMINATED NORMALLY****
TOTAL RUN TIME: 0 days 0 hours 30 minutes 51 seconds 44 msec
