                         Program Version 5.0.4 -  RELEASE  -
|  1> !ri-mp2 aug-cc-pvqz aug-cc-pvqz/c tightscf
|  2> %pal nprocs 16 end
|  3>
|  4> * xyz 0 1
|  5> C     -0.625254    0.796229   -0.069321
|  6> C      0.748082    1.424367   -0.171862
|  7> C      1.831447    0.472172    0.325884
|  8> C      0.493068   -1.432208    0.084495
|  9> N     -0.642039   -0.552571   -0.197890
| 10> O     -1.673211    1.417918    0.082626
| 11> O      1.681886   -0.808195   -0.288855
| 12> O     -1.868778   -1.171591    0.063455
| 13> H      0.927139    1.687106   -1.216193
| 14> H      0.732774    2.348662    0.404513
| 15> H      2.826636    0.822192    0.062253
| 16> H      1.780973    0.363978    1.416043
| 17> H      0.486076   -1.691814    1.152629
| 18> H      0.385931   -2.336757   -0.510335
| 19> H     -2.448486   -0.393788    0.203331
| 20> *
| 21>
| 22>                          ****END OF INPUT****

CARTESIAN COORDINATES (ANGSTROEM)
---------------------------------
  C     -0.625254    0.796229   -0.069321
  C      0.748082    1.424367   -0.171862
  C      1.831447    0.472172    0.325884
  C      0.493068   -1.432208    0.084495
  N     -0.642039   -0.552571   -0.197890
  O     -1.673211    1.417918    0.082626
  O      1.681886   -0.808195   -0.288855
  O     -1.868778   -1.171591    0.063455
  H      0.927139    1.687106   -1.216193
  H      0.732774    2.348662    0.404513
  H      2.826636    0.822192    0.062253
  H      1.780973    0.363978    1.416043
  H      0.486076   -1.691814    1.152629
  H      0.385931   -2.336757   -0.510335
  H     -2.448486   -0.393788    0.203331

 Total Charge           Charge          ....    0
 Multiplicity           Mult            ....    1
 Number of Electrons    NEL             ....   62
 Basis Dimension        Dim             ....  962

ORBITAL ENERGIES
----------------

  NO   OCC          E(Eh)            E(eV)
   0   2.0000     -20.610344      -560.8360
   1   2.0000     -20.590686      -560.3011
   2   2.0000     -20.537527      -558.8545
   3   2.0000     -15.646935      -425.7748
   4   2.0000     -11.367479      -309.3248
   5   2.0000     -11.341020      -308.6049
   6   2.0000     -11.308480      -307.7194
   7   2.0000     -11.259184      -306.3780
   8   2.0000      -1.466970       -39.9183
   9   2.0000      -1.415791       -38.5256
  10   2.0000      -1.373973       -37.3877
  11   2.0000      -1.174743       -31.9664
  12   2.0000      -1.079521       -29.3753
  13   2.0000      -0.949513       -25.8376
  14   2.0000      -0.904132       -24.6027
  15   2.0000      -0.792807       -21.5734
  16   2.0000      -0.727581       -19.7985
  17   2.0000      -0.722119       -19.6498
  18   2.0000      -0.688384       -18.7319
  19   2.0000      -0.679327       -18.4854
  20   2.0000      -0.644220       -17.5301
  21   2.0000      -0.627075       -17.0636
  22   2.0000      -0.611373       -16.6363
  23   2.0000      -0.601449       -16.3663
  24   2.0000      -0.568330       -15.4650
  25   2.0000      -0.550841       -14.9891
  26   2.0000      -0.516782       -14.0623
  27   2.0000      -0.506917       -13.7939
  28   2.0000      -0.467637       -12.7250
  29   2.0000      -0.447240       -12.1700
  30   2.0000      -0.385492       -10.4898
  31   0.0000       0.021637         0.5888
  32   0.0000       0.031021         0.8441
  33   0.0000       0.032794         0.8924
  34   0.0000       0.038527         1.0484
  35   0.0000       0.047772         1.2999

MULLIKEN ATOMIC CHARGES
-----------------------
   0 C :    1.092067
   1 C :   -0.563211
   2 C :   -0.122404
   3 C :   -0.074000
   4 N :   -0.089681
   5 O :   -0.922563
   6 O :   -0.868547
   7 O :   -0.797044
   8 H :    0.297839
   9 H :    0.312217
  10 H :    0.419815
  11 H :    0.179063
  12 H :    0.303755
  13 H :    0.448739
  14 H :    0.383954
Sum of atomic charges:    0.0000000

LOEWDIN ATOMIC CHARGES
----------------------
   0 C :   -0.837772
   1 C :    0.498972
   2 C :    0.193641
   3 C :   -0.008494
   4 N :    0.115354
   5 O :    0.751992
   6 O :    0.902551
   7 O :    1.144980
   8 H :   -0.274046
   9 H :   -0.293300
  10 H :   -0.298078
  11 H :   -0.288620
  12 H :   -0.295145
  13 H :   -0.319839
  14 H :   -0.992196

  Mayer bond orders larger than 0.100000
B(  0-C ,  1-C ) :   0.9522 B(  0-C ,  4-N ) :   1.1892 B(  0-C ,  5-O ) :   1.0487
B(  1-C ,  2-C ) :   1.1071 B(  1-C ,  5-O ) :   0.1444 B(  1-C ,  8-H ) :   0.8438
B(  1-C ,  9-H ) :   0.8846 B(  2-C ,  6-O ) :   0.7240 B(  2-C , 10-H ) :   0.8008
B(  2-C , 11-H ) :   0.9732 B(  3-C ,  4-N ) :   0.7132 B(  3-C ,  6-O ) :   0.8417
B(  3-C , 12-H ) :   0.9007 B(  3-C , 13-H ) :   0.7828 B(  4-N ,  5-O ) :   0.1957
B(  4-N ,  7-O ) :   0.5299 B(  7-O , 14-H ) :   0.8316

MP2 TOTAL ENERGY:     -436.407490568 Eh
FINAL SINGLE POINT ENERGY      -436.407490568389

DIPOLE MOMENT
-------------
                                X             Y             Z
Electronic contribution:     -3.44150      -0.78215      -1.10525
Nuclear contribution   :      4.63156       0.78302       1.50028
                        -----------------------------------------
Total Dipole Moment    :      1.19006       0.00087       0.39503
                        -----------------------------------------
Magnitude (a.u.)       :      1.25391
Magnitude (Debye)      :      3.18720

Rotational constants in cm-1:     0.108984     0.071818     0.045415
Rotational constants in MHz :  3267.249833  2153.035746  1361.508286

                             ****ORCA TERMINATED NORMALLY****
TOTAL RUN TIME: 0 days 0 hours 37 minutes 32 seconds 822 msec
