                         Program Version 5.0.4 -  RELEASE  -
|  1> !ri-mp2 aug-cc-pvqz aug-cc-pvqz/c tightscf
|  2> %pal nprocs 16 end
|  3>
|  4> * xyz 0 1
|  5> O    -1.801585   -0.353946   -1.263177
|  6> S    -1.102837   -0.138972    0.000074
|  7> O    -1.800137   -0.353814    1.264151
|  8> C     0.470647   -1.077138   -0.000655
|  9> C     1.551977   -0.034521   -0.000177
| 10> C     2.979502   -0.481812    0.000109
| 11> C    -0.322179    1.520248   -0.000351
| 12> C     1.145332    1.235846   -0.000038
| 13> H     0.476225   -1.706442   -0.890781
| 14> H     0.476388   -1.707450    0.888755
| 15> H     3.659750    0.368607    0.000410
| 16> H     3.197004   -1.095951   -0.877283
| 17> H     3.196558   -1.096217    0.877425
| 18> H    -0.672041    2.042715   -0.890512
| 19> H    -0.672325    2.043260    0.889375
| 20> H     1.845935    2.061374    0.000310
| 21> *
| 22>
| 23>                          ****END OF INPUT****

CARTESIAN COORDINATES (ANGSTROEM)
---------------------------------
  O     -1.801585   -0.353946   -1.263177
  S     -1.102837   -0.138972    0.000074
  O     -1.800137   -0.353814    1.264151
  C      0.470647   -1.077138   -0.000655
  C      1.551977   -0.034521   -0.000177
  C      2.979502   -0.481812    0.000109
  C     -0.322179    1.520248   -0.000351
  C      1.145332    1.235846   -0.000038
  H      0.476225   -1.706442   -0.890781
  H      0.476388   -1.707450    0.888755
  H      3.659750    0.368607    0.000410
  H      3.197004   -1.095951   -0.877283
  H      3.196558   -1.096217    0.877425
  H     -0.672041    2.042715   -0.890512
  H     -0.672325    2.043260    0.889375
  H      1.845935    2.061374    0.000310

 Total Charge           Charge          ....    0
 Multiplicity           Mult            ....    1
 Number of Electrons    NEL             ....   70
 Basis Dimension        Dim             .... 1012

ORBITAL ENERGIES
----------------

  NO   OCC          E(Eh)            E(eV)
   0   2.0000     -92.169370     -2508.0561
   1   2.0000     -20.540849      -558.9449
   2   2.0000     -20.540827      -558.9443
   3   2.0000     -11.281784      -306.9930
   4   2.0000     -11.281197      -306.9770
   5   2.0000     -11.276598      -306.8518
   6   2.0000     -11.261524      -306.4417
   7   2.0000     -11.249648      -306.1185
   8   2.0000      -9.139567      -248.7003
   9   2.0000      -6.824835      -185.7132
  10   2.0000      -6.823979      -185.6899
  11   2.0000      -6.823683      -185.6818
  12   2.0000      -1.437675       -39.1211
  13   2.0000      -1.327993       -36.1365
  14   2.0000      -1.167674       -31.7740
  15   2.0000      -1.045636       -28.4532
  16   2.0000      -1.007251       -27.4087
  17   2.0000      -0.932301       -25.3692
  18   2.0000      -0.815262       -22.1844
  19   2.0000      -0.765948       -20.8425
  20   2.0000      -0.688051       -18.7228
  21   2.0000      -0.669412       -18.2156
  22   2.0000      -0.638846       -17.3839
  23   2.0000      -0.631567       -17.1858
  24   2.0000      -0.625620       -17.0240
  25   2.0000      -0.609737       -16.5918
  26   2.0000      -0.603853       -16.4317
  27   2.0000      -0.579908       -15.7801
  28   2.0000      -0.549633       -14.9563
  29   2.0000      -0.541381       -14.7317
  30   2.0000      -0.489551       -13.3214
  31   2.0000      -0.485689       -13.2163
  32   2.0000      -0.466886       -12.7046
  33   2.0000      -0.424929       -11.5629
  34   2.0000      -0.380855       -10.3636
  35   0.0000       0.017674         0.4809
  36   0.0000       0.024185         0.6581
  37   0.0000       0.032173         0.8755
  38   0.0000       0.034043         0.9264
  39   0.0000       0.044357         1.2070

MULLIKEN ATOMIC CHARGES
-----------------------
   0 O :   -1.317095
   1 S :    2.455613
   2 O :   -1.316981
   3 C :   -0.525068
   4 C :    0.161561
   5 C :   -0.712509
   6 C :   -0.491830
   7 C :   -0.558669
   8 H :    0.328687
   9 H :    0.328651
  10 H :    0.230573
  11 H :    0.259433
  12 H :    0.259446
  13 H :    0.295648
  14 H :    0.295531
  15 H :    0.307009
Sum of atomic charges:   -0.0000000

LOEWDIN ATOMIC CHARGES
----------------------
   0 O :    0.284907
   1 S :   -0.156009
   2 O :    0.284946
   3 C :    0.423082
   4 C :   -0.080596
   5 C :    0.917700
   6 C :    0.428899
   7 C :    0.353123
   8 H :   -0.317391
   9 H :   -0.317417
  10 H :   -0.301960
  11 H :   -0.280585
  12 H :   -0.280587
  13 H :   -0.326016
  14 H :   -0.326030
  15 H :   -0.306067

  Mayer bond orders larger than 0.100000
B(  0-O ,  1-S ) :   0.8867 B(  1-S ,  2-O ) :   0.8866 B(  1-S ,  3-C ) :   0.9582
B(  1-S ,  6-C ) :   0.8883 B(  3-C ,  4-C ) :   0.7509 B(  3-C ,  8-H ) :   0.8337
B(  3-C ,  9-H ) :   0.8338 B(  4-C ,  5-C ) :   0.5976 B(  4-C ,  6-C ) :  -0.1398
B(  4-C ,  7-C ) :   1.4847 B(  4-C , 10-H ) :  -0.1137 B(  5-C , 10-H ) :   1.0579
B(  5-C , 11-H ) :   0.9874 B(  5-C , 12-H ) :   0.9874 B(  6-C ,  7-C ) :   0.9807
B(  6-C , 13-H ) :   0.9081 B(  6-C , 14-H ) :   0.9084 B(  7-C , 15-H ) :   0.9659

MP2 TOTAL ENERGY:     -742.982160975 Eh
FINAL SINGLE POINT ENERGY      -742.982160975303

DIPOLE MOMENT
-------------
                                X             Y             Z
Electronic contribution:     -9.15129      -0.35606       0.00122
Nuclear contribution   :     11.42289       0.89816      -0.00228
                        -----------------------------------------
Total Dipole Moment    :      2.27160       0.54210      -0.00106
                        -----------------------------------------
Magnitude (a.u.)       :      2.33539
Magnitude (Debye)      :      5.93609

Rotational constants in cm-1:     0.116837     0.043016     0.039712
Rotational constants in MHz :  3502.695217  1289.572437  1190.531426

                             ****ORCA TERMINATED NORMALLY****
TOTAL RUN TIME: 0 days 0 hours 50 minutes 29 seconds 813 msec
