                         Program Version 5.0.4 -  RELEASE  -
|  1> !ri-mp2 aug-cc-pvqz aug-cc-pvqz/c tightscf
|  2> %pal nprocs 16 end
|  3>
|  4> * xyz 0 1
|  5> N     -1.616715   -0.101498    0.115335
|  6> N     -2.512940   -0.696208   -0.240366
|  7> N      2.592445   -0.787850    0.164792
|  8> C     -0.601166    0.598614    0.503988
|  9> C      0.580873    0.787284   -0.409301
| 10> C      1.711258   -0.097097   -0.096653
| 11> H     -0.609112    0.927289    1.529719
| 12> H      0.289318    0.620071   -1.447202
| 13> H      0.934469    1.818720   -0.349050
| 14> *
| 15>
| 16>                          ****END OF INPUT****

CARTESIAN COORDINATES (ANGSTROEM)
---------------------------------
  N     -1.616715   -0.101498    0.115335
  N     -2.512940   -0.696208   -0.240366
  N      2.592445   -0.787850    0.164792
  C     -0.601166    0.598614    0.503988
  C      0.580873    0.787284   -0.409301
  C      1.711258   -0.097097   -0.096653
  H     -0.609112    0.927289    1.529719
  H      0.289318    0.620071   -1.447202
  H      0.934469    1.818720   -0.349050

 Total Charge           Charge          ....    0
 Multiplicity           Mult            ....    1
 Number of Electrons    NEL             ....   42
 Basis Dimension        Dim             ....  618

ORBITAL ENERGIES
----------------

  NO   OCC          E(Eh)            E(eV)
   0   2.0000     -15.750911      -428.6041
   1   2.0000     -15.674293      -426.5192
   2   2.0000     -15.574594      -423.8062
   3   2.0000     -11.311265      -307.7952
   4   2.0000     -11.296057      -307.3813
   5   2.0000     -11.279177      -306.9220
   6   2.0000      -1.479917       -40.2706
   7   2.0000      -1.230194       -33.4753
   8   2.0000      -1.167566       -31.7711
   9   2.0000      -1.038666       -28.2635
  10   2.0000      -0.777341       -21.1525
  11   2.0000      -0.734513       -19.9871
  12   2.0000      -0.700148       -19.0520
  13   2.0000      -0.677862       -18.4456
  14   2.0000      -0.665627       -18.1126
  15   2.0000      -0.626877       -17.0582
  16   2.0000      -0.568526       -15.4704
  17   2.0000      -0.560021       -15.2389
  18   2.0000      -0.472374       -12.8540
  19   2.0000      -0.470006       -12.7895
  20   2.0000      -0.346258        -9.4222
  21   0.0000       0.019918         0.5420
  22   0.0000       0.028906         0.7866
  23   0.0000       0.037116         1.0100
  24   0.0000       0.049689         1.3521
  25   0.0000       0.067048         1.8245

MULLIKEN ATOMIC CHARGES
-----------------------
   0 N :   -0.040308
   1 N :   -0.281283
   2 N :   -0.617473
   3 C :   -0.139785
   4 C :   -0.378642
   5 C :    0.377249
   6 H :    0.449943
   7 H :    0.324169
   8 H :    0.306130
Sum of atomic charges:   -0.0000000

LOEWDIN ATOMIC CHARGES
----------------------
   0 N :    0.039019
   1 N :    0.394592
   2 N :    0.399276
   3 C :    0.105571
   4 C :    0.362648
   5 C :   -0.273446
   6 H :   -0.371331
   7 H :   -0.333531
   8 H :   -0.322799

  Mayer bond orders larger than 0.100000
B(  0-N ,  1-N ) :   2.1139 B(  0-N ,  3-C ) :   1.2363 B(  2-N ,  5-C ) :   2.5646
B(  3-C ,  4-C ) :   0.9754 B(  3-C ,  6-H ) :   0.7568 B(  4-C ,  5-C ) :   1.0046
B(  4-C ,  7-H ) :   0.8712 B(  4-C ,  8-H ) :   0.9046

MP2 TOTAL ENERGY:     -279.857156572 Eh
FINAL SINGLE POINT ENERGY      -279.857156571609

DIPOLE MOMENT
-------------
                                X             Y             Z
Electronic contribution:     -1.39346      -2.05134       0.10269
Nuclear contribution   :      0.58923       3.26573      -0.25908
                        -----------------------------------------
Total Dipole Moment    :     -0.80424       1.21440      -0.15638
                        -----------------------------------------
Magnitude (a.u.)       :      1.46493
Magnitude (Debye)      :      3.72355

Rotational constants in cm-1:     0.391443     0.061244     0.056941
Rotational constants in MHz : 11735.159085  1836.063335  1707.048497

                             ****ORCA TERMINATED NORMALLY****
TOTAL RUN TIME: 0 days 0 hours 8 minutes 29 seconds 665 msec
