                         Program Version 5.0.4 -  RELEASE  -
|  1> !ri-mp2 aug-cc-pvqz aug-cc-pvqz/c tightscf
|  2> %pal nprocs 16 end
|  3>
|  4> * xyz 0 1
|  5> C      0.038790   -2.151291    0.000000
|  6> C     -0.466392   -0.924162    0.000000
|  7> C      0.038790    1.174358    1.264341
|  8> C      0.038790    1.174358   -1.264341
|  9> C      0.328419    0.351813    0.000000
| 10> H     -0.595889   -3.027411    0.000000
| 11> H      1.108765   -2.324083    0.000000
| 12> H     -1.547581   -0.800215    0.000000
| 13> H      0.621162    2.097450    1.268423
| 14> H      0.283840    0.612320    2.165774
| 15> H     -1.017756    1.447586    1.316867
| 16> H     -1.017756    1.447586   -1.316867
| 17> H      0.621162    2.097450   -1.268423
| 18> H      0.283840    0.612320   -2.165774
| 19> H      1.389834    0.086538    0.000000
| 20> *
| 21>
| 22>                          ****END OF INPUT****

CARTESIAN COORDINATES (ANGSTROEM)
---------------------------------
  C      0.038790   -2.151291    0.000000
  C     -0.466392   -0.924162    0.000000
  C      0.038790    1.174358    1.264341
  C      0.038790    1.174358   -1.264341
  C      0.328419    0.351813    0.000000
  H     -0.595889   -3.027411    0.000000
  H      1.108765   -2.324083    0.000000
  H     -1.547581   -0.800215    0.000000
  H      0.621162    2.097450    1.268423
  H      0.283840    0.612320    2.165774
  H     -1.017756    1.447586    1.316867
  H     -1.017756    1.447586   -1.316867
  H      0.621162    2.097450   -1.268423
  H      0.283840    0.612320   -2.165774
  H      1.389834    0.086538    0.000000

 Total Charge           Charge          ....    0
 Multiplicity           Mult            ....    1
 Number of Electrons    NEL             ....   40
 Basis Dimension        Dim             ....  860

ORBITAL ENERGIES
----------------

  NO   OCC          E(Eh)            E(eV)
   0   2.0000     -11.230250      -305.5906
   1   2.0000     -11.227293      -305.5102
   2   2.0000     -11.215397      -305.1865
   3   2.0000     -11.212207      -305.0997
   4   2.0000     -11.212187      -305.0991
   5   2.0000      -1.097303       -29.8591
   6   2.0000      -1.002866       -27.2894
   7   2.0000      -0.929858       -25.3027
   8   2.0000      -0.826755       -22.4972
   9   2.0000      -0.750465       -20.4212
  10   2.0000      -0.634442       -17.2640
  11   2.0000      -0.620746       -16.8914
  12   2.0000      -0.582571       -15.8526
  13   2.0000      -0.563452       -15.3323
  14   2.0000      -0.536337       -14.5945
  15   2.0000      -0.533265       -14.5109
  16   2.0000      -0.483818       -13.1654
  17   2.0000      -0.472470       -12.8566
  18   2.0000      -0.464376       -12.6363
  19   2.0000      -0.359685        -9.7875
  20   0.0000       0.027539         0.7494
  21   0.0000       0.031513         0.8575
  22   0.0000       0.033430         0.9097
  23   0.0000       0.035705         0.9716
  24   0.0000       0.048464         1.3188

MULLIKEN ATOMIC CHARGES
-----------------------
   0 C :   -0.866145
   1 C :   -0.372777
   2 C :   -0.910343
   3 C :   -0.910343
   4 C :    0.248596
   5 H :    0.347157
   6 H :    0.260848
   7 H :    0.366251
   8 H :    0.252488
   9 H :    0.293156
  10 H :    0.215274
  11 H :    0.215274
  12 H :    0.252488
  13 H :    0.293156
  14 H :    0.314921
Sum of atomic charges:    0.0000000

LOEWDIN ATOMIC CHARGES
----------------------
   0 C :    0.807330
   1 C :    0.332285
   2 C :    0.912721
   3 C :    0.912721
   4 C :    0.045938
   5 H :   -0.356372
   6 H :   -0.350841
   7 H :   -0.317313
   8 H :   -0.280291
   9 H :   -0.276632
  10 H :   -0.282038
  11 H :   -0.282038
  12 H :   -0.280291
  13 H :   -0.276632
  14 H :   -0.308550

  Mayer bond orders larger than 0.100000
B(  0-C ,  1-C ) :   1.7110 B(  0-C ,  4-C ) :  -0.1306 B(  0-C ,  5-H ) :   0.9787
B(  0-C ,  6-H ) :   0.9873 B(  1-C ,  4-C ) :   0.6965 B(  1-C ,  5-H ) :  -0.1027
B(  1-C ,  7-H ) :   0.8671 B(  2-C ,  4-C ) :   0.8011 B(  2-C ,  8-H ) :   0.9909
B(  2-C ,  9-H ) :   0.9548 B(  2-C , 10-H ) :   0.9593 B(  3-C ,  4-C ) :   0.8011
B(  3-C , 11-H ) :   0.9593 B(  3-C , 12-H ) :   0.9909 B(  3-C , 13-H ) :   0.9548
B(  4-C , 14-H ) :   0.8492

MP2 TOTAL ENERGY:     -196.143500536 Eh
FINAL SINGLE POINT ENERGY      -196.143500536083

DIPOLE MOMENT
-------------
                                X             Y             Z
Electronic contribution:     -0.10245      -2.26031      -0.00000
Nuclear contribution   :      0.13884       2.40953      -0.00000
                        -----------------------------------------
Total Dipole Moment    :      0.03639       0.14922      -0.00000
                        -----------------------------------------
Magnitude (a.u.)       :      0.15359
Magnitude (Debye)      :      0.39040

Rotational constants in cm-1:     0.251245     0.118279     0.091309
Rotational constants in MHz :  7532.141939  3545.903633  2737.386713

                             ****ORCA TERMINATED NORMALLY****
TOTAL RUN TIME: 0 days 0 hours 25 minutes 5 seconds 201 msec
