                         Program Version 5.0.4 -  RELEASE  -
|  1> !ri-mp2 aug-cc-pvqz aug-cc-pvqz/c tightscf
|  2> %pal nprocs 16 end
|  3>
|  4> * xyz 0 1
|  5> S     -1.154148   -0.066919   -0.130433
|  6> O      0.068806   -1.262764    0.214972
|  7> N     -0.111862    1.263970    0.119104
|  8> C      1.205240    0.713893   -0.140345
|  9> C      1.248577   -0.612642   -0.043800
| 10> H      2.033948    1.375479   -0.327363
| 11> H     -0.169651    1.597164    1.080067
| 12> H      2.111755   -1.255125   -0.114406
| 13> *
| 14>
| 15>                          ****END OF INPUT****

CARTESIAN COORDINATES (ANGSTROEM)
---------------------------------
  S     -1.154148   -0.066919   -0.130433
  O      0.068806   -1.262764    0.214972
  N     -0.111862    1.263970    0.119104
  C      1.205240    0.713893   -0.140345
  C      1.248577   -0.612642   -0.043800
  H      2.033948    1.375479   -0.327363
  H     -0.169651    1.597164    1.080067
  H      2.111755   -1.255125   -0.114406

 Total Charge           Charge          ....    0
 Multiplicity           Mult            ....    1
 Number of Electrons    NEL             ....   46
 Basis Dimension        Dim             ....  542

ORBITAL ENERGIES
----------------

  NO   OCC          E(Eh)            E(eV)
   0   2.0000     -92.033590     -2504.3613
   1   2.0000     -20.607256      -560.7520
   2   2.0000     -15.605760      -424.6543
   3   2.0000     -11.305296      -307.6327
   4   2.0000     -11.270568      -306.6878
   5   2.0000      -9.026673      -245.6282
   6   2.0000      -6.707733      -182.5267
   7   2.0000      -6.706571      -182.4951
   8   2.0000      -6.704804      -182.4470
   9   2.0000      -1.415457       -38.5166
  10   2.0000      -1.232900       -33.5489
  11   2.0000      -1.030988       -28.0546
  12   2.0000      -0.891476       -24.2583
  13   2.0000      -0.806420       -21.9438
  14   2.0000      -0.719946       -19.5907
  15   2.0000      -0.679768       -18.4974
  16   2.0000      -0.611890       -16.6504
  17   2.0000      -0.598495       -16.2859
  18   2.0000      -0.565012       -15.3748
  19   2.0000      -0.516142       -14.0449
  20   2.0000      -0.478509       -13.0209
  21   2.0000      -0.385973       -10.5029
  22   2.0000      -0.329306        -8.9609
  23   0.0000       0.024593         0.6692
  24   0.0000       0.033229         0.9042
  25   0.0000       0.038156         1.0383
  26   0.0000       0.054110         1.4724
  27   0.0000       0.064347         1.7510

MULLIKEN ATOMIC CHARGES
-----------------------
   0 S :    0.547883
   1 O :   -0.768865
   2 N :   -0.592067
   3 C :   -0.470003
   4 C :   -0.000257
   5 H :    0.462788
   6 H :    0.269672
   7 H :    0.550850
Sum of atomic charges:    0.0000000

LOEWDIN ATOMIC CHARGES
----------------------
   0 S :    0.841716
   1 O :    0.367049
   2 N :    0.379864
   3 C :    0.015924
   4 C :   -0.235689
   5 H :   -0.351007
   6 H :   -0.649951
   7 H :   -0.367906

  Mayer bond orders larger than 0.100000
B(  0-S ,  1-O ) :   0.7235 B(  0-S ,  2-N ) :   0.9820 B(  1-O ,  3-C ) :   0.1572
B(  1-O ,  4-C ) :   0.7923 B(  2-N ,  3-C ) :   0.8959 B(  2-N ,  6-H ) :   0.8984
B(  3-C ,  4-C ) :   1.8221 B(  3-C ,  5-H ) :   0.8091 B(  4-C ,  7-H ) :   0.6855

MP2 TOTAL ENERGY:     -605.353712872 Eh
FINAL SINGLE POINT ENERGY      -605.353712871508

DIPOLE MOMENT
-------------
                                X             Y             Z
Electronic contribution:     -3.28180      -1.27567      -0.28200
Nuclear contribution   :      3.88960       1.65498       0.62668
                        -----------------------------------------
Total Dipole Moment    :      0.60780       0.37930       0.34467
                        -----------------------------------------
Magnitude (a.u.)       :      0.79504
Magnitude (Debye)      :      2.02084

Rotational constants in cm-1:     0.248936     0.185970     0.110624
Rotational constants in MHz :  7462.919529  5575.228625  3316.428262

                             ****ORCA TERMINATED NORMALLY****
TOTAL RUN TIME: 0 days 0 hours 8 minutes 2 seconds 644 msec
