                         Program Version 5.0.4 -  RELEASE  -
|  1> !ri-mp2 aug-cc-pvqz aug-cc-pvqz/c tightscf
|  2> %pal nprocs 16 end
|  3> %maxcore 3800
|  4>
|  5> * xyz 0 1
|  6> C      0.135051   -1.341137   -0.005889
|  7> C     -1.264169    0.607942    0.005249
|  8> C      1.139570    0.840940   -0.006939
|  9> C     -1.138604   -0.783210    0.001330
| 10> C      1.282088   -0.540466   -0.008323
| 11> C     -0.131706    1.410882    0.000566
| 12> C     -2.369752   -1.651925    0.000466
| 13> C      2.650233   -1.171347    0.006646
| 14> O     -0.202773    2.778770    0.000841
| 15> H      0.240904   -2.419111   -0.011504
| 16> H     -2.248573    1.063933    0.008732
| 17> H      2.003339    1.491882   -0.012720
| 18> H     -2.995986   -1.450770    0.871977
| 19> H     -2.981562   -1.469036   -0.885355
| 20> H     -2.107933   -2.708818    0.013301
| 21> H      3.426357   -0.446250   -0.234263
| 22> H      2.878024   -1.585952    0.991583
| 23> H      2.715992   -1.990403   -0.710787
| 24> H     -1.124645    3.054300    0.003665
| 25> *
| 26>
| 27>                          ****END OF INPUT****

CARTESIAN COORDINATES (ANGSTROEM)
---------------------------------
  C      0.135051   -1.341137   -0.005889
  C     -1.264169    0.607942    0.005249
  C      1.139570    0.840940   -0.006939
  C     -1.138604   -0.783210    0.001330
  C      1.282088   -0.540466   -0.008323
  C     -0.131706    1.410882    0.000566
  C     -2.369752   -1.651925    0.000466
  C      2.650233   -1.171347    0.006646
  O     -0.202773    2.778770    0.000841
  H      0.240904   -2.419111   -0.011504
  H     -2.248573    1.063933    0.008732
  H      2.003339    1.491882   -0.012720
  H     -2.995986   -1.450770    0.871977
  H     -2.981562   -1.469036   -0.885355
  H     -2.107933   -2.708818    0.013301
  H      3.426357   -0.446250   -0.234263
  H      2.878024   -1.585952    0.991583
  H      2.715992   -1.990403   -0.710787
  H     -1.124645    3.054300    0.003665

 Total Charge           Charge          ....    0
 Multiplicity           Mult            ....    1
 Number of Electrons    NEL             ....   66
 Basis Dimension        Dim             .... 1180

ORBITAL ENERGIES
----------------

  NO   OCC          E(Eh)            E(eV)
   0   2.0000     -20.584856      -560.1424
   1   2.0000     -11.298145      -307.4382
   2   2.0000     -11.244749      -305.9852
   3   2.0000     -11.242849      -305.9335
   4   2.0000     -11.223621      -305.4103
   5   2.0000     -11.220913      -305.3366
   6   2.0000     -11.219480      -305.2976
   7   2.0000     -11.214539      -305.1631
   8   2.0000     -11.212694      -305.1129
   9   2.0000      -1.400538       -38.1106
  10   2.0000      -1.152696       -31.3664
  11   2.0000      -1.058698       -28.8086
  12   2.0000      -1.018781       -27.7224
  13   2.0000      -0.938920       -25.5493
  14   2.0000      -0.934182       -25.4204
  15   2.0000      -0.821871       -22.3642
  16   2.0000      -0.791729       -21.5440
  17   2.0000      -0.711222       -19.3533
  18   2.0000      -0.678481       -18.4624
  19   2.0000      -0.653037       -17.7700
  20   2.0000      -0.594182       -16.1685
  21   2.0000      -0.588633       -16.0175
  22   2.0000      -0.572970       -15.5913
  23   2.0000      -0.571260       -15.5448
  24   2.0000      -0.569045       -15.4845
  25   2.0000      -0.564109       -15.3502
  26   2.0000      -0.551428       -15.0051
  27   2.0000      -0.520466       -14.1626
  28   2.0000      -0.500301       -13.6139
  29   2.0000      -0.480713       -13.0809
  30   2.0000      -0.459565       -12.5054
  31   2.0000      -0.324703        -8.8356
  32   2.0000      -0.309361        -8.4181
  33   0.0000       0.023187         0.6309
  34   0.0000       0.027427         0.7463
  35   0.0000       0.030203         0.8219
  36   0.0000       0.039208         1.0669
  37   0.0000       0.040552         1.1035

MULLIKEN ATOMIC CHARGES
-----------------------
   0 C :   -0.387039
   1 C :   -0.750755
   2 C :   -0.808143
   3 C :    0.423070
   4 C :    0.243475
   5 C :    1.187226
   6 C :   -0.853127
   7 C :   -0.851100
   8 O :   -0.852341
   9 H :    0.257693
  10 H :    0.268271
  11 H :    0.342935
  12 H :    0.223276
  13 H :    0.230682
  14 H :    0.237198
  15 H :    0.244185
  16 H :    0.262414
  17 H :    0.221210
  18 H :    0.360870
Sum of atomic charges:   -0.0000000

LOEWDIN ATOMIC CHARGES
----------------------
   0 C :    0.345516
   1 C :    0.333979
   2 C :    0.330243
   3 C :   -0.076933
   4 C :   -0.076402
   5 C :   -0.419776
   6 C :    0.910073
   7 C :    0.911002
   8 O :    1.275794
   9 H :   -0.326071
  10 H :   -0.322300
  11 H :   -0.329245
  12 H :   -0.283211
  13 H :   -0.282304
  14 H :   -0.309096
  15 H :   -0.305984
  16 H :   -0.277963
  17 H :   -0.289686
  18 H :   -0.807633

  Mayer bond orders larger than 0.100000
B(  0-C ,  3-C ) :   1.0602 B(  0-C ,  4-C ) :   1.0416 B(  0-C ,  6-C ) :  -0.1086
B(  0-C ,  7-C ) :  -0.1862 B(  0-C ,  9-H ) :   0.9679 B(  1-C ,  2-C ) :   0.1355
B(  1-C ,  3-C ) :   0.9465 B(  1-C ,  5-C ) :   1.4723 B(  1-C ,  6-C ) :  -0.1746
B(  1-C ,  8-O ) :   0.2773 B(  1-C , 10-H ) :   0.9525 B(  2-C ,  4-C ) :   1.0006
B(  2-C ,  5-C ) :   1.5944 B(  2-C ,  7-C ) :  -0.1402 B(  2-C ,  8-O ) :   0.3676
B(  2-C , 11-H ) :   0.8660 B(  3-C ,  4-C ) :  -0.4517 B(  3-C ,  5-C ) :  -0.3522
B(  3-C ,  6-C ) :   0.7972 B(  3-C , 13-H ) :  -0.1015 B(  4-C ,  5-C ) :  -0.4769
B(  4-C ,  7-C ) :   0.8789 B(  5-C ,  8-O ) :  -0.2149 B(  5-C , 18-H ) :  -0.1218
B(  6-C , 12-H ) :   1.0223 B(  6-C , 13-H ) :   1.0238 B(  6-C , 14-H ) :   1.0307
B(  7-C , 15-H ) :   1.0328 B(  7-C , 16-H ) :   0.9709 B(  7-C , 17-H ) :   1.0367
B(  8-O , 18-H ) :   0.8980

MP2 TOTAL ENERGY:     -385.443991361 Eh
FINAL SINGLE POINT ENERGY      -385.443991361059

DIPOLE MOMENT
-------------
                                X             Y             Z
Electronic contribution:     -0.29645       6.20803      -0.02507
Nuclear contribution   :     -0.20016      -6.51022       0.03515
                        -----------------------------------------
Total Dipole Moment    :     -0.49661      -0.30218       0.01008
                        -----------------------------------------
Magnitude (a.u.)       :      0.58141
Magnitude (Debye)      :      1.47783

Rotational constants in cm-1:     0.059788     0.058789     0.029970
Rotational constants in MHz :  1792.387066  1762.437079   898.487115

                             ****ORCA TERMINATED NORMALLY****
TOTAL RUN TIME: 0 days 1 hours 20 minutes 31 seconds 82 msec
