                         Program Version 5.0.4 -  RELEASE  -
|  1> !ri-mp2 aug-cc-pvqz aug-cc-pvqz/c tightscf
|  2> %pal nprocs 16 end
|  3>
|  4> * xyz 0 1
|  5> S    -1.222640    1.296701    0.169140
|  6> S    -2.161882   -0.546051   -0.275063
|  7> N     2.326633    2.291015   -0.116594
|  8> N     2.731829   -2.027823   -0.080487
|  9> C     0.395120    0.601936    0.030052
| 10> C     0.511175   -0.743969    0.062000
| 11> C    -0.745707   -1.549818    0.310030
| 12> C     1.476896    1.515274   -0.054572
| 13> C     1.752199   -1.421097   -0.020140
| 14> H    -0.759980   -2.475318   -0.261951
| 15> H    -0.835001   -1.791373    1.372058
| 16> *
| 17>
| 18>                          ****END OF INPUT****

CARTESIAN COORDINATES (ANGSTROEM)
---------------------------------
  S     -1.222640    1.296701    0.169140
  S     -2.161882   -0.546051   -0.275063
  N      2.326633    2.291015   -0.116594
  N      2.731829   -2.027823   -0.080487
  C      0.395120    0.601936    0.030052
  C      0.511175   -0.743969    0.062000
  C     -0.745707   -1.549818    0.310030
  C      1.476896    1.515274   -0.054572
  C      1.752199   -1.421097   -0.020140
  H     -0.759980   -2.475318   -0.261951
  H     -0.835001   -1.791373    1.372058

 Total Charge           Charge          ....    0
 Multiplicity           Mult            ....    1
 Number of Electrons    NEL             ....   78
 Basis Dimension        Dim             ....  820

ORBITAL ENERGIES
----------------

  NO   OCC          E(Eh)            E(eV)
   0   2.0000     -92.037088     -2504.4565
   1   2.0000     -92.023397     -2504.0839
   2   2.0000     -15.613298      -424.8594
   3   2.0000     -15.606540      -424.6755
   4   2.0000     -11.369040      -309.3673
   5   2.0000     -11.344244      -308.6926
   6   2.0000     -11.328867      -308.2741
   7   2.0000     -11.311759      -307.8086
   8   2.0000     -11.306262      -307.6590
   9   2.0000      -9.036624      -245.8990
  10   2.0000      -9.023005      -245.5285
  11   2.0000      -6.717646      -182.7964
  12   2.0000      -6.716799      -182.7734
  13   2.0000      -6.715472      -182.7373
  14   2.0000      -6.704094      -182.4277
  15   2.0000      -6.703102      -182.4007
  16   2.0000      -6.701814      -182.3656
  17   2.0000      -1.269159       -34.5356
  18   2.0000      -1.253719       -34.1154
  19   2.0000      -1.208406       -32.8824
  20   2.0000      -1.075699       -29.2713
  21   2.0000      -1.064436       -28.9648
  22   2.0000      -0.904450       -24.6113
  23   2.0000      -0.872209       -23.7340
  24   2.0000      -0.819652       -22.3039
  25   2.0000      -0.679356       -18.4862
  26   2.0000      -0.656248       -17.8574
  27   2.0000      -0.622199       -16.9309
  28   2.0000      -0.596396       -16.2288
  29   2.0000      -0.583877       -15.8881
  30   2.0000      -0.578125       -15.7316
  31   2.0000      -0.547469       -14.8974
  32   2.0000      -0.522441       -14.2164
  33   2.0000      -0.509271       -13.8580
  34   2.0000      -0.501603       -13.6493
  35   2.0000      -0.491815       -13.3830
  36   2.0000      -0.480256       -13.0684
  37   2.0000      -0.412397       -11.2219
  38   2.0000      -0.353892        -9.6299
  39   0.0000       0.011579         0.3151
  40   0.0000       0.018106         0.4927
  41   0.0000       0.030517         0.8304
  42   0.0000       0.036995         1.0067
  43   0.0000       0.039288         1.0691

MULLIKEN ATOMIC CHARGES
-----------------------
   0 S :    0.004757
   1 S :   -0.077981
   2 N :   -0.660432
   3 N :   -0.715979
   4 C :   -0.164713
   5 C :    0.103815
   6 C :   -0.318532
   7 C :    0.604986
   8 C :    0.668823
   9 H :    0.272036
  10 H :    0.283220
Sum of atomic charges:    0.0000000

LOEWDIN ATOMIC CHARGES
----------------------
   0 S :    0.859021
   1 S :    0.863711
   2 N :    0.435986
   3 N :    0.446411
   4 C :   -0.751508
   5 C :   -0.405749
   6 C :    0.031356
   7 C :   -0.431522
   8 C :   -0.322929
   9 H :   -0.376110
  10 H :   -0.348666

  Mayer bond orders larger than 0.100000
B(  0-S ,  1-S ) :   1.0975 B(  0-S ,  4-C ) :   0.8484 B(  0-S ,  5-C ) :  -0.1371
B(  1-S ,  5-C ) :  -0.1068 B(  1-S ,  6-C ) :   0.9194 B(  2-N ,  7-C ) :   2.3418
B(  3-N ,  8-C ) :   2.3121 B(  4-C ,  5-C ) :   1.1747 B(  4-C ,  6-C ) :  -0.1541
B(  4-C ,  7-C ) :   1.3593 B(  4-C ,  8-C ) :  -0.1119 B(  5-C ,  6-C ) :   0.7401
B(  5-C ,  7-C ) :  -0.1431 B(  5-C ,  8-C ) :   1.3191 B(  6-C ,  9-H ) :   0.9298
B(  6-C , 10-H ) :   0.8794

MP2 TOTAL ENERGY:    -1096.170688528 Eh
FINAL SINGLE POINT ENERGY     -1096.170688527570

DIPOLE MOMENT
-------------
                                X             Y             Z
Electronic contribution:     -0.49699       3.39080      -0.74150
Nuclear contribution   :     -1.38776      -4.07375       1.05657
                        -----------------------------------------
Total Dipole Moment    :     -1.88475      -0.68295       0.31507
                        -----------------------------------------
Magnitude (a.u.)       :      2.02928
Magnitude (Debye)      :      5.15802

Rotational constants in cm-1:     0.055761     0.036563     0.022485
Rotational constants in MHz :  1671.670960  1096.136023   674.079027

                             ****ORCA TERMINATED NORMALLY****
TOTAL RUN TIME: 0 days 0 hours 29 minutes 10 seconds 690 msec
