                         Program Version 5.0.4 -  RELEASE  -
|  1> !ri-mp2 aug-cc-pvqz aug-cc-pvqz/c tightscf
|  2> %pal nprocs 16 end
|  3>
|  4> * xyz 0 1
|  5> N      1.003702   -1.321515   -0.000044
|  6> C     -0.274008   -1.255389    0.000230
|  7> C     -1.057493    0.010593    0.000105
|  8> C     -0.250299    1.293437    0.000138
|  9> C      1.227716    1.089202    0.000005
| 10> C      1.758426   -0.135993   -0.000177
| 11> O     -2.271435   -0.003688   -0.000258
| 12> H     -0.853456   -2.175087    0.000425
| 13> H     -0.562854    1.887548   -0.865857
| 14> H      1.870338    1.960254    0.000050
| 15> H      2.828067   -0.291154   -0.000357
| 16> H     -0.562581    1.887450    0.866314
| 17> *
| 18>
| 19>                          ****END OF INPUT****

CARTESIAN COORDINATES (ANGSTROEM)
---------------------------------
  N      1.003702   -1.321515   -0.000044
  C     -0.274008   -1.255389    0.000230
  C     -1.057493    0.010593    0.000105
  C     -0.250299    1.293437    0.000138
  C      1.227716    1.089202    0.000005
  C      1.758426   -0.135993   -0.000177
  O     -2.271435   -0.003688   -0.000258
  H     -0.853456   -2.175087    0.000425
  H     -0.562854    1.887548   -0.865857
  H      1.870338    1.960254    0.000050
  H      2.828067   -0.291154   -0.000357
  H     -0.562581    1.887450    0.866314

 Total Charge           Charge          ....    0
 Multiplicity           Mult            ....    1
 Number of Electrons    NEL             ....   50
 Basis Dimension        Dim             ....  790

ORBITAL ENERGIES
----------------

  NO   OCC          E(Eh)            E(eV)
   0   2.0000     -20.565478      -559.6151
   1   2.0000     -15.597663      -424.4340
   2   2.0000     -11.350600      -308.8655
   3   2.0000     -11.297281      -307.4146
   4   2.0000     -11.275300      -306.8165
   5   2.0000     -11.262739      -306.4747
   6   2.0000     -11.260255      -306.4071
   7   2.0000      -1.406188       -38.2643
   8   2.0000      -1.273268       -34.6474
   9   2.0000      -1.094541       -29.7840
  10   2.0000      -1.019206       -27.7340
  11   2.0000      -0.895674       -24.3725
  12   2.0000      -0.840665       -22.8757
  13   2.0000      -0.726273       -19.7629
  14   2.0000      -0.695106       -18.9148
  15   2.0000      -0.674810       -18.3625
  16   2.0000      -0.638186       -17.3659
  17   2.0000      -0.623587       -16.9687
  18   2.0000      -0.590221       -16.0607
  19   2.0000      -0.546648       -14.8751
  20   2.0000      -0.533675       -14.5220
  21   2.0000      -0.505842       -13.7646
  22   2.0000      -0.489341       -13.3157
  23   2.0000      -0.408699       -11.1213
  24   2.0000      -0.355169        -9.6646
  25   0.0000       0.020400         0.5551
  26   0.0000       0.031656         0.8614
  27   0.0000       0.033806         0.9199
  28   0.0000       0.037269         1.0141
  29   0.0000       0.037601         1.0232

MULLIKEN ATOMIC CHARGES
-----------------------
   0 N :   -0.533519
   1 C :   -0.297022
   2 C :    0.872512
   3 C :   -0.317070
   4 C :   -0.323232
   5 C :   -0.417552
   6 O :   -0.784271
   7 H :    0.521548
   8 H :    0.231860
   9 H :    0.357930
  10 H :    0.456861
  11 H :    0.231955
Sum of atomic charges:   -0.0000000

LOEWDIN ATOMIC CHARGES
----------------------
   0 N :    0.586180
   1 C :    0.078995
   2 C :   -0.670492
   3 C :    0.441663
   4 C :    0.363091
   5 C :    0.111623
   6 O :    0.719992
   7 H :   -0.370776
   8 H :   -0.289372
   9 H :   -0.313541
  10 H :   -0.368019
  11 H :   -0.289343

  Mayer bond orders larger than 0.100000
B(  0-N ,  1-C ) :   1.5209 B(  0-N ,  5-C ) :   1.0191 B(  1-C ,  2-C ) :   1.0482
B(  1-C ,  6-O ) :   0.2159 B(  1-C ,  7-H ) :   0.7557 B(  2-C ,  3-C ) :   0.9743
B(  2-C ,  6-O ) :   1.1308 B(  3-C ,  4-C ) :   0.8360 B(  3-C ,  5-C ) :  -0.1028
B(  3-C ,  6-O ) :   0.1548 B(  3-C ,  8-H ) :   0.9032 B(  3-C , 11-H ) :   0.9031
B(  4-C ,  5-C ) :   1.5651 B(  4-C ,  9-H ) :   0.9072 B(  5-C , 10-H ) :   0.8622

MP2 TOTAL ENERGY:     -322.953350376 Eh
FINAL SINGLE POINT ENERGY      -322.953350376278

DIPOLE MOMENT
-------------
                                X             Y             Z
Electronic contribution:     -1.82175      -2.41343      -0.00014
Nuclear contribution   :      2.65574       3.22014       0.00056
                        -----------------------------------------
Total Dipole Moment    :      0.83399       0.80670       0.00042
                        -----------------------------------------
Magnitude (a.u.)       :      1.16031
Magnitude (Debye)      :      2.94927

Rotational constants in cm-1:     0.177096     0.092898     0.061608
Rotational constants in MHz :  5309.214838  2785.011688  1846.953240

                             ****ORCA TERMINATED NORMALLY****
TOTAL RUN TIME: 0 days 0 hours 20 minutes 13 seconds 786 msec
