                         Program Version 5.0.4 -  RELEASE  -
|  1> !ri-mp2 aug-cc-pvqz aug-cc-pvqz/c tightscf
|  2> %pal nprocs 16 end
|  3>
|  4> * xyz 0 1
|  5> C      1.635229    1.169984    0.080429
|  6> C      0.276934    1.186693   -0.201516
|  7> C      2.267258   -0.057658    0.237114
|  8> C      0.324908   -1.186647   -0.148460
|  9> C     -0.416052   -0.015986   -0.320449
| 10> C     -2.745423    0.061771    0.682967
| 11> C     -1.897892   -0.062347   -0.591011
| 12> N      1.628799   -1.222087    0.123692
| 13> H      2.197669    2.088931    0.173539
| 14> H     -0.242156    2.128401   -0.334054
| 15> H      3.327219   -0.108700    0.457919
| 16> H     -0.166546   -2.150313   -0.242291
| 17> H     -2.523086   -0.747211    1.379701
| 18> H     -3.809451    0.022818    0.446195
| 19> H     -2.548064    1.004033    1.195978
| 20> H     -2.164854    0.740982   -1.281320
| 21> H     -2.142103   -0.999187   -1.095962
| 22> *
| 23>
| 24>                          ****END OF INPUT****

CARTESIAN COORDINATES (ANGSTROEM)
---------------------------------
  C      1.635229    1.169984    0.080429
  C      0.276934    1.186693   -0.201516
  C      2.267258   -0.057658    0.237114
  C      0.324908   -1.186647   -0.148460
  C     -0.416052   -0.015986   -0.320449
  C     -2.745423    0.061771    0.682967
  C     -1.897892   -0.062347   -0.591011
  N      1.628799   -1.222087    0.123692
  H      2.197669    2.088931    0.173539
  H     -0.242156    2.128401   -0.334054
  H      3.327219   -0.108700    0.457919
  H     -0.166546   -2.150313   -0.242291
  H     -2.523086   -0.747211    1.379701
  H     -3.809451    0.022818    0.446195
  H     -2.548064    1.004033    1.195978
  H     -2.164854    0.740982   -1.281320
  H     -2.142103   -0.999187   -1.095962

 Total Charge           Charge          ....    0
 Multiplicity           Mult            ....    1
 Number of Electrons    NEL             ....   58
 Basis Dimension        Dim             .... 1054

ORBITAL ENERGIES
----------------

  NO   OCC          E(Eh)            E(eV)
   0   2.0000     -15.559694      -423.4008
   1   2.0000     -11.266267      -306.5707
   2   2.0000     -11.265783      -306.5575
   3   2.0000     -11.250711      -306.1474
   4   2.0000     -11.242053      -305.9118
   5   2.0000     -11.237028      -305.7751
   6   2.0000     -11.235439      -305.7318
   7   2.0000     -11.221380      -305.3493
   8   2.0000      -1.255869       -34.1739
   9   2.0000      -1.106630       -30.1129
  10   2.0000      -1.055985       -28.7348
  11   2.0000      -0.998763       -27.1777
  12   2.0000      -0.881256       -23.9802
  13   2.0000      -0.857835       -23.3429
  14   2.0000      -0.811504       -22.0821
  15   2.0000      -0.709327       -19.3018
  16   2.0000      -0.673734       -18.3332
  17   2.0000      -0.639300       -17.3962
  18   2.0000      -0.602903       -16.4058
  19   2.0000      -0.595916       -16.2157
  20   2.0000      -0.570586       -15.5264
  21   2.0000      -0.558715       -15.2034
  22   2.0000      -0.538057       -14.6413
  23   2.0000      -0.515045       -14.0151
  24   2.0000      -0.502595       -13.6763
  25   2.0000      -0.490597       -13.3498
  26   2.0000      -0.411628       -11.2010
  27   2.0000      -0.377380       -10.2690
  28   2.0000      -0.336008        -9.1432
  29   0.0000       0.022942         0.6243
  30   0.0000       0.027261         0.7418
  31   0.0000       0.032601         0.8871
  32   0.0000       0.035749         0.9728
  33   0.0000       0.041402         1.1266

MULLIKEN ATOMIC CHARGES
-----------------------
   0 C :   -0.324122
   1 C :   -0.438735
   2 C :   -0.403433
   3 C :   -0.217648
   4 C :    0.459013
   5 C :   -0.898403
   6 C :   -0.241147
   7 N :   -0.723791
   8 H :    0.286752
   9 H :    0.306475
  10 H :    0.500531
  11 H :    0.453373
  12 H :    0.244405
  13 H :    0.333938
  14 H :    0.235251
  15 H :    0.217387
  16 H :    0.210154
Sum of atomic charges:    0.0000000

LOEWDIN ATOMIC CHARGES
----------------------
   0 C :    0.339801
   1 C :    0.338480
   2 C :    0.072181
   3 C :    0.085260
   4 C :   -0.090405
   5 C :    0.933156
   6 C :    0.483098
   7 N :    0.598242
   8 H :   -0.327322
   9 H :   -0.304142
  10 H :   -0.354754
  11 H :   -0.344471
  12 H :   -0.281805
  13 H :   -0.281026
  14 H :   -0.284277
  15 H :   -0.287280
  16 H :   -0.294735

  Mayer bond orders larger than 0.100000
B(  0-C ,  1-C ) :   1.2814 B(  0-C ,  2-C ) :   1.2682 B(  0-C ,  3-C ) :   0.1217
B(  0-C ,  4-C ) :  -0.2561 B(  0-C ,  8-H ) :   1.0481 B(  1-C ,  4-C ) :   0.9047
B(  1-C ,  8-H ) :  -0.1271 B(  1-C ,  9-H ) :   0.9545 B(  2-C ,  7-N ) :   1.3062
B(  2-C , 10-H ) :   0.8199 B(  3-C ,  4-C ) :   1.2331 B(  3-C ,  6-C ) :  -0.1504
B(  3-C ,  7-N ) :   1.1461 B(  3-C , 11-H ) :   0.8455 B(  4-C ,  6-C ) :   0.6362
B(  5-C ,  6-C ) :   1.0089 B(  5-C , 12-H ) :   0.9415 B(  5-C , 13-H ) :   0.9231
B(  5-C , 14-H ) :   0.9428 B(  6-C , 15-H ) :   0.9696 B(  6-C , 16-H ) :   0.9873
B(  7-N , 11-H ) :  -0.1195

MP2 TOTAL ENERGY:     -326.324396209 Eh
FINAL SINGLE POINT ENERGY      -326.324396209237

DIPOLE MOMENT
-------------
                                X             Y             Z
Electronic contribution:      7.56209      -1.23182      -0.82535
Nuclear contribution   :     -8.19514       2.00520       0.71202
                        -----------------------------------------
Total Dipole Moment    :     -0.63305       0.77339      -0.11334
                        -----------------------------------------
Magnitude (a.u.)       :      1.00585
Magnitude (Debye)      :      2.55666

Rotational constants in cm-1:     0.156684     0.049410     0.041156
Rotational constants in MHz :  4697.280952  1481.277675  1233.811233

                             ****ORCA TERMINATED NORMALLY****
TOTAL RUN TIME: 0 days 0 hours 44 minutes 15 seconds 524 msec
