                         Program Version 5.0.4 -  RELEASE  -
|  1> !ri-mp2 aug-cc-pvqz aug-cc-pvqz/c tightscf
|  2> %pal nprocs 16 end
|  3>
|  4> * xyz 0 1
|  5> F     -1.495654   -0.534690    0.000025
|  6> C      0.759246    0.134886   -0.000021
|  7> C     -0.629994    0.562044    0.000074
|  8> C      1.910455   -0.197047   -0.000106
|  9> H      2.928597   -0.497755   -0.000166
| 10> H     -0.852940    1.155263    0.888657
| 11> H     -0.853016    1.155403   -0.888397
| 12> *
| 13>
| 14>                          ****END OF INPUT****

CARTESIAN COORDINATES (ANGSTROEM)
---------------------------------
  F     -1.495654   -0.534690    0.000025
  C      0.759246    0.134886   -0.000021
  C     -0.629994    0.562044    0.000074
  C      1.910455   -0.197047   -0.000106
  H      2.928597   -0.497755   -0.000166
  H     -0.852940    1.155263    0.888657
  H     -0.853016    1.155403   -0.888397

 Total Charge           Charge          ....    0
 Multiplicity           Mult            ....    1
 Number of Electrons    NEL             ....   30
 Basis Dimension        Dim             ....  458

ORBITAL ENERGIES
----------------

  NO   OCC          E(Eh)            E(eV)
   0   2.0000     -26.287464      -715.3183
   1   2.0000     -11.345474      -308.7260
   2   2.0000     -11.248577      -306.0893
   3   2.0000     -11.243751      -305.9580
   4   2.0000      -1.596058       -43.4309
   5   2.0000      -1.073641       -29.2152
   6   2.0000      -0.971402       -26.4332
   7   2.0000      -0.758286       -20.6340
   8   2.0000      -0.715919       -19.4811
   9   2.0000      -0.708105       -19.2685
  10   2.0000      -0.693677       -18.8759
  11   2.0000      -0.580554       -15.7977
  12   2.0000      -0.564301       -15.3554
  13   2.0000      -0.418316       -11.3830
  14   2.0000      -0.407010       -11.0753
  15   0.0000       0.024920         0.6781
  16   0.0000       0.029156         0.7934
  17   0.0000       0.040472         1.1013
  18   0.0000       0.064729         1.7614
  19   0.0000       0.069629         1.8947

MULLIKEN ATOMIC CHARGES
-----------------------
   0 F :   -0.629965
   1 C :   -0.081927
   2 C :    0.372356
   3 C :   -0.789456
   4 H :    0.530496
   5 H :    0.299248
   6 H :    0.299248
Sum of atomic charges:    0.0000000

LOEWDIN ATOMIC CHARGES
----------------------
   0 F :    0.731380
   1 C :    0.052501
   2 C :   -0.134958
   3 C :    0.554361
   4 H :   -0.461193
   5 H :   -0.371045
   6 H :   -0.371045

  Mayer bond orders larger than 0.100000
B(  0-F ,  2-C ) :   0.4595 B(  1-C ,  2-C ) :   0.8479 B(  1-C ,  3-C ) :   2.7532
B(  2-C ,  3-C ) :  -0.1163 B(  2-C ,  5-H ) :   0.9097 B(  2-C ,  6-H ) :   0.9097
B(  3-C ,  4-H ) :   0.7744

MP2 TOTAL ENERGY:     -215.584072007 Eh
FINAL SINGLE POINT ENERGY      -215.584072007123

DIPOLE MOMENT
-------------
                                X             Y             Z
Electronic contribution:     -2.15101      -1.62975      -0.00003
Nuclear contribution   :      2.62008       2.27190       0.00007
                        -----------------------------------------
Total Dipole Moment    :      0.46908       0.64215       0.00003
                        -----------------------------------------
Magnitude (a.u.)       :      0.79523
Magnitude (Debye)      :      2.02130

Rotational constants in cm-1:     1.189279     0.153556     0.139581
Rotational constants in MHz : 35653.678011  4603.492218  4184.531375

                             ****ORCA TERMINATED NORMALLY****
TOTAL RUN TIME: 0 days 0 hours 3 minutes 33 seconds 603 msec
