                         Program Version 5.0.4 -  RELEASE  -
|  1> !ri-mp2 aug-cc-pvqz aug-cc-pvqz/c tightscf
|  2> %pal nprocs 16 end
|  3>
|  4> * xyz 0 1
|  5> F      1.978702    0.162047    1.097252
|  6> F      1.978699    0.162110   -1.097247
|  7> N     -0.935444   -1.145511   -0.000034
|  8> N     -2.145699   -0.572385   -0.000016
|  9> C     -0.086571   -0.124026   -0.000003
| 10> C      1.374341   -0.401214   -0.000013
| 11> C     -0.758309    1.116762    0.000036
| 12> C     -2.090320    0.782498    0.000026
| 13> H     -2.962960   -1.156749   -0.000033
| 14> H      1.588333   -1.468840   -0.000044
| 15> H     -0.328803    2.101756    0.000066
| 16> H     -2.980019    1.387567    0.000046
| 17> *
| 18>
| 19>                          ****END OF INPUT****

CARTESIAN COORDINATES (ANGSTROEM)
---------------------------------
  F      1.978702    0.162047    1.097252
  F      1.978699    0.162110   -1.097247
  N     -0.935444   -1.145511   -0.000034
  N     -2.145699   -0.572385   -0.000016
  C     -0.086571   -0.124026   -0.000003
  C      1.374341   -0.401214   -0.000013
  C     -0.758309    1.116762    0.000036
  C     -2.090320    0.782498    0.000026
  H     -2.962960   -1.156749   -0.000033
  H      1.588333   -1.468840   -0.000044
  H     -0.328803    2.101756    0.000066
  H     -2.980019    1.387567    0.000046

 Total Charge           Charge          ....    0
 Multiplicity           Mult            ....    1
 Number of Electrons    NEL             ....   60
 Basis Dimension        Dim             ....  824

ORBITAL ENERGIES
----------------

  NO   OCC          E(Eh)            E(eV)
   0   2.0000     -26.300396      -715.6702
   1   2.0000     -26.300378      -715.6697
   2   2.0000     -15.657670      -426.0669
   3   2.0000     -15.611444      -424.8090
   4   2.0000     -11.409760      -310.4753
   5   2.0000     -11.294002      -307.3254
   6   2.0000     -11.276783      -306.8569
   7   2.0000     -11.239018      -305.8292
   8   2.0000      -1.648441       -44.8564
   9   2.0000      -1.587259       -43.1915
  10   2.0000      -1.400298       -38.1040
  11   2.0000      -1.134010       -30.8580
  12   2.0000      -1.075834       -29.2749
  13   2.0000      -0.976260       -26.5654
  14   2.0000      -0.848990       -23.1022
  15   2.0000      -0.818539       -22.2736
  16   2.0000      -0.772468       -21.0199
  17   2.0000      -0.753463       -20.5028
  18   2.0000      -0.746045       -20.3009
  19   2.0000      -0.713263       -19.4089
  20   2.0000      -0.659678       -17.9507
  21   2.0000      -0.629054       -17.1174
  22   2.0000      -0.620412       -16.8823
  23   2.0000      -0.619495       -16.8573
  24   2.0000      -0.610319       -16.6076
  25   2.0000      -0.601748       -16.3744
  26   2.0000      -0.531515       -14.4633
  27   2.0000      -0.484922       -13.1954
  28   2.0000      -0.388031       -10.5589
  29   2.0000      -0.366699        -9.9784
  30   0.0000       0.017020         0.4631
  31   0.0000       0.030739         0.8365
  32   0.0000       0.036196         0.9849
  33   0.0000       0.044420         1.2087
  34   0.0000       0.063125         1.7177

MULLIKEN ATOMIC CHARGES
-----------------------
   0 F :   -0.667756
   1 F :   -0.667758
   2 N :   -0.396995
   3 N :   -0.269364
   4 C :    0.047721
   5 C :    1.112683
   6 C :   -0.504799
   7 C :   -0.201137
   8 H :    0.263969
   9 H :    0.371860
  10 H :    0.462585
  11 H :    0.448992
Sum of atomic charges:    0.0000000

LOEWDIN ATOMIC CHARGES
----------------------
   0 F :    0.749316
   1 F :    0.749317
   2 N :    0.490250
   3 N :    0.564798
   4 C :   -0.487484
   5 C :   -1.071147
   6 C :    0.311707
   7 C :    0.204158
   8 H :   -0.474371
   9 H :   -0.419910
  10 H :   -0.319621
  11 H :   -0.297014

  Mayer bond orders larger than 0.100000
B(  0-F ,  5-C ) :   0.4093 B(  1-F ,  5-C ) :   0.4093 B(  2-N ,  3-N ) :   0.7185
B(  2-N ,  4-C ) :   1.2489 B(  3-N ,  7-C ) :   1.1496 B(  3-N ,  8-H ) :   1.0138
B(  4-C ,  5-C ) :   0.8941 B(  4-C ,  6-C ) :   1.0931 B(  4-C ,  7-C ) :  -0.2138
B(  4-C ,  9-H ) :  -0.1282 B(  5-C ,  6-C ) :  -0.1176 B(  5-C ,  9-H ) :   0.8962
B(  6-C ,  7-C ) :   1.5248 B(  6-C , 10-H ) :   0.7953 B(  7-C , 11-H ) :   0.8719

MP2 TOTAL ENERGY:     -463.417729545 Eh
FINAL SINGLE POINT ENERGY      -463.417729545273

DIPOLE MOMENT
-------------
                                X             Y             Z
Electronic contribution:      6.56359      -0.44713      -0.00002
Nuclear contribution   :     -8.21598       0.50911       0.00003
                        -----------------------------------------
Total Dipole Moment    :     -1.65239       0.06198       0.00000
                        -----------------------------------------
Magnitude (a.u.)       :      1.65355
Magnitude (Debye)      :      4.20300

Rotational constants in cm-1:     0.162079     0.045156     0.043691
Rotational constants in MHz :  4859.011473  1353.731820  1309.813369

                             ****ORCA TERMINATED NORMALLY****
TOTAL RUN TIME: 0 days 0 hours 19 minutes 57 seconds 2 msec
