                         Program Version 5.0.4 -  RELEASE  -
|  1> !ri-mp2 aug-cc-pvqz aug-cc-pvqz/c tightscf
|  2> %pal nprocs 16 end
|  3>
|  4> * xyz 0 1
|  5> S      2.388840   -0.228485   -0.065926
|  6> O     -1.264798    1.114379   -0.020009
|  7> O     -2.745689   -0.568829   -0.105351
|  8> N      0.144946    1.180968    0.131545
|  9> C      0.766882   -0.013837    0.054715
| 10> C     -1.610527   -0.229493   -0.016169
| 11> C     -0.337581   -1.036321    0.118536
| 12> H      0.526739    2.051909   -0.206611
| 13> H     -0.336392   -1.568271    1.071151
| 14> H     -0.255164   -1.781153   -0.670150
| 15> *
| 16>
| 17>                          ****END OF INPUT****

CARTESIAN COORDINATES (ANGSTROEM)
---------------------------------
  S      2.388840   -0.228485   -0.065926
  O     -1.264798    1.114379   -0.020009
  O     -2.745689   -0.568829   -0.105351
  N      0.144946    1.180968    0.131545
  C      0.766882   -0.013837    0.054715
  C     -1.610527   -0.229493   -0.016169
  C     -0.337581   -1.036321    0.118536
  H      0.526739    2.051909   -0.206611
  H     -0.336392   -1.568271    1.071151
  H     -0.255164   -1.781153   -0.670150

 Total Charge           Charge          ....    0
 Multiplicity           Mult            ....    1
 Number of Electrons    NEL             ....   60
 Basis Dimension        Dim             ....  702

ORBITAL ENERGIES
----------------

  NO   OCC          E(Eh)            E(eV)
   0   2.0000     -91.934495     -2501.6648
   1   2.0000     -20.678814      -562.6991
   2   2.0000     -20.587241      -560.2073
   3   2.0000     -15.695621      -427.0996
   4   2.0000     -11.425962      -310.9162
   5   2.0000     -11.388238      -309.8897
   6   2.0000     -11.302415      -307.5543
   7   2.0000      -8.938341      -243.2246
   8   2.0000      -6.619912      -180.1370
   9   2.0000      -6.618415      -180.0962
  10   2.0000      -6.617543      -180.0725
  11   2.0000      -1.534131       -41.7458
  12   2.0000      -1.432245       -38.9734
  13   2.0000      -1.245198       -33.8836
  14   2.0000      -1.111611       -30.2485
  15   2.0000      -0.999210       -27.1899
  16   2.0000      -0.883194       -24.0329
  17   2.0000      -0.821632       -22.3577
  18   2.0000      -0.755647       -20.5622
  19   2.0000      -0.731307       -19.8999
  20   2.0000      -0.689679       -18.7671
  21   2.0000      -0.654229       -17.8025
  22   2.0000      -0.631593       -17.1865
  23   2.0000      -0.625463       -17.0197
  24   2.0000      -0.580850       -15.8057
  25   2.0000      -0.553851       -15.0711
  26   2.0000      -0.489833       -13.3290
  27   2.0000      -0.486852       -13.2479
  28   2.0000      -0.366057        -9.9609
  29   2.0000      -0.357924        -9.7396
  30   0.0000       0.021359         0.5812
  31   0.0000       0.030298         0.8245
  32   0.0000       0.034296         0.9332
  33   0.0000       0.049441         1.3454
  34   0.0000       0.058758         1.5989

MULLIKEN ATOMIC CHARGES
-----------------------
   0 S :   -0.075042
   1 O :   -0.607348
   2 O :   -0.742406
   3 N :   -0.145939
   4 C :   -0.024482
   5 C :    1.093390
   6 C :   -0.554537
   7 H :    0.382292
   8 H :    0.348706
   9 H :    0.325367
Sum of atomic charges:    0.0000000

LOEWDIN ATOMIC CHARGES
----------------------
   0 S :    1.065566
   1 O :    0.715640
   2 O :    0.673312
   3 N :    0.445700
   4 C :   -1.073379
   5 C :   -1.052417
   6 C :    0.345297
   7 H :   -0.532169
   8 H :   -0.287385
   9 H :   -0.300164

  Mayer bond orders larger than 0.100000
B(  0-S ,  4-C ) :   1.5249 B(  1-O ,  3-N ) :   0.6897 B(  1-O ,  5-C ) :   0.8429
B(  2-O ,  5-C ) :   1.5055 B(  2-O ,  6-C ) :   0.1420 B(  3-N ,  4-C ) :   1.1793
B(  3-N ,  7-H ) :   0.8295 B(  4-C ,  5-C ) :  -0.1742 B(  4-C ,  6-C ) :   0.9531
B(  5-C ,  6-C ) :   1.1567 B(  6-C ,  8-H ) :   0.8109 B(  6-C ,  9-H ) :   0.8551

MP2 TOTAL ENERGY:     -718.564720750 Eh
FINAL SINGLE POINT ENERGY      -718.564720750241

DIPOLE MOMENT
-------------
                                X             Y             Z
Electronic contribution:      0.29720       1.40786      -0.18174
Nuclear contribution   :     -0.19329      -1.22663       0.18782
                        -----------------------------------------
Total Dipole Moment    :      0.10391       0.18124       0.00608
                        -----------------------------------------
Magnitude (a.u.)       :      0.20900
Magnitude (Debye)      :      0.53123

Rotational constants in cm-1:     0.233788     0.045325     0.038382
Rotational constants in MHz :  7008.787903  1358.813809  1150.662452

                             ****ORCA TERMINATED NORMALLY****
TOTAL RUN TIME: 0 days 0 hours 14 minutes 41 seconds 944 msec
