                         Program Version 5.0.4 -  RELEASE  -
|  1> !ri-mp2 aug-cc-pvqz aug-cc-pvqz/c tightscf
|  2> %pal nprocs 16 end
|  3> %maxcore 3800
|  4>
|  5> * xyz 0 1
|  6> C      0.000000    0.000000    0.065284
|  7> C     -0.000119    1.241984   -0.861684
|  8> C      0.000119   -1.241984   -0.861684
|  9> C      0.000000    2.618031   -0.193199
| 10> C      0.000000   -2.618031   -0.193199
| 11> C      1.255287    0.000120    0.952178
| 12> C     -1.255287   -0.000120    0.952178
| 13> H      0.872906    1.172573   -1.518050
| 14> H     -0.873342    1.172588   -1.517788
| 15> H     -0.872906   -1.172573   -1.518050
| 16> H      0.873342   -1.172588   -1.517788
| 17> H     -0.000193    3.402590   -0.951355
| 18> H      0.000193   -3.402590   -0.951355
| 19> H     -0.880980    2.772125    0.430603
| 20> H      0.881256    2.772164    0.430201
| 21> H      0.880980   -2.772125    0.430603
| 22> H     -0.881256   -2.772164    0.430201
| 23> H     -1.284762   -0.876517    1.599898
| 24> H     -2.165042   -0.000409    0.347245
| 25> H     -1.285140    0.876465    1.599626
| 26> H      1.284762    0.876517    1.599898
| 27> H      2.165042    0.000409    0.347245
| 28> H      1.285140   -0.876465    1.599626
| 29> *
| 30>
| 31>                          ****END OF INPUT****

CARTESIAN COORDINATES (ANGSTROEM)
---------------------------------
  C      0.000000    0.000000    0.065284
  C     -0.000119    1.241984   -0.861684
  C      0.000119   -1.241984   -0.861684
  C      0.000000    2.618031   -0.193199
  C      0.000000   -2.618031   -0.193199
  C      1.255287    0.000120    0.952178
  C     -1.255287   -0.000120    0.952178
  H      0.872906    1.172573   -1.518050
  H     -0.873342    1.172588   -1.517788
  H     -0.872906   -1.172573   -1.518050
  H      0.873342   -1.172588   -1.517788
  H     -0.000193    3.402590   -0.951355
  H      0.000193   -3.402590   -0.951355
  H     -0.880980    2.772125    0.430603
  H      0.881256    2.772164    0.430201
  H      0.880980   -2.772125    0.430603
  H     -0.881256   -2.772164    0.430201
  H     -1.284762   -0.876517    1.599898
  H     -2.165042   -0.000409    0.347245
  H     -1.285140    0.876465    1.599626
  H      1.284762    0.876517    1.599898
  H      2.165042    0.000409    0.347245
  H      1.285140   -0.876465    1.599626

 Total Charge           Charge          ....    0
 Multiplicity           Mult            ....    1
 Number of Electrons    NEL             ....   58
 Basis Dimension        Dim             .... 1296

ORBITAL ENERGIES
----------------

  NO   OCC          E(Eh)            E(eV)
   0   2.0000     -11.227425      -305.5138
   1   2.0000     -11.211672      -305.0851
   2   2.0000     -11.211651      -305.0845
   3   2.0000     -11.206509      -304.9446
   4   2.0000     -11.206508      -304.9446
   5   2.0000     -11.203832      -304.8718
   6   2.0000     -11.203813      -304.8713
   7   2.0000      -1.109506       -30.1912
   8   2.0000      -1.012105       -27.5408
   9   2.0000      -0.973455       -26.4891
  10   2.0000      -0.927199       -25.2304
  11   2.0000      -0.882939       -24.0260
  12   2.0000      -0.816837       -22.2273
  13   2.0000      -0.718808       -19.5598
  14   2.0000      -0.632061       -17.1992
  15   2.0000      -0.627402       -17.0725
  16   2.0000      -0.601350       -16.3636
  17   2.0000      -0.588321       -16.0090
  18   2.0000      -0.549889       -14.9632
  19   2.0000      -0.548120       -14.9151
  20   2.0000      -0.533239       -14.5102
  21   2.0000      -0.523251       -14.2384
  22   2.0000      -0.517495       -14.0817
  23   2.0000      -0.491792       -13.3823
  24   2.0000      -0.487924       -13.2771
  25   2.0000      -0.473811       -12.8931
  26   2.0000      -0.445505       -12.1228
  27   2.0000      -0.434791       -11.8313
  28   2.0000      -0.431097       -11.7307
  29   0.0000       0.026837         0.7303
  30   0.0000       0.029511         0.8030
  31   0.0000       0.031596         0.8598
  32   0.0000       0.032822         0.8931
  33   0.0000       0.045304         1.2328

MULLIKEN ATOMIC CHARGES
-----------------------
   0 C :    1.779143
   1 C :   -0.656759
   2 C :   -0.656854
   3 C :   -0.847576
   4 C :   -0.847606
   5 C :   -1.118420
   6 C :   -1.118532
   7 H :    0.196402
   8 H :    0.196356
   9 H :    0.196445
  10 H :    0.196314
  11 H :    0.256499
  12 H :    0.256526
  13 H :    0.188760
  14 H :    0.188763
  15 H :    0.188765
  16 H :    0.188737
  17 H :    0.254921
  18 H :    0.196611
  19 H :    0.254972
  20 H :    0.254959
  21 H :    0.196625
  22 H :    0.254949
Sum of atomic charges:   -0.0000000

LOEWDIN ATOMIC CHARGES
----------------------
   0 C :   -0.259304
   1 C :    0.502176
   2 C :    0.502176
   3 C :    0.943229
   4 C :    0.943229
   5 C :    0.915276
   6 C :    0.915276
   7 H :   -0.274177
   8 H :   -0.274174
   9 H :   -0.274177
  10 H :   -0.274174
  11 H :   -0.275043
  12 H :   -0.275043
  13 H :   -0.289445
  14 H :   -0.289442
  15 H :   -0.289445
  16 H :   -0.289442
  17 H :   -0.285908
  18 H :   -0.256926
  19 H :   -0.285916
  20 H :   -0.285907
  21 H :   -0.256926
  22 H :   -0.285916

  Mayer bond orders larger than 0.100000
B(  0-C ,  1-C ) :   0.4172 B(  0-C ,  2-C ) :   0.4173 B(  0-C ,  5-C ) :   0.2829
B(  0-C ,  6-C ) :   0.2829 B(  0-C ,  7-H ) :  -0.1098 B(  0-C ,  8-H ) :  -0.1099
B(  0-C ,  9-H ) :  -0.1098 B(  0-C , 10-H ) :  -0.1099 B(  0-C , 17-H ) :  -0.1081
B(  0-C , 18-H ) :  -0.1505 B(  0-C , 19-H ) :  -0.1080 B(  0-C , 20-H ) :  -0.1081
B(  0-C , 21-H ) :  -0.1504 B(  0-C , 22-H ) :  -0.1080 B(  1-C ,  2-C ) :   0.1158
B(  1-C ,  3-C ) :   0.8114 B(  1-C ,  5-C ) :   0.1162 B(  1-C ,  6-C ) :   0.1163
B(  1-C ,  7-H ) :   1.0050 B(  1-C ,  8-H ) :   1.0052 B(  1-C , 11-H ) :  -0.1351
B(  2-C ,  4-C ) :   0.8114 B(  2-C ,  5-C ) :   0.1163 B(  2-C ,  6-C ) :   0.1162
B(  2-C ,  9-H ) :   1.0050 B(  2-C , 10-H ) :   1.0052 B(  2-C , 12-H ) :  -0.1351
B(  3-C , 11-H ) :   1.0262 B(  3-C , 13-H ) :   0.9979 B(  3-C , 14-H ) :   0.9980
B(  4-C , 12-H ) :   1.0262 B(  4-C , 15-H ) :   0.9980 B(  4-C , 16-H ) :   0.9980
B(  5-C , 20-H ) :   1.0287 B(  5-C , 21-H ) :   1.1098 B(  5-C , 22-H ) :   1.0288
B(  6-C , 17-H ) :   1.0288 B(  6-C , 18-H ) :   1.1098 B(  6-C , 19-H ) :   1.0287

MP2 TOTAL ENERGY:     -275.844864214 Eh
FINAL SINGLE POINT ENERGY      -275.844864214386

DIPOLE MOMENT
-------------
                                X             Y             Z
Electronic contribution:      0.00000      -0.00000      -0.94300
Nuclear contribution   :     -0.00000       0.00000       0.91395
                        -----------------------------------------
Total Dipole Moment    :      0.00000      -0.00000      -0.02905
                        -----------------------------------------
Magnitude (a.u.)       :      0.02905
Magnitude (Debye)      :      0.07383

Rotational constants in cm-1:     0.136894     0.051896     0.051450
Rotational constants in MHz :  4103.978798  1555.808830  1542.435547

                             ****ORCA TERMINATED NORMALLY****
TOTAL RUN TIME: 0 days 1 hours 46 minutes 10 seconds 696 msec
