                         Program Version 5.0.4 -  RELEASE  -
|  1> !ri-mp2 aug-cc-pvqz aug-cc-pvqz/c tightscf
|  2> %pal nprocs 16 end
|  3>
|  4> * xyz 0 1
|  5> N     -0.530767   -0.509584   -0.000040
|  6> N     -1.711032   -0.172686    0.000014
|  7> N     -2.824957    0.016559    0.000057
|  8> C      0.434644    0.619527    0.000002
|  9> C      1.797538    0.114494   -0.000012
| 10> C      2.931476   -0.269581   -0.000026
| 11> H      0.275495    1.245353    0.883766
| 12> H      0.275500    1.245412   -0.883722
| 13> H      3.934346   -0.617438   -0.000035
| 14> *
| 15>
| 16>                          ****END OF INPUT****

CARTESIAN COORDINATES (ANGSTROEM)
---------------------------------
  N     -0.530767   -0.509584   -0.000040
  N     -1.711032   -0.172686    0.000014
  N     -2.824957    0.016559    0.000057
  C      0.434644    0.619527    0.000002
  C      1.797538    0.114494   -0.000012
  C      2.931476   -0.269581   -0.000026
  H      0.275495    1.245353    0.883766
  H      0.275500    1.245412   -0.883722
  H      3.934346   -0.617438   -0.000035

 Total Charge           Charge          ....    0
 Multiplicity           Mult            ....    1
 Number of Electrons    NEL             ....   42
 Basis Dimension        Dim             ....  618

ORBITAL ENERGIES
----------------

  NO   OCC          E(Eh)            E(eV)
   0   2.0000     -15.788755      -429.6339
   1   2.0000     -15.672731      -426.4767
   2   2.0000     -15.615242      -424.9123
   3   2.0000     -11.316956      -307.9500
   4   2.0000     -11.246020      -306.0198
   5   2.0000     -11.236991      -305.7741
   6   2.0000      -1.514908       -41.2227
   7   2.0000      -1.304166       -35.4881
   8   2.0000      -1.083159       -29.4742
   9   2.0000      -0.988009       -26.8851
  10   2.0000      -0.768477       -20.9113
  11   2.0000      -0.744823       -20.2677
  12   2.0000      -0.721811       -19.6415
  13   2.0000      -0.708621       -19.2826
  14   2.0000      -0.679337       -18.4857
  15   2.0000      -0.632112       -17.2006
  16   2.0000      -0.627828       -17.0841
  17   2.0000      -0.457182       -12.4406
  18   2.0000      -0.410638       -11.1740
  19   2.0000      -0.408652       -11.1200
  20   2.0000      -0.383303       -10.4302
  21   0.0000       0.025044         0.6815
  22   0.0000       0.029181         0.7941
  23   0.0000       0.038759         1.0547
  24   0.0000       0.056699         1.5429
  25   0.0000       0.063749         1.7347

MULLIKEN ATOMIC CHARGES
-----------------------
   0 N :   -0.279785
   1 N :    0.265118
   2 N :   -0.271677
   3 C :   -0.007828
   4 C :   -0.020790
   5 C :   -0.773021
   6 H :    0.305999
   7 H :    0.306003
   8 H :    0.475981
Sum of atomic charges:   -0.0000000

LOEWDIN ATOMIC CHARGES
----------------------
   0 N :    0.315269
   1 N :   -0.282818
   2 N :    0.362630
   3 C :    0.124151
   4 C :    0.057053
   5 C :    0.566098
   6 H :   -0.340467
   7 H :   -0.340465
   8 H :   -0.461453

  Mayer bond orders larger than 0.100000
B(  0-N ,  1-N ) :   1.4658 B(  0-N ,  2-N ) :   0.2186 B(  0-N ,  3-C ) :   0.8943
B(  1-N ,  2-N ) :   2.3013 B(  3-C ,  4-C ) :   0.9391 B(  3-C ,  5-C ) :  -0.2555
B(  3-C ,  6-H ) :   0.8616 B(  3-C ,  7-H ) :   0.8616 B(  4-C ,  5-C ) :   2.7613
B(  5-C ,  8-H ) :   0.8624

MP2 TOTAL ENERGY:     -279.801569907 Eh
FINAL SINGLE POINT ENERGY      -279.801569907145

DIPOLE MOMENT
-------------
                                X             Y             Z
Electronic contribution:     -3.94868      -1.21960       0.00001
Nuclear contribution   :      4.33476       1.81872       0.00001
                        -----------------------------------------
Total Dipole Moment    :      0.38608       0.59912       0.00002
                        -----------------------------------------
Magnitude (a.u.)       :      0.71274
Magnitude (Debye)      :      1.81164

Rotational constants in cm-1:     1.144180     0.052990     0.051128
Rotational constants in MHz : 34301.655002  1588.607824  1532.792283

                             ****ORCA TERMINATED NORMALLY****
TOTAL RUN TIME: 0 days 0 hours 8 minutes 21 seconds 762 msec
