                         Program Version 5.0.4 -  RELEASE  -
|  1> !ri-mp2 aug-cc-pvqz aug-cc-pvqz/c tightscf
|  2> %pal nprocs 16 end
|  3>
|  4> * xyz 0 1
|  5> S     -2.060348   -0.589692   -0.009626
|  6> S     -0.161916    1.601569    0.011242
|  7> N      3.126547   -0.356597    0.009543
|  8> C     -0.350403   -0.148815   -0.003521
|  9> C      0.655072   -1.051986   -0.012853
| 10> C      2.016548   -0.678636    0.001914
| 11> H      0.437308   -2.110497   -0.041709
| 12> H     -1.873141   -1.910659    0.164177
| 13> H      1.178921    1.603923   -0.128368
| 14> *
| 15>
| 16>                          ****END OF INPUT****

CARTESIAN COORDINATES (ANGSTROEM)
---------------------------------
  S     -2.060348   -0.589692   -0.009626
  S     -0.161916    1.601569    0.011242
  N      3.126547   -0.356597    0.009543
  C     -0.350403   -0.148815   -0.003521
  C      0.655072   -1.051986   -0.012853
  C      2.016548   -0.678636    0.001914
  H      0.437308   -2.110497   -0.041709
  H     -1.873141   -1.910659    0.164177
  H      1.178921    1.603923   -0.128368

 Total Charge           Charge          ....    0
 Multiplicity           Mult            ....    1
 Number of Electrons    NEL             ....   60
 Basis Dimension        Dim             ....  626

ORBITAL ENERGIES
----------------

  NO   OCC          E(Eh)            E(eV)
   0   2.0000     -92.008746     -2503.6853
   1   2.0000     -92.003055     -2503.5304
   2   2.0000     -15.577345      -423.8811
   3   2.0000     -11.361189      -309.1537
   4   2.0000     -11.285657      -307.0983
   5   2.0000     -11.284129      -307.0568
   6   2.0000      -9.010934      -245.2000
   7   2.0000      -9.005479      -245.0515
   8   2.0000      -6.692460      -182.1111
   9   2.0000      -6.691400      -182.0822
  10   2.0000      -6.690481      -182.0573
  11   2.0000      -6.687009      -181.9628
  12   2.0000      -6.685972      -181.9346
  13   2.0000      -6.685097      -181.9107
  14   2.0000      -1.231747       -33.5175
  15   2.0000      -1.162869       -31.6433
  16   2.0000      -1.021701       -27.8019
  17   2.0000      -1.007524       -27.4161
  18   2.0000      -0.822051       -22.3692
  19   2.0000      -0.718580       -19.5536
  20   2.0000      -0.686439       -18.6790
  21   2.0000      -0.575321       -15.6553
  22   2.0000      -0.567387       -15.4394
  23   2.0000      -0.553609       -15.0645
  24   2.0000      -0.523229       -14.2378
  25   2.0000      -0.516452       -14.0534
  26   2.0000      -0.486595       -13.2409
  27   2.0000      -0.474462       -12.9108
  28   2.0000      -0.405086       -11.0229
  29   2.0000      -0.348902        -9.4941
  30   0.0000       0.018792         0.5114
  31   0.0000       0.035657         0.9703
  32   0.0000       0.037985         1.0336
  33   0.0000       0.048823         1.3285
  34   0.0000       0.061656         1.6777

MULLIKEN ATOMIC CHARGES
-----------------------
   0 S :    0.061034
   1 S :    0.145365
   2 N :   -0.666355
   3 C :   -0.120436
   4 C :   -0.432533
   5 C :    0.483079
   6 H :    0.412364
   7 H :    0.053061
   8 H :    0.064422
Sum of atomic charges:    0.0000000

LOEWDIN ATOMIC CHARGES
----------------------
   0 S :    1.504312
   1 S :    1.521736
   2 N :    0.413837
   3 C :   -1.064674
   4 C :    0.029008
   5 C :   -0.414992
   6 H :   -0.415464
   7 H :   -0.773048
   8 H :   -0.800715

  Mayer bond orders larger than 0.100000
B(  0-S ,  3-C ) :   0.8881 B(  0-S ,  4-C ) :  -0.1055 B(  0-S ,  7-H ) :   1.0635
B(  1-S ,  3-C ) :   0.8451 B(  1-S ,  8-H ) :   1.0340 B(  2-N ,  5-C ) :   2.4971
B(  3-C ,  4-C ) :   1.3478 B(  3-C ,  5-C ) :  -0.1803 B(  4-C ,  5-C ) :   1.2800
B(  4-C ,  6-H ) :   0.8169

MP2 TOTAL ENERGY:     -966.023505480 Eh
FINAL SINGLE POINT ENERGY      -966.023505480461

DIPOLE MOMENT
-------------
                                X             Y             Z
Electronic contribution:     -1.16735       1.80988       0.00092
Nuclear contribution   :     -0.16346      -2.35645      -0.00567
                        -----------------------------------------
Total Dipole Moment    :     -1.33082      -0.54658      -0.00475
                        -----------------------------------------
Magnitude (a.u.)       :      1.43869
Magnitude (Debye)      :      3.65687

Rotational constants in cm-1:     0.134941     0.050380     0.036693
Rotational constants in MHz :  4045.442686  1510.350140  1100.016949

                             ****ORCA TERMINATED NORMALLY****
TOTAL RUN TIME: 0 days 0 hours 11 minutes 42 seconds 293 msec
