                         Program Version 5.0.4 -  RELEASE  -
|  1> !ri-mp2 aug-cc-pvqz aug-cc-pvqz/c tightscf
|  2> %pal nprocs 16 end
|  3>
|  4> * xyz 0 1
|  5> Cl    2.634618    0.089972   -0.472541
|  6> S    -2.226941   -0.407927   -0.293740
|  7> N    -0.782002   -1.097257    0.085205
|  8> N    -1.805293    1.168792   -0.048337
|  9> C     0.046472   -0.123793    0.406185
| 10> C    -0.547869    1.172036    0.326492
| 11> C     1.448200   -0.422078    0.812171
| 12> H    -0.047158    2.105902    0.539835
| 13> H     1.735384    0.120694    1.707773
| 14> H     1.584567   -1.487017    0.958257
| 15> *
| 16>
| 17>                          ****END OF INPUT****

CARTESIAN COORDINATES (ANGSTROEM)
---------------------------------
  Cl     2.634618    0.089972   -0.472541
  S     -2.226941   -0.407927   -0.293740
  N     -0.782002   -1.097257    0.085205
  N     -1.805293    1.168792   -0.048337
  C      0.046472   -0.123793    0.406185
  C     -0.547869    1.172036    0.326492
  C      1.448200   -0.422078    0.812171
  H     -0.047158    2.105902    0.539835
  H      1.735384    0.120694    1.707773
  H      1.584567   -1.487017    0.958257

 Total Charge           Charge          ....    0
 Multiplicity           Mult            ....    1
 Number of Electrons    NEL             ....   68
 Basis Dimension        Dim             ....  706

ORBITAL ENERGIES
----------------

  NO   OCC          E(Eh)            E(eV)
   0   2.0000    -104.840015     -2852.8419
   1   2.0000     -92.046984     -2504.7258
   2   2.0000     -15.623448      -425.1356
   3   2.0000     -15.623387      -425.1340
   4   2.0000     -11.322429      -308.0990
   5   2.0000     -11.314030      -307.8704
   6   2.0000     -11.303344      -307.5796
   7   2.0000     -10.565134      -287.4919
   8   2.0000      -9.043057      -246.0741
   9   2.0000      -8.032138      -218.5656
  10   2.0000      -8.030443      -218.5195
  11   2.0000      -8.030398      -218.5182
  12   2.0000      -6.724133      -182.9730
  13   2.0000      -6.722913      -182.9398
  14   2.0000      -6.722531      -182.9294
  15   2.0000      -1.350025       -36.7360
  16   2.0000      -1.206152       -32.8211
  17   2.0000      -1.145848       -31.1801
  18   2.0000      -1.045929       -28.4612
  19   2.0000      -0.940345       -25.5881
  20   2.0000      -0.844076       -22.9685
  21   2.0000      -0.794435       -21.6177
  22   2.0000      -0.704575       -19.1725
  23   2.0000      -0.643774       -17.5180
  24   2.0000      -0.631368       -17.1804
  25   2.0000      -0.610466       -16.6116
  26   2.0000      -0.560068       -15.2402
  27   2.0000      -0.540583       -14.7100
  28   2.0000      -0.502870       -13.6838
  29   2.0000      -0.476231       -12.9589
  30   2.0000      -0.454887       -12.3781
  31   2.0000      -0.451627       -12.2894
  32   2.0000      -0.435856       -11.8602
  33   2.0000      -0.370541       -10.0829
  34   0.0000       0.023808         0.6478
  35   0.0000       0.032412         0.8820
  36   0.0000       0.040413         1.0997
  37   0.0000       0.046087         1.2541
  38   0.0000       0.054189         1.4746

MULLIKEN ATOMIC CHARGES
-----------------------
   0 Cl:   -0.300715
   1 S :    0.722596
   2 N :   -0.719727
   3 N :   -0.796968
   4 C :    0.271008
   5 C :   -0.051324
   6 C :   -0.243066
   7 H :    0.525561
   8 H :    0.282884
   9 H :    0.309752
Sum of atomic charges:   -0.0000000

LOEWDIN ATOMIC CHARGES
----------------------
   0 Cl:    1.100345
   1 S :    0.896033
   2 N :    0.111488
   3 N :    0.110452
   4 C :   -0.705845
   5 C :   -0.159690
   6 C :   -0.163806
   7 H :   -0.352021
   8 H :   -0.409714
   9 H :   -0.427242

  Mayer bond orders larger than 0.100000
B(  0-Cl,  6-C ) :   0.8702 B(  1-S ,  2-N ) :   1.1471 B(  1-S ,  3-N ) :   1.1529
B(  1-S ,  5-C ) :   0.1288 B(  2-N ,  4-C ) :   1.2268 B(  2-N ,  5-C ) :   0.1582
B(  3-N ,  4-C ) :   0.1274 B(  3-N ,  5-C ) :   1.3554 B(  4-C ,  5-C ) :   1.2203
B(  4-C ,  6-C ) :   0.8649 B(  5-C ,  7-H ) :   0.7222 B(  6-C ,  8-H ) :   0.8863
B(  6-C ,  9-H ) :   0.9179

MP2 TOTAL ENERGY:    -1082.735441249 Eh
FINAL SINGLE POINT ENERGY     -1082.735441248605

DIPOLE MOMENT
-------------
                                X             Y             Z
Electronic contribution:      0.59961      -0.51854      -2.93306
Nuclear contribution   :     -0.42028       0.59200       3.69241
                        -----------------------------------------
Total Dipole Moment    :      0.17933       0.07346       0.75936
                        -----------------------------------------
Magnitude (a.u.)       :      0.78369
Magnitude (Debye)      :      1.99199

Rotational constants in cm-1:     0.181056     0.032434     0.030053
Rotational constants in MHz :  5427.929380   972.348674   900.980859

                             ****ORCA TERMINATED NORMALLY****
TOTAL RUN TIME: 0 days 0 hours 14 minutes 30 seconds 511 msec
