                         Program Version 5.0.4 -  RELEASE  -
|  1> !ri-mp2 aug-cc-pvqz aug-cc-pvqz/c tightscf
|  2> %pal nprocs 16 end
|  3>
|  4> * xyz 0 1
|  5> C      0.000000    0.000000   -0.952610
|  6> C      0.000001    1.139799    1.130184
|  7> C     -0.000001   -1.139799    1.130184
|  8> C      0.000000    1.209041   -0.263066
|  9> C      0.000000   -1.209041   -0.263066
| 10> C     -0.000008    2.530903   -0.981213
| 11> C      0.000008   -2.530903   -0.981213
| 12> N      0.000000    0.000000    1.817942
| 13> H      0.000000    0.000000   -2.037504
| 14> H      0.000003    2.053289    1.716116
| 15> H     -0.000003   -2.053289    1.716116
| 16> H      0.000077    3.361966   -0.277021
| 17> H      0.878860    2.634607   -1.620442
| 18> H     -0.878973    2.634672   -1.620300
| 19> H      0.878973   -2.634672   -1.620300
| 20> H     -0.000077   -3.361966   -0.277021
| 21> H     -0.878860   -2.634607   -1.620442
| 22> *
| 23>
| 24>                          ****END OF INPUT****

CARTESIAN COORDINATES (ANGSTROEM)
---------------------------------
  C      0.000000    0.000000   -0.952610
  C      0.000001    1.139799    1.130184
  C     -0.000001   -1.139799    1.130184
  C      0.000000    1.209041   -0.263066
  C      0.000000   -1.209041   -0.263066
  C     -0.000008    2.530903   -0.981213
  C      0.000008   -2.530903   -0.981213
  N      0.000000    0.000000    1.817942
  H      0.000000    0.000000   -2.037504
  H      0.000003    2.053289    1.716116
  H     -0.000003   -2.053289    1.716116
  H      0.000077    3.361966   -0.277021
  H      0.878860    2.634607   -1.620442
  H     -0.878973    2.634672   -1.620300
  H      0.878973   -2.634672   -1.620300
  H     -0.000077   -3.361966   -0.277021
  H     -0.878860   -2.634607   -1.620442

 Total Charge           Charge          ....    0
 Multiplicity           Mult            ....    1
 Number of Electrons    NEL             ....   58
 Basis Dimension        Dim             .... 1054

ORBITAL ENERGIES
----------------

  NO   OCC          E(Eh)            E(eV)
   0   2.0000     -15.557045      -423.3287
   1   2.0000     -11.259649      -306.3906
   2   2.0000     -11.259629      -306.3901
   3   2.0000     -11.244331      -305.9738
   4   2.0000     -11.243051      -305.9390
   5   2.0000     -11.242443      -305.9224
   6   2.0000     -11.229173      -305.5613
   7   2.0000     -11.229172      -305.5613
   8   2.0000      -1.253049       -34.0972
   9   2.0000      -1.103216       -30.0200
  10   2.0000      -1.068233       -29.0681
  11   2.0000      -0.952551       -25.9202
  12   2.0000      -0.945168       -25.7193
  13   2.0000      -0.846818       -23.0431
  14   2.0000      -0.805640       -21.9226
  15   2.0000      -0.700992       -19.0750
  16   2.0000      -0.678224       -18.4554
  17   2.0000      -0.601299       -16.3622
  18   2.0000      -0.592781       -16.1304
  19   2.0000      -0.576311       -15.6822
  20   2.0000      -0.569087       -15.4857
  21   2.0000      -0.568609       -15.4726
  22   2.0000      -0.554276       -15.0826
  23   2.0000      -0.542759       -14.7692
  24   2.0000      -0.515243       -14.0205
  25   2.0000      -0.500832       -13.6283
  26   2.0000      -0.408001       -11.1023
  27   2.0000      -0.368010       -10.0141
  28   2.0000      -0.327932        -8.9235
  29   0.0000       0.022368         0.6087
  30   0.0000       0.026602         0.7239
  31   0.0000       0.033012         0.8983
  32   0.0000       0.035716         0.9719
  33   0.0000       0.041500         1.1293

MULLIKEN ATOMIC CHARGES
-----------------------
   0 C :   -0.395352
   1 C :   -0.345533
   2 C :   -0.345628
   3 C :    0.375618
   4 C :    0.375552
   5 C :   -0.793897
   6 C :   -0.793871
   7 N :   -0.736864
   8 H :    0.333525
   9 H :    0.447899
  10 H :    0.447883
  11 H :    0.248915
  12 H :    0.233197
  13 H :    0.233204
  14 H :    0.233219
  15 H :    0.248922
  16 H :    0.233212
Sum of atomic charges:   -0.0000000

LOEWDIN ATOMIC CHARGES
----------------------
   0 C :    0.339527
   1 C :    0.082769
   2 C :    0.082769
   3 C :   -0.077643
   4 C :   -0.077643
   5 C :    0.904879
   6 C :    0.904879
   7 N :    0.603731
   8 H :   -0.299588
   9 H :   -0.353138
  10 H :   -0.353138
  11 H :   -0.309982
  12 H :   -0.284362
  13 H :   -0.284357
  14 H :   -0.284357
  15 H :   -0.309982
  16 H :   -0.284362

  Mayer bond orders larger than 0.100000
B(  0-C ,  3-C ) :   1.0274 B(  0-C ,  4-C ) :   1.0274 B(  0-C ,  8-H ) :   0.8849
B(  1-C ,  3-C ) :   1.1590 B(  1-C ,  7-N ) :   1.2646 B(  1-C ,  9-H ) :   0.8431
B(  2-C ,  4-C ) :   1.1590 B(  2-C ,  7-N ) :   1.2646 B(  2-C , 10-H ) :   0.8431
B(  3-C ,  4-C ) :  -0.2390 B(  3-C ,  5-C ) :   0.5945 B(  3-C , 11-H ) :  -0.1320
B(  4-C ,  6-C ) :   0.5945 B(  4-C , 15-H ) :  -0.1320 B(  5-C , 11-H ) :   1.0268
B(  5-C , 12-H ) :   1.0144 B(  5-C , 13-H ) :   1.0144 B(  6-C , 14-H ) :   1.0144
B(  6-C , 15-H ) :   1.0268 B(  6-C , 16-H ) :   1.0144 B(  7-N ,  9-H ) :  -0.1016
B(  7-N , 10-H ) :  -0.1016

MP2 TOTAL ENERGY:     -326.328811389 Eh
FINAL SINGLE POINT ENERGY      -326.328811389092

DIPOLE MOMENT
-------------
                                X             Y             Z
Electronic contribution:      0.00000       0.00000       4.64837
Nuclear contribution   :      0.00000      -0.00000      -5.72324
                        -----------------------------------------
Total Dipole Moment    :      0.00000       0.00000      -1.07487
                        -----------------------------------------
Magnitude (a.u.)       :      1.07487
Magnitude (Debye)      :      2.73210

Rotational constants in cm-1:     0.123634     0.059656     0.040847
Rotational constants in MHz :  3706.460206  1788.427767  1224.554712

                             ****ORCA TERMINATED NORMALLY****
TOTAL RUN TIME: 0 days 0 hours 44 minutes 43 seconds 399 msec
