                         Program Version 5.0.4 -  RELEASE  -
|  1> !ri-mp2 aug-cc-pvqz aug-cc-pvqz/c tightscf
|  2> %pal nprocs 16 end
|  3>
|  4> * xyz 0 1
|  5> F      1.398463    1.484940   -0.000003
|  6> F      1.398463   -1.484940   -0.000003
|  7> O     -1.779157    0.000000    0.000004
|  8> C      0.314030    0.712057    0.000000
|  9> C      0.314030   -0.712057    0.000000
| 10> C     -0.981873    1.104503    0.000002
| 11> C     -0.981873   -1.104503    0.000002
| 12> H     -1.462488    2.064029    0.000004
| 13> H     -1.462488   -2.064029    0.000003
| 14> *
| 15>
| 16>                          ****END OF INPUT****

CARTESIAN COORDINATES (ANGSTROEM)
---------------------------------
  F      1.398463    1.484940   -0.000003
  F      1.398463   -1.484940   -0.000003
  O     -1.779157    0.000000    0.000004
  C      0.314030    0.712057    0.000000
  C      0.314030   -0.712057    0.000000
  C     -0.981873    1.104503    0.000002
  C     -0.981873   -1.104503    0.000002
  H     -1.462488    2.064029    0.000004
  H     -1.462488   -2.064029    0.000003

 Total Charge           Charge          ....    0
 Multiplicity           Mult            ....    1
 Number of Electrons    NEL             ....   52
 Basis Dimension        Dim             ....  652

ORBITAL ENERGIES
----------------

  NO   OCC          E(Eh)            E(eV)
   0   2.0000     -26.332040      -716.5312
   1   2.0000     -26.332039      -716.5312
   2   2.0000     -20.647180      -561.8383
   3   2.0000     -11.342100      -308.6342
   4   2.0000     -11.341095      -308.6069
   5   2.0000     -11.311415      -307.7993
   6   2.0000     -11.311372      -307.7981
   7   2.0000      -1.654859       -45.0310
   8   2.0000      -1.646301       -44.7981
   9   2.0000      -1.483778       -40.3757
  10   2.0000      -1.115878       -30.3646
  11   2.0000      -1.037703       -28.2373
  12   2.0000      -0.857018       -23.3206
  13   2.0000      -0.854753       -23.2590
  14   2.0000      -0.797592       -21.7036
  15   2.0000      -0.735211       -20.0061
  16   2.0000      -0.733170       -19.9506
  17   2.0000      -0.725996       -19.7554
  18   2.0000      -0.707462       -19.2510
  19   2.0000      -0.668528       -18.1916
  20   2.0000      -0.652556       -17.7570
  21   2.0000      -0.637626       -17.3507
  22   2.0000      -0.634941       -17.2776
  23   2.0000      -0.543589       -14.7918
  24   2.0000      -0.413577       -11.2540
  25   2.0000      -0.346412        -9.4263
  26   0.0000       0.025207         0.6859
  27   0.0000       0.029280         0.7968
  28   0.0000       0.049390         1.3440
  29   0.0000       0.060028         1.6334
  30   0.0000       0.065481         1.7818

MULLIKEN ATOMIC CHARGES
-----------------------
   0 F :   -0.667219
   1 F :   -0.667219
   2 O :   -0.659808
   3 C :    0.716727
   4 C :    0.716727
   5 C :   -0.267587
   6 C :   -0.267587
   7 H :    0.547982
   8 H :    0.547982
Sum of atomic charges:    0.0000000

LOEWDIN ATOMIC CHARGES
----------------------
   0 F :    0.757514
   1 F :    0.757514
   2 O :    0.808510
   3 C :   -0.780561
   4 C :   -0.780561
   5 C :   -0.042275
   6 C :   -0.042275
   7 H :   -0.338933
   8 H :   -0.338933

  Mayer bond orders larger than 0.100000
B(  0-F ,  3-C ) :   0.1786 B(  0-F ,  5-C ) :   0.1151 B(  1-F ,  4-C ) :   0.1786
B(  1-F ,  6-C ) :   0.1151 B(  2-O ,  5-C ) :   0.9612 B(  2-O ,  6-C ) :   0.9612
B(  3-C ,  4-C ) :   1.2792 B(  3-C ,  5-C ) :   1.6484 B(  3-C ,  6-C ) :  -0.1493
B(  4-C ,  5-C ) :  -0.1493 B(  4-C ,  6-C ) :   1.6484 B(  5-C ,  7-H ) :   0.6759
B(  6-C ,  8-H ) :   0.6759

MP2 TOTAL ENERGY:     -427.959770246 Eh
FINAL SINGLE POINT ENERGY      -427.959770246477

DIPOLE MOMENT
-------------
                                X             Y             Z
Electronic contribution:      4.66333       0.00000      -0.00001
Nuclear contribution   :     -5.36398       0.00000       0.00001
                        -----------------------------------------
Total Dipole Moment    :     -0.70065       0.00000       0.00000
                        -----------------------------------------
Magnitude (a.u.)       :      0.70065
Magnitude (Debye)      :      1.78092

Rotational constants in cm-1:     0.125938     0.109124     0.058465
Rotational constants in MHz :  3775.534807  3271.449952  1752.731641

                             ****ORCA TERMINATED NORMALLY****
TOTAL RUN TIME: 0 days 0 hours 11 minutes 34 seconds 72 msec
