                         Program Version 5.0.4 -  RELEASE  -
|  1> !ri-mp2 aug-cc-pvqz aug-cc-pvqz/c tightscf
|  2> %pal nprocs 16 end
|  3>
|  4> * xyz 0 1
|  5> C      1.596556   -1.266774   -0.239032
|  6> C      1.596587    1.262126   -0.295667
|  7> C     -0.382487    0.015965    0.749058
|  8> C     -1.297520   -0.031192   -0.471402
|  9> C      1.132440    0.013943    0.463905
| 10> O     -2.679318   -0.078760   -0.109803
| 11> H      2.685123   -1.295615   -0.309213
| 12> H      1.204663   -1.335770   -1.255520
| 13> H      1.274126   -2.157267    0.303519
| 14> H      1.204440    1.286519   -1.313980
| 15> H      2.685176    1.287631   -0.367323
| 16> H      1.275953    2.176485    0.207423
| 17> H     -0.625987    0.914555    1.327581
| 18> H     -0.629303   -0.837820    1.385322
| 19> H     -1.111212    0.820023   -1.133951
| 20> H     -1.127626   -0.938783   -1.049056
| 21> H      1.619002    0.036154    1.444159
| 22> H     -2.893279    0.709561    0.398292
| 23> *
| 24>
| 25>                          ****END OF INPUT****

CARTESIAN COORDINATES (ANGSTROEM)
---------------------------------
  C      1.596556   -1.266774   -0.239032
  C      1.596587    1.262126   -0.295667
  C     -0.382487    0.015965    0.749058
  C     -1.297520   -0.031192   -0.471402
  C      1.132440    0.013943    0.463905
  O     -2.679318   -0.078760   -0.109803
  H      2.685123   -1.295615   -0.309213
  H      1.204663   -1.335770   -1.255520
  H      1.274126   -2.157267    0.303519
  H      1.204440    1.286519   -1.313980
  H      2.685176    1.287631   -0.367323
  H      1.275953    2.176485    0.207423
  H     -0.625987    0.914555    1.327581
  H     -0.629303   -0.837820    1.385322
  H     -1.111212    0.820023   -1.133951
  H     -1.127626   -0.938783   -1.049056
  H      1.619002    0.036154    1.444159
  H     -2.893279    0.709561    0.398292

 Total Charge           Charge          ....    0
 Multiplicity           Mult            ....    1
 Number of Electrons    NEL             ....   50
 Basis Dimension        Dim             .... 1032

ORBITAL ENERGIES
----------------

  NO   OCC          E(Eh)            E(eV)
   0   2.0000     -20.550352      -559.2035
   1   2.0000     -11.269157      -306.6494
   2   2.0000     -11.230427      -305.5954
   3   2.0000     -11.218614      -305.2740
   4   2.0000     -11.213470      -305.1340
   5   2.0000     -11.212287      -305.1018
   6   2.0000      -1.351392       -36.7733
   7   2.0000      -1.092064       -29.7166
   8   2.0000      -0.980671       -26.6854
   9   2.0000      -0.932926       -25.3862
  10   2.0000      -0.864976       -23.5372
  11   2.0000      -0.762663       -20.7531
  12   2.0000      -0.685963       -18.6660
  13   2.0000      -0.640070       -17.4172
  14   2.0000      -0.611876       -16.6500
  15   2.0000      -0.604500       -16.4493
  16   2.0000      -0.571359       -15.5475
  17   2.0000      -0.565842       -15.3973
  18   2.0000      -0.539305       -14.6752
  19   2.0000      -0.519766       -14.1435
  20   2.0000      -0.498422       -13.5627
  21   2.0000      -0.475273       -12.9328
  22   2.0000      -0.463262       -12.6060
  23   2.0000      -0.459625       -12.5070
  24   2.0000      -0.428054       -11.6479
  25   0.0000       0.024298         0.6612
  26   0.0000       0.030388         0.8269
  27   0.0000       0.032315         0.8793
  28   0.0000       0.035150         0.9565
  29   0.0000       0.047619         1.2958

MULLIKEN ATOMIC CHARGES
-----------------------
   0 C :   -0.886093
   1 C :   -0.867166
   2 C :   -0.546247
   3 C :    0.145833
   4 C :    0.197511
   5 O :   -0.924253
   6 H :    0.283362
   7 H :    0.190817
   8 H :    0.208744
   9 H :    0.185721
  10 H :    0.279407
  11 H :    0.206444
  12 H :    0.209691
  13 H :    0.269971
  14 H :    0.178963
  15 H :    0.260796
  16 H :    0.268802
  17 H :    0.337698
Sum of atomic charges:   -0.0000000

LOEWDIN ATOMIC CHARGES
----------------------
   0 C :    0.921444
   1 C :    0.921122
   2 C :    0.504900
   3 C :    0.192720
   4 C :    0.108004
   5 O :    1.275578
   6 H :   -0.275039
   7 H :   -0.287449
   8 H :   -0.271107
   9 H :   -0.288318
  10 H :   -0.275395
  11 H :   -0.272423
  12 H :   -0.278956
  13 H :   -0.276687
  14 H :   -0.298575
  15 H :   -0.321910
  16 H :   -0.280407
  17 H :   -0.797502

  Mayer bond orders larger than 0.100000
B(  0-C ,  4-C ) :   0.7247 B(  0-C ,  6-H ) :   0.9834 B(  0-C ,  7-H ) :   0.9922
B(  0-C ,  8-H ) :   1.0240 B(  1-C ,  4-C ) :   0.7134 B(  1-C ,  9-H ) :   0.9970
B(  1-C , 10-H ) :   0.9901 B(  1-C , 11-H ) :   1.0244 B(  2-C ,  3-C ) :   1.0470
B(  2-C ,  4-C ) :   0.8402 B(  2-C , 12-H ) :   0.9212 B(  2-C , 13-H ) :   0.8810
B(  3-C ,  5-O ) :   0.5602 B(  3-C , 14-H ) :   0.9501 B(  3-C , 15-H ) :   0.8777
B(  4-C , 16-H ) :   0.8558 B(  5-O , 17-H ) :   0.8711

MP2 TOTAL ENERGY:     -272.511779968 Eh
FINAL SINGLE POINT ENERGY      -272.511779968123

DIPOLE MOMENT
-------------
                                X             Y             Z
Electronic contribution:     -5.30280      -0.24053       0.60900
Nuclear contribution   :      5.87906       0.70780      -0.38827
                        -----------------------------------------
Total Dipole Moment    :      0.57626       0.46727       0.22073
                        -----------------------------------------
Magnitude (a.u.)       :      0.77404
Magnitude (Debye)      :      1.96745

Rotational constants in cm-1:     0.199748     0.061461     0.054959
Rotational constants in MHz :  5988.285375  1842.567434  1647.631648

                             ****ORCA TERMINATED NORMALLY****
TOTAL RUN TIME: 0 days 0 hours 47 minutes 55 seconds 352 msec
