                         Program Version 5.0.4 -  RELEASE  -
|  1> !ri-mp2 aug-cc-pvqz aug-cc-pvqz/c tightscf
|  2> %pal nprocs 16 end
|  3>
|  4> * xyz 0 1
|  5> O     -2.132717   -1.095340    0.252518
|  6> O      0.610471    1.752049   -0.467087
|  7> N      1.491407   -0.901688   -0.337217
|  8> N      2.510476   -0.318967    0.031214
|  9> N      3.520422    0.108687    0.290218
| 10> C      0.232239   -0.500781    0.281776
| 11> C     -1.595681    1.278882    0.363472
| 12> C     -0.861691   -1.447344   -0.252856
| 13> C     -0.161431    0.954486    0.005105
| 14> C     -2.543735    0.195754   -0.169896
| 15> H      0.271704   -0.619788    1.372356
| 16> H     -1.844528    2.263920   -0.029043
| 17> H     -1.679931    1.309068    1.453493
| 18> H     -0.657202   -2.466746    0.065853
| 19> H     -0.850944   -1.418392   -1.349027
| 20> H     -3.551721    0.340673    0.213185
| 21> H     -2.583755    0.235389   -1.265368
| 22> *
| 23>
| 24>                          ****END OF INPUT****

CARTESIAN COORDINATES (ANGSTROEM)
---------------------------------
  O     -2.132717   -1.095340    0.252518
  O      0.610471    1.752049   -0.467087
  N      1.491407   -0.901688   -0.337217
  N      2.510476   -0.318967    0.031214
  N      3.520422    0.108687    0.290218
  C      0.232239   -0.500781    0.281776
  C     -1.595681    1.278882    0.363472
  C     -0.861691   -1.447344   -0.252856
  C     -0.161431    0.954486    0.005105
  C     -2.543735    0.195754   -0.169896
  H      0.271704   -0.619788    1.372356
  H     -1.844528    2.263920   -0.029043
  H     -1.679931    1.309068    1.453493
  H     -0.657202   -2.466746    0.065853
  H     -0.850944   -1.418392   -1.349027
  H     -3.551721    0.340673    0.213185
  H     -2.583755    0.235389   -1.265368

 Total Charge           Charge          ....    0
 Multiplicity           Mult            ....    1
 Number of Electrons    NEL             ....   74
 Basis Dimension        Dim             .... 1122

ORBITAL ENERGIES
----------------

  NO   OCC          E(Eh)            E(eV)
   0   2.0000     -20.581033      -560.0384
   1   2.0000     -20.565546      -559.6170
   2   2.0000     -15.783581      -429.4931
   3   2.0000     -15.667588      -426.3367
   4   2.0000     -15.606805      -424.6828
   5   2.0000     -11.347291      -308.7755
   6   2.0000     -11.303541      -307.5850
   7   2.0000     -11.302594      -307.5592
   8   2.0000     -11.301885      -307.5399
   9   2.0000     -11.254379      -306.2472
  10   2.0000      -1.509382       -41.0724
  11   2.0000      -1.413525       -38.4640
  12   2.0000      -1.402562       -38.1657
  13   2.0000      -1.298353       -35.3300
  14   2.0000      -1.085777       -29.5455
  15   2.0000      -1.067172       -29.0392
  16   2.0000      -0.918289       -24.9879
  17   2.0000      -0.877541       -23.8791
  18   2.0000      -0.798976       -21.7412
  19   2.0000      -0.747482       -20.3400
  20   2.0000      -0.716513       -19.4973
  21   2.0000      -0.712658       -19.3924
  22   2.0000      -0.690788       -18.7973
  23   2.0000      -0.679018       -18.4770
  24   2.0000      -0.665366       -18.1055
  25   2.0000      -0.651016       -17.7150
  26   2.0000      -0.643273       -17.5043
  27   2.0000      -0.613186       -16.6857
  28   2.0000      -0.595405       -16.2018
  29   2.0000      -0.568093       -15.4586
  30   2.0000      -0.537344       -14.6219
  31   2.0000      -0.520720       -14.1695
  32   2.0000      -0.493584       -13.4311
  33   2.0000      -0.461956       -12.5705
  34   2.0000      -0.445624       -12.1260
  35   2.0000      -0.425740       -11.5850
  36   2.0000      -0.380105       -10.3432
  37   0.0000       0.021825         0.5939
  38   0.0000       0.028373         0.7721
  39   0.0000       0.031395         0.8543
  40   0.0000       0.039364         1.0711
  41   0.0000       0.045863         1.2480

MULLIKEN ATOMIC CHARGES
-----------------------
   0 O :   -0.962020
   1 O :   -0.873713
   2 N :   -0.442760
   3 N :    0.201347
   4 N :   -0.331972
   5 C :    0.217582
   6 C :   -0.648103
   7 C :   -0.123573
   8 C :    0.938506
   9 C :   -0.140841
  10 H :    0.354092
  11 H :    0.336271
  12 H :    0.262763
  13 H :    0.398679
  14 H :    0.207309
  15 H :    0.422731
  16 H :    0.183700
Sum of atomic charges:    0.0000000

LOEWDIN ATOMIC CHARGES
----------------------
   0 O :    0.910840
   1 O :    0.749253
   2 N :    0.337765
   3 N :   -0.262849
   4 N :    0.384905
   5 C :   -0.221924
   6 C :    0.500882
   7 C :    0.136590
   8 C :   -0.657208
   9 C :    0.187462
  10 H :   -0.308809
  11 H :   -0.295380
  12 H :   -0.277310
  13 H :   -0.302114
  14 H :   -0.294022
  15 H :   -0.300423
  16 H :   -0.287658

  Mayer bond orders larger than 0.100000
B(  0-O ,  7-C ) :   0.6826 B(  0-O ,  9-C ) :   0.7199 B(  1-O ,  5-C ) :   0.2836
B(  1-O ,  6-C ) :   0.1489 B(  1-O ,  8-C ) :   0.9433 B(  2-N ,  3-N ) :   1.4816
B(  2-N ,  4-N ) :   0.1765 B(  2-N ,  5-C ) :   0.5019 B(  2-N ,  7-C ) :   0.1504
B(  3-N ,  4-N ) :   2.2424 B(  3-N ,  5-C ) :  -0.2525 B(  5-C ,  7-C ) :   0.9702
B(  5-C ,  8-C ) :   0.9717 B(  5-C , 10-H ) :   0.8029 B(  6-C ,  8-C ) :   0.9280
B(  6-C ,  9-C ) :   1.0912 B(  6-C , 11-H ) :   0.8754 B(  6-C , 12-H ) :   0.8677
B(  7-C , 13-H ) :   0.8530 B(  7-C , 14-H ) :   0.9339 B(  9-C , 15-H ) :   0.7842
B(  9-C , 16-H ) :   0.9667

MP2 TOTAL ENERGY:     -508.635263616 Eh
FINAL SINGLE POINT ENERGY      -508.635263615897

DIPOLE MOMENT
-------------
                                X             Y             Z
Electronic contribution:      9.52263       0.15812       0.00549
Nuclear contribution   :    -10.71033      -0.34668       0.45099
                        -----------------------------------------
Total Dipole Moment    :     -1.18770      -0.18856       0.45648
                        -----------------------------------------
Magnitude (a.u.)       :      1.28629
Magnitude (Debye)      :      3.26950

Rotational constants in cm-1:     0.096599     0.031534     0.025077
Rotational constants in MHz :  2895.968433   945.360650   751.782261

                             ****ORCA TERMINATED NORMALLY****
TOTAL RUN TIME: 0 days 1 hours 0 minutes 16 seconds 968 msec
