                         Program Version 5.0.4 -  RELEASE  -
|  1> !ri-mp2 aug-cc-pvqz aug-cc-pvqz/c tightscf
|  2> %pal nprocs 16 end
|  3>
|  4> * xyz 0 1
|  5> C     0.000000     0.000000    0.077636
|  6> C     0.000000     2.555166    0.122397
|  7> C     0.000000    -2.555166    0.122397
|  8> C     0.000000     1.291000   -0.726245
|  9> C     0.000000    -1.291000   -0.726245
| 10> O     0.000000     0.000000    1.288225
| 11> H     0.000000     3.442073   -0.511364
| 12> H    -0.876892     2.593353    0.767222
| 13> H     0.876892     2.593353    0.767222
| 14> H    -0.876892    -2.593353    0.767222
| 15> H     0.876892    -2.593353    0.767222
| 16> H     0.000000    -3.442073   -0.511364
| 17> H    -0.868213     1.265230   -1.392902
| 18> H     0.868213     1.265230   -1.392902
| 19> H     0.868213    -1.265230   -1.392902
| 20> H    -0.868213    -1.265230   -1.392902
| 21> *
| 22>
| 23>                          ****END OF INPUT****

CARTESIAN COORDINATES (ANGSTROEM)
---------------------------------
  C      0.000000    0.000000    0.077636
  C      0.000000    2.555166    0.122397
  C      0.000000   -2.555166    0.122397
  C      0.000000    1.291000   -0.726245
  C      0.000000   -1.291000   -0.726245
  O      0.000000    0.000000    1.288225
  H      0.000000    3.442073   -0.511364
  H     -0.876892    2.593353    0.767222
  H      0.876892    2.593353    0.767222
  H     -0.876892   -2.593353    0.767222
  H      0.876892   -2.593353    0.767222
  H      0.000000   -3.442073   -0.511364
  H     -0.868213    1.265230   -1.392902
  H      0.868213    1.265230   -1.392902
  H      0.868213   -1.265230   -1.392902
  H     -0.868213   -1.265230   -1.392902

 Total Charge           Charge          ....    0
 Multiplicity           Mult            ....    1
 Number of Electrons    NEL             ....   48
 Basis Dimension        Dim             ....  940

ORBITAL ENERGIES
----------------

  NO   OCC          E(Eh)            E(eV)
   0   2.0000     -20.539959      -558.9207
   1   2.0000     -11.323948      -308.1403
   2   2.0000     -11.236809      -305.7691
   3   2.0000     -11.236786      -305.7685
   4   2.0000     -11.214797      -305.1701
   5   2.0000     -11.214796      -305.1701
   6   2.0000      -1.384686       -37.6792
   7   2.0000      -1.068777       -29.0829
   8   2.0000      -1.035781       -28.1850
   9   2.0000      -0.916304       -24.9339
  10   2.0000      -0.844635       -22.9837
  11   2.0000      -0.726289       -19.7633
  12   2.0000      -0.665564       -18.1109
  13   2.0000      -0.646264       -17.5857
  14   2.0000      -0.615800       -16.7568
  15   2.0000      -0.606217       -16.4960
  16   2.0000      -0.561990       -15.2925
  17   2.0000      -0.523991       -14.2585
  18   2.0000      -0.523685       -14.2502
  19   2.0000      -0.510672       -13.8961
  20   2.0000      -0.507056       -13.7977
  21   2.0000      -0.490775       -13.3547
  22   2.0000      -0.483660       -13.1611
  23   2.0000      -0.405519       -11.0347
  24   0.0000       0.023014         0.6262
  25   0.0000       0.028127         0.7654
  26   0.0000       0.033781         0.9192
  27   0.0000       0.036812         1.0017
  28   0.0000       0.047016         1.2794

MULLIKEN ATOMIC CHARGES
-----------------------
   0 C :    0.750955
   1 C :   -0.849459
   2 C :   -0.849459
   3 C :   -0.408973
   4 C :   -0.408973
   5 O :   -0.815048
   6 H :    0.283181
   7 H :    0.223170
   8 H :    0.223170
   9 H :    0.223170
  10 H :    0.223170
  11 H :    0.283181
  12 H :    0.280479
  13 H :    0.280479
  14 H :    0.280479
  15 H :    0.280479
Sum of atomic charges:   -0.0000000

LOEWDIN ATOMIC CHARGES
----------------------
   0 C :   -0.625454
   1 C :    0.900694
   2 C :    0.900694
   3 C :    0.469518
   4 C :    0.469518
   5 O :    0.762080
   6 H :   -0.285292
   7 H :   -0.290459
   8 H :   -0.290459
   9 H :   -0.290459
  10 H :   -0.290459
  11 H :   -0.285292
  12 H :   -0.286158
  13 H :   -0.286158
  14 H :   -0.286158
  15 H :   -0.286158

  Mayer bond orders larger than 0.100000
B(  0-C ,  1-C ) :  -0.1117 B(  0-C ,  2-C ) :  -0.1117 B(  0-C ,  3-C ) :   0.8374
B(  0-C ,  4-C ) :   0.8374 B(  0-C ,  5-O ) :   1.1540 B(  1-C ,  3-C ) :   0.9388
B(  1-C ,  6-H ) :   0.9975 B(  1-C ,  7-H ) :   0.9711 B(  1-C ,  8-H ) :   0.9711
B(  2-C ,  4-C ) :   0.9388 B(  2-C ,  9-H ) :   0.9711 B(  2-C , 10-H ) :   0.9711
B(  2-C , 11-H ) :   0.9975 B(  3-C ,  5-O ) :   0.1263 B(  3-C ,  6-H ) :  -0.1012
B(  3-C , 12-H ) :   0.8651 B(  3-C , 13-H ) :   0.8651 B(  4-C ,  5-O ) :   0.1263
B(  4-C , 11-H ) :  -0.1012 B(  4-C , 14-H ) :   0.8651 B(  4-C , 15-H ) :   0.8651

MP2 TOTAL ENERGY:     -271.318464681 Eh
FINAL SINGLE POINT ENERGY      -271.318464681120

DIPOLE MOMENT
-------------
                                X             Y             Z
Electronic contribution:     -0.00000       0.00000       2.45165
Nuclear contribution   :      0.00000      -0.00000      -3.66846
                        -----------------------------------------
Total Dipole Moment    :     -0.00000       0.00000      -1.21681
                        -----------------------------------------
Magnitude (a.u.)       :      1.21681
Magnitude (Debye)      :      3.09288

Rotational constants in cm-1:     0.299027     0.064720     0.055350
Rotational constants in MHz :  8964.595379  1940.258696  1659.343732

                             ****ORCA TERMINATED NORMALLY****
TOTAL RUN TIME: 0 days 0 hours 36 minutes 20 seconds 479 msec
