                         Program Version 5.0.4 -  RELEASE  -
|  1> !ri-mp2 aug-cc-pvqz aug-cc-pvqz/c tightscf
|  2> %pal nprocs 16 end
|  3>
|  4> * xyz 0 1
|  5> Cl     2.035348   -0.011575   -0.003987
|  6> O     -1.801008   -0.820277    0.011276
|  7> O     -1.875262    0.660254   -0.028353
|  8> C      0.315681   -0.055902   -0.001214
|  9> C     -0.477853   -1.114474    0.001648
| 10> C     -0.531551    1.179920    0.019645
| 11> H     -0.253678   -2.168788    0.002003
| 12> H     -0.374491    1.821150   -0.853262
| 13> H     -0.400253    1.767328    0.935181
| 14> *
| 15>
| 16>                          ****END OF INPUT****

CARTESIAN COORDINATES (ANGSTROEM)
---------------------------------
  Cl     2.035348   -0.011575   -0.003987
  O     -1.801008   -0.820277    0.011276
  O     -1.875262    0.660254   -0.028353
  C      0.315681   -0.055902   -0.001214
  C     -0.477853   -1.114474    0.001648
  C     -0.531551    1.179920    0.019645
  H     -0.253678   -2.168788    0.002003
  H     -0.374491    1.821150   -0.853262
  H     -0.400253    1.767328    0.935181

 Total Charge           Charge          ....    0
 Multiplicity           Mult            ....    1
 Number of Electrons    NEL             ....   54
 Basis Dimension        Dim             ....  622

ORBITAL ENERGIES
----------------

  NO   OCC          E(Eh)            E(eV)
   0   2.0000    -104.863235     -2853.4737
   1   2.0000     -20.657817      -562.1278
   2   2.0000     -20.645006      -561.7792
   3   2.0000     -11.321992      -308.0871
   4   2.0000     -11.317288      -307.9591
   5   2.0000     -11.303763      -307.5910
   6   2.0000     -10.587898      -288.1114
   7   2.0000      -8.055145      -219.1916
   8   2.0000      -8.053281      -219.1409
   9   2.0000      -8.053191      -219.1385
  10   2.0000      -1.507429       -41.0192
  11   2.0000      -1.277690       -34.7677
  12   2.0000      -1.181183       -32.1416
  13   2.0000      -1.051656       -28.6170
  14   2.0000      -0.910328       -24.7713
  15   2.0000      -0.813663       -22.1409
  16   2.0000      -0.726281       -19.7631
  17   2.0000      -0.709787       -19.3143
  18   2.0000      -0.628929       -17.1140
  19   2.0000      -0.604071       -16.4376
  20   2.0000      -0.598312       -16.2809
  21   2.0000      -0.586519       -15.9600
  22   2.0000      -0.553197       -15.0533
  23   2.0000      -0.536014       -14.5857
  24   2.0000      -0.475678       -12.9438
  25   2.0000      -0.470410       -12.8005
  26   2.0000      -0.350566        -9.5394
  27   0.0000       0.027040         0.7358
  28   0.0000       0.031227         0.8497
  29   0.0000       0.039678         1.0797
  30   0.0000       0.052418         1.4264
  31   0.0000       0.073806         2.0084

MULLIKEN ATOMIC CHARGES
-----------------------
   0 Cl:   -0.121424
   1 O :   -0.452546
   2 O :   -0.436718
   3 C :   -0.259889
   4 C :   -0.002427
   5 C :    0.062878
   6 H :    0.617010
   7 H :    0.296405
   8 H :    0.296711
Sum of atomic charges:   -0.0000000

LOEWDIN ATOMIC CHARGES
----------------------
   0 Cl:    1.170331
   1 O :    0.521559
   2 O :    0.552396
   3 C :   -0.946256
   4 C :   -0.237155
   5 C :   -0.032526
   6 H :   -0.367472
   7 H :   -0.332529
   8 H :   -0.328349

  Mayer bond orders larger than 0.100000
B(  0-Cl,  3-C ) :   0.7562 B(  1-O ,  2-O ) :   0.7091 B(  1-O ,  4-C ) :   0.9432
B(  2-O ,  5-C ) :   0.6940 B(  3-C ,  4-C ) :   1.7984 B(  3-C ,  5-C ) :   0.8780
B(  4-C ,  6-H ) :   0.6063 B(  5-C ,  7-H ) :   0.8950 B(  5-C ,  8-H ) :   0.8846

MP2 TOTAL ENERGY:     -725.794378908 Eh
FINAL SINGLE POINT ENERGY      -725.794378908280

DIPOLE MOMENT
-------------
                                X             Y             Z
Electronic contribution:      4.33230      -1.36297      -0.06080
Nuclear contribution   :     -3.80710       1.36518       0.08508
                        -----------------------------------------
Total Dipole Moment    :      0.52520       0.00221       0.02429
                        -----------------------------------------
Magnitude (a.u.)       :      0.52577
Magnitude (Debye)      :      1.33639

Rotational constants in cm-1:     0.270729     0.063802     0.052156
Rotational constants in MHz :  8116.245433  1912.738443  1563.603014

                             ****ORCA TERMINATED NORMALLY****
TOTAL RUN TIME: 0 days 0 hours 9 minutes 58 seconds 375 msec
