                         Program Version 5.0.4 -  RELEASE  -
|  1> !ri-mp2 aug-cc-pvqz aug-cc-pvqz/c tightscf
|  2> %pal nprocs 16 end
|  3>
|  4> * xyz 0 1
|  5> C      0.182296   -1.194600   -0.232278
|  6> C      0.200946    1.190822   -0.237286
|  7> C     -1.192318   -1.189355   -0.023350
|  8> C     -1.170510    1.215647   -0.029025
|  9> C      0.907341   -0.009408   -0.342365
| 10> C     -1.872642    0.019468    0.080035
| 11> C      3.186098    0.002643    0.787434
| 12> C      2.404665   -0.021419   -0.533621
| 13> O     -3.225765    0.093049    0.281877
| 14> H      0.695495   -2.144808   -0.315944
| 15> H      0.733105    2.130212   -0.325596
| 16> H     -1.733693   -2.125233    0.053648
| 17> H     -1.708215    2.150587    0.045495
| 18> H      2.948053    0.896107    1.366309
| 19> H      4.262069   -0.005627    0.605398
| 20> H      2.940274   -0.864143    1.402489
| 21> H      2.689551   -0.909460   -1.102288
| 22> H      2.698617    0.839070   -1.138965
| 23> H     -3.594392   -0.793890    0.337165
| 24> *
| 25>
| 26>                          ****END OF INPUT****

CARTESIAN COORDINATES (ANGSTROEM)
---------------------------------
  C      0.182296   -1.194600   -0.232278
  C      0.200946    1.190822   -0.237286
  C     -1.192318   -1.189355   -0.023350
  C     -1.170510    1.215647   -0.029025
  C      0.907341   -0.009408   -0.342365
  C     -1.872642    0.019468    0.080035
  C      3.186098    0.002643    0.787434
  C      2.404665   -0.021419   -0.533621
  O     -3.225765    0.093049    0.281877
  H      0.695495   -2.144808   -0.315944
  H      0.733105    2.130212   -0.325596
  H     -1.733693   -2.125233    0.053648
  H     -1.708215    2.150587    0.045495
  H      2.948053    0.896107    1.366309
  H      4.262069   -0.005627    0.605398
  H      2.940274   -0.864143    1.402489
  H      2.689551   -0.909460   -1.102288
  H      2.698617    0.839070   -1.138965
  H     -3.594392   -0.793890    0.337165

 Total Charge           Charge          ....    0
 Multiplicity           Mult            ....    1
 Number of Electrons    NEL             ....   66
 Basis Dimension        Dim             .... 1180

ORBITAL ENERGIES
----------------

  NO   OCC          E(Eh)            E(eV)
   0   2.0000     -20.585173      -560.1510
   1   2.0000     -11.296744      -307.4000
   2   2.0000     -11.234766      -305.7135
   3   2.0000     -11.233061      -305.6671
   4   2.0000     -11.230489      -305.5971
   5   2.0000     -11.228672      -305.5477
   6   2.0000     -11.225456      -305.4602
   7   2.0000     -11.224774      -305.4416
   8   2.0000     -11.213443      -305.1333
   9   2.0000      -1.400792       -38.1175
  10   2.0000      -1.152632       -31.3647
  11   2.0000      -1.057362       -28.7723
  12   2.0000      -1.018057       -27.7027
  13   2.0000      -0.976805       -26.5802
  14   2.0000      -0.863483       -23.4966
  15   2.0000      -0.843421       -22.9507
  16   2.0000      -0.793756       -21.5992
  17   2.0000      -0.732316       -19.9273
  18   2.0000      -0.673110       -18.3163
  19   2.0000      -0.647544       -17.6206
  20   2.0000      -0.613653       -16.6983
  21   2.0000      -0.596608       -16.2345
  22   2.0000      -0.588817       -16.0225
  23   2.0000      -0.586714       -15.9653
  24   2.0000      -0.569926       -15.5085
  25   2.0000      -0.555543       -15.1171
  26   2.0000      -0.523915       -14.2565
  27   2.0000      -0.498261       -13.5584
  28   2.0000      -0.480984       -13.0882
  29   2.0000      -0.478426       -13.0186
  30   2.0000      -0.468933       -12.7603
  31   2.0000      -0.341229        -9.2853
  32   2.0000      -0.306028        -8.3274
  33   0.0000       0.023329         0.6348
  34   0.0000       0.027576         0.7504
  35   0.0000       0.030814         0.8385
  36   0.0000       0.037434         1.0186
  37   0.0000       0.039887         1.0854

MULLIKEN ATOMIC CHARGES
-----------------------
   0 C :   -0.371921
   1 C :   -0.518907
   2 C :   -0.562512
   3 C :   -0.569635
   4 C :    0.507446
   5 C :    1.087591
   6 C :   -0.906524
   7 C :   -0.294384
   8 O :   -0.841977
   9 H :    0.233407
  10 H :    0.211438
  11 H :    0.144250
  12 H :    0.274372
  13 H :    0.243858
  14 H :    0.332714
  15 H :    0.244570
  16 H :    0.199444
  17 H :    0.209363
  18 H :    0.377407
Sum of atomic charges:   -0.0000000

LOEWDIN ATOMIC CHARGES
----------------------
   0 C :    0.342297
   1 C :    0.341352
   2 C :    0.340680
   3 C :    0.333879
   4 C :   -0.082976
   5 C :   -0.435132
   6 C :    0.931104
   7 C :    0.481910
   8 O :    1.268623
   9 H :   -0.313197
  10 H :   -0.312831
  11 H :   -0.325065
  12 H :   -0.326552
  13 H :   -0.284223
  14 H :   -0.282114
  15 H :   -0.283936
  16 H :   -0.293094
  17 H :   -0.291608
  18 H :   -0.809118

  Mayer bond orders larger than 0.100000
B(  0-C ,  2-C ) :   1.2463 B(  0-C ,  3-C ) :   0.1211 B(  0-C ,  4-C ) :   1.0152
B(  0-C ,  7-C ) :  -0.1825 B(  0-C ,  9-H ) :   1.0279 B(  0-C , 11-H ) :  -0.1646
B(  1-C ,  2-C ) :   0.1322 B(  1-C ,  3-C ) :   1.3535 B(  1-C ,  4-C ) :   1.0119
B(  1-C ,  7-C ) :  -0.1416 B(  1-C , 10-H ) :   1.0702 B(  1-C , 12-H ) :  -0.1308
B(  2-C ,  4-C ) :  -0.2493 B(  2-C ,  5-C ) :   1.2711 B(  2-C ,  8-O ) :   0.2195
B(  2-C ,  9-H ) :  -0.1310 B(  2-C , 11-H ) :   1.1602 B(  3-C ,  4-C ) :  -0.2598
B(  3-C ,  5-C ) :   1.3209 B(  3-C ,  8-O ) :   0.3499 B(  3-C , 10-H ) :  -0.1242
B(  3-C , 12-H ) :   1.0118 B(  4-C ,  7-C ) :   0.7436 B(  5-C ,  8-O ) :  -0.1472
B(  5-C , 11-H ) :  -0.1106 B(  5-C , 18-H ) :  -0.1237 B(  6-C ,  7-C ) :   0.9939
B(  6-C , 13-H ) :   0.9418 B(  6-C , 14-H ) :   0.9255 B(  6-C , 15-H ) :   0.9427
B(  7-C , 16-H ) :   0.9887 B(  7-C , 17-H ) :   0.9779 B(  8-O , 18-H ) :   0.8909

MP2 TOTAL ENERGY:     -385.439929535 Eh
FINAL SINGLE POINT ENERGY      -385.439929535224

DIPOLE MOMENT
-------------
                                X             Y             Z
Electronic contribution:     -9.79407       0.31384      -0.96797
Nuclear contribution   :     10.02444      -0.83779       0.94578
                        -----------------------------------------
Total Dipole Moment    :      0.23037      -0.52395      -0.02219
                        -----------------------------------------
Magnitude (a.u.)       :      0.57279
Magnitude (Debye)      :      1.45591

Rotational constants in cm-1:     0.148867     0.031451     0.027856
Rotational constants in MHz :  4462.906573   942.870267   835.096428

                             ****ORCA TERMINATED NORMALLY****
TOTAL RUN TIME: 0 days 1 hours 19 minutes 34 seconds 22 msec
