                         Program Version 5.0.4 -  RELEASE  -
|  1> !ri-mp2 aug-cc-pvqz aug-cc-pvqz/c tightscf
|  2> %pal nprocs 16 end
|  3>
|  4> * xyz 0 1
|  5> C      1.214937   -1.114720        0.000000
|  6> C     -1.194532   -1.123734        0.000000
|  7> C      1.208906    0.272121        0.000000
|  8> C     -1.202251    0.266088        0.000000
|  9> C      0.012562   -1.816947        0.000000
| 10> C      0.000000    0.956110        0.000000
| 11> O      0.080600   -3.181991        0.000000
| 12> Cl    -0.005372    2.710582        0.000000
| 13> H      2.146145   -1.663099        0.000000
| 14> H     -2.133071   -1.664730        0.000000
| 15> H      2.139489    0.820428        0.000000
| 16> H     -2.137764    0.805811        0.000000
| 17> H     -0.805998   -3.555873        0.000000
| 18> *
| 19>
| 20>                          ****END OF INPUT****

CARTESIAN COORDINATES (ANGSTROEM)
---------------------------------
  C      1.214937   -1.114720    0.000000
  C     -1.194532   -1.123734    0.000000
  C      1.208906    0.272121    0.000000
  C     -1.202251    0.266088    0.000000
  C      0.012562   -1.816947    0.000000
  C      0.000000    0.956110    0.000000
  O      0.080600   -3.181991    0.000000
  Cl    -0.005372    2.710582    0.000000
  H      2.146145   -1.663099    0.000000
  H     -2.133071   -1.664730    0.000000
  H      2.139489    0.820428    0.000000
  H     -2.137764    0.805811    0.000000
  H     -0.805998   -3.555873    0.000000

 Total Charge           Charge          ....    0
 Multiplicity           Mult            ....    1
 Number of Electrons    NEL             ....   66
 Basis Dimension        Dim             ....  874

ORBITAL ENERGIES
----------------

  NO   OCC          E(Eh)            E(eV)
   0   2.0000    -104.836273     -2852.7400
   1   2.0000     -20.599251      -560.5341
   2   2.0000     -11.315227      -307.9030
   3   2.0000     -11.296452      -307.3921
   4   2.0000     -11.257594      -306.3347
   5   2.0000     -11.255741      -306.2843
   6   2.0000     -11.248738      -306.0937
   7   2.0000     -11.242975      -305.9369
   8   2.0000     -10.561430      -287.3911
   9   2.0000      -8.028564      -218.4683
  10   2.0000      -8.026881      -218.4225
  11   2.0000      -8.026797      -218.4203
  12   2.0000      -1.416172       -38.5360
  13   2.0000      -1.188968       -32.3535
  14   2.0000      -1.114046       -30.3147
  15   2.0000      -1.040160       -28.3042
  16   2.0000      -0.991408       -26.9776
  17   2.0000      -0.867464       -23.6049
  18   2.0000      -0.826887       -22.5008
  19   2.0000      -0.750593       -20.4247
  20   2.0000      -0.690039       -18.7769
  21   2.0000      -0.659910       -17.9571
  22   2.0000      -0.626870       -17.0580
  23   2.0000      -0.609678       -16.5902
  24   2.0000      -0.604098       -16.4384
  25   2.0000      -0.585339       -15.9279
  26   2.0000      -0.534448       -14.5431
  27   2.0000      -0.531040       -14.4503
  28   2.0000      -0.516138       -14.0448
  29   2.0000      -0.457515       -12.4496
  30   2.0000      -0.453625       -12.3438
  31   2.0000      -0.360360        -9.8059
  32   2.0000      -0.320866        -8.7312
  33   0.0000       0.020248         0.5510
  34   0.0000       0.029736         0.8092
  35   0.0000       0.033311         0.9064
  36   0.0000       0.043829         1.1926
  37   0.0000       0.049570         1.3489

MULLIKEN ATOMIC CHARGES
-----------------------
   0 C :   -0.466688
   1 C :   -0.524763
   2 C :   -0.202383
   3 C :   -0.067764
   4 C :    1.023734
   5 C :   -0.387278
   6 O :   -0.778510
   7 Cl:   -0.363828
   8 H :    0.339658
   9 H :    0.228147
  10 H :    0.400731
  11 H :    0.436973
  12 H :    0.361970
Sum of atomic charges:    0.0000000

LOEWDIN ATOMIC CHARGES
----------------------
   0 C :    0.314300
   1 C :    0.321584
   2 C :    0.194256
   3 C :    0.193597
   4 C :   -0.438556
   5 C :   -0.849184
   6 O :    1.273868
   7 Cl:    1.154486
   8 H :   -0.326093
   9 H :   -0.324770
  10 H :   -0.355104
  11 H :   -0.355142
  12 H :   -0.803243

  Mayer bond orders larger than 0.100000
B(  0-C ,  2-C ) :   1.3157 B(  0-C ,  4-C ) :   1.2518 B(  0-C ,  6-O ) :   0.2913
B(  0-C ,  8-H ) :   0.9312 B(  0-C , 10-H ) :  -0.1029 B(  1-C ,  3-C ) :   1.2434
B(  1-C ,  4-C ) :   1.2498 B(  1-C ,  6-O ) :   0.2104 B(  1-C ,  9-H ) :   1.0539
B(  2-C ,  4-C ) :  -0.1689 B(  2-C ,  5-C ) :   1.1753 B(  2-C ,  7-Cl) :  -0.1443
B(  2-C ,  8-H ) :  -0.1029 B(  2-C , 10-H ) :   0.8863 B(  3-C ,  4-C ) :  -0.1552
B(  3-C ,  5-C ) :   1.1342 B(  3-C ,  7-Cl) :  -0.1922 B(  3-C ,  9-H ) :  -0.1106
B(  3-C , 11-H ) :   0.8574 B(  4-C , 12-H ) :  -0.1070 B(  5-C ,  7-Cl) :   1.0322
B(  6-O , 12-H ) :   0.8909

MP2 TOTAL ENERGY:     -766.105597347 Eh
FINAL SINGLE POINT ENERGY      -766.105597347344

DIPOLE MOMENT
-------------
                                X             Y             Z
Electronic contribution:      0.22776       8.11756       0.00000
Nuclear contribution   :     -0.75422      -8.85649       0.00000
                        -----------------------------------------
Total Dipole Moment    :     -0.52646      -0.73893       0.00000
                        -----------------------------------------
Magnitude (a.u.)       :      0.90729
Magnitude (Debye)      :      2.30615

Rotational constants in cm-1:     0.189457     0.032174     0.027503
Rotational constants in MHz :  5679.772561   964.541220   824.520776

                             ****ORCA TERMINATED NORMALLY****
TOTAL RUN TIME: 0 days 0 hours 35 minutes 14 seconds 296 msec
