                         Program Version 5.0.4 -  RELEASE  -
|  1> !ri-mp2 aug-cc-pvqz aug-cc-pvqz/c tightscf
|  2> %pal nprocs 16 end
|  3>
|  4> * xyz 0 1
|  5> Cl     2.032090   -0.194629   -0.000258
|  6> O     -1.737574   -1.136233    0.004416
|  7> N     -1.857611    0.269811    0.007343
|  8> N     -0.338436    2.066229   -0.073485
|  9> C      0.315301   -0.344216   -0.003266
| 10> C     -0.628792    0.728757   -0.004720
| 11> C     -0.442310   -1.462994    0.002464
| 12> H      0.555469    2.341498    0.298227
| 13> H     -1.096227    2.686160    0.162543
| 14> H     -0.197051   -2.510661    0.004428
| 15> *
| 16>
| 17>                          ****END OF INPUT****

CARTESIAN COORDINATES (ANGSTROEM)
---------------------------------
  Cl     2.032090   -0.194629   -0.000258
  O     -1.737574   -1.136233    0.004416
  N     -1.857611    0.269811    0.007343
  N     -0.338436    2.066229   -0.073485
  C      0.315301   -0.344216   -0.003266
  C     -0.628792    0.728757   -0.004720
  C     -0.442310   -1.462994    0.002464
  H      0.555469    2.341498    0.298227
  H     -1.096227    2.686160    0.162543
  H     -0.197051   -2.510661    0.004428

 Total Charge           Charge          ....    0
 Multiplicity           Mult            ....    1
 Number of Electrons    NEL             ....   60
 Basis Dimension        Dim             ....  702

ORBITAL ENERGIES
----------------

  NO   OCC          E(Eh)            E(eV)
   0   2.0000    -104.865969     -2853.5481
   1   2.0000     -20.646736      -561.8262
   2   2.0000     -15.609541      -424.7572
   3   2.0000     -15.592775      -424.3010
   4   2.0000     -11.334226      -308.4200
   5   2.0000     -11.332233      -308.3657
   6   2.0000     -11.302819      -307.5653
   7   2.0000     -10.590642      -288.1860
   8   2.0000      -8.057895      -219.2665
   9   2.0000      -8.056059      -219.2165
  10   2.0000      -8.055928      -219.2130
  11   2.0000      -1.494245       -40.6605
  12   2.0000      -1.268872       -34.5278
  13   2.0000      -1.174545       -31.9610
  14   2.0000      -1.131907       -30.8008
  15   2.0000      -1.043929       -28.4068
  16   2.0000      -0.848345       -23.0846
  17   2.0000      -0.818688       -22.2776
  18   2.0000      -0.737221       -20.0608
  19   2.0000      -0.705892       -19.2083
  20   2.0000      -0.671403       -18.2698
  21   2.0000      -0.648390       -17.6436
  22   2.0000      -0.605332       -16.4719
  23   2.0000      -0.573738       -15.6122
  24   2.0000      -0.542805       -14.7705
  25   2.0000      -0.514222       -13.9927
  26   2.0000      -0.501942       -13.6585
  27   2.0000      -0.464824       -12.6485
  28   2.0000      -0.375187       -10.2093
  29   2.0000      -0.368480       -10.0268
  30   0.0000       0.022734         0.6186
  31   0.0000       0.028371         0.7720
  32   0.0000       0.043881         1.1941
  33   0.0000       0.059871         1.6292
  34   0.0000       0.063290         1.7222

MULLIKEN ATOMIC CHARGES
-----------------------
   0 Cl:   -0.169874
   1 O :   -0.643338
   2 N :   -0.349249
   3 N :   -0.679998
   4 C :   -0.345059
   5 C :    0.728635
   6 C :    0.144406
   7 H :    0.314907
   8 H :    0.347100
   9 H :    0.652470
Sum of atomic charges:    0.0000000

LOEWDIN ATOMIC CHARGES
----------------------
   0 Cl:    1.177228
   1 O :    0.575300
   2 N :    0.283447
   3 N :    1.229267
   4 C :   -0.950195
   5 C :   -0.744564
   6 C :   -0.193376
   7 H :   -0.531688
   8 H :   -0.505740
   9 H :   -0.339678

  Mayer bond orders larger than 0.100000
B(  0-Cl,  4-C ) :   0.7419 B(  1-O ,  2-N ) :   0.6908 B(  1-O ,  4-C ) :   0.1585
B(  1-O ,  6-C ) :   1.0315 B(  2-N ,  5-C ) :   1.3711 B(  3-N ,  5-C ) :   1.1113
B(  3-N ,  7-H ) :   0.8750 B(  3-N ,  8-H ) :   0.8447 B(  4-C ,  5-C ) :   0.9958
B(  4-C ,  6-C ) :   1.5390 B(  5-C ,  6-C ) :  -0.1758 B(  6-C ,  9-H ) :   0.6232

MP2 TOTAL ENERGY:     -760.094028552 Eh
FINAL SINGLE POINT ENERGY      -760.094028552079

DIPOLE MOMENT
-------------
                                X             Y             Z
Electronic contribution:      4.34399      -2.42707      -0.09573
Nuclear contribution   :     -3.50377       2.65374       0.44233
                        -----------------------------------------
Total Dipole Moment    :      0.84022       0.22667       0.34660
                        -----------------------------------------
Magnitude (a.u.)       :      0.93674
Magnitude (Debye)      :      2.38100

Rotational constants in cm-1:     0.124315     0.066221     0.043246
Rotational constants in MHz :  3726.865314  1985.241651  1296.482713

                             ****ORCA TERMINATED NORMALLY****
TOTAL RUN TIME: 0 days 0 hours 13 minutes 7 seconds 303 msec
