                         Program Version 5.0.4 -  RELEASE  -
|  1> !ri-mp2 aug-cc-pvqz aug-cc-pvqz/c tightscf
|  2> %pal nprocs 16 end
|  3>
|  4> * xyz 0 1
|  5> N     -1.193024    0.354700    0.000000
|  6> C      0.000000    1.136486    0.000000
|  7> N      1.111424    0.505412    0.000000
|  8> C      0.730867   -0.899567    0.000000
|  9> C     -0.764372   -0.854862    0.000000
| 10> H     -0.075334    2.215149    0.000000
| 11> H      1.139796   -1.410552    0.877155
| 12> H      1.139796   -1.410552   -0.877155
| 13> H     -1.432029   -1.707173    0.000000
| 14> *
| 15>
| 16>                          ****END OF INPUT****

CARTESIAN COORDINATES (ANGSTROEM)
---------------------------------
  N     -1.193024    0.354700    0.000000
  C      0.000000    1.136486    0.000000
  N      1.111424    0.505412    0.000000
  C      0.730867   -0.899567    0.000000
  C     -0.764372   -0.854862    0.000000
  H     -0.075334    2.215149    0.000000
  H      1.139796   -1.410552    0.877155
  H      1.139796   -1.410552   -0.877155
  H     -1.432029   -1.707173    0.000000

 Total Charge           Charge          ....    0
 Multiplicity           Mult            ....    1
 Number of Electrons    NEL             ....   36
 Basis Dimension        Dim             ....  584

ORBITAL ENERGIES
----------------

  NO   OCC          E(Eh)            E(eV)
   0   2.0000     -15.575986      -423.8441
   1   2.0000     -15.561826      -423.4588
   2   2.0000     -11.304867      -307.6211
   3   2.0000     -11.301536      -307.5304
   4   2.0000     -11.274575      -306.7968
   5   2.0000      -1.328309       -36.1451
   6   2.0000      -1.165432       -31.7130
   7   2.0000      -1.010939       -27.5090
   8   2.0000      -0.828161       -22.5354
   9   2.0000      -0.785540       -21.3756
  10   2.0000      -0.699679       -19.0392
  11   2.0000      -0.644167       -17.5287
  12   2.0000      -0.607344       -16.5267
  13   2.0000      -0.567888       -15.4530
  14   2.0000      -0.489497       -13.3199
  15   2.0000      -0.466822       -12.7029
  16   2.0000      -0.437730       -11.9112
  17   2.0000      -0.397153       -10.8071
  18   0.0000       0.022475         0.6116
  19   0.0000       0.034519         0.9393
  20   0.0000       0.037404         1.0178
  21   0.0000       0.037919         1.0318
  22   0.0000       0.069641         1.8950

MULLIKEN ATOMIC CHARGES
-----------------------
   0 N :   -0.575272
   1 C :   -0.120103
   2 N :   -0.546383
   3 C :   -0.306172
   4 C :   -0.220995
   5 H :    0.608582
   6 H :    0.291562
   7 H :    0.291562
   8 H :    0.577219
Sum of atomic charges:    0.0000000

LOEWDIN ATOMIC CHARGES
----------------------
   0 N :    0.589238
   1 C :   -0.174661
   2 N :    0.583427
   3 C :    0.202254
   4 C :    0.075941
   5 H :   -0.360534
   6 H :   -0.300548
   7 H :   -0.300548
   8 H :   -0.314569

  Mayer bond orders larger than 0.100000
B(  0-N ,  1-C ) :   1.0619 B(  0-N ,  4-C ) :   1.5821 B(  1-C ,  2-N ) :   1.8309
B(  1-C ,  5-H ) :   0.6564 B(  2-N ,  3-C ) :   0.8093 B(  3-C ,  4-C ) :   1.1606
B(  3-C ,  6-H ) :   0.8778 B(  3-C ,  7-H ) :   0.8778 B(  4-C ,  8-H ) :   0.6388

MP2 TOTAL ENERGY:     -225.823777078 Eh
FINAL SINGLE POINT ENERGY      -225.823777078319

DIPOLE MOMENT
-------------
                                X             Y             Z
Electronic contribution:     -0.85124       1.42991      -0.00000
Nuclear contribution   :      0.76644      -2.29220       0.00000
                        -----------------------------------------
Total Dipole Moment    :     -0.08480      -0.86229      -0.00000
                        -----------------------------------------
Magnitude (a.u.)       :      0.86645
Magnitude (Debye)      :      2.20233

Rotational constants in cm-1:     0.321071     0.295119     0.158252
Rotational constants in MHz :  9625.462625  8847.441459  4744.289196

                             ****ORCA TERMINATED NORMALLY****
TOTAL RUN TIME: 0 days 0 hours 7 minutes 39 seconds 392 msec
