                         Program Version 5.0.4 -  RELEASE  -
|  1> !ri-mp2 aug-cc-pvqz aug-cc-pvqz/c tightscf
|  2> %pal nprocs 16 end
|  3>
|  4> * xyz 0 1
|  5> C    -1.612174    0.568511    0.325815
|  6> C    -1.359474   -0.903273    0.131974
|  7> C    -0.398399    1.283143   -0.255369
|  8> N    -0.231575   -1.335367   -0.251174
|  9> O     1.735392    0.014128    0.833141
| 10> S     0.935671   -0.012414   -0.425050
| 11> H    -2.539917    0.860498   -0.169257
| 12> H    -1.752446    0.764996    1.391742
| 13> H    -2.153498   -1.621061    0.337364
| 14> H    -0.586582    1.674298   -1.253682
| 15> H     0.019870    2.064161    0.373207
| 16> *
| 17>
| 18>                          ****END OF INPUT****

CARTESIAN COORDINATES (ANGSTROEM)
---------------------------------
  C     -1.612174    0.568511    0.325815
  C     -1.359474   -0.903273    0.131974
  C     -0.398399    1.283143   -0.255369
  N     -0.231575   -1.335367   -0.251174
  O      1.735392    0.014128    0.833141
  S      0.935671   -0.012414   -0.425050
  H     -2.539917    0.860498   -0.169257
  H     -1.752446    0.764996    1.391742
  H     -2.153498   -1.621061    0.337364
  H     -0.586582    1.674298   -1.253682
  H      0.019870    2.064161    0.373207

 Total Charge           Charge          ....    0
 Multiplicity           Mult            ....    1
 Number of Electrons    NEL             ....   54
 Basis Dimension        Dim             ....  714

ORBITAL ENERGIES
----------------

  NO   OCC          E(Eh)            E(eV)
   0   2.0000     -92.091641     -2505.9410
   1   2.0000     -20.515920      -558.2666
   2   2.0000     -15.594835      -424.3570
   3   2.0000     -11.318839      -308.0013
   4   2.0000     -11.277348      -306.8722
   5   2.0000     -11.273236      -306.7603
   6   2.0000      -9.075300      -246.9515
   7   2.0000      -6.757262      -183.8745
   8   2.0000      -6.756571      -183.8557
   9   2.0000      -6.755246      -183.8196
  10   2.0000      -1.354794       -36.8658
  11   2.0000      -1.255234       -34.1567
  12   2.0000      -1.077752       -29.3271
  13   2.0000      -0.986150       -26.8345
  14   2.0000      -0.844268       -22.9737
  15   2.0000      -0.781843       -21.2750
  16   2.0000      -0.693609       -18.8741
  17   2.0000      -0.676726       -18.4146
  18   2.0000      -0.623452       -16.9650
  19   2.0000      -0.578941       -15.7538
  20   2.0000      -0.570093       -15.5130
  21   2.0000      -0.555570       -15.1178
  22   2.0000      -0.550636       -14.9836
  23   2.0000      -0.482653       -13.1337
  24   2.0000      -0.455231       -12.3875
  25   2.0000      -0.412809       -11.2331
  26   2.0000      -0.379620       -10.3300
  27   0.0000       0.016784         0.4567
  28   0.0000       0.027785         0.7561
  29   0.0000       0.033051         0.8994
  30   0.0000       0.038992         1.0610
  31   0.0000       0.050253         1.3675

MULLIKEN ATOMIC CHARGES
-----------------------
   0 C :   -0.391256
   1 C :   -0.193906
   2 C :   -0.621743
   3 N :   -0.660726
   4 O :   -1.114291
   5 S :    1.233006
   6 H :    0.276006
   7 H :    0.287840
   8 H :    0.599867
   9 H :    0.289782
  10 H :    0.295423
Sum of atomic charges:    0.0000000

LOEWDIN ATOMIC CHARGES
----------------------
   0 C :    0.432884
   1 C :   -0.028086
   2 C :    0.329987
   3 N :    0.329657
   4 O :    0.041283
   5 S :    0.480697
   6 H :   -0.285126
   7 H :   -0.278211
   8 H :   -0.334492
   9 H :   -0.344277
  10 H :   -0.344316

  Mayer bond orders larger than 0.100000
B(  0-C ,  1-C ) :   0.9843 B(  0-C ,  2-C ) :   0.9867 B(  0-C ,  6-H ) :   0.8863
B(  0-C ,  7-H ) :   0.8601 B(  1-C ,  3-N ) :   1.7225 B(  1-C ,  8-H ) :   0.6545
B(  2-C ,  5-S ) :   0.9282 B(  2-C ,  9-H ) :   0.8939 B(  2-C , 10-H ) :   0.8913
B(  3-N ,  5-S ) :   0.8446 B(  4-O ,  5-S ) :   1.3021

MP2 TOTAL ENERGY:     -644.621217065 Eh
FINAL SINGLE POINT ENERGY      -644.621217065418

DIPOLE MOMENT
-------------
                                X             Y             Z
Electronic contribution:      4.80182      -2.73399      -1.25683
Nuclear contribution   :     -6.89825       3.67325       0.69238
                        -----------------------------------------
Total Dipole Moment    :     -2.09643       0.93926      -0.56445
                        -----------------------------------------
Magnitude (a.u.)       :      2.36554
Magnitude (Debye)      :      6.01274

Rotational constants in cm-1:     0.180823     0.098965     0.078067
Rotational constants in MHz :  5420.928284  2966.895317  2340.389099

                             ****ORCA TERMINATED NORMALLY****
TOTAL RUN TIME: 0 days 0 hours 14 minutes 33 seconds 272 msec
