                         Program Version 5.0.4 -  RELEASE  -
|  1> !ri-mp2 aug-cc-pvqz aug-cc-pvqz/c tightscf
|  2> %pal nprocs 16 end
|  3>
|  4> * xyz 0 1
|  5> Cl    1.997780   -1.371459    0.000000
|  6> S    -1.725995    0.605097    0.000000
|  7> O     0.396341    2.866951    0.000000
|  8> N    -1.923957   -1.041509    0.000000
|  9> C     0.000000    0.542410    0.000000
| 10> C     0.370267   -0.782870    0.000000
| 11> C    -0.756625   -1.641068    0.000000
| 12> C     0.840877    1.741435    0.000000
| 13> H    -0.703404   -2.720895    0.000000
| 14> H     1.926917    1.549668    0.000000
| 15> *
| 16>
| 17>                          ****END OF INPUT****

CARTESIAN COORDINATES (ANGSTROEM)
---------------------------------
  Cl     1.997780   -1.371459    0.000000
  S     -1.725995    0.605097    0.000000
  O      0.396341    2.866951    0.000000
  N     -1.923957   -1.041509    0.000000
  C      0.000000    0.542410    0.000000
  C      0.370267   -0.782870    0.000000
  C     -0.756625   -1.641068    0.000000
  C      0.840877    1.741435    0.000000
  H     -0.703404   -2.720895    0.000000
  H      1.926917    1.549668    0.000000

 Total Charge           Charge          ....    0
 Multiplicity           Mult            ....    1
 Number of Electrons    NEL             ....   74
 Basis Dimension        Dim             ....  740

ORBITAL ENERGIES
----------------

  NO   OCC          E(Eh)            E(eV)
   0   2.0000    -104.879714     -2853.9221
   1   2.0000     -92.038315     -2504.4899
   2   2.0000     -20.584218      -560.1250
   3   2.0000     -15.625506      -425.1916
   4   2.0000     -11.366353      -309.2942
   5   2.0000     -11.342986      -308.6583
   6   2.0000     -11.313643      -307.8599
   7   2.0000     -11.312347      -307.8246
   8   2.0000     -10.604642      -288.5670
   9   2.0000      -9.036312      -245.8906
  10   2.0000      -8.071825      -219.6455
  11   2.0000      -8.069945      -219.5944
  12   2.0000      -8.069898      -219.5931
  13   2.0000      -6.717361      -182.7887
  14   2.0000      -6.716431      -182.7634
  15   2.0000      -6.715930      -182.7497
  16   2.0000      -1.421300       -38.6755
  17   2.0000      -1.311975       -35.7007
  18   2.0000      -1.189401       -32.3652
  19   2.0000      -1.092397       -29.7256
  20   2.0000      -1.016688       -27.6655
  21   2.0000      -0.923186       -25.1212
  22   2.0000      -0.813802       -22.1447
  23   2.0000      -0.778800       -21.1922
  24   2.0000      -0.707326       -19.2473
  25   2.0000      -0.686515       -18.6810
  26   2.0000      -0.644994       -17.5512
  27   2.0000      -0.618377       -16.8269
  28   2.0000      -0.605130       -16.4664
  29   2.0000      -0.556447       -15.1417
  30   2.0000      -0.534545       -14.5457
  31   2.0000      -0.522513       -14.2183
  32   2.0000      -0.504061       -13.7162
  33   2.0000      -0.470879       -12.8133
  34   2.0000      -0.459058       -12.4916
  35   2.0000      -0.398962       -10.8563
  36   2.0000      -0.373026       -10.1506
  37   0.0000       0.019958         0.5431
  38   0.0000       0.024360         0.6629
  39   0.0000       0.030115         0.8195
  40   0.0000       0.047951         1.3048
  41   0.0000       0.054984         1.4962

MULLIKEN ATOMIC CHARGES
-----------------------
   0 Cl:   -0.217914
   1 S :    0.601383
   2 O :   -0.688499
   3 N :   -0.756236
   4 C :   -0.411495
   5 C :   -0.038187
   6 C :   -0.001393
   7 C :    0.533397
   8 H :    0.568264
   9 H :    0.410679
Sum of atomic charges:    0.0000000

LOEWDIN ATOMIC CHARGES
----------------------
   0 Cl:    1.208172
   1 S :    1.135125
   2 O :    0.681900
   3 N :    0.113142
   4 C :   -0.698235
   5 C :   -1.039392
   6 C :   -0.233563
   7 C :   -0.393177
   8 H :   -0.374641
   9 H :   -0.399331

  Mayer bond orders larger than 0.100000
B(  0-Cl,  5-C ) :   0.7316 B(  1-S ,  3-N ) :   1.0506 B(  1-S ,  4-C ) :   1.1036
B(  2-O ,  4-C ) :   0.1990 B(  2-O ,  7-C ) :   1.4501 B(  3-N ,  6-C ) :   1.5074
B(  3-N ,  8-H ) :  -0.1077 B(  4-C ,  5-C ) :   1.2142 B(  4-C ,  6-C ) :  -0.1598
B(  4-C ,  7-C ) :   0.8969 B(  4-C ,  9-H ) :  -0.1024 B(  5-C ,  6-C ) :   1.1120
B(  6-C ,  8-H ) :   0.7625 B(  7-C ,  9-H ) :   0.8729

MP2 TOTAL ENERGY:    -1140.628501428 Eh
FINAL SINGLE POINT ENERGY     -1140.628501428028

DIPOLE MOMENT
-------------
                                X             Y             Z
Electronic contribution:      2.13057      -1.67711      -0.00000
Nuclear contribution   :     -1.49394       0.76398       0.00000
                        -----------------------------------------
Total Dipole Moment    :      0.63662      -0.91313      -0.00000
                        -----------------------------------------
Magnitude (a.u.)       :      1.11315
Magnitude (Debye)      :      2.82939

Rotational constants in cm-1:     0.064044     0.046306     0.026875
Rotational constants in MHz :  1919.988034  1388.210022   805.679281

                             ****ORCA TERMINATED NORMALLY****
TOTAL RUN TIME: 0 days 0 hours 18 minutes 18 seconds 807 msec
