                         Program Version 5.0.4 -  RELEASE  -
|  1> !ri-mp2 aug-cc-pvqz aug-cc-pvqz/c tightscf
|  2> %pal nprocs 16 end
|  3>
|  4> * xyz 0 1
|  5> Cl    -2.003064   -0.016547   -0.000005
|  6> N      1.843891    0.756301    0.000005
|  7> N      1.813601   -0.586654    0.000004
|  8> C     -0.275304   -0.001147    0.000000
|  9> C      0.569529    1.124682    0.000002
| 10> C      0.559203   -1.094849    0.000001
| 11> H      2.680219   -1.094481    0.000006
| 12> H      0.296397    2.165829    0.000002
| 13> H      0.352459   -2.149705    0.000000
| 14> *
| 15>
| 16>                          ****END OF INPUT****

CARTESIAN COORDINATES (ANGSTROEM)
---------------------------------
  Cl    -2.003064   -0.016547   -0.000005
  N      1.843891    0.756301    0.000005
  N      1.813601   -0.586654    0.000004
  C     -0.275304   -0.001147    0.000000
  C      0.569529    1.124682    0.000002
  C      0.559203   -1.094849    0.000001
  H      2.680219   -1.094481    0.000006
  H      0.296397    2.165829    0.000002
  H      0.352459   -2.149705    0.000000

 Total Charge           Charge          ....    0
 Multiplicity           Mult            ....    1
 Number of Electrons    NEL             ....   52
 Basis Dimension        Dim             ....  622

ORBITAL ENERGIES
----------------

  NO   OCC          E(Eh)            E(eV)
   0   2.0000    -104.846674     -2853.0231
   1   2.0000     -15.654891      -425.9913
   2   2.0000     -15.602851      -424.5752
   3   2.0000     -11.294154      -307.3295
   4   2.0000     -11.288935      -307.1875
   5   2.0000     -11.269130      -306.6486
   6   2.0000     -10.571438      -287.6635
   7   2.0000      -8.038686      -218.7438
   8   2.0000      -8.036880      -218.6946
   9   2.0000      -8.036778      -218.6919
  10   2.0000      -1.394699       -37.9517
  11   2.0000      -1.158124       -31.5141
  12   2.0000      -1.115400       -30.3516
  13   2.0000      -1.032775       -28.1032
  14   2.0000      -0.841140       -22.8886
  15   2.0000      -0.804394       -21.8887
  16   2.0000      -0.753142       -20.4940
  17   2.0000      -0.632702       -17.2167
  18   2.0000      -0.631001       -17.1704
  19   2.0000      -0.598321       -16.2811
  20   2.0000      -0.588691       -16.0191
  21   2.0000      -0.503966       -13.7136
  22   2.0000      -0.490957       -13.3596
  23   2.0000      -0.448902       -12.2153
  24   2.0000      -0.379527       -10.3275
  25   2.0000      -0.347764        -9.4631
  26   0.0000       0.019728         0.5368
  27   0.0000       0.033874         0.9218
  28   0.0000       0.037447         1.0190
  29   0.0000       0.062887         1.7113
  30   0.0000       0.063661         1.7323

MULLIKEN ATOMIC CHARGES
-----------------------
   0 Cl:   -0.161060
   1 N :   -0.460592
   2 N :   -0.253525
   3 C :   -0.217946
   4 C :   -0.097579
   5 C :   -0.084263
   6 H :    0.260021
   7 H :    0.517969
   8 H :    0.496974
Sum of atomic charges:    0.0000000

LOEWDIN ATOMIC CHARGES
----------------------
   0 Cl:    1.134826
   1 N :    0.461501
   2 N :    0.534127
   3 C :   -0.952737
   4 C :   -0.081012
   5 C :    0.062437
   6 H :   -0.479718
   7 H :   -0.364130
   8 H :   -0.315293

  Mayer bond orders larger than 0.100000
B(  0-Cl,  3-C ) :   0.7304 B(  1-N ,  2-N ) :   0.7176 B(  1-N ,  4-C ) :   1.4975
B(  2-N ,  5-C ) :   1.2125 B(  2-N ,  6-H ) :   1.0072 B(  3-C ,  4-C ) :   1.1780
B(  3-C ,  5-C ) :   1.4419 B(  4-C ,  7-H ) :   0.7903 B(  5-C ,  8-H ) :   0.7759

MP2 TOTAL ENERGY:     -684.977808944 Eh
FINAL SINGLE POINT ENERGY      -684.977808943635

DIPOLE MOMENT
-------------
                                X             Y             Z
Electronic contribution:     -5.48469       0.11005      -0.00001
Nuclear contribution   :      5.92131      -1.00370       0.00001
                        -----------------------------------------
Total Dipole Moment    :      0.43662      -0.89364       0.00000
                        -----------------------------------------
Magnitude (a.u.)       :      0.99460
Magnitude (Debye)      :      2.52808

Rotational constants in cm-1:     0.318271     0.066992     0.055343
Rotational constants in MHz :  9541.517979  2008.381679  1659.149470

                             ****ORCA TERMINATED NORMALLY****
TOTAL RUN TIME: 0 days 0 hours 12 minutes 49 seconds 170 msec
