                         Program Version 5.0.4 -  RELEASE  -
|  1> !ri-mp2 aug-cc-pvqz aug-cc-pvqz/c tightscf
|  2> %pal nprocs 16 end
|  3>
|  4> * xyz 0 1
|  5> N      0.022052   -1.868589        0.000000
|  6> C     -1.118779   -1.180044        0.000000
|  7> C     -1.190003    0.206824        0.000000
|  8> C      0.000000    0.928441        0.000000
|  9> C      1.202363    0.228588        0.000000
| 10> C      1.152339   -1.156758        0.000000
| 11> O      0.047471    2.286339        0.000000
| 12> H     -2.032661   -1.763240        0.000000
| 13> H     -2.150092    0.708021        0.000000
| 14> H      2.143131    0.759763        0.000000
| 15> H      2.074927   -1.725725        0.000000
| 16> H     -0.844958    2.648295        0.000000
| 17> *
| 18>
| 19>                          ****END OF INPUT****

CARTESIAN COORDINATES (ANGSTROEM)
---------------------------------
  N      0.022052   -1.868589    0.000000
  C     -1.118779   -1.180044    0.000000
  C     -1.190003    0.206824    0.000000
  C      0.000000    0.928441    0.000000
  C      1.202363    0.228588    0.000000
  C      1.152339   -1.156758    0.000000
  O      0.047471    2.286339    0.000000
  H     -2.032661   -1.763240    0.000000
  H     -2.150092    0.708021    0.000000
  H      2.143131    0.759763    0.000000
  H      2.074927   -1.725725    0.000000
  H     -0.844958    2.648295    0.000000

 Total Charge           Charge          ....    0
 Multiplicity           Mult            ....    1
 Number of Electrons    NEL             ....   50
 Basis Dimension        Dim             ....  790

ORBITAL ENERGIES
----------------

  NO   OCC          E(Eh)            E(eV)
   0   2.0000     -20.608913      -560.7970
   1   2.0000     -15.555561      -423.2883
   2   2.0000     -11.327920      -308.2484
   3   2.0000     -11.280368      -306.9544
   4   2.0000     -11.277711      -306.8821
   5   2.0000     -11.240121      -305.8592
   6   2.0000     -11.233880      -305.6894
   7   2.0000      -1.427503       -38.8443
   8   2.0000      -1.258434       -34.2437
   9   2.0000      -1.081134       -29.4191
  10   2.0000      -1.040210       -28.3056
  11   2.0000      -0.877835       -23.8871
  12   2.0000      -0.857765       -23.3410
  13   2.0000      -0.759742       -20.6736
  14   2.0000      -0.701911       -19.1000
  15   2.0000      -0.665932       -18.1209
  16   2.0000      -0.633627       -17.2419
  17   2.0000      -0.611896       -16.6505
  18   2.0000      -0.603227       -16.4146
  19   2.0000      -0.591504       -16.0956
  20   2.0000      -0.527898       -14.3648
  21   2.0000      -0.517622       -14.0852
  22   2.0000      -0.421280       -11.4636
  23   2.0000      -0.361513        -9.8373
  24   2.0000      -0.355300        -9.6682
  25   0.0000       0.019404         0.5280
  26   0.0000       0.029826         0.8116
  27   0.0000       0.033075         0.9000
  28   0.0000       0.043601         1.1864
  29   0.0000       0.049687         1.3520

MULLIKEN ATOMIC CHARGES
-----------------------
   0 N :   -0.574238
   1 C :   -0.181333
   2 C :   -0.609916
   3 C :    1.006240
   4 C :   -0.532166
   5 C :   -0.262043
   6 O :   -0.774719
   7 H :    0.458627
   8 H :    0.276622
   9 H :    0.367754
  10 H :    0.459971
  11 H :    0.365199
Sum of atomic charges:    0.0000000

LOEWDIN ATOMIC CHARGES
----------------------
   0 N :    0.582422
   1 C :    0.059518
   2 C :    0.320791
   3 C :   -0.457041
   4 C :    0.313392
   5 C :    0.059958
   6 O :    1.282601
   7 H :   -0.351030
   8 H :   -0.331212
   9 H :   -0.332815
  10 H :   -0.351438
  11 H :   -0.795148

  Mayer bond orders larger than 0.100000
B(  0-N ,  1-C ) :   1.2537 B(  0-N ,  5-C ) :   1.2123 B(  0-N ,  7-H ) :  -0.1014
B(  1-C ,  2-C ) :   1.2833 B(  1-C ,  3-C ) :  -0.1432 B(  1-C ,  7-H ) :   0.8767
B(  2-C ,  3-C ) :   1.2288 B(  2-C ,  6-O ) :   0.1754 B(  2-C ,  7-H ) :  -0.1056
B(  2-C ,  8-H ) :   0.9938 B(  3-C ,  4-C ) :   1.1566 B(  3-C ,  5-C ) :  -0.2093
B(  3-C ,  6-O ) :   0.3718 B(  4-C ,  5-C ) :   1.3414 B(  4-C ,  6-O ) :   0.1773
B(  4-C ,  9-H ) :   0.8995 B(  5-C , 10-H ) :   0.8979 B(  6-O , 11-H ) :   0.8838

MP2 TOTAL ENERGY:     -323.001275248 Eh
FINAL SINGLE POINT ENERGY      -323.001275247763

DIPOLE MOMENT
-------------
                                X             Y             Z
Electronic contribution:      0.24814       0.20954      -0.00000
Nuclear contribution   :     -0.79859       0.64398       0.00000
                        -----------------------------------------
Total Dipole Moment    :     -0.55045       0.85351      -0.00000
                        -----------------------------------------
Magnitude (a.u.)       :      1.01562
Magnitude (Debye)      :      2.58149

Rotational constants in cm-1:     0.200926     0.088202     0.061295
Rotational constants in MHz :  6023.595181  2644.228179  1837.573224

                             ****ORCA TERMINATED NORMALLY****
TOTAL RUN TIME: 0 days 0 hours 13 minutes 43 seconds 688 msec
