                         Program Version 5.0.4 -  RELEASE  -
|  1> !ri-mp2 aug-cc-pvqz aug-cc-pvqz/c tightscf
|  2> %pal nprocs 16 end
|  3>
|  4> * xyz 0 1
|  5> C      0.000000    1.224565    0.305825
|  6> C      0.000000   -1.224565    0.305825
|  7> C      0.000000    1.188942   -1.044134
|  8> C      0.000000   -1.188942   -1.044134
|  9> C      0.000000    0.000000    1.104808
| 10> N      0.000000    0.000000   -1.722199
| 11> O      0.000000    0.000000    2.335063
| 12> H      0.000000    2.171811    0.824427
| 13> H      0.000000   -2.171811    0.824427
| 14> H      0.000000    2.077841   -1.658455
| 15> H      0.000000   -2.077841   -1.658455
| 16> H      0.000000    0.000000   -2.726202
| 17> *
| 18>
| 19>                          ****END OF INPUT****

CARTESIAN COORDINATES (ANGSTROEM)
---------------------------------
  C      0.000000    1.224565    0.305825
  C      0.000000   -1.224565    0.305825
  C      0.000000    1.188942   -1.044134
  C      0.000000   -1.188942   -1.044134
  C      0.000000    0.000000    1.104808
  N      0.000000    0.000000   -1.722199
  O      0.000000    0.000000    2.335063
  H      0.000000    2.171811    0.824427
  H      0.000000   -2.171811    0.824427
  H      0.000000    2.077841   -1.658455
  H      0.000000   -2.077841   -1.658455
  H      0.000000    0.000000   -2.726202

 Total Charge           Charge          ....    0
 Multiplicity           Mult            ....    1
 Number of Electrons    NEL             ....   50
 Basis Dimension        Dim             ....  790

ORBITAL ENERGIES
----------------

  NO   OCC          E(Eh)            E(eV)
   0   2.0000     -20.498256      -557.7859
   1   2.0000     -15.636247      -425.4839
   2   2.0000     -11.311360      -307.7978
   3   2.0000     -11.308721      -307.7259
   4   2.0000     -11.308696      -307.7253
   5   2.0000     -11.231815      -305.6332
   6   2.0000     -11.231802      -305.6329
   7   2.0000      -1.342835       -36.5404
   8   2.0000      -1.314268       -35.7630
   9   2.0000      -1.068193       -29.0670
  10   2.0000      -1.065667       -28.9983
  11   2.0000      -0.877900       -23.8889
  12   2.0000      -0.854777       -23.2597
  13   2.0000      -0.785566       -21.3763
  14   2.0000      -0.695559       -18.9271
  15   2.0000      -0.671928       -18.2841
  16   2.0000      -0.632648       -17.2152
  17   2.0000      -0.620417       -16.8824
  18   2.0000      -0.602056       -16.3828
  19   2.0000      -0.564148       -15.3512
  20   2.0000      -0.544785       -14.8243
  21   2.0000      -0.510139       -13.8816
  22   2.0000      -0.397267       -10.8102
  23   2.0000      -0.389502       -10.5989
  24   2.0000      -0.326643        -8.8884
  25   0.0000       0.009625         0.2619
  26   0.0000       0.023251         0.6327
  27   0.0000       0.034585         0.9411
  28   0.0000       0.043980         1.1968
  29   0.0000       0.051034         1.3887

MULLIKEN ATOMIC CHARGES
-----------------------
   0 C :   -0.512896
   1 C :   -0.512898
   2 C :   -0.195297
   3 C :   -0.195296
   4 C :    1.010297
   5 N :   -0.424827
   6 O :   -0.823502
   7 H :    0.315940
   8 H :    0.315941
   9 H :    0.450939
  10 H :    0.450938
  11 H :    0.120660
Sum of atomic charges:   -0.0000000

LOEWDIN ATOMIC CHARGES
----------------------
   0 C :    0.314584
   1 C :    0.314584
   2 C :    0.225676
   3 C :    0.225676
   4 C :   -0.766736
   5 N :    0.823791
   6 O :    0.647278
   7 H :   -0.352863
   8 H :   -0.352863
   9 H :   -0.305004
  10 H :   -0.305004
  11 H :   -0.469118

  Mayer bond orders larger than 0.100000
B(  0-C ,  2-C ) :   1.4901 B(  0-C ,  4-C ) :   1.1119 B(  0-C ,  6-O ) :   0.2277
B(  0-C ,  7-H ) :   0.9351 B(  1-C ,  3-C ) :   1.4901 B(  1-C ,  4-C ) :   1.1119
B(  1-C ,  6-O ) :   0.2277 B(  1-C ,  8-H ) :   0.9351 B(  2-C ,  4-C ) :  -0.1081
B(  2-C ,  5-N ) :   0.9352 B(  2-C ,  7-H ) :  -0.1074 B(  2-C ,  9-H ) :   0.8642
B(  3-C ,  4-C ) :  -0.1081 B(  3-C ,  5-N ) :   0.9352 B(  3-C ,  8-H ) :  -0.1074
B(  3-C , 10-H ) :   0.8642 B(  4-C ,  6-O ) :   0.9476 B(  5-N , 11-H ) :   1.1707

MP2 TOTAL ENERGY:     -322.993862135 Eh
FINAL SINGLE POINT ENERGY      -322.993862134688

DIPOLE MOMENT
-------------
                                X             Y             Z
Electronic contribution:      0.00000      -0.00000       1.39771
Nuclear contribution   :      0.00000       0.00000      -4.31257
                        -----------------------------------------
Total Dipole Moment    :      0.00000      -0.00000      -2.91485
                        -----------------------------------------
Magnitude (a.u.)       :      2.91485
Magnitude (Debye)      :      7.40897

Rotational constants in cm-1:     0.191146     0.090591     0.061462
Rotational constants in MHz :  5730.417964  2715.860918  1842.588720

                             ****ORCA TERMINATED NORMALLY****
TOTAL RUN TIME: 0 days 0 hours 21 minutes 5 seconds 521 msec
