                         Program Version 5.0.4 -  RELEASE  -
|  1> !ri-mp2 aug-cc-pvqz aug-cc-pvqz/c tightscf
|  2> %pal nprocs 16 end
|  3>
|  4> * xyz 0 1
|  5> Cl     2.873531    0.486714    0.000430
|  6> O     -2.513569    1.387263   -0.000565
|  7> O     -3.095526   -0.762540   -0.000395
|  8> C     -2.179793    0.237520   -0.000377
|  9> C     -0.799428   -0.203129   -0.000117
| 10> C      0.356403   -0.534339    0.000095
| 11> C      1.742195   -0.935325    0.000352
| 12> H     -2.655104   -1.621927   -0.000224
| 13> H      1.980933   -1.519238   -0.885367
| 14> H      1.980645   -1.519107    0.886235
| 15> *
| 16>
| 17>                          ****END OF INPUT****

CARTESIAN COORDINATES (ANGSTROEM)
---------------------------------
  Cl     2.873531    0.486714    0.000430
  O     -2.513569    1.387263   -0.000565
  O     -3.095526   -0.762540   -0.000395
  C     -2.179793    0.237520   -0.000377
  C     -0.799428   -0.203129   -0.000117
  C      0.356403   -0.534339    0.000095
  C      1.742195   -0.935325    0.000352
  H     -2.655104   -1.621927   -0.000224
  H      1.980933   -1.519238   -0.885367
  H      1.980645   -1.519107    0.886235

 Total Charge           Charge          ....    0
 Multiplicity           Mult            ....    1
 Number of Electrons    NEL             ....   60
 Basis Dimension        Dim             ....  702

ORBITAL ENERGIES
----------------

  NO   OCC          E(Eh)            E(eV)
   0   2.0000    -104.851882     -2853.1648
   1   2.0000     -20.630127      -561.3743
   2   2.0000     -20.565964      -559.6283
   3   2.0000     -11.423985      -310.8624
   4   2.0000     -11.350415      -308.8605
   5   2.0000     -11.295330      -307.3616
   6   2.0000     -11.276719      -306.8551
   7   2.0000     -10.576755      -287.8081
   8   2.0000      -8.043784      -218.8825
   9   2.0000      -8.041953      -218.8327
  10   2.0000      -8.041910      -218.8315
  11   2.0000      -1.480639       -40.2902
  12   2.0000      -1.386623       -37.7319
  13   2.0000      -1.172116       -31.8949
  14   2.0000      -1.088638       -29.6234
  15   2.0000      -0.985067       -26.8050
  16   2.0000      -0.898791       -24.4574
  17   2.0000      -0.820672       -22.3316
  18   2.0000      -0.709454       -19.3052
  19   2.0000      -0.682372       -18.5683
  20   2.0000      -0.676321       -18.4036
  21   2.0000      -0.651067       -17.7164
  22   2.0000      -0.621381       -16.9086
  23   2.0000      -0.592585       -16.1251
  24   2.0000      -0.507448       -13.8084
  25   2.0000      -0.492924       -13.4131
  26   2.0000      -0.471849       -12.8397
  27   2.0000      -0.468193       -12.7402
  28   2.0000      -0.433218       -11.7885
  29   2.0000      -0.432364       -11.7652
  30   0.0000       0.012943         0.3522
  31   0.0000       0.030730         0.8362
  32   0.0000       0.031247         0.8503
  33   0.0000       0.049071         1.3353
  34   0.0000       0.061570         1.6754

MULLIKEN ATOMIC CHARGES
-----------------------
   0 Cl:   -0.268238
   1 O :   -0.679140
   2 O :   -0.706824
   3 C :    1.429676
   4 C :   -0.384284
   5 C :   -0.230654
   6 C :   -0.143692
   7 H :    0.366343
   8 H :    0.308408
   9 H :    0.308406
Sum of atomic charges:    0.0000000

LOEWDIN ATOMIC CHARGES
----------------------
   0 Cl:    1.099024
   1 O :    0.642357
   2 O :    1.216001
   3 C :   -1.139080
   4 C :    0.050633
   5 C :    0.015879
   6 C :   -0.207408
   7 H :   -0.823238
   8 H :   -0.427085
   9 H :   -0.427084

  Mayer bond orders larger than 0.100000
B(  0-Cl,  5-C ) :  -0.1115 B(  0-Cl,  6-C ) :   0.9190 B(  1-O ,  3-C ) :   1.4681
B(  1-O ,  4-C ) :   0.1636 B(  2-O ,  3-C ) :   0.7055 B(  2-O ,  4-C ) :   0.1230
B(  2-O ,  7-H ) :   0.8616 B(  3-C ,  4-C ) :   0.9332 B(  4-C ,  5-C ) :   3.1093
B(  5-C ,  6-C ) :   0.7710 B(  6-C ,  8-H ) :   0.8955 B(  6-C ,  9-H ) :   0.8955

MP2 TOTAL ENERGY:     -763.918044420 Eh
FINAL SINGLE POINT ENERGY      -763.918044420265

DIPOLE MOMENT
-------------
                                X             Y             Z
Electronic contribution:      3.67658       3.01904       0.00034
Nuclear contribution   :     -2.75056      -5.08353       0.00001
                        -----------------------------------------
Total Dipole Moment    :      0.92602      -2.06448       0.00036
                        -----------------------------------------
Magnitude (a.u.)       :      2.26265
Magnitude (Debye)      :      5.75120

Rotational constants in cm-1:     0.233395     0.025296     0.022921
Rotational constants in MHz :  6996.998808   758.362760   687.148949

                             ****ORCA TERMINATED NORMALLY****
TOTAL RUN TIME: 0 days 0 hours 13 minutes 14 seconds 939 msec
