                         Program Version 5.0.4 -  RELEASE  -
|  1> !ri-mp2 aug-cc-pvqz aug-cc-pvqz/c tightscf
|  2> %pal nprocs 16 end
|  3>
|  4> * xyz 0 1
|  5> C      0.106519    0.321839    1.198642
|  6> C      0.106519    0.321839   -1.198642
|  7> C      0.106519   -1.199020    1.172521
|  8> C      0.106519   -1.199020   -1.172521
|  9> C     -0.609708    2.294708    0.000000
| 10> N     -0.539239    0.845250    0.000000
| 11> O      0.737364   -1.697303    0.000000
| 12> H     -0.440093    0.670990    2.077415
| 13> H      1.146930    0.681983    1.286343
| 14> H      1.146930    0.681983   -1.286343
| 15> H     -0.440093    0.670990   -2.077415
| 16> H      0.665003   -1.599068    2.017754
| 17> H     -0.925754   -1.568194    1.224034
| 18> H     -0.925754   -1.568194   -1.224034
| 19> H      0.665003   -1.599068   -2.017754
| 20> H      0.384828    2.772550    0.000000
| 21> H     -1.149724    2.637811    0.883102
| 22> H     -1.149724    2.637811   -0.883102
| 23> *
| 24>
| 25>                          ****END OF INPUT****

CARTESIAN COORDINATES (ANGSTROEM)
---------------------------------
  C      0.106519    0.321839    1.198642
  C      0.106519    0.321839   -1.198642
  C      0.106519   -1.199020    1.172521
  C      0.106519   -1.199020   -1.172521
  C     -0.609708    2.294708    0.000000
  N     -0.539239    0.845250    0.000000
  O      0.737364   -1.697303    0.000000
  H     -0.440093    0.670990    2.077415
  H      1.146930    0.681983    1.286343
  H      1.146930    0.681983   -1.286343
  H     -0.440093    0.670990   -2.077415
  H      0.665003   -1.599068    2.017754
  H     -0.925754   -1.568194    1.224034
  H     -0.925754   -1.568194   -1.224034
  H      0.665003   -1.599068   -2.017754
  H      0.384828    2.772550    0.000000
  H     -1.149724    2.637811    0.883102
  H     -1.149724    2.637811   -0.883102

 Total Charge           Charge          ....    0
 Multiplicity           Mult            ....    1
 Number of Electrons    NEL             ....   56
 Basis Dimension        Dim             .... 1066

ORBITAL ENERGIES
----------------

  NO   OCC          E(Eh)            E(eV)
   0   2.0000     -20.549308      -559.1751
   1   2.0000     -15.548177      -423.0874
   2   2.0000     -11.269180      -306.6500
   3   2.0000     -11.269162      -306.6495
   4   2.0000     -11.247619      -306.0633
   5   2.0000     -11.247606      -306.0629
   6   2.0000     -11.243738      -305.9577
   7   2.0000      -1.372233       -37.3404
   8   2.0000      -1.229506       -33.4566
   9   2.0000      -1.034901       -28.1611
  10   2.0000      -0.980431       -26.6789
  11   2.0000      -0.878046       -23.8928
  12   2.0000      -0.868968       -23.6458
  13   2.0000      -0.772615       -21.0239
  14   2.0000      -0.679555       -18.4916
  15   2.0000      -0.643778       -17.5181
  16   2.0000      -0.638710       -17.3802
  17   2.0000      -0.633032       -17.2257
  18   2.0000      -0.626613       -17.0510
  19   2.0000      -0.571403       -15.5487
  20   2.0000      -0.555165       -15.1068
  21   2.0000      -0.538736       -14.6597
  22   2.0000      -0.527552       -14.3554
  23   2.0000      -0.501731       -13.6528
  24   2.0000      -0.483822       -13.1655
  25   2.0000      -0.456603       -12.4248
  26   2.0000      -0.414802       -11.2873
  27   2.0000      -0.359000        -9.7689
  28   0.0000       0.026326         0.7164
  29   0.0000       0.031048         0.8449
  30   0.0000       0.034434         0.9370
  31   0.0000       0.034906         0.9498
  32   0.0000       0.046800         1.2735

MULLIKEN ATOMIC CHARGES
-----------------------
   0 C :   -0.458589
   1 C :   -0.458592
   2 C :   -0.105416
   3 C :   -0.105423
   4 C :   -0.901542
   5 N :   -0.187390
   6 O :   -0.937458
   7 H :    0.336921
   8 H :    0.239246
   9 H :    0.239244
  10 H :    0.336924
  11 H :    0.396853
  12 H :    0.177077
  13 H :    0.177073
  14 H :    0.396859
  15 H :    0.265699
  16 H :    0.294260
  17 H :    0.294254
Sum of atomic charges:   -0.0000000

LOEWDIN ATOMIC CHARGES
----------------------
   0 C :    0.323331
   1 C :    0.323331
   2 C :    0.180347
   3 C :    0.180347
   4 C :    0.744803
   5 N :    0.486975
   6 O :    0.902829
   7 H :   -0.284592
   8 H :   -0.262520
   9 H :   -0.262520
  10 H :   -0.284592
  11 H :   -0.305246
  12 H :   -0.290426
  13 H :   -0.290426
  14 H :   -0.305246
  15 H :   -0.268370
  16 H :   -0.294013
  17 H :   -0.294013

  Mayer bond orders larger than 0.100000
B(  0-C ,  2-C ) :   1.0155 B(  0-C ,  5-N ) :   0.8285 B(  0-C ,  7-H ) :   0.8710
B(  0-C ,  8-H ) :   0.9044 B(  1-C ,  3-C ) :   1.0155 B(  1-C ,  5-N ) :   0.8285
B(  1-C ,  9-H ) :   0.9044 B(  1-C , 10-H ) :   0.8710 B(  2-C ,  6-O ) :   0.6828
B(  2-C , 11-H ) :   0.8226 B(  2-C , 12-H ) :   1.0149 B(  3-C ,  6-O ) :   0.6829
B(  3-C , 13-H ) :   1.0149 B(  3-C , 14-H ) :   0.8226 B(  4-C ,  5-N ) :   0.8781
B(  4-C , 15-H ) :   0.9628 B(  4-C , 16-H ) :   0.9543 B(  4-C , 17-H ) :   0.9543

MP2 TOTAL ENERGY:     -326.569214649 Eh
FINAL SINGLE POINT ENERGY      -326.569214649150

DIPOLE MOMENT
-------------
                                X             Y             Z
Electronic contribution:      0.85602      -4.03567      -0.00000
Nuclear contribution   :     -1.05432       4.57272      -0.00000
                        -----------------------------------------
Total Dipole Moment    :     -0.19830       0.53705      -0.00000
                        -----------------------------------------
Magnitude (a.u.)       :      0.57249
Magnitude (Debye)      :      1.45516

Rotational constants in cm-1:     0.160190     0.077987     0.057014
Rotational constants in MHz :  4802.386395  2337.986611  1709.231312

                             ****ORCA TERMINATED NORMALLY****
TOTAL RUN TIME: 0 days 0 hours 36 minutes 1 seconds 822 msec
