                         Program Version 5.0.4 -  RELEASE  -
|  1> !ri-mp2 aug-cc-pvqz aug-cc-pvqz/c tightscf
|  2> %pal nprocs 16 end
|  3>
|  4> * xyz 0 1
|  5> S      1.535241    1.076974    0.000006
|  6> S     -2.578025   -0.232305    0.000005
|  7> O      2.214634   -1.515497   -0.000019
|  8> N     -0.028314   -1.003049   -0.000009
|  9> C     -0.279530    1.342985    0.000012
| 10> C     -0.953928   -0.011648    0.000002
| 11> C      1.338317   -0.698704   -0.000010
| 12> H     -0.577310    1.904471   -0.882290
| 13> H     -0.577306    1.904457    0.882325
| 14> H     -0.308867   -1.974111   -0.000017
| 15> *
| 16>
| 17>                          ****END OF INPUT****

CARTESIAN COORDINATES (ANGSTROEM)
---------------------------------
  S      1.535241    1.076974    0.000006
  S     -2.578025   -0.232305    0.000005
  O      2.214634   -1.515497   -0.000019
  N     -0.028314   -1.003049   -0.000009
  C     -0.279530    1.342985    0.000012
  C     -0.953928   -0.011648    0.000002
  C      1.338317   -0.698704   -0.000010
  H     -0.577310    1.904471   -0.882290
  H     -0.577306    1.904457    0.882325
  H     -0.308867   -1.974111   -0.000017

 Total Charge           Charge          ....    0
 Multiplicity           Mult            ....    1
 Number of Electrons    NEL             ....   68
 Basis Dimension        Dim             ....  706

ORBITAL ENERGIES
----------------

  NO   OCC          E(Eh)            E(eV)
   0   2.0000     -92.007100     -2503.6405
   1   2.0000     -91.937619     -2501.7498
   2   2.0000     -20.578187      -559.9609
   3   2.0000     -15.657944      -426.0743
   4   2.0000     -11.423853      -310.8588
   5   2.0000     -11.391956      -309.9909
   6   2.0000     -11.314889      -307.8938
   7   2.0000      -9.009375      -245.1576
   8   2.0000      -8.941601      -243.3133
   9   2.0000      -6.690546      -182.0590
  10   2.0000      -6.689782      -182.0382
  11   2.0000      -6.688802      -182.0116
  12   2.0000      -6.623079      -180.2231
  13   2.0000      -6.621744      -180.1868
  14   2.0000      -6.620781      -180.1606
  15   2.0000      -1.446793       -39.3692
  16   2.0000      -1.330793       -36.2127
  17   2.0000      -1.112154       -30.2633
  18   2.0000      -1.066560       -29.0226
  19   2.0000      -0.935395       -25.4534
  20   2.0000      -0.859605       -23.3910
  21   2.0000      -0.839487       -22.8436
  22   2.0000      -0.708619       -19.2825
  23   2.0000      -0.682871       -18.5819
  24   2.0000      -0.647227       -17.6119
  25   2.0000      -0.633557       -17.2400
  26   2.0000      -0.618768       -16.8375
  27   2.0000      -0.571331       -15.5467
  28   2.0000      -0.524769       -14.2797
  29   2.0000      -0.511230       -13.9113
  30   2.0000      -0.467398       -12.7186
  31   2.0000      -0.411979       -11.2105
  32   2.0000      -0.369862       -10.0645
  33   2.0000      -0.359337        -9.7781
  34   0.0000       0.021943         0.5971
  35   0.0000       0.033604         0.9144
  36   0.0000       0.035005         0.9525
  37   0.0000       0.047717         1.2984
  38   0.0000       0.052114         1.4181

MULLIKEN ATOMIC CHARGES
-----------------------
   0 S :    0.149945
   1 S :   -0.086989
   2 O :   -0.693304
   3 N :   -0.311731
   4 C :   -0.416663
   5 C :   -0.038870
   6 C :    0.651356
   7 H :    0.307919
   8 H :    0.307919
   9 H :    0.130418
Sum of atomic charges:    0.0000000

LOEWDIN ATOMIC CHARGES
----------------------
   0 S :    1.324414
   1 S :    1.100159
   2 O :    0.597834
   3 N :    0.609831
   4 C :    0.016763
   5 C :   -1.102927
   6 C :   -1.259624
   7 H :   -0.380074
   8 H :   -0.380073
   9 H :   -0.526304

  Mayer bond orders larger than 0.100000
B(  0-S ,  4-C ) :   0.9090 B(  0-S ,  6-C ) :   1.1003 B(  1-S ,  5-C ) :   1.6014
B(  2-O ,  3-N ) :   0.1428 B(  2-O ,  6-C ) :   1.4242 B(  3-N ,  5-C ) :   0.8649
B(  3-N ,  6-C ) :   1.0027 B(  3-N ,  9-H ) :   1.1230 B(  4-C ,  5-C ) :   0.9475
B(  4-C ,  7-H ) :   0.8717 B(  4-C ,  8-H ) :   0.8718

MP2 TOTAL ENERGY:    -1041.232743131 Eh
FINAL SINGLE POINT ENERGY     -1041.232743130610

DIPOLE MOMENT
-------------
                                X             Y             Z
Electronic contribution:      1.23239      -0.95417      -0.00001
Nuclear contribution   :     -1.33916       1.70586       0.00002
                        -----------------------------------------
Total Dipole Moment    :     -0.10677       0.75169       0.00001
                        -----------------------------------------
Magnitude (a.u.)       :      0.75923
Magnitude (Debye)      :      1.92982

Rotational constants in cm-1:     0.129617     0.041847     0.031822
Rotational constants in MHz :  3885.819497  1254.551550   953.986542

                             ****ORCA TERMINATED NORMALLY****
TOTAL RUN TIME: 0 days 0 hours 14 minutes 32 seconds 370 msec
