                         Program Version 5.0.4 -  RELEASE  -
|  1> !ri-mp2 aug-cc-pvqz aug-cc-pvqz/c tightscf
|  2> %pal nprocs 16 end
|  3>
|  4> * xyz 0 1
|  5> Cl     2.401410   -0.258167   -0.000042
|  6> O     -2.704169   -0.697729    0.000040
|  7> N     -1.435056   -0.167750    0.000025
|  8> N     -1.265034    1.139232    0.000023
|  9> C      0.703455    0.056232   -0.000012
| 10> C     -0.307179   -0.895635    0.000004
| 11> C      0.067053    1.299981    0.000002
| 12> H     -3.268039    0.091657    0.000098
| 13> H     -0.301932   -1.969154    0.000002
| 14> H      0.500000    2.284319   -0.000003
| 15> *
| 16>
| 17>                          ****END OF INPUT****

CARTESIAN COORDINATES (ANGSTROEM)
---------------------------------
  Cl     2.401410   -0.258167   -0.000042
  O     -2.704169   -0.697729    0.000040
  N     -1.435056   -0.167750    0.000025
  N     -1.265034    1.139232    0.000023
  C      0.703455    0.056232   -0.000012
  C     -0.307179   -0.895635    0.000004
  C      0.067053    1.299981    0.000002
  H     -3.268039    0.091657    0.000098
  H     -0.301932   -1.969154    0.000002
  H      0.500000    2.284319   -0.000003

 Total Charge           Charge          ....    0
 Multiplicity           Mult            ....    1
 Number of Electrons    NEL             ....   60
 Basis Dimension        Dim             ....  702

ORBITAL ENERGIES
----------------

  NO   OCC          E(Eh)            E(eV)
   0   2.0000    -104.849416     -2853.0977
   1   2.0000     -20.650630      -561.9322
   2   2.0000     -15.724499      -427.8854
   3   2.0000     -15.613539      -424.8660
   4   2.0000     -11.299382      -307.4718
   5   2.0000     -11.295000      -307.3526
   6   2.0000     -11.275768      -306.8293
   7   2.0000     -10.574167      -287.7377
   8   2.0000      -8.041418      -218.8181
   9   2.0000      -8.039597      -218.7686
  10   2.0000      -8.039489      -218.7656
  11   2.0000      -1.514264       -41.2052
  12   2.0000      -1.352604       -36.8062
  13   2.0000      -1.159877       -31.5619
  14   2.0000      -1.109303       -30.1857
  15   2.0000      -1.024775       -27.8855
  16   2.0000      -0.852847       -23.2072
  17   2.0000      -0.818226       -22.2651
  18   2.0000      -0.754162       -20.5218
  19   2.0000      -0.702173       -19.1071
  20   2.0000      -0.701315       -19.0837
  21   2.0000      -0.621856       -16.9216
  22   2.0000      -0.605477       -16.4759
  23   2.0000      -0.586732       -15.9658
  24   2.0000      -0.566591       -15.4177
  25   2.0000      -0.504967       -13.7408
  26   2.0000      -0.498642       -13.5687
  27   2.0000      -0.456770       -12.4294
  28   2.0000      -0.372819       -10.1449
  29   2.0000      -0.348022        -9.4701
  30   0.0000       0.025163         0.6847
  31   0.0000       0.031805         0.8655
  32   0.0000       0.037263         1.0140
  33   0.0000       0.061348         1.6694
  34   0.0000       0.063550         1.7293

MULLIKEN ATOMIC CHARGES
-----------------------
   0 Cl:   -0.179320
   1 O :   -0.706748
   2 N :    0.417453
   3 N :   -0.693441
   4 C :   -0.263582
   5 C :    0.041670
   6 C :    0.001162
   7 H :    0.353226
   8 H :    0.504317
   9 H :    0.525263
Sum of atomic charges:    0.0000000

LOEWDIN ATOMIC CHARGES
----------------------
   0 Cl:    1.141125
   1 O :    1.162104
   2 N :   -0.234338
   3 N :    0.444743
   4 C :   -0.959897
   5 C :    0.045900
   6 C :   -0.072798
   7 H :   -0.848784
   8 H :   -0.315480
   9 H :   -0.362574

  Mayer bond orders larger than 0.100000
B(  0-Cl,  4-C ) :   0.7098 B(  1-O ,  2-N ) :   0.6793 B(  1-O ,  7-H ) :   0.9099
B(  2-N ,  3-N ) :   0.4853 B(  2-N ,  5-C ) :   1.1920 B(  3-N ,  4-C ) :   0.1221
B(  3-N ,  6-C ) :   1.3809 B(  4-C ,  5-C ) :   1.3948 B(  4-C ,  6-C ) :   1.2952
B(  5-C ,  8-H ) :   0.7518 B(  6-C ,  9-H ) :   0.7620

MP2 TOTAL ENERGY:     -760.066640149 Eh
FINAL SINGLE POINT ENERGY      -760.066640148741

DIPOLE MOMENT
-------------
                                X             Y             Z
Electronic contribution:      5.72450      -0.88138      -0.00011
Nuclear contribution   :     -6.24068       0.73290       0.00015
                        -----------------------------------------
Total Dipole Moment    :     -0.51619      -0.14848       0.00004
                        -----------------------------------------
Magnitude (a.u.)       :      0.53712
Magnitude (Debye)      :      1.36525

Rotational constants in cm-1:     0.248450     0.043158     0.036771
Rotational constants in MHz :  7448.342655  1293.849570  1102.359076

                             ****ORCA TERMINATED NORMALLY****
TOTAL RUN TIME: 0 days 0 hours 12 minutes 41 seconds 609 msec
