                         Program Version 5.0.4 -  RELEASE  -
|  1> !ri-mp2 aug-cc-pvqz aug-cc-pvqz/c tightscf
|  2> %pal nprocs 16 end
|  3>
|  4> * xyz 0 1
|  5> F      2.506325    1.085625   -0.291206
|  6> F      2.521596   -0.878303    0.707492
|  7> O     -2.800863   -1.049313   -0.310556
|  8> O     -2.668371    1.055585    0.407816
|  9> C      1.976955   -0.173421   -0.324959
| 10> C      0.523022   -0.117121   -0.183650
| 11> C     -0.674290   -0.101787   -0.111486
| 12> C     -2.125829   -0.103987   -0.024120
| 13> H     -1.980086    1.705683    0.601006
| 14> H      2.283524   -0.643865   -1.260372
| 15> *
| 16>
| 17>                          ****END OF INPUT****

CARTESIAN COORDINATES (ANGSTROEM)
---------------------------------
  F      2.506325    1.085625   -0.291206
  F      2.521596   -0.878303    0.707492
  O     -2.800863   -1.049313   -0.310556
  O     -2.668371    1.055585    0.407816
  C      1.976955   -0.173421   -0.324959
  C      0.523022   -0.117121   -0.183650
  C     -0.674290   -0.101787   -0.111486
  C     -2.125829   -0.103987   -0.024120
  H     -1.980086    1.705683    0.601006
  H      2.283524   -0.643865   -1.260372

 Total Charge           Charge          ....    0
 Multiplicity           Mult            ....    1
 Number of Electrons    NEL             ....   60
 Basis Dimension        Dim             ....  732

ORBITAL ENERGIES
----------------

  NO   OCC          E(Eh)            E(eV)
   0   2.0000     -26.340785      -716.7692
   1   2.0000     -26.340352      -716.7574
   2   2.0000     -20.640670      -561.6612
   3   2.0000     -20.579061      -559.9847
   4   2.0000     -11.468216      -312.0660
   5   2.0000     -11.436409      -311.2005
   6   2.0000     -11.303201      -307.5757
   7   2.0000     -11.297882      -307.4310
   8   2.0000      -1.690650       -46.0049
   9   2.0000      -1.629399       -44.3382
  10   2.0000      -1.492945       -40.6251
  11   2.0000      -1.399260       -38.0758
  12   2.0000      -1.124374       -30.5958
  13   2.0000      -1.023615       -27.8540
  14   2.0000      -0.918890       -25.0043
  15   2.0000      -0.842064       -22.9137
  16   2.0000      -0.817791       -22.2532
  17   2.0000      -0.807785       -21.9809
  18   2.0000      -0.788375       -21.4528
  19   2.0000      -0.698087       -18.9959
  20   2.0000      -0.694812       -18.9068
  21   2.0000      -0.673253       -18.3201
  22   2.0000      -0.664190       -18.0735
  23   2.0000      -0.661608       -18.0033
  24   2.0000      -0.631496       -17.1839
  25   2.0000      -0.596279       -16.2256
  26   2.0000      -0.518454       -14.1078
  27   2.0000      -0.506764       -13.7898
  28   2.0000      -0.461403       -12.5554
  29   2.0000      -0.457970       -12.4620
  30   0.0000       0.019536         0.5316
  31   0.0000       0.027197         0.7401
  32   0.0000       0.051121         1.3911
  33   0.0000       0.055475         1.5095
  34   0.0000       0.063999         1.7415

MULLIKEN ATOMIC CHARGES
-----------------------
   0 F :   -0.631170
   1 F :   -0.619757
   2 O :   -0.659010
   3 O :   -0.689222
   4 C :    1.253998
   5 C :   -0.508325
   6 C :   -0.332897
   7 C :    1.430261
   8 H :    0.373915
   9 H :    0.382206
Sum of atomic charges:   -0.0000000

LOEWDIN ATOMIC CHARGES
----------------------
   0 F :    0.749759
   1 F :    0.756505
   2 O :    0.647435
   3 O :    1.221949
   4 C :   -1.128706
   5 C :    0.066251
   6 C :    0.053189
   7 C :   -1.129832
   8 H :   -0.814396
   9 H :   -0.422154

  Mayer bond orders larger than 0.100000
B(  0-F ,  4-C ) :   0.4549 B(  1-F ,  4-C ) :   0.4502 B(  1-F ,  5-C ) :   0.1205
B(  2-O ,  3-O ) :   0.1028 B(  2-O ,  6-C ) :   0.1404 B(  2-O ,  7-C ) :   1.5120
B(  3-O ,  6-C ) :   0.1147 B(  3-O ,  7-C ) :   0.7521 B(  3-O ,  8-H ) :   0.8531
B(  4-C ,  5-C ) :   0.8056 B(  4-C ,  9-H ) :   0.8828 B(  5-C ,  6-C ) :   3.0984
B(  5-C ,  9-H ) :  -0.1320 B(  6-C ,  7-C ) :   0.8688

MP2 TOTAL ENERGY:     -503.107842854 Eh
FINAL SINGLE POINT ENERGY      -503.107842854090

DIPOLE MOMENT
-------------
                                X             Y             Z
Electronic contribution:      5.33535      -0.09802       0.70833
Nuclear contribution   :     -4.45682       0.80455      -1.00333
                        -----------------------------------------
Total Dipole Moment    :      0.87853       0.70653      -0.29501
                        -----------------------------------------
Magnitude (a.u.)       :      1.16535
Magnitude (Debye)      :      2.96208

Rotational constants in cm-1:     0.176288     0.027296     0.024961
Rotational constants in MHz :  5284.983863   818.318106   748.324762

                             ****ORCA TERMINATED NORMALLY****
TOTAL RUN TIME: 0 days 0 hours 13 minutes 9 seconds 808 msec
