                         Program Version 5.0.4 -  RELEASE  -
|  1> !ri-mp2 aug-cc-pvqz aug-cc-pvqz/c tightscf
|  2> %pal nprocs 16 end
|  3>
|  4> * xyz 0 1
|  5> Cl     2.146887   -0.158355   -0.305057
|  6> S     -1.585845   -0.628523   -0.400452
|  7> O     -1.548273    1.014367    0.043950
|  8> N     -0.277672   -1.009832    0.627787
|  9> C      0.609969    0.131067    0.637735
| 10> C     -0.158865    1.344018    0.027468
| 11> H     -0.595129   -1.227421    1.564642
| 12> H      0.945527    0.317665    1.652134
| 13> H      0.182044    1.521159   -0.992647
| 14> H     -0.032741    2.240381    0.631744
| 15> *
| 16>
| 17>                          ****END OF INPUT****

CARTESIAN COORDINATES (ANGSTROEM)
---------------------------------
  Cl     2.146887   -0.158355   -0.305057
  S     -1.585845   -0.628523   -0.400452
  O     -1.548273    1.014367    0.043950
  N     -0.277672   -1.009832    0.627787
  C      0.609969    0.131067    0.637735
  C     -0.158865    1.344018    0.027468
  H     -0.595129   -1.227421    1.564642
  H      0.945527    0.317665    1.652134
  H      0.182044    1.521159   -0.992647
  H     -0.032741    2.240381    0.631744

 Total Charge           Charge          ....    0
 Multiplicity           Mult            ....    1
 Number of Electrons    NEL             ....   64
 Basis Dimension        Dim             ....  672

ORBITAL ENERGIES
----------------

  NO   OCC          E(Eh)            E(eV)
   0   2.0000    -104.830119     -2852.5726
   1   2.0000     -92.036224     -2504.4330
   2   2.0000     -20.603019      -560.6366
   3   2.0000     -15.610402      -424.7806
   4   2.0000     -11.353837      -308.9536
   5   2.0000     -11.310327      -307.7696
   6   2.0000     -10.555681      -287.2347
   7   2.0000      -9.029624      -245.7086
   8   2.0000      -8.022610      -218.3063
   9   2.0000      -8.021021      -218.2631
  10   2.0000      -8.020972      -218.2618
  11   2.0000      -6.710754      -182.6089
  12   2.0000      -6.709601      -182.5775
  13   2.0000      -6.707999      -182.5339
  14   2.0000      -1.409940       -38.3664
  15   2.0000      -1.251305       -34.0497
  16   2.0000      -1.119468       -30.4623
  17   2.0000      -1.005873       -27.3712
  18   2.0000      -0.893294       -24.3078
  19   2.0000      -0.842937       -22.9375
  20   2.0000      -0.733562       -19.9612
  21   2.0000      -0.682513       -18.5721
  22   2.0000      -0.655879       -17.8474
  23   2.0000      -0.621391       -16.9089
  24   2.0000      -0.593222       -16.1424
  25   2.0000      -0.535010       -14.5584
  26   2.0000      -0.517097       -14.0709
  27   2.0000      -0.498724       -13.5710
  28   2.0000      -0.456083       -12.4106
  29   2.0000      -0.448168       -12.1953
  30   2.0000      -0.443511       -12.0686
  31   2.0000      -0.362909        -9.8752
  32   0.0000       0.021830         0.5940
  33   0.0000       0.033836         0.9207
  34   0.0000       0.038816         1.0562
  35   0.0000       0.046692         1.2706
  36   0.0000       0.058978         1.6049

MULLIKEN ATOMIC CHARGES
-----------------------
   0 Cl:   -0.410515
   1 S :    0.543838
   2 O :   -0.828620
   3 N :   -0.643180
   4 C :    0.125158
   5 C :   -0.113822
   6 H :    0.259272
   7 H :    0.398720
   8 H :    0.322616
   9 H :    0.346531
Sum of atomic charges:   -0.0000000

LOEWDIN ATOMIC CHARGES
----------------------
   0 Cl:    1.113403
   1 S :    0.862575
   2 O :    0.381374
   3 N :    0.356543
   4 C :   -0.818018
   5 C :   -0.107877
   6 H :   -0.643952
   7 H :   -0.426566
   8 H :   -0.391039
   9 H :   -0.326442

  Mayer bond orders larger than 0.100000
B(  0-Cl,  4-C ) :   0.6522 B(  1-S ,  2-O ) :   0.7799 B(  1-S ,  3-N ) :   0.9293
B(  2-O ,  5-C ) :   0.7076 B(  3-N ,  4-C ) :   0.7871 B(  3-N ,  6-H ) :   0.8891
B(  4-C ,  5-C ) :   1.0209 B(  4-C ,  7-H ) :   0.7751 B(  5-C ,  8-H ) :   0.8882
B(  5-C ,  9-H ) :   0.8377

MP2 TOTAL ENERGY:    -1065.723858452 Eh
FINAL SINGLE POINT ENERGY     -1065.723858452335

DIPOLE MOMENT
-------------
                                X             Y             Z
Electronic contribution:      2.33671      -2.68552      -2.34545
Nuclear contribution   :     -2.43973       2.97473       3.16736
                        -----------------------------------------
Total Dipole Moment    :     -0.10302       0.28921       0.82191
                        -----------------------------------------
Magnitude (a.u.)       :      0.87738
Magnitude (Debye)      :      2.23013

Rotational constants in cm-1:     0.167679     0.053540     0.046227
Rotational constants in MHz :  5026.897064  1605.076118  1385.857403

                             ****ORCA TERMINATED NORMALLY****
TOTAL RUN TIME: 0 days 0 hours 14 minutes 30 seconds 808 msec
