                         Program Version 5.0.4 -  RELEASE  -
|  1> !ri-mp2 aug-cc-pvqz aug-cc-pvqz/c tightscf
|  2> %pal nprocs 16 end
|  3> %maxcore 3800
|  4>
|  5> * xyz 0 1
|  6> C      0.000000    0.000000    0.295876
|  7> C      0.000056    3.828834   -0.530290
|  8> C     -0.000056   -3.828834   -0.530290
|  9> C      0.000000    1.290026   -0.509256
| 10> C      0.000000   -1.290026   -0.509256
| 11> C      0.000059    2.564624    0.327131
| 12> C     -0.000059   -2.564624    0.327131
| 13> O      0.000000    0.000000    1.506774
| 14> H     -0.880828    3.873562   -1.174448
| 15> H      0.000099    4.725217    0.090803
| 16> H      0.880894    3.873522   -1.174514
| 17> H      0.880828   -3.873562   -1.174448
| 18> H     -0.000099   -4.725217    0.090803
| 19> H     -0.880894   -3.873522   -1.174514
| 20> H      0.868429    1.265284   -1.177370
| 21> H     -0.868485    1.265321   -1.177299
| 22> H      0.868485   -1.265321   -1.177299
| 23> H     -0.868429   -1.265284   -1.177370
| 24> H     -0.869532    2.558992    0.986328
| 25> H      0.869698    2.558953    0.986265
| 26> H      0.869532   -2.558992    0.986328
| 27> H     -0.869698   -2.558953    0.986265
| 28> *
| 29>
| 30>                          ****END OF INPUT****

CARTESIAN COORDINATES (ANGSTROEM)
---------------------------------
  C      0.000000    0.000000    0.295876
  C      0.000056    3.828834   -0.530290
  C     -0.000056   -3.828834   -0.530290
  C      0.000000    1.290026   -0.509256
  C      0.000000   -1.290026   -0.509256
  C      0.000059    2.564624    0.327131
  C     -0.000059   -2.564624    0.327131
  O      0.000000    0.000000    1.506774
  H     -0.880828    3.873562   -1.174448
  H      0.000099    4.725217    0.090803
  H      0.880894    3.873522   -1.174514
  H      0.880828   -3.873562   -1.174448
  H     -0.000099   -4.725217    0.090803
  H     -0.880894   -3.873522   -1.174514
  H      0.868429    1.265284   -1.177370
  H     -0.868485    1.265321   -1.177299
  H      0.868485   -1.265321   -1.177299
  H     -0.868429   -1.265284   -1.177370
  H     -0.869532    2.558992    0.986328
  H      0.869698    2.558953    0.986265
  H      0.869532   -2.558992    0.986328
  H     -0.869698   -2.558953    0.986265

 Total Charge           Charge          ....    0
 Multiplicity           Mult            ....    1
 Number of Electrons    NEL             ....   64
 Basis Dimension        Dim             .... 1284

ORBITAL ENERGIES
----------------

  NO   OCC          E(Eh)            E(eV)
   0   2.0000     -20.538914      -558.8923
   1   2.0000     -11.323709      -308.1338
   2   2.0000     -11.233650      -305.6831
   3   2.0000     -11.233627      -305.6825
   4   2.0000     -11.219674      -305.3028
   5   2.0000     -11.219673      -305.3028
   6   2.0000     -11.214232      -305.1548
   7   2.0000     -11.214232      -305.1548
   8   2.0000      -1.383604       -37.6498
   9   2.0000      -1.082293       -29.4507
  10   2.0000      -1.064789       -28.9744
  11   2.0000      -0.986107       -26.8333
  12   2.0000      -0.936470       -25.4826
  13   2.0000      -0.838389       -22.8137
  14   2.0000      -0.802383       -21.8339
  15   2.0000      -0.729245       -19.8438
  16   2.0000      -0.655752       -17.8439
  17   2.0000      -0.655482       -17.8366
  18   2.0000      -0.630946       -17.1689
  19   2.0000      -0.627372       -17.0717
  20   2.0000      -0.573006       -15.5923
  21   2.0000      -0.572828       -15.5874
  22   2.0000      -0.558074       -15.1860
  23   2.0000      -0.537759       -14.6332
  24   2.0000      -0.520740       -14.1701
  25   2.0000      -0.498181       -13.5562
  26   2.0000      -0.489764       -13.3271
  27   2.0000      -0.486754       -13.2453
  28   2.0000      -0.478583       -13.0229
  29   2.0000      -0.477541       -12.9946
  30   2.0000      -0.471440       -12.8285
  31   2.0000      -0.402332       -10.9480
  32   0.0000       0.022976         0.6252
  33   0.0000       0.026596         0.7237
  34   0.0000       0.032028         0.8715
  35   0.0000       0.033209         0.9037
  36   0.0000       0.042038         1.1439

MULLIKEN ATOMIC CHARGES
-----------------------
   0 C :    0.703276
   1 C :   -0.902173
   2 C :   -0.902179
   3 C :   -0.292124
   4 C :   -0.292175
   5 C :   -0.436585
   6 C :   -0.436587
   7 O :   -0.862310
   8 H :    0.231443
   9 H :    0.262073
  10 H :    0.231440
  11 H :    0.231453
  12 H :    0.262075
  13 H :    0.231436
  14 H :    0.268588
  15 H :    0.268632
  16 H :    0.268621
  17 H :    0.268562
  18 H :    0.224132
  19 H :    0.224125
  20 H :    0.224132
  21 H :    0.224147
Sum of atomic charges:    0.0000000

LOEWDIN ATOMIC CHARGES
----------------------
   0 C :   -0.597466
   1 C :    0.927320
   2 C :    0.927320
   3 C :    0.476004
   4 C :    0.476004
   5 C :    0.483818
   6 C :    0.483818
   7 O :    0.771042
   8 H :   -0.285176
   9 H :   -0.283629
  10 H :   -0.285176
  11 H :   -0.285176
  12 H :   -0.283629
  13 H :   -0.285176
  14 H :   -0.280193
  15 H :   -0.280192
  16 H :   -0.280192
  17 H :   -0.280193
  18 H :   -0.279783
  19 H :   -0.279782
  20 H :   -0.279783
  21 H :   -0.279782

  Mayer bond orders larger than 0.100000
B(  0-C ,  3-C ) :   0.8740 B(  0-C ,  4-C ) :   0.8740 B(  0-C ,  5-C ) :  -0.1576
B(  0-C ,  6-C ) :  -0.1577 B(  0-C ,  7-O ) :   0.8231 B(  1-C ,  3-C ) :  -0.1064
B(  1-C ,  5-C ) :   1.0428 B(  1-C ,  8-H ) :   0.9468 B(  1-C ,  9-H ) :   1.0234
B(  1-C , 10-H ) :   0.9468 B(  2-C ,  4-C ) :  -0.1064 B(  2-C ,  6-C ) :   1.0428
B(  2-C , 11-H ) :   0.9468 B(  2-C , 12-H ) :   1.0234 B(  2-C , 13-H ) :   0.9468
B(  3-C ,  5-C ) :   0.9604 B(  3-C ,  7-O ) :   0.1839 B(  3-C , 14-H ) :   0.8709
B(  3-C , 15-H ) :   0.8708 B(  4-C ,  6-C ) :   0.9604 B(  4-C ,  7-O ) :   0.1840
B(  4-C , 16-H ) :   0.8708 B(  4-C , 17-H ) :   0.8709 B(  5-C ,  9-H ) :  -0.1054
B(  5-C , 18-H ) :   0.8902 B(  5-C , 19-H ) :   0.8902 B(  6-C , 12-H ) :  -0.1054
B(  6-C , 20-H ) :   0.8902 B(  6-C , 21-H ) :   0.8902

MP2 TOTAL ENERGY:     -349.790276399 Eh
FINAL SINGLE POINT ENERGY      -349.790276399023

DIPOLE MOMENT
-------------
                                X             Y             Z
Electronic contribution:      0.00000      -0.00000       4.39881
Nuclear contribution   :      0.00000       0.00000      -5.53333
                        -----------------------------------------
Total Dipole Moment    :      0.00000      -0.00000      -1.13452
                        -----------------------------------------
Magnitude (a.u.)       :      1.13452
Magnitude (Debye)      :      2.88372

Rotational constants in cm-1:     0.218931     0.024161     0.022290
Rotational constants in MHz :  6563.376058   724.324750   668.237092

                             ****ORCA TERMINATED NORMALLY****
TOTAL RUN TIME: 0 days 1 hours 34 minutes 12 seconds 385 msec
