                         Program Version 5.0.4 -  RELEASE  -
|  1> !ri-mp2 aug-cc-pvqz aug-cc-pvqz/c tightscf
|  2> %pal nprocs 16 end
|  3>
|  4> * xyz 0 1
|  5> N    -0.276322   -1.723967    0.000021
|  6> N    -1.849466   -0.170596   -0.000023
|  7> N    -0.289475    2.979967   -0.000049
|  8> C     0.394581   -0.521917    0.000012
|  9> C    -0.614933    0.430613   -0.000017
| 10> C    -1.610732   -1.456201    0.000000
| 11> C     1.794759   -0.410634    0.000031
| 12> C    -0.446188    1.838684   -0.000036
| 13> C     2.991406   -0.303459    0.000049
| 14> H     0.162004   -2.629700    0.000046
| 15> H    -2.356541   -2.233190    0.000003
| 16> H     4.048019   -0.197456    0.000073
| 17> *
| 18>
| 19>                          ****END OF INPUT****

CARTESIAN COORDINATES (ANGSTROEM)
---------------------------------
  N     -0.276322   -1.723967    0.000021
  N     -1.849466   -0.170596   -0.000023
  N     -0.289475    2.979967   -0.000049
  C      0.394581   -0.521917    0.000012
  C     -0.614933    0.430613   -0.000017
  C     -1.610732   -1.456201    0.000000
  C      1.794759   -0.410634    0.000031
  C     -0.446188    1.838684   -0.000036
  C      2.991406   -0.303459    0.000049
  H      0.162004   -2.629700    0.000046
  H     -2.356541   -2.233190    0.000003
  H      4.048019   -0.197456    0.000073

 Total Charge           Charge          ....    0
 Multiplicity           Mult            ....    1
 Number of Electrons    NEL             ....   60
 Basis Dimension        Dim             ....  858

ORBITAL ENERGIES
----------------

  NO   OCC          E(Eh)            E(eV)
   0   2.0000     -15.661996      -426.1846
   1   2.0000     -15.586689      -424.1354
   2   2.0000     -15.571351      -423.7180
   3   2.0000     -11.336809      -308.4903
   4   2.0000     -11.331853      -308.3554
   5   2.0000     -11.313016      -307.8428
   6   2.0000     -11.274758      -306.8018
   7   2.0000     -11.270619      -306.6891
   8   2.0000     -11.265782      -306.5575
   9   2.0000      -1.389678       -37.8151
  10   2.0000      -1.228314       -33.4241
  11   2.0000      -1.209363       -32.9084
  12   2.0000      -1.107062       -30.1247
  13   2.0000      -1.038003       -28.2455
  14   2.0000      -0.914652       -24.8890
  15   2.0000      -0.870825       -23.6964
  16   2.0000      -0.844364       -22.9763
  17   2.0000      -0.743674       -20.2364
  18   2.0000      -0.699455       -19.0331
  19   2.0000      -0.682611       -18.5748
  20   2.0000      -0.653050       -17.7704
  21   2.0000      -0.648866       -17.6565
  22   2.0000      -0.559309       -15.2196
  23   2.0000      -0.509014       -13.8510
  24   2.0000      -0.492143       -13.3919
  25   2.0000      -0.475065       -12.9272
  26   2.0000      -0.469309       -12.7705
  27   2.0000      -0.430974       -11.7274
  28   2.0000      -0.425610       -11.5814
  29   2.0000      -0.336354        -9.1526
  30   0.0000       0.010965         0.2984
  31   0.0000       0.021327         0.5803
  32   0.0000       0.033777         0.9191
  33   0.0000       0.050679         1.3790
  34   0.0000       0.057554         1.5661

MULLIKEN ATOMIC CHARGES
-----------------------
   0 N :   -0.485497
   1 N :   -0.738890
   2 N :   -0.753792
   3 C :    0.821878
   4 C :    0.175298
   5 C :   -0.041559
   6 C :   -0.364301
   7 C :    0.760682
   8 C :   -0.575994
   9 H :    0.174909
  10 H :    0.605592
  11 H :    0.421676
Sum of atomic charges:    0.0000000

LOEWDIN ATOMIC CHARGES
----------------------
   0 N :    0.803716
   1 N :    0.568966
   2 N :    0.408684
   3 C :   -0.388530
   4 C :   -0.515151
   5 C :   -0.030919
   6 C :    0.075080
   7 C :   -0.325267
   8 C :    0.588926
   9 H :   -0.432751
  10 H :   -0.309629
  11 H :   -0.443127

  Mayer bond orders larger than 0.100000
B(  0-N ,  3-C ) :   0.6711 B(  0-N ,  5-C ) :   1.3342 B(  0-N ,  6-C ) :  -0.1143
B(  0-N ,  9-H ) :   1.0727 B(  1-N ,  3-C ) :   0.1404 B(  1-N ,  4-C ) :   0.4079
B(  1-N ,  5-C ) :   1.7029 B(  2-N ,  4-C ) :   0.1386 B(  2-N ,  7-C ) :   2.2925
B(  3-C ,  4-C ) :   1.4571 B(  3-C ,  6-C ) :   0.6670 B(  3-C ,  7-C ) :  -0.2270
B(  3-C ,  8-C ) :  -0.3251 B(  4-C ,  7-C ) :   1.4402 B(  5-C , 10-H ) :   0.6374
B(  6-C ,  8-C ) :   2.8172 B(  6-C , 11-H ) :  -0.1369 B(  8-C , 11-H ) :   0.9804

MP2 TOTAL ENERGY:     -393.982632415 Eh
FINAL SINGLE POINT ENERGY      -393.982632415486

DIPOLE MOMENT
-------------
                                X             Y             Z
Electronic contribution:     -0.94699       1.99993      -0.00006
Nuclear contribution   :      1.76978      -4.86294       0.00012
                        -----------------------------------------
Total Dipole Moment    :      0.82280      -2.86301       0.00006
                        -----------------------------------------
Magnitude (a.u.)       :      2.97890
Magnitude (Debye)      :      7.57176

Rotational constants in cm-1:     0.067191     0.064722     0.032967
Rotational constants in MHz :  2014.343734  1940.316481   988.318625

                             ****ORCA TERMINATED NORMALLY****
TOTAL RUN TIME: 0 days 0 hours 30 minutes 32 seconds 495 msec
