                         Program Version 5.0.4 -  RELEASE  -
|  1> !ri-mp2 aug-cc-pvqz aug-cc-pvqz/c tightscf
|  2> %pal nprocs 16 end
|  3>
|  4> * xyz 0 1
|  5> C     -0.005988    2.507272        0.000000
|  6> C     -1.204001    0.369123        0.000000
|  7> C      1.211150    0.375851        0.000000
|  8> C     -1.197969   -1.015172        0.000000
|  9> C      1.219241   -1.005857        0.000000
| 10> C      0.000000    1.080084        0.000000
| 11> C      0.013220   -1.706493        0.000000
| 12> N     -0.011295    3.660282        0.000000
| 13> O      0.081551   -3.064394        0.000000
| 14> H     -2.141968    0.905432        0.000000
| 15> H      2.144005    0.921085        0.000000
| 16> H     -2.133901   -1.560076        0.000000
| 17> H      2.147877   -1.558073        0.000000
| 18> H     -0.803265   -3.444050        0.000000
| 19> *
| 20>
| 21>                          ****END OF INPUT****

CARTESIAN COORDINATES (ANGSTROEM)
---------------------------------
  C     -0.005988    2.507272    0.000000
  C     -1.204001    0.369123    0.000000
  C      1.211150    0.375851    0.000000
  C     -1.197969   -1.015172    0.000000
  C      1.219241   -1.005857    0.000000
  C      0.000000    1.080084    0.000000
  C      0.013220   -1.706493    0.000000
  N     -0.011295    3.660282    0.000000
  O      0.081551   -3.064394    0.000000
  H     -2.141968    0.905432    0.000000
  H      2.144005    0.921085    0.000000
  H     -2.133901   -1.560076    0.000000
  H      2.147877   -1.558073    0.000000
  H     -0.803265   -3.444050    0.000000

 Total Charge           Charge          ....    0
 Multiplicity           Mult            ....    1
 Number of Electrons    NEL             ....   62
 Basis Dimension        Dim             ....  950

ORBITAL ENERGIES
----------------

  NO   OCC          E(Eh)            E(eV)
   0   2.0000     -20.616499      -561.0035
   1   2.0000     -15.565518      -423.5593
   2   2.0000     -11.337332      -308.5045
   3   2.0000     -11.281233      -306.9780
   4   2.0000     -11.278519      -306.9041
   5   2.0000     -11.276016      -306.8360
   6   2.0000     -11.271799      -306.7212
   7   2.0000     -11.260331      -306.4092
   8   2.0000     -11.254204      -306.2424
   9   2.0000      -1.435495       -39.0618
  10   2.0000      -1.222944       -33.2780
  11   2.0000      -1.182251       -32.1707
  12   2.0000      -1.056020       -28.7358
  13   2.0000      -1.054827       -28.7033
  14   2.0000      -0.892337       -24.2817
  15   2.0000      -0.874774       -23.8038
  16   2.0000      -0.769449       -20.9378
  17   2.0000      -0.763999       -20.7895
  18   2.0000      -0.696879       -18.9630
  19   2.0000      -0.646604       -17.5950
  20   2.0000      -0.625052       -17.0085
  21   2.0000      -0.620290       -16.8790
  22   2.0000      -0.611250       -16.6330
  23   2.0000      -0.583525       -15.8785
  24   2.0000      -0.549384       -14.9495
  25   2.0000      -0.544394       -14.8137
  26   2.0000      -0.528836       -14.3904
  27   2.0000      -0.471290       -12.8245
  28   2.0000      -0.465609       -12.6699
  29   2.0000      -0.375304       -10.2125
  30   2.0000      -0.340108        -9.2548
  31   0.0000       0.014743         0.4012
  32   0.0000       0.026249         0.7143
  33   0.0000       0.031382         0.8539
  34   0.0000       0.043048         1.1714
  35   0.0000       0.049178         1.3382

MULLIKEN ATOMIC CHARGES
-----------------------
   0 C :    0.572012
   1 C :   -0.074547
   2 C :   -0.232483
   3 C :   -0.605289
   4 C :   -0.602436
   5 C :   -0.063692
   6 C :    1.031031
   7 N :   -0.790038
   8 O :   -0.805033
   9 H :    0.318228
  10 H :    0.311480
  11 H :    0.232444
  12 H :    0.330354
  13 H :    0.377969
Sum of atomic charges:    0.0000000

LOEWDIN ATOMIC CHARGES
----------------------
   0 C :   -0.327461
   1 C :    0.316925
   2 C :    0.316843
   3 C :    0.350484
   4 C :    0.342180
   5 C :   -0.207426
   6 C :   -0.424597
   7 N :    0.407852
   8 O :    1.285153
   9 H :   -0.310425
  10 H :   -0.310709
  11 H :   -0.322010
  12 H :   -0.323491
  13 H :   -0.793317

  Mayer bond orders larger than 0.100000
B(  0-C ,  1-C ) :  -0.3766 B(  0-C ,  2-C ) :  -0.2748 B(  0-C ,  5-C ) :   1.4180
B(  0-C ,  7-N ) :   2.3380 B(  1-C ,  3-C ) :   1.2538 B(  1-C ,  5-C ) :   1.0459
B(  1-C ,  6-C ) :  -0.1269 B(  1-C ,  9-H ) :   0.9427 B(  1-C , 11-H ) :  -0.1092
B(  2-C ,  4-C ) :   1.3183 B(  2-C ,  5-C ) :   1.0422 B(  2-C ,  6-C ) :  -0.1028
B(  2-C , 10-H ) :   0.9591 B(  2-C , 12-H ) :  -0.1104 B(  3-C ,  5-C ) :  -0.1852
B(  3-C ,  6-C ) :   1.2526 B(  3-C ,  8-O ) :   0.2107 B(  3-C ,  9-H ) :  -0.1214
B(  3-C , 11-H ) :   1.0625 B(  4-C ,  5-C ) :  -0.2326 B(  4-C ,  6-C ) :   1.3347
B(  4-C ,  8-O ) :   0.3250 B(  4-C , 10-H ) :  -0.1071 B(  4-C , 12-H ) :   0.9480
B(  6-C , 13-H ) :  -0.1084 B(  8-O , 13-H ) :   0.8811

MP2 TOTAL ENERGY:     -399.076619727 Eh
FINAL SINGLE POINT ENERGY      -399.076619726812

DIPOLE MOMENT
-------------
                                X             Y             Z
Electronic contribution:      0.23960       2.63707       0.00000
Nuclear contribution   :     -0.76833      -4.65526       0.00000
                        -----------------------------------------
Total Dipole Moment    :     -0.52873      -2.01819       0.00000
                        -----------------------------------------
Magnitude (a.u.)       :      2.08630
Magnitude (Debye)      :      5.30296

Rotational constants in cm-1:     0.188638     0.033144     0.028191
Rotational constants in MHz :  5655.237441   993.626792   845.136138

                             ****ORCA TERMINATED NORMALLY****
TOTAL RUN TIME: 0 days 0 hours 31 minutes 46 seconds 458 msec
