                         Program Version 5.0.4 -  RELEASE  -
|  1> !ri-mp2 aug-cc-pvqz aug-cc-pvqz/c tightscf
|  2> %pal nprocs 16 end
|  3>
|  4> * xyz 0 1
|  5> C      1.232892    0.302834        0.000000
|  6> C      1.206555   -1.054025        0.000000
|  7> C     -1.049356   -1.149467        0.000000
|  8> C      0.000000    1.055988        0.000000
|  9> N      0.061359   -1.812046        0.000000
| 10> N     -1.126414    0.202125        0.000000
| 11> O     -0.144293    2.264784        0.000000
| 12> H      2.159160    0.856946        0.000000
| 13> H      2.129679   -1.620129        0.000000
| 14> H     -1.994198   -1.680952        0.000000
| 15> H     -2.025462    0.663333        0.000000
| 16> *
| 17>
| 18>                          ****END OF INPUT****

CARTESIAN COORDINATES (ANGSTROEM)
---------------------------------
  C      1.232892    0.302834    0.000000
  C      1.206555   -1.054025    0.000000
  C     -1.049356   -1.149467    0.000000
  C      0.000000    1.055988    0.000000
  N      0.061359   -1.812046    0.000000
  N     -1.126414    0.202125    0.000000
  O     -0.144293    2.264784    0.000000
  H      2.159160    0.856946    0.000000
  H      2.129679   -1.620129    0.000000
  H     -1.994198   -1.680952    0.000000
  H     -2.025462    0.663333    0.000000

 Total Charge           Charge          ....    0
 Multiplicity           Mult            ....    1
 Number of Electrons    NEL             ....   50
 Basis Dimension        Dim             ....  744

ORBITAL ENERGIES
----------------

  NO   OCC          E(Eh)            E(eV)
   0   2.0000     -20.528458      -558.6078
   1   2.0000     -15.640329      -425.5950
   2   2.0000     -15.573985      -423.7897
   3   2.0000     -11.370096      -309.3960
   4   2.0000     -11.358312      -309.0754
   5   2.0000     -11.304159      -307.6018
   6   2.0000     -11.244179      -305.9697
   7   2.0000      -1.400599       -38.1122
   8   2.0000      -1.327666       -36.1276
   9   2.0000      -1.220838       -33.2207
  10   2.0000      -1.077417       -29.3180
  11   2.0000      -0.920735       -25.0545
  12   2.0000      -0.894200       -24.3324
  13   2.0000      -0.779163       -21.2021
  14   2.0000      -0.726543       -19.7702
  15   2.0000      -0.707840       -19.2613
  16   2.0000      -0.646421       -17.5900
  17   2.0000      -0.633759       -17.2455
  18   2.0000      -0.623548       -16.9676
  19   2.0000      -0.573534       -15.6066
  20   2.0000      -0.525731       -14.3059
  21   2.0000      -0.458748       -12.4832
  22   2.0000      -0.456482       -12.4215
  23   2.0000      -0.443378       -12.0649
  24   2.0000      -0.352374        -9.5886
  25   0.0000       0.018078         0.4919
  26   0.0000       0.027980         0.7614
  27   0.0000       0.037947         1.0326
  28   0.0000       0.045145         1.2285
  29   0.0000       0.050587         1.3765

MULLIKEN ATOMIC CHARGES
-----------------------
   0 C :   -0.462441
   1 C :   -0.196030
   2 C :    0.002480
   3 C :    1.052346
   4 N :   -0.566344
   5 N :   -0.487841
   6 O :   -0.796368
   7 H :    0.310902
   8 H :    0.453187
   9 H :    0.554257
  10 H :    0.135852
Sum of atomic charges:    0.0000000

LOEWDIN ATOMIC CHARGES
----------------------
   0 C :    0.309569
   1 C :    0.071989
   2 C :   -0.048737
   3 C :   -0.874540
   4 N :    0.583977
   5 N :    0.804571
   6 O :    0.666533
   7 H :   -0.350199
   8 H :   -0.346865
   9 H :   -0.326124
  10 H :   -0.490175

  Mayer bond orders larger than 0.100000
B(  0-C ,  1-C ) :   1.4961 B(  0-C ,  3-C ) :   1.1328 B(  0-C ,  6-O ) :   0.2135
B(  0-C ,  7-H ) :   0.9519 B(  1-C ,  3-C ) :  -0.1193 B(  1-C ,  4-N ) :   0.9638
B(  1-C ,  8-H ) :   0.8684 B(  2-C ,  4-N ) :   1.6467 B(  2-C ,  5-N ) :   1.0513
B(  2-C ,  9-H ) :   0.7419 B(  3-C ,  5-N ) :   1.0174 B(  3-C ,  6-O ) :   1.1483
B(  5-N ,  6-O ) :   0.1962 B(  5-N , 10-H ) :   1.0982

MP2 TOTAL ENERGY:     -339.053736345 Eh
FINAL SINGLE POINT ENERGY      -339.053736344967

DIPOLE MOMENT
-------------
                                X             Y             Z
Electronic contribution:     -0.85191       0.76016      -0.00000
Nuclear contribution   :      0.25473      -1.71465       0.00000
                        -----------------------------------------
Total Dipole Moment    :     -0.59718      -0.95449      -0.00000
                        -----------------------------------------
Magnitude (a.u.)       :      1.12591
Magnitude (Debye)      :      2.86183

Rotational constants in cm-1:     0.200261     0.093996     0.063970
Rotational constants in MHz :  6003.683555  2817.926347  1917.783518

                             ****ORCA TERMINATED NORMALLY****
TOTAL RUN TIME: 0 days 0 hours 15 minutes 20 seconds 807 msec
