                         Program Version 5.0.4 -  RELEASE  -
|  1> !ri-mp2 aug-cc-pvqz aug-cc-pvqz/c tightscf
|  2> %pal nprocs 16 end
|  3> %maxcore 3800
|  4>
|  5> * xyz 0 1
|  6> C     -1.115443   -0.498903    0.000000
|  7> C      1.250967   -0.260855    0.000000
|  8> C     -0.986607   -1.880476    0.000000
|  9> C      1.399896   -1.643053    0.000000
| 10> C     -0.004568    0.350470    0.000000
| 11> C      0.278520   -2.460677    0.000000
| 12> C     -0.986607    2.295203    1.257771
| 13> C     -0.986607    2.295203   -1.257771
| 14> C      1.138805    2.629595    0.000000
| 15> C     -0.198372    1.873754    0.000000
| 16> O      0.472057   -3.816729    0.000000
| 17> H     -2.113690   -0.082584    0.000000
| 18> H      2.147758    0.340453    0.000000
| 19> H     -1.871422   -2.506840    0.000000
| 20> H      2.382431   -2.094241    0.000000
| 21> H     -1.134610    3.376937    1.269176
| 22> H     -1.969239    1.825058    1.295308
| 23> H     -0.449010    2.016368    2.165116
| 24> H     -1.969239    1.825058   -1.295308
| 25> H     -1.134610    3.376937   -1.269176
| 26> H     -0.449010    2.016368   -2.165116
| 27> H      0.952247    3.704407    0.000000
| 28> H      1.735409    2.400064    0.883926
| 29> H      1.735409    2.400064   -0.883926
| 30> H     -0.378786   -4.265777    0.000000
| 31> *
| 32>
| 33>                          ****END OF INPUT****

CARTESIAN COORDINATES (ANGSTROEM)
---------------------------------
  C     -1.115443   -0.498903    0.000000
  C      1.250967   -0.260855    0.000000
  C     -0.986607   -1.880476    0.000000
  C      1.399896   -1.643053    0.000000
  C     -0.004568    0.350470    0.000000
  C      0.278520   -2.460677    0.000000
  C     -0.986607    2.295203    1.257771
  C     -0.986607    2.295203   -1.257771
  C      1.138805    2.629595    0.000000
  C     -0.198372    1.873754    0.000000
  O      0.472057   -3.816729    0.000000
  H     -2.113690   -0.082584    0.000000
  H      2.147758    0.340453    0.000000
  H     -1.871422   -2.506840    0.000000
  H      2.382431   -2.094241    0.000000
  H     -1.134610    3.376937    1.269176
  H     -1.969239    1.825058    1.295308
  H     -0.449010    2.016368    2.165116
  H     -1.969239    1.825058   -1.295308
  H     -1.134610    3.376937   -1.269176
  H     -0.449010    2.016368   -2.165116
  H      0.952247    3.704407    0.000000
  H      1.735409    2.400064    0.883926
  H      1.735409    2.400064   -0.883926
  H     -0.378786   -4.265777    0.000000

 Total Charge           Charge          ....    0
 Multiplicity           Mult            ....    1
 Number of Electrons    NEL             ....   82
 Basis Dimension        Dim             .... 1524

ORBITAL ENERGIES
----------------

  NO   OCC          E(Eh)            E(eV)
   0   2.0000     -20.584798      -560.1408
   1   2.0000     -11.295453      -307.3649
   2   2.0000     -11.241938      -305.9087
   3   2.0000     -11.233879      -305.6894
   4   2.0000     -11.231135      -305.6147
   5   2.0000     -11.229839      -305.5795
   6   2.0000     -11.228125      -305.5328
   7   2.0000     -11.222367      -305.3761
   8   2.0000     -11.211255      -305.0738
   9   2.0000     -11.210722      -305.0592
  10   2.0000     -11.210706      -305.0588
  11   2.0000      -1.400379       -38.1063
  12   2.0000      -1.155732       -31.4491
  13   2.0000      -1.094642       -29.7867
  14   2.0000      -1.017733       -27.6939
  15   2.0000      -0.990634       -26.9565
  16   2.0000      -0.933643       -25.4057
  17   2.0000      -0.931372       -25.3439
  18   2.0000      -0.844789       -22.9879
  19   2.0000      -0.829493       -22.5716
  20   2.0000      -0.753363       -20.5000
  21   2.0000      -0.732424       -19.9303
  22   2.0000      -0.671856       -18.2821
  23   2.0000      -0.644000       -17.5241
  24   2.0000      -0.619955       -16.8698
  25   2.0000      -0.601297       -16.3621
  26   2.0000      -0.593168       -16.1409
  27   2.0000      -0.588239       -16.0068
  28   2.0000      -0.586961       -15.9720
  29   2.0000      -0.576962       -15.6999
  30   2.0000      -0.548190       -14.9170
  31   2.0000      -0.545765       -14.8510
  32   2.0000      -0.528162       -14.3720
  33   2.0000      -0.515078       -14.0160
  34   2.0000      -0.497857       -13.5474
  35   2.0000      -0.484100       -13.1730
  36   2.0000      -0.463368       -12.6089
  37   2.0000      -0.458046       -12.4641
  38   2.0000      -0.453143       -12.3306
  39   2.0000      -0.339934        -9.2501
  40   2.0000      -0.305637        -8.3168
  41   0.0000       0.022422         0.6101
  42   0.0000       0.026839         0.7303
  43   0.0000       0.030028         0.8171
  44   0.0000       0.034035         0.9261
  45   0.0000       0.038331         1.0430

MULLIKEN ATOMIC CHARGES
-----------------------
   0 C :   -0.295621
   1 C :   -0.765026
   2 C :   -0.650145
   3 C :   -0.623300
   4 C :    0.640007
   5 C :    1.304937
   6 C :   -1.137244
   7 C :   -1.137357
   8 C :   -1.152638
   9 C :    1.743500
  10 O :   -0.857350
  11 H :    0.165573
  12 H :    0.059436
  13 H :    0.081118
  14 H :    0.199060
  15 H :    0.245522
  16 H :    0.221789
  17 H :    0.244203
  18 H :    0.221710
  19 H :    0.245563
  20 H :    0.244202
  21 H :    0.248808
  22 H :    0.187360
  23 H :    0.187368
  24 H :    0.378524
Sum of atomic charges:   -0.0000000

LOEWDIN ATOMIC CHARGES
----------------------
   0 C :    0.339087
   1 C :    0.352416
   2 C :    0.355944
   3 C :    0.346253
   4 C :   -0.059257
   5 C :   -0.429235
   6 C :    0.913202
   7 C :    0.913202
   8 C :    0.886888
   9 C :   -0.297911
  10 O :    1.269765
  11 H :   -0.328083
  12 H :   -0.352774
  13 H :   -0.321529
  14 H :   -0.324332
  15 H :   -0.271348
  16 H :   -0.287060
  17 H :   -0.261050
  18 H :   -0.287060
  19 H :   -0.271348
  20 H :   -0.261050
  21 H :   -0.272003
  22 H :   -0.271996
  23 H :   -0.271996
  24 H :   -0.808727

  Mayer bond orders larger than 0.100000
B(  0-C ,  2-C ) :   1.1710 B(  0-C ,  4-C ) :   0.8898 B(  0-C ,  5-C ) :  -0.1350
B(  0-C ,  9-C ) :  -0.1876 B(  0-C , 11-H ) :   1.0668 B(  0-C , 13-H ) :  -0.1921
B(  1-C ,  2-C ) :   0.1536 B(  1-C ,  3-C ) :   1.2972 B(  1-C ,  4-C ) :   0.8615
B(  1-C ,  9-C ) :  -0.3492 B(  1-C , 12-H ) :   1.2266 B(  1-C , 14-H ) :  -0.1304
B(  2-C ,  4-C ) :  -0.4212 B(  2-C ,  5-C ) :   1.3292 B(  2-C , 10-O ) :   0.2691
B(  2-C , 11-H ) :  -0.1212 B(  2-C , 13-H ) :   1.2552 B(  3-C ,  4-C ) :  -0.4198
B(  3-C ,  5-C ) :   1.3396 B(  3-C , 10-O ) :   0.3922 B(  3-C , 12-H ) :  -0.1531
B(  3-C , 14-H ) :   1.0998 B(  4-C ,  5-C ) :  -0.2017 B(  4-C ,  8-C ) :   0.1268
B(  4-C ,  9-C ) :   0.3815 B(  5-C , 10-O ) :  -0.3989 B(  5-C , 24-H ) :  -0.1386
B(  6-C ,  7-C ) :   0.1725 B(  6-C ,  8-C ) :   0.1421 B(  6-C ,  9-C ) :   0.3711
B(  6-C , 15-H ) :   1.0179 B(  6-C , 16-H ) :   1.0767 B(  6-C , 17-H ) :   1.0638
B(  7-C ,  8-C ) :   0.1421 B(  7-C ,  9-C ) :   0.3709 B(  7-C , 18-H ) :   1.0768
B(  7-C , 19-H ) :   1.0179 B(  7-C , 20-H ) :   1.0638 B(  8-C ,  9-C ) :   0.1661
B(  8-C , 21-H ) :   1.0531 B(  8-C , 22-H ) :   1.1140 B(  8-C , 23-H ) :   1.1140
B(  9-C , 16-H ) :  -0.1490 B(  9-C , 17-H ) :  -0.1141 B(  9-C , 18-H ) :  -0.1490
B(  9-C , 20-H ) :  -0.1142 B(  9-C , 21-H ) :  -0.1333 B(  9-C , 22-H ) :  -0.1679
B(  9-C , 23-H ) :  -0.1679 B( 10-O , 24-H ) :   0.8931

MP2 TOTAL ENERGY:     -463.917913690 Eh
FINAL SINGLE POINT ENERGY      -463.917913689713

DIPOLE MOMENT
-------------
                                X             Y             Z
Electronic contribution:      2.01979     -14.43140      -0.00000
Nuclear contribution   :     -2.57207      14.63132       0.00000
                        -----------------------------------------
Total Dipole Moment    :     -0.55228       0.19992      -0.00000
                        -----------------------------------------
Magnitude (a.u.)       :      0.58735
Magnitude (Debye)      :      1.49292

Rotational constants in cm-1:     0.085273     0.021290     0.019196
Rotational constants in MHz :  2556.407227   638.261078   575.483676

                             ****ORCA TERMINATED NORMALLY****
TOTAL RUN TIME: 0 days 3 hours 13 minutes 9 seconds 255 msec
