                         Program Version 5.0.4 -  RELEASE  -
|  1> !ri-mp2 aug-cc-pvqz aug-cc-pvqz/c tightscf
|  2> %pal nprocs 16 end
|  3>
|  4> * xyz 0 1
|  5> Cl     3.790159   -0.565860   -0.387381
|  6> S     -2.085317   -0.503553    0.546804
|  7> N     -4.695349   -0.036278   -0.498130
|  8> C     -1.119696    0.706179   -0.506380
|  9> C      2.801833    0.572983    0.637702
| 10> C      0.267289    0.664830   -0.108118
| 11> C      1.418175    0.614979    0.230597
| 12> C     -3.630791   -0.216125   -0.084152
| 13> H     -1.553731    1.692329   -0.354795
| 14> H     -1.245536    0.411120   -1.546247
| 15> H      3.273951    1.547665    0.545309
| 16> H      2.904272    0.222241    1.661369
| 17> *
| 18>
| 19>                          ****END OF INPUT****

CARTESIAN COORDINATES (ANGSTROEM)
---------------------------------
  Cl     3.790159   -0.565860   -0.387381
  S     -2.085317   -0.503553    0.546804
  N     -4.695349   -0.036278   -0.498130
  C     -1.119696    0.706179   -0.506380
  C      2.801833    0.572983    0.637702
  C      0.267289    0.664830   -0.108118
  C      1.418175    0.614979    0.230597
  C     -3.630791   -0.216125   -0.084152
  H     -1.553731    1.692329   -0.354795
  H     -1.245536    0.411120   -1.546247
  H      3.273951    1.547665    0.545309
  H      2.904272    0.222241    1.661369

 Total Charge           Charge          ....    0
 Multiplicity           Mult            ....    1
 Number of Electrons    NEL             ....   74
 Basis Dimension        Dim             ....  832

ORBITAL ENERGIES
----------------

  NO   OCC          E(Eh)            E(eV)
   0   2.0000    -104.844161     -2852.9547
   1   2.0000     -92.026701     -2504.1738
   2   2.0000     -15.588212      -424.1768
   3   2.0000     -11.340461      -308.5896
   4   2.0000     -11.329819      -308.3001
   5   2.0000     -11.301886      -307.5400
   6   2.0000     -11.272005      -306.7268
   7   2.0000     -11.268131      -306.6214
   8   2.0000     -10.569114      -287.6002
   9   2.0000      -9.027051      -245.6386
  10   2.0000      -8.036129      -218.6742
  11   2.0000      -8.034362      -218.6261
  12   2.0000      -8.034320      -218.6250
  13   2.0000      -6.708643      -182.5514
  14   2.0000      -6.707165      -182.5112
  15   2.0000      -6.706227      -182.4857
  16   2.0000      -1.236992       -33.6603
  17   2.0000      -1.162626       -31.6367
  18   2.0000      -1.129562       -30.7369
  19   2.0000      -1.058763       -28.8104
  20   2.0000      -0.987452       -26.8699
  21   2.0000      -0.933094       -25.3908
  22   2.0000      -0.722745       -19.6669
  23   2.0000      -0.696304       -18.9474
  24   2.0000      -0.666320       -18.1315
  25   2.0000      -0.664601       -18.0847
  26   2.0000      -0.662651       -18.0316
  27   2.0000      -0.581968       -15.8362
  28   2.0000      -0.577693       -15.7198
  29   2.0000      -0.546931       -14.8828
  30   2.0000      -0.529019       -14.3953
  31   2.0000      -0.475969       -12.9518
  32   2.0000      -0.464336       -12.6352
  33   2.0000      -0.458849       -12.4859
  34   2.0000      -0.416870       -11.3436
  35   2.0000      -0.410512       -11.1706
  36   2.0000      -0.392994       -10.6939
  37   0.0000       0.017833         0.4853
  38   0.0000       0.027944         0.7604
  39   0.0000       0.033837         0.9208
  40   0.0000       0.037244         1.0135
  41   0.0000       0.050712         1.3799

MULLIKEN ATOMIC CHARGES
-----------------------
   0 Cl:   -0.291221
   1 S :    0.484274
   2 N :   -0.512579
   3 C :   -0.122266
   4 C :   -0.175314
   5 C :   -0.227907
   6 C :   -0.075414
   7 C :   -0.186184
   8 H :    0.277702
   9 H :    0.280647
  10 H :    0.272263
  11 H :    0.276000
Sum of atomic charges:   -0.0000000

LOEWDIN ATOMIC CHARGES
----------------------
   0 Cl:    1.077651
   1 S :    1.204677
   2 N :    0.270764
   3 C :    0.088641
   4 C :   -0.210286
   5 C :    0.035245
   6 C :    0.019721
   7 C :   -0.870343
   8 H :   -0.379688
   9 H :   -0.377326
  10 H :   -0.429637
  11 H :   -0.429420

  Mayer bond orders larger than 0.100000
B(  0-Cl,  4-C ) :   0.8850 B(  1-S ,  3-C ) :   0.8654 B(  1-S ,  7-C ) :   0.8781
B(  2-N ,  7-C ) :   2.5837 B(  3-C ,  5-C ) :   0.7839 B(  3-C ,  6-C ) :  -0.1543
B(  3-C ,  7-C ) :  -0.1136 B(  3-C ,  8-H ) :   0.9254 B(  3-C ,  9-H ) :   0.9001
B(  4-C ,  6-C ) :   0.8845 B(  4-C , 10-H ) :   0.9290 B(  4-C , 11-H ) :   0.9231
B(  5-C ,  6-C ) :   2.8931

MP2 TOTAL ENERGY:    -1104.641806838 Eh
FINAL SINGLE POINT ENERGY     -1104.641806838386

DIPOLE MOMENT
-------------
                                X             Y             Z
Electronic contribution:      3.21220      -3.74624      -0.29260
Nuclear contribution   :     -1.91530       4.48432       0.80180
                        -----------------------------------------
Total Dipole Moment    :      1.29690       0.73808       0.50920
                        -----------------------------------------
Magnitude (a.u.)       :      1.57670
Magnitude (Debye)      :      4.00766

Rotational constants in cm-1:     0.216357     0.012905     0.012782
Rotational constants in MHz :  6486.205281   386.869623   383.209107

                             ****ORCA TERMINATED NORMALLY****
TOTAL RUN TIME: 0 days 0 hours 16 minutes 24 seconds 944 msec
