                         Program Version 5.0.4 -  RELEASE  -
|  1> !ri-mp2 aug-cc-pvqz aug-cc-pvqz/c tightscf
|  2> %pal nprocs 16 end
|  3>
|  4> * xyz 0 1
|  5> Cl   -2.893971   -0.323448   -0.516915
|  6> S     1.947247    0.982404   -0.300395
|  7> F     2.454522   -1.612150   -0.075441
|  8> N     0.331438   -0.906310    0.410222
|  9> C    -0.387056    0.275290    0.443852
| 10> C     1.530280   -0.673246    0.042767
| 11> C     0.310052    1.391096    0.099770
| 12> C    -1.816007    0.247130    0.843769
| 13> H    -0.036503    2.408900    0.047814
| 14> H    -2.175019    1.233905    1.114544
| 15> H    -1.981283   -0.450741    1.657975
| 16> *
| 17>
| 18>                          ****END OF INPUT****

CARTESIAN COORDINATES (ANGSTROEM)
---------------------------------
  Cl    -2.893971   -0.323448   -0.516915
  S      1.947247    0.982404   -0.300395
  F      2.454522   -1.612150   -0.075441
  N      0.331438   -0.906310    0.410222
  C     -0.387056    0.275290    0.443852
  C      1.530280   -0.673246    0.042767
  C      0.310052    1.391096    0.099770
  C     -1.816007    0.247130    0.843769
  H     -0.036503    2.408900    0.047814
  H     -2.175019    1.233905    1.114544
  H     -1.981283   -0.450741    1.657975

 Total Charge           Charge          ....    0
 Multiplicity           Mult            ....    1
 Number of Electrons    NEL             ....   76
 Basis Dimension        Dim             ....  786

ORBITAL ENERGIES
----------------

  NO   OCC          E(Eh)            E(eV)
   0   2.0000    -104.827981     -2852.5144
   1   2.0000     -92.022285     -2504.0537
   2   2.0000     -26.352923      -717.0995
   3   2.0000     -15.589990      -424.2252
   4   2.0000     -11.414444      -310.6028
   5   2.0000     -11.313456      -307.8548
   6   2.0000     -11.305122      -307.6280
   7   2.0000     -11.287653      -307.1527
   8   2.0000     -10.553084      -287.1640
   9   2.0000      -9.023846      -245.5513
  10   2.0000      -8.020080      -218.2375
  11   2.0000      -8.018402      -218.1918
  12   2.0000      -8.018358      -218.1906
  13   2.0000      -6.705044      -182.4535
  14   2.0000      -6.704497      -182.4386
  15   2.0000      -6.703688      -182.4166
  16   2.0000      -1.677910       -45.6583
  17   2.0000      -1.317550       -35.8524
  18   2.0000      -1.139793       -31.0153
  19   2.0000      -1.097689       -29.8696
  20   2.0000      -1.036914       -28.2159
  21   2.0000      -0.923608       -25.1326
  22   2.0000      -0.858268       -23.3547
  23   2.0000      -0.811513       -22.0824
  24   2.0000      -0.741456       -20.1760
  25   2.0000      -0.739798       -20.1309
  26   2.0000      -0.709760       -19.3136
  27   2.0000      -0.656406       -17.8617
  28   2.0000      -0.620398       -16.8819
  29   2.0000      -0.595530       -16.2052
  30   2.0000      -0.580430       -15.7943
  31   2.0000      -0.545237       -14.8367
  32   2.0000      -0.528262       -14.3747
  33   2.0000      -0.469253       -12.7690
  34   2.0000      -0.445339       -12.1183
  35   2.0000      -0.441347       -12.0097
  36   2.0000      -0.419121       -11.4049
  37   2.0000      -0.357247        -9.7212
  38   0.0000       0.021296         0.5795
  39   0.0000       0.031287         0.8514
  40   0.0000       0.039198         1.0666
  41   0.0000       0.051155         1.3920
  42   0.0000       0.054973         1.4959

MULLIKEN ATOMIC CHARGES
-----------------------
   0 Cl:   -0.307400
   1 S :    0.394836
   2 F :   -0.603467
   3 N :   -0.401060
   4 C :    0.526867
   5 C :    0.476632
   6 C :   -0.891932
   7 C :   -0.204026
   8 H :    0.426572
   9 H :    0.261059
  10 H :    0.321919
Sum of atomic charges:    0.0000000

LOEWDIN ATOMIC CHARGES
----------------------
   0 Cl:    1.087434
   1 S :    1.324554
   2 F :    0.705131
   3 N :    0.431172
   4 C :   -0.651224
   5 C :   -1.399619
   6 C :   -0.109343
   7 C :   -0.156446
   8 H :   -0.397350
   9 H :   -0.421306
  10 H :   -0.413002

  Mayer bond orders larger than 0.100000
B(  0-Cl,  7-C ) :   0.8567 B(  1-S ,  4-C ) :  -0.3340 B(  1-S ,  5-C ) :   1.2318
B(  1-S ,  6-C ) :   1.2493 B(  2-F ,  5-C ) :   0.5800 B(  3-N ,  4-C ) :   0.8329
B(  3-N ,  5-C ) :   1.6609 B(  4-C ,  6-C ) :   1.2652 B(  4-C ,  7-C ) :   0.7659
B(  6-C ,  8-H ) :   0.7967 B(  7-C ,  9-H ) :   0.9746 B(  7-C , 10-H ) :   0.8800

MP2 TOTAL ENERGY:    -1165.854282816 Eh
FINAL SINGLE POINT ENERGY     -1165.854282815881

DIPOLE MOMENT
-------------
                                X             Y             Z
Electronic contribution:      2.71361      -3.63833      -2.94866
Nuclear contribution   :     -2.38671       4.90698       3.43312
                        -----------------------------------------
Total Dipole Moment    :      0.32690       1.26866       0.48446
                        -----------------------------------------
Magnitude (a.u.)       :      1.39680
Magnitude (Debye)      :      3.55038

Rotational constants in cm-1:     0.103419     0.026189     0.022560
Rotational constants in MHz :  3100.431744   785.135056   676.332078

                             ****ORCA TERMINATED NORMALLY****
TOTAL RUN TIME: 0 days 0 hours 18 minutes 2 seconds 888 msec
