                         Program Version 5.0.4 -  RELEASE  -
|  1> !ri-mp2 aug-cc-pvqz aug-cc-pvqz/c tightscf
|  2> %pal nprocs 16 end
|  3>
|  4> * xyz 0 1
|  5> O    -1.905063    0.000000    0.000000
|  6> N     0.190297    1.107884    0.120754
|  7> N     0.190296   -1.107884   -0.120755
|  8> C    -0.714324    0.000000    0.000000
|  9> C     1.431605    0.685517   -0.183402
| 10> C     1.431604   -0.685518    0.183403
| 11> H    -0.158479    2.033494   -0.089560
| 12> H    -0.158482   -2.033493    0.089561
| 13> *
| 14>
| 15>                          ****END OF INPUT****

CARTESIAN COORDINATES (ANGSTROEM)
---------------------------------
  O     -1.905063    0.000000    0.000000
  N      0.190297    1.107884    0.120754
  N      0.190296   -1.107884   -0.120755
  C     -0.714324    0.000000    0.000000
  C      1.431605    0.685517   -0.183402
  C      1.431604   -0.685518    0.183403
  H     -0.158479    2.033494   -0.089560
  H     -0.158482   -2.033493    0.089561

 Total Charge           Charge          ....    0
 Multiplicity           Mult            ....    1
 Number of Electrons    NEL             ....   42
 Basis Dimension        Dim             ....  572

ORBITAL ENERGIES
----------------

  NO   OCC          E(Eh)            E(eV)
   0   2.0000     -20.594618      -560.4080
   1   2.0000     -15.655495      -426.0077
   2   2.0000     -15.655465      -426.0069
   3   2.0000     -11.440016      -311.2987
   4   2.0000     -11.299056      -307.4629
   5   2.0000     -11.297960      -307.4331
   6   2.0000      -1.470759       -40.0214
   7   2.0000      -1.370192       -37.2848
   8   2.0000      -1.249330       -33.9960
   9   2.0000      -1.001825       -27.2610
  10   2.0000      -0.890725       -24.2379
  11   2.0000      -0.834811       -22.7164
  12   2.0000      -0.723800       -19.6956
  13   2.0000      -0.717473       -19.5234
  14   2.0000      -0.670873       -18.2554
  15   2.0000      -0.661329       -17.9957
  16   2.0000      -0.544212       -14.8087
  17   2.0000      -0.512249       -13.9390
  18   2.0000      -0.509176       -13.8554
  19   2.0000      -0.412114       -11.2142
  20   2.0000      -0.378704       -10.3050
  21   0.0000       0.016121         0.4387
  22   0.0000       0.022627         0.6157
  23   0.0000       0.030668         0.8345
  24   0.0000       0.053578         1.4579
  25   0.0000       0.057244         1.5577

MULLIKEN ATOMIC CHARGES
-----------------------
   0 O :   -0.645313
   1 N :   -0.464574
   2 N :   -0.464574
   3 C :    0.931114
   4 C :    0.008875
   5 C :    0.008875
   6 H :    0.312798
   7 H :    0.312799
Sum of atomic charges:    0.0000000

LOEWDIN ATOMIC CHARGES
----------------------
   0 O :    0.697637
   1 N :    0.667261
   2 N :    0.667260
   3 C :   -1.022533
   4 C :    0.011063
   5 C :    0.011063
   6 H :   -0.515875
   7 H :   -0.515875

  Mayer bond orders larger than 0.100000
B(  0-O ,  3-C ) :   1.6303 B(  1-N ,  3-C ) :   1.0829 B(  1-N ,  4-C ) :   1.2246
B(  1-N ,  6-H ) :   0.8860 B(  2-N ,  3-C ) :   1.0829 B(  2-N ,  5-C ) :   1.2246
B(  2-N ,  7-H ) :   0.8860 B(  4-C ,  5-C ) :   0.9919

MP2 TOTAL ENERGY:     -299.633505567 Eh
FINAL SINGLE POINT ENERGY      -299.633505567145

DIPOLE MOMENT
-------------
                                X             Y             Z
Electronic contribution:     -0.17827      -0.00000      -0.00000
Nuclear contribution   :     -0.33139       0.00000       0.00000
                        -----------------------------------------
Total Dipole Moment    :     -0.50965       0.00000       0.00000
                        -----------------------------------------
Magnitude (a.u.)       :      0.50965
Magnitude (Debye)      :      1.29543

Rotational constants in cm-1:     0.305158     0.145676     0.100044
Rotational constants in MHz :  9148.403571  4367.257714  2999.248540

                             ****ORCA TERMINATED NORMALLY****
TOTAL RUN TIME: 0 days 0 hours 9 minutes 4 seconds 417 msec
