                         Program Version 5.0.4 -  RELEASE  -
|  1> !ri-mp2 aug-cc-pvqz aug-cc-pvqz/c tightscf
|  2> %pal nprocs 16 end
|  3>
|  4> * xyz 0 1
|  5> C      0.232599    2.252569    0.000000
|  6> H      1.240702    2.639284    0.000000
|  7> H     -0.591492    2.949028    0.000000
|  8> O      0.964439   -0.073898    0.000000
|  9> C     -0.031516   -1.052379    0.000000
| 10> O      0.109849   -2.226036    0.000000
| 11> C     -1.150253   -0.013443    0.000000
| 12> H     -1.774247   -0.027961    0.891486
| 13> H     -1.774247   -0.027961   -0.891486
| 14> C      0.000000    0.957768    0.000000
| 15> *
| 16>
| 17>                          ****END OF INPUT****

CARTESIAN COORDINATES (ANGSTROEM)
---------------------------------
  C      0.232599    2.252569    0.000000
  H      1.240702    2.639284    0.000000
  H     -0.591492    2.949028    0.000000
  O      0.964439   -0.073898    0.000000
  C     -0.031516   -1.052379    0.000000
  O      0.109849   -2.226036    0.000000
  C     -1.150253   -0.013443    0.000000
  H     -1.774247   -0.027961    0.891486
  H     -1.774247   -0.027961   -0.891486
  C      0.000000    0.957768    0.000000

 Total Charge           Charge          ....    0
 Multiplicity           Mult            ....    1
 Number of Electrons    NEL             ....   44
 Basis Dimension        Dim             ....  664

ORBITAL ENERGIES
----------------

  NO   OCC          E(Eh)            E(eV)
   0   2.0000     -20.624123      -561.2109
   1   2.0000     -20.573317      -559.8284
   2   2.0000     -11.403735      -310.3114
   3   2.0000     -11.328644      -308.2681
   4   2.0000     -11.282308      -307.0072
   5   2.0000     -11.239427      -305.8404
   6   2.0000      -1.488737       -40.5106
   7   2.0000      -1.406156       -38.2635
   8   2.0000      -1.083060       -29.4716
   9   2.0000      -1.029109       -28.0035
  10   2.0000      -0.821146       -22.3445
  11   2.0000      -0.767653       -20.8889
  12   2.0000      -0.707787       -19.2599
  13   2.0000      -0.694552       -18.8997
  14   2.0000      -0.693685       -18.8761
  15   2.0000      -0.611797       -16.6478
  16   2.0000      -0.601336       -16.3632
  17   2.0000      -0.584222       -15.8975
  18   2.0000      -0.530412       -14.4332
  19   2.0000      -0.529304       -14.4031
  20   2.0000      -0.462929       -12.5969
  21   2.0000      -0.378855       -10.3092
  22   0.0000       0.019926         0.5422
  23   0.0000       0.031002         0.8436
  24   0.0000       0.035078         0.9545
  25   0.0000       0.038350         1.0436
  26   0.0000       0.060927         1.6579

MULLIKEN ATOMIC CHARGES
-----------------------
   0 C :   -0.784711
   1 H :    0.360340
   2 H :    0.264487
   3 O :   -0.729237
   4 C :    1.021789
   5 O :   -0.710889
   6 C :   -0.553360
   7 H :    0.313698
   8 H :    0.313698
   9 C :    0.504184
Sum of atomic charges:    0.0000000

LOEWDIN ATOMIC CHARGES
----------------------
   0 C :    0.787172
   1 H :   -0.368488
   2 H :   -0.374345
   3 O :    0.829286
   4 C :   -1.034307
   5 O :    0.657311
   6 C :    0.495400
   7 H :   -0.277650
   8 H :   -0.277650
   9 C :   -0.436729

  Mayer bond orders larger than 0.100000
B(  0-C ,  1-H ) :   0.9207 B(  0-C ,  2-H ) :   1.0635 B(  0-C ,  9-C ) :   1.4720
B(  1-H ,  9-C ) :  -0.1052 B(  3-O ,  4-C ) :   0.9070 B(  3-O ,  5-O ) :   0.1335
B(  3-O ,  6-C ) :   0.1048 B(  3-O ,  9-C ) :   0.6576 B(  4-C ,  5-O ) :   1.5144
B(  4-C ,  6-C ) :   1.1754 B(  4-C ,  9-C ) :  -0.1638 B(  6-C ,  7-H ) :   0.8569
B(  6-C ,  8-H ) :   0.8569 B(  6-C ,  9-C ) :   0.9731

MP2 TOTAL ENERGY:     -304.795921902 Eh
FINAL SINGLE POINT ENERGY      -304.795921901596

DIPOLE MOMENT
-------------
                                X             Y             Z
Electronic contribution:      1.82271      -4.15290      -0.00000
Nuclear contribution   :     -2.83302       5.40208       0.00000
                        -----------------------------------------
Total Dipole Moment    :     -1.01031       1.24918      -0.00000
                        -----------------------------------------
Magnitude (a.u.)       :      1.60660
Magnitude (Debye)      :      4.08366

Rotational constants in cm-1:     0.408296     0.092744     0.076679
Rotational constants in MHz : 12240.400942  2780.400653  2298.763683

                             ****ORCA TERMINATED NORMALLY****
TOTAL RUN TIME: 0 days 0 hours 12 minutes 46 seconds 596 msec
