                         Program Version 5.0.4 -  RELEASE  -
|  1> !ri-mp2 aug-cc-pvqz aug-cc-pvqz/c tightscf
|  2> %pal nprocs 16 end
|  3>
|  4> * xyz 0 1
|  5> S    -1.958243    0.228807    0.000000
|  6> S     2.220685   -0.683816    0.000001
|  7> N    -0.289940   -1.729567    0.000001
|  8> N     0.650712    2.984496    0.000000
|  9> C    -0.252301    0.588485    0.000000
| 10> C     0.464268   -0.591163    0.000000
| 11> C    -1.558175   -1.448494    0.000000
| 12> C     0.241588    1.904998    0.000000
| 13> H     2.237266   -2.028192    0.000001
| 14> H    -2.334026   -2.199110    0.000000
| 15> *
| 16>
| 17>                          ****END OF INPUT****

CARTESIAN COORDINATES (ANGSTROEM)
---------------------------------
  S     -1.958243    0.228807    0.000000
  S      2.220685   -0.683816    0.000001
  N     -0.289940   -1.729567    0.000001
  N      0.650712    2.984496    0.000000
  C     -0.252301    0.588485    0.000000
  C      0.464268   -0.591163    0.000000
  C     -1.558175   -1.448494    0.000000
  C      0.241588    1.904998    0.000000
  H      2.237266   -2.028192    0.000001
  H     -2.334026   -2.199110    0.000000

 Total Charge           Charge          ....    0
 Multiplicity           Mult            ....    1
 Number of Electrons    NEL             ....   72
 Basis Dimension        Dim             ....  740

ORBITAL ENERGIES
----------------

  NO   OCC          E(Eh)            E(eV)
   0   2.0000     -92.034160     -2504.3768
   1   2.0000     -91.995723     -2503.3309
   2   2.0000     -15.609325      -424.7513
   3   2.0000     -15.584153      -424.0664
   4   2.0000     -11.354480      -308.9711
   5   2.0000     -11.352645      -308.9212
   6   2.0000     -11.315974      -307.9233
   7   2.0000     -11.290805      -307.2384
   8   2.0000      -9.035399      -245.8657
   9   2.0000      -8.998057      -244.8496
  10   2.0000      -6.716463      -182.7642
  11   2.0000      -6.715933      -182.7498
  12   2.0000      -6.715203      -182.7300
  13   2.0000      -6.679580      -181.7606
  14   2.0000      -6.678633      -181.7349
  15   2.0000      -6.677682      -181.7090
  16   2.0000      -1.331155       -36.2226
  17   2.0000      -1.234513       -33.5928
  18   2.0000      -1.116659       -30.3858
  19   2.0000      -1.091342       -29.6969
  20   2.0000      -0.982171       -26.7262
  21   2.0000      -0.888278       -24.1713
  22   2.0000      -0.816484       -22.2177
  23   2.0000      -0.735206       -20.0060
  24   2.0000      -0.643338       -17.5061
  25   2.0000      -0.634580       -17.2678
  26   2.0000      -0.619266       -16.8511
  27   2.0000      -0.570356       -15.5202
  28   2.0000      -0.554611       -15.0917
  29   2.0000      -0.517877       -14.0921
  30   2.0000      -0.516199       -14.0465
  31   2.0000      -0.484458       -13.1828
  32   2.0000      -0.460814       -12.5394
  33   2.0000      -0.454832       -12.3766
  34   2.0000      -0.413111       -11.2413
  35   2.0000      -0.340942        -9.2775
  36   0.0000       0.017964         0.4888
  37   0.0000       0.029974         0.8156
  38   0.0000       0.043621         1.1870
  39   0.0000       0.045149         1.2286
  40   0.0000       0.055086         1.4990

MULLIKEN ATOMIC CHARGES
-----------------------
   0 S :    0.392634
   1 S :    0.017509
   2 N :   -0.462264
   3 N :   -0.698701
   4 C :   -0.317181
   5 C :    0.348372
   6 C :   -0.539315
   7 C :    0.644185
   8 H :    0.057773
   9 H :    0.556988
Sum of atomic charges:    0.0000000

LOEWDIN ATOMIC CHARGES
----------------------
   0 S :    1.361232
   1 S :    1.619725
   2 N :    0.401018
   3 N :    0.397511
   4 C :   -0.768635
   5 C :   -1.017325
   6 C :   -0.328671
   7 C :   -0.469671
   8 H :   -0.782994
   9 H :   -0.412189

  Mayer bond orders larger than 0.100000
B(  0-S ,  4-C ) :   0.9025 B(  0-S ,  5-C ) :  -0.1212 B(  0-S ,  6-C ) :   1.3488
B(  1-S ,  2-N ) :  -0.1191 B(  1-S ,  5-C ) :   0.7994 B(  1-S ,  8-H ) :   1.0871
B(  2-N ,  5-C ) :   0.9710 B(  2-N ,  6-C ) :   1.5566 B(  3-N ,  7-C ) :   2.3560
B(  4-C ,  5-C ) :   1.1911 B(  4-C ,  6-C ) :  -0.1095 B(  4-C ,  7-C ) :   1.2955
B(  6-C ,  9-H ) :   0.7048

MP2 TOTAL ENERGY:    -1058.162031304 Eh
FINAL SINGLE POINT ENERGY     -1058.162031303973

DIPOLE MOMENT
-------------
                                X             Y             Z
Electronic contribution:     -0.90648       2.36194      -0.00000
Nuclear contribution   :     -0.09770      -3.99965       0.00000
                        -----------------------------------------
Total Dipole Moment    :     -1.00418      -1.63772      -0.00000
                        -----------------------------------------
Magnitude (a.u.)       :      1.92106
Magnitude (Debye)      :      4.88296

Rotational constants in cm-1:     0.062582     0.050790     0.028036
Rotational constants in MHz :  1876.147160  1522.634134   840.502951

                             ****ORCA TERMINATED NORMALLY****
TOTAL RUN TIME: 0 days 0 hours 13 minutes 43 seconds 327 msec
