                         Program Version 5.0.4 -  RELEASE  -
|  1> !ri-mp2 aug-cc-pvqz aug-cc-pvqz/c tightscf
|  2> %pal nprocs 16 end
|  3>
|  4> * xyz 0 1
|  5> H      3.260702   -1.294214   -0.401232
|  6> C      1.438044   -0.423931    0.191330
|  7> H      3.206899    0.548451   -0.421234
|  8> C      2.695041   -0.387967   -0.232098
|  9> H      0.306468    0.824211    1.506818
| 10> C      0.591287    0.786117    0.451638
| 11> H     -1.211253    1.787841   -0.217654
| 12> H     -0.463260    0.753418   -1.450887
| 13> C     -0.675702    0.859133   -0.390868
| 14> H      0.963360   -1.382561    0.370238
| 15> H      1.169489    1.691325    0.243452
| 16> Cl    -1.854378   -0.466387    0.014735
| 17> *
| 18>
| 19>                          ****END OF INPUT****

CARTESIAN COORDINATES (ANGSTROEM)
---------------------------------
  H      3.260702   -1.294214   -0.401232
  C      1.438044   -0.423931    0.191330
  H      3.206899    0.548451   -0.421234
  C      2.695041   -0.387967   -0.232098
  H      0.306468    0.824211    1.506818
  C      0.591287    0.786117    0.451638
  H     -1.211253    1.787841   -0.217654
  H     -0.463260    0.753418   -1.450887
  C     -0.675702    0.859133   -0.390868
  H      0.963360   -1.382561    0.370238
  H      1.169489    1.691325    0.243452
  Cl    -1.854378   -0.466387    0.014735

 Total Charge           Charge          ....    0
 Multiplicity           Mult            ....    1
 Number of Electrons    NEL             ....   48
 Basis Dimension        Dim             ....  726

ORBITAL ENERGIES
----------------

  NO   OCC          E(Eh)            E(eV)
   0   2.0000    -104.819868     -2852.2936
   1   2.0000     -11.297549      -307.4219
   2   2.0000     -11.245916      -306.0169
   3   2.0000     -11.238392      -305.8122
   4   2.0000     -11.226793      -305.4966
   5   2.0000     -10.545319      -286.9527
   6   2.0000      -8.012337      -218.0268
   7   2.0000      -8.010776      -217.9843
   8   2.0000      -8.010745      -217.9835
   9   2.0000      -1.139284       -31.0015
  10   2.0000      -1.071422       -29.1549
  11   2.0000      -0.981020       -26.6949
  12   2.0000      -0.857400       -23.3310
  13   2.0000      -0.765321       -20.8254
  14   2.0000      -0.664791       -18.0899
  15   2.0000      -0.638964       -17.3871
  16   2.0000      -0.600546       -16.3417
  17   2.0000      -0.569774       -15.5043
  18   2.0000      -0.553058       -15.0495
  19   2.0000      -0.508619       -13.8402
  20   2.0000      -0.492694       -13.4069
  21   2.0000      -0.435718       -11.8565
  22   2.0000      -0.432300       -11.7635
  23   2.0000      -0.371935       -10.1209
  24   0.0000       0.025266         0.6875
  25   0.0000       0.030555         0.8314
  26   0.0000       0.036518         0.9937
  27   0.0000       0.039054         1.0627
  28   0.0000       0.048793         1.3277

MULLIKEN ATOMIC CHARGES
-----------------------
   0 H :    0.367295
   1 C :   -0.441417
   2 H :    0.330947
   3 C :   -0.901533
   4 H :    0.291894
   5 C :   -0.272679
   6 H :    0.322469
   7 H :    0.285893
   8 C :   -0.385886
   9 H :    0.473459
  10 H :    0.300646
  11 Cl:   -0.371090
Sum of atomic charges:    0.0000000

LOEWDIN ATOMIC CHARGES
----------------------
   0 H :   -0.356403
   1 C :    0.318441
   2 H :   -0.354322
   3 C :    0.797012
   4 H :   -0.306992
   5 C :    0.358044
   6 H :   -0.395773
   7 H :   -0.392298
   8 C :   -0.109287
   9 H :   -0.351935
  10 H :   -0.315344
  11 Cl:    1.108857

  Mayer bond orders larger than 0.100000
B(  0-H ,  3-C ) :   0.9455 B(  1-C ,  3-C ) :   1.8259 B(  1-C ,  5-C ) :   0.8072
B(  1-C ,  9-H ) :   0.7703 B(  2-H ,  3-C ) :   0.9116 B(  4-H ,  5-C ) :   0.8341
B(  5-C ,  8-C ) :   1.0337 B(  5-C , 10-H ) :   0.8821 B(  6-H ,  8-C ) :   0.8723
B(  7-H ,  8-C ) :   0.8852 B(  8-C , 11-Cl) :   0.8126

MP2 TOTAL ENERGY:     -616.045871944 Eh
FINAL SINGLE POINT ENERGY      -616.045871944388

DIPOLE MOMENT
-------------
                                X             Y             Z
Electronic contribution:     -9.27898      -2.91969       0.27022
Nuclear contribution   :      9.84111       3.57961      -0.38983
                        -----------------------------------------
Total Dipole Moment    :      0.56214       0.65992      -0.11961
                        -----------------------------------------
Magnitude (a.u.)       :      0.87510
Magnitude (Debye)      :      2.22433

Rotational constants in cm-1:     0.341423     0.060579     0.054928
Rotational constants in MHz : 10235.598716  1816.116375  1646.710475

                             ****ORCA TERMINATED NORMALLY****
TOTAL RUN TIME: 0 days 0 hours 14 minutes 9 seconds 140 msec
