                         Program Version 5.0.4 -  RELEASE  -
|  1> !ri-mp2 aug-cc-pvqz aug-cc-pvqz/c tightscf
|  2> %pal nprocs 16 end
|  3>
|  4> * xyz 0 1
|  5> S     0.849093   -1.404452   -0.001478
|  6> N     2.043738   -0.263167    0.010200
|  7> N    -0.588772    2.219969   -0.067972
|  8> N    -2.942184   -0.775655    0.010632
|  9> C    -0.440552   -0.233849   -0.006414
| 10> C     0.105987    1.037713   -0.005426
| 11> C     1.531170    0.941099    0.004087
| 12> C    -1.808893   -0.550499   -0.000160
| 13> H    -0.122155    3.047725    0.260526
| 14> H    -1.574094    2.192039    0.137048
| 15> H     2.195028    1.796650    0.003525
| 16> *
| 17>
| 18>                          ****END OF INPUT****

CARTESIAN COORDINATES (ANGSTROEM)
---------------------------------
  S      0.849093   -1.404452   -0.001478
  N      2.043738   -0.263167    0.010200
  N     -0.588772    2.219969   -0.067972
  N     -2.942184   -0.775655    0.010632
  C     -0.440552   -0.233849   -0.006414
  C      0.105987    1.037713   -0.005426
  C      1.531170    0.941099    0.004087
  C     -1.808893   -0.550499   -0.000160
  H     -0.122155    3.047725    0.260526
  H     -1.574094    2.192039    0.137048
  H      2.195028    1.796650    0.003525

 Total Charge           Charge          ....    0
 Multiplicity           Mult            ....    1
 Number of Electrons    NEL             ....   64
 Basis Dimension        Dim             ....  782

ORBITAL ENERGIES
----------------

  NO   OCC          E(Eh)            E(eV)
   0   2.0000     -92.031047     -2504.2921
   1   2.0000     -15.625306      -425.1862
   2   2.0000     -15.606693      -424.6797
   3   2.0000     -15.585222      -424.0954
   4   2.0000     -11.332698      -308.3784
   5   2.0000     -11.307641      -307.6965
   6   2.0000     -11.305744      -307.6449
   7   2.0000     -11.291960      -307.2698
   8   2.0000      -9.029015      -245.6920
   9   2.0000      -6.710219      -182.5943
  10   2.0000      -6.709271      -182.5685
  11   2.0000      -6.708568      -182.5494
  12   2.0000      -1.314538       -35.7704
  13   2.0000      -1.253363       -34.1057
  14   2.0000      -1.233599       -33.5679
  15   2.0000      -1.088854       -29.6292
  16   2.0000      -1.018031       -27.7020
  17   2.0000      -0.891082       -24.2476
  18   2.0000      -0.819490       -22.2995
  19   2.0000      -0.762831       -20.7577
  20   2.0000      -0.718710       -19.5571
  21   2.0000      -0.653827       -17.7915
  22   2.0000      -0.632504       -17.2113
  23   2.0000      -0.613780       -16.7018
  24   2.0000      -0.572195       -15.5702
  25   2.0000      -0.530652       -14.4398
  26   2.0000      -0.516755       -14.0616
  27   2.0000      -0.511487       -13.9183
  28   2.0000      -0.499067       -13.5803
  29   2.0000      -0.459733       -12.5100
  30   2.0000      -0.386972       -10.5300
  31   2.0000      -0.336173        -9.1477
  32   0.0000       0.014367         0.3910
  33   0.0000       0.030533         0.8308
  34   0.0000       0.043386         1.1806
  35   0.0000       0.044329         1.2063
  36   0.0000       0.055396         1.5074

MULLIKEN ATOMIC CHARGES
-----------------------
   0 S :    0.520675
   1 N :   -0.790290
   2 N :   -0.772551
   3 N :   -0.717405
   4 C :   -0.250484
   5 C :    0.369029
   6 C :   -0.035381
   7 C :    0.646329
   8 H :    0.310108
   9 H :    0.293240
  10 H :    0.426730
Sum of atomic charges:   -0.0000000

LOEWDIN ATOMIC CHARGES
----------------------
   0 S :    1.116070
   1 N :    0.110797
   2 N :    1.275535
   3 N :    0.402687
   4 C :   -0.634920
   5 C :   -0.415332
   6 C :   -0.093451
   7 C :   -0.424225
   8 H :   -0.489842
   9 H :   -0.501224
  10 H :   -0.346096

  Mayer bond orders larger than 0.100000
B(  0-S ,  1-N ) :   1.0491 B(  0-S ,  4-C ) :   0.9341 B(  0-S ,  6-C ) :   0.1021
B(  1-N ,  5-C ) :   0.1245 B(  1-N ,  6-C ) :   1.4728 B(  2-N ,  5-C ) :   0.9186
B(  2-N ,  8-H ) :   0.9068 B(  2-N ,  9-H ) :   0.8823 B(  3-N ,  7-C ) :   2.3781
B(  4-C ,  5-C ) :   0.9889 B(  4-C ,  6-C ) :  -0.2641 B(  4-C ,  7-C ) :   1.2997
B(  5-C ,  6-C ) :   1.1660 B(  5-C ,  7-C ) :  -0.1037 B(  6-C , 10-H ) :   0.9245

MP2 TOTAL ENERGY:     -715.705498366 Eh
FINAL SINGLE POINT ENERGY      -715.705498365927

DIPOLE MOMENT
-------------
                                X             Y             Z
Electronic contribution:      0.32306      -5.25158      -0.09011
Nuclear contribution   :      0.44549       6.80625       0.38501
                        -----------------------------------------
Total Dipole Moment    :      0.76856       1.55467       0.29489
                        -----------------------------------------
Magnitude (a.u.)       :      1.75916
Magnitude (Debye)      :      4.47143

Rotational constants in cm-1:     0.090268     0.059115     0.035744
Rotational constants in MHz :  2706.151700  1772.211939  1071.571396

                             ****ORCA TERMINATED NORMALLY****
TOTAL RUN TIME: 0 days 0 hours 22 minutes 1 seconds 670 msec
