                         Program Version 5.0.4 -  RELEASE  -
|  1> !ri-mp2 aug-cc-pvqz aug-cc-pvqz/c tightscf
|  2> %pal nprocs 16 end
|  3> %maxcore 3800
|  4>
|  5> * xyz 0 1
|  6> C     -0.550872    1.183343    1.818393
|  7> C      0.550872   -1.183343    1.818393
|  8> C     -0.290910    0.631581    0.558623
|  9> C      0.290910   -0.631581    0.558623
| 10> C      0.216434    3.129438   -2.389797
| 11> C     -0.216434   -3.129438   -2.389797
| 12> C     -0.608822    1.420841   -0.684182
| 13> C      0.608822   -1.420841   -0.684182
| 14> C      0.550872    2.327591   -1.134342
| 15> C     -0.550872   -2.327591   -1.134342
| 16> N     -0.282914    0.601718    2.979528
| 17> N      0.282914   -0.601718    2.979528
| 18> H     -1.012928    2.161604    1.897374
| 19> H      1.012928   -2.161604    1.897374
| 20> H     -0.012670    2.471736   -3.230631
| 21> H     -0.650384    3.773094   -2.228370
| 22> H      1.051528    3.765640   -2.684387
| 23> H      0.012670   -2.471736   -3.230631
| 24> H      0.650384   -3.773094   -2.228370
| 25> H     -1.051528   -3.765640   -2.684387
| 26> H     -0.878678    0.750885   -1.501953
| 27> H     -1.486647    2.042926   -0.493539
| 28> H      0.878678   -0.750885   -1.501953
| 29> H      1.486647   -2.042926   -0.493539
| 30> H      0.807198    3.006117   -0.317347
| 31> H      1.439842    1.716802   -1.310001
| 32> H     -0.807198   -3.006117   -0.317347
| 33> H     -1.439842   -1.716802   -1.310001
| 34> *
| 35>
| 36>                          ****END OF INPUT****

CARTESIAN COORDINATES (ANGSTROEM)
---------------------------------
  C     -0.550872    1.183343    1.818393
  C      0.550872   -1.183343    1.818393
  C     -0.290910    0.631581    0.558623
  C      0.290910   -0.631581    0.558623
  C      0.216434    3.129438   -2.389797
  C     -0.216434   -3.129438   -2.389797
  C     -0.608822    1.420841   -0.684182
  C      0.608822   -1.420841   -0.684182
  C      0.550872    2.327591   -1.134342
  C     -0.550872   -2.327591   -1.134342
  N     -0.282914    0.601718    2.979528
  N      0.282914   -0.601718    2.979528
  H     -1.012928    2.161604    1.897374
  H      1.012928   -2.161604    1.897374
  H     -0.012670    2.471736   -3.230631
  H     -0.650384    3.773094   -2.228370
  H      1.051528    3.765640   -2.684387
  H      0.012670   -2.471736   -3.230631
  H      0.650384   -3.773094   -2.228370
  H     -1.051528   -3.765640   -2.684387
  H     -0.878678    0.750885   -1.501953
  H     -1.486647    2.042926   -0.493539
  H      0.878678   -0.750885   -1.501953
  H      1.486647   -2.042926   -0.493539
  H      0.807198    3.006117   -0.317347
  H      1.439842    1.716802   -1.310001
  H     -0.807198   -3.006117   -0.317347
  H     -1.439842   -1.716802   -1.310001

 Total Charge           Charge          ....    0
 Multiplicity           Mult            ....    1
 Number of Electrons    NEL             ....   90
 Basis Dimension        Dim             .... 1696

ORBITAL ENERGIES
----------------

  NO   OCC          E(Eh)            E(eV)
   0   2.0000     -15.595649      -424.3792
   1   2.0000     -15.594817      -424.3565
   2   2.0000     -11.268285      -306.6256
   3   2.0000     -11.268268      -306.6252
   4   2.0000     -11.261848      -306.4505
   5   2.0000     -11.260593      -306.4163
   6   2.0000     -11.243678      -305.9560
   7   2.0000     -11.243674      -305.9559
   8   2.0000     -11.236589      -305.7631
   9   2.0000     -11.236588      -305.7631
  10   2.0000     -11.224326      -305.4294
  11   2.0000     -11.224326      -305.4294
  12   2.0000      -1.335961       -36.3534
  13   2.0000      -1.143556       -31.1178
  14   2.0000      -1.112469       -30.2718
  15   2.0000      -1.075077       -29.2543
  16   2.0000      -1.052689       -28.6451
  17   2.0000      -0.974745       -26.5242
  18   2.0000      -0.945384       -25.7252
  19   2.0000      -0.867449       -23.6045
  20   2.0000      -0.859307       -23.3829
  21   2.0000      -0.819809       -22.3081
  22   2.0000      -0.808983       -22.0136
  23   2.0000      -0.717744       -19.5308
  24   2.0000      -0.684452       -18.6249
  25   2.0000      -0.649573       -17.6758
  26   2.0000      -0.637334       -17.3428
  27   2.0000      -0.635156       -17.2835
  28   2.0000      -0.599278       -16.3072
  29   2.0000      -0.595938       -16.2163
  30   2.0000      -0.593391       -16.1470
  31   2.0000      -0.572745       -15.5852
  32   2.0000      -0.555112       -15.1054
  33   2.0000      -0.549210       -14.9448
  34   2.0000      -0.545634       -14.8475
  35   2.0000      -0.506231       -13.7752
  36   2.0000      -0.505751       -13.7622
  37   2.0000      -0.499924       -13.6036
  38   2.0000      -0.498444       -13.5634
  39   2.0000      -0.491711       -13.3801
  40   2.0000      -0.488499       -13.2927
  41   2.0000      -0.461942       -12.5701
  42   2.0000      -0.392887       -10.6910
  43   2.0000      -0.370563       -10.0835
  44   2.0000      -0.370027       -10.0689
  45   0.0000       0.019213         0.5228
  46   0.0000       0.023864         0.6494
  47   0.0000       0.025839         0.7031
  48   0.0000       0.031398         0.8544
  49   0.0000       0.037505         1.0206

MULLIKEN ATOMIC CHARGES
-----------------------
   0 C :   -0.200936
   1 C :   -0.201148
   2 C :    0.217855
   3 C :    0.217510
   4 C :   -0.830134
   5 C :   -0.830115
   6 C :   -0.218899
   7 C :   -0.218697
   8 C :   -0.555241
   9 C :   -0.555217
  10 N :   -0.550461
  11 N :   -0.550698
  12 H :    0.386172
  13 H :    0.386091
  14 H :    0.229823
  15 H :    0.221684
  16 H :    0.276600
  17 H :    0.229818
  18 H :    0.221698
  19 H :    0.276619
  20 H :    0.239710
  21 H :    0.265832
  22 H :    0.239662
  23 H :    0.265782
  24 H :    0.245151
  25 H :    0.273175
  26 H :    0.245281
  27 H :    0.273080
Sum of atomic charges:    0.0000000

LOEWDIN ATOMIC CHARGES
----------------------
   0 C :    0.063206
   1 C :    0.063206
   2 C :   -0.059503
   3 C :   -0.059503
   4 C :    0.938645
   5 C :    0.938645
   6 C :    0.500568
   7 C :    0.500568
   8 C :    0.527228
   9 C :    0.527228
  10 N :    0.344090
  11 N :    0.344090
  12 H :   -0.352622
  13 H :   -0.352622
  14 H :   -0.281392
  15 H :   -0.281294
  16 H :   -0.280535
  17 H :   -0.281392
  18 H :   -0.281294
  19 H :   -0.280535
  20 H :   -0.299058
  21 H :   -0.280466
  22 H :   -0.299058
  23 H :   -0.280466
  24 H :   -0.267039
  25 H :   -0.271829
  26 H :   -0.267039
  27 H :   -0.271829

  Mayer bond orders larger than 0.100000
B(  0-C ,  1-C ) :   0.1744 B(  0-C ,  2-C ) :   1.2427 B(  0-C ,  3-C ) :  -0.3466
B(  0-C ,  6-C ) :  -0.2761 B(  0-C , 10-N ) :   1.1903 B(  0-C , 12-H ) :   0.9919
B(  1-C ,  2-C ) :  -0.3468 B(  1-C ,  3-C ) :   1.2431 B(  1-C ,  7-C ) :  -0.2762
B(  1-C , 11-N ) :   1.1906 B(  1-C , 13-H ) :   0.9919 B(  2-C ,  3-C ) :   0.8861
B(  2-C ,  6-C ) :   0.6397 B(  2-C , 12-H ) :  -0.1241 B(  3-C ,  7-C ) :   0.6398
B(  3-C , 13-H ) :  -0.1240 B(  4-C ,  8-C ) :   0.9545 B(  4-C , 14-H ) :   0.9548
B(  4-C , 15-H ) :   0.9665 B(  4-C , 16-H ) :   0.9935 B(  5-C ,  9-C ) :   0.9546
B(  5-C , 17-H ) :   0.9548 B(  5-C , 18-H ) :   0.9665 B(  5-C , 19-H ) :   0.9935
B(  6-C ,  8-C ) :   0.8745 B(  6-C , 20-H ) :   0.9577 B(  6-C , 21-H ) :   0.9569
B(  7-C ,  9-C ) :   0.8746 B(  7-C , 22-H ) :   0.9577 B(  7-C , 23-H ) :   0.9569
B(  8-C , 24-H ) :   0.8881 B(  8-C , 25-H ) :   0.8801 B(  9-C , 26-H ) :   0.8880
B(  9-C , 27-H ) :   0.8802 B( 10-N , 11-N ) :   0.7659 B( 10-N , 12-H ) :  -0.1374
B( 11-N , 13-H ) :  -0.1374

MP2 TOTAL ENERGY:     -499.283563886 Eh
FINAL SINGLE POINT ENERGY      -499.283563885777

DIPOLE MOMENT
-------------
                                X             Y             Z
Electronic contribution:      0.00000      -0.00000      18.12854
Nuclear contribution   :     -0.00000      -0.00000     -20.27546
                        -----------------------------------------
Total Dipole Moment    :      0.00000      -0.00000      -2.14692
                        -----------------------------------------
Magnitude (a.u.)       :      2.14692
Magnitude (Debye)      :      5.45704

Rotational constants in cm-1:     0.027203     0.026949     0.014606
Rotational constants in MHz :   815.518980   807.918462   437.869545

                             ****ORCA TERMINATED NORMALLY****
TOTAL RUN TIME: 0 days 2 hours 59 minutes 20 seconds 658 msec
