                         Program Version 5.0.4 -  RELEASE  -
|  1> !ri-mp2 aug-cc-pvqz aug-cc-pvqz/c tightscf
|  2> %pal nprocs 16 end
|  3>
|  4> * xyz 0 1
|  5> C     -1.206951    0.001465        0.000000
|  6> C      1.216264    0.012824        0.000000
|  7> C     -1.196872   -1.382293        0.000000
|  8> C      1.225228   -1.368685        0.000000
|  9> C      0.000000    0.687846        0.000000
| 10> C      0.018081   -2.070366        0.000000
| 11> N     -0.009275    2.152677        0.000000
| 12> O     -1.096069    2.717197        0.000000
| 13> O      1.070131    2.730377        0.000000
| 14> O      0.088467   -3.425739        0.000000
| 15> H     -2.133281    0.554066        0.000000
| 16> H      2.135640    0.576959        0.000000
| 17> H     -2.130792   -1.930246        0.000000
| 18> H      2.153866   -1.920498        0.000000
| 19> H     -0.795242   -3.808449        0.000000
| 20> *
| 21>
| 22>                          ****END OF INPUT****

CARTESIAN COORDINATES (ANGSTROEM)
---------------------------------
  C     -1.206951    0.001465    0.000000
  C      1.216264    0.012824    0.000000
  C     -1.196872   -1.382293    0.000000
  C      1.225228   -1.368685    0.000000
  C      0.000000    0.687846    0.000000
  C      0.018081   -2.070366    0.000000
  N     -0.009275    2.152677    0.000000
  O     -1.096069    2.717197    0.000000
  O      1.070131    2.730377    0.000000
  O      0.088467   -3.425739    0.000000
  H     -2.133281    0.554066    0.000000
  H      2.135640    0.576959    0.000000
  H     -2.130792   -1.930246    0.000000
  H      2.153866   -1.920498    0.000000
  H     -0.795242   -3.808449    0.000000

 Total Charge           Charge          ....    0
 Multiplicity           Mult            ....    1
 Number of Electrons    NEL             ....   72
 Basis Dimension        Dim             .... 1030

ORBITAL ENERGIES
----------------

  NO   OCC          E(Eh)            E(eV)
   0   2.0000     -20.621533      -561.1404
   1   2.0000     -20.595753      -560.4389
   2   2.0000     -20.595360      -560.4282
   3   2.0000     -15.850118      -431.3036
   4   2.0000     -11.344159      -308.6903
   5   2.0000     -11.301618      -307.5327
   6   2.0000     -11.282364      -307.0087
   7   2.0000     -11.279649      -306.9349
   8   2.0000     -11.264269      -306.5163
   9   2.0000     -11.258022      -306.3464
  10   2.0000      -1.601766       -43.5863
  11   2.0000      -1.441275       -39.2191
  12   2.0000      -1.394518       -37.9468
  13   2.0000      -1.200044       -32.6548
  14   2.0000      -1.087756       -29.5994
  15   2.0000      -1.061086       -28.8736
  16   2.0000      -0.956437       -26.0260
  17   2.0000      -0.885966       -24.1084
  18   2.0000      -0.835701       -22.7406
  19   2.0000      -0.782441       -21.2913
  20   2.0000      -0.768402       -20.9093
  21   2.0000      -0.728197       -19.8153
  22   2.0000      -0.717250       -19.5174
  23   2.0000      -0.692874       -18.8540
  24   2.0000      -0.655849       -17.8466
  25   2.0000      -0.631887       -17.1945
  26   2.0000      -0.624307       -16.9882
  27   2.0000      -0.618533       -16.8311
  28   2.0000      -0.589814       -16.0497
  29   2.0000      -0.531569       -14.4647
  30   2.0000      -0.521029       -14.1779
  31   2.0000      -0.494696       -13.4613
  32   2.0000      -0.491007       -13.3610
  33   2.0000      -0.453119       -12.3300
  34   2.0000      -0.379075       -10.3151
  35   2.0000      -0.356391        -9.6979
  36   0.0000       0.014323         0.3898
  37   0.0000       0.026534         0.7220
  38   0.0000       0.032561         0.8860
  39   0.0000       0.042025         1.1436
  40   0.0000       0.044517         1.2114

MULLIKEN ATOMIC CHARGES
-----------------------
   0 C :   -0.108676
   1 C :   -0.240798
   2 C :   -0.479389
   3 C :   -0.479087
   4 C :   -0.109088
   5 C :    1.134162
   6 N :    0.761849
   7 O :   -0.613723
   8 O :   -0.607020
   9 O :   -0.805644
  10 H :    0.356673
  11 H :    0.325258
  12 H :    0.196848
  13 H :    0.294828
  14 H :    0.373808
Sum of atomic charges:   -0.0000000

LOEWDIN ATOMIC CHARGES
----------------------
   0 C :    0.316229
   1 C :    0.316233
   2 C :    0.356953
   3 C :    0.348465
   4 C :   -0.309734
   5 C :   -0.421655
   6 N :   -0.843813
   7 O :    0.537732
   8 O :    0.539142
   9 O :    1.288641
  10 H :   -0.346520
  11 H :   -0.346465
  12 H :   -0.321627
  13 H :   -0.323244
  14 H :   -0.790336

  Mayer bond orders larger than 0.100000
B(  0-C ,  2-C ) :   1.1945 B(  0-C ,  4-C ) :   1.2313 B(  0-C ,  5-C ) :  -0.1215
B(  0-C ,  6-N ) :  -0.1181 B(  0-C , 10-H ) :   0.8617 B(  0-C , 12-H ) :  -0.1485
B(  1-C ,  3-C ) :   1.2771 B(  1-C ,  4-C ) :   1.2512 B(  1-C ,  5-C ) :  -0.1454
B(  1-C , 11-H ) :   0.9069 B(  1-C , 13-H ) :  -0.1261 B(  2-C ,  3-C ) :  -0.1116
B(  2-C ,  4-C ) :  -0.2493 B(  2-C ,  5-C ) :   1.2645 B(  2-C ,  9-O ) :   0.2287
B(  2-C , 10-H ) :  -0.1078 B(  2-C , 12-H ) :   1.1031 B(  3-C ,  4-C ) :  -0.2236
B(  3-C ,  5-C ) :   1.2820 B(  3-C ,  9-O ) :   0.3288 B(  3-C , 11-H ) :  -0.1152
B(  3-C , 13-H ) :   0.9904 B(  4-C ,  6-N ) :   0.8049 B(  4-C ,  7-O ) :   0.2395
B(  4-C ,  8-O ) :   0.2480 B(  5-C , 14-H ) :  -0.1228 B(  6-N ,  7-O ) :   1.1499
B(  6-N ,  8-O ) :   1.1506 B(  9-O , 14-H ) :   0.8868

MP2 TOTAL ENERGY:     -511.255897076 Eh
FINAL SINGLE POINT ENERGY      -511.255897075624

DIPOLE MOMENT
-------------
                                X             Y             Z
Electronic contribution:      0.22321       4.19650      -0.00000
Nuclear contribution   :     -0.74738      -6.30241       0.00000
                        -----------------------------------------
Total Dipole Moment    :     -0.52418      -2.10591      -0.00000
                        -----------------------------------------
Magnitude (a.u.)       :      2.17017
Magnitude (Debye)      :      5.51612

Rotational constants in cm-1:     0.132509     0.027404     0.022708
Rotational constants in MHz :  3972.513077   821.557614   680.767677

                             ****ORCA TERMINATED NORMALLY****
TOTAL RUN TIME: 0 days 0 hours 42 minutes 35 seconds 77 msec
