                         Program Version 5.0.4 -  RELEASE  -
|  1> !ri-mp2 aug-cc-pvqz aug-cc-pvqz/c tightscf
|  2> %pal nprocs 16 end
|  3>
|  4> * xyz 0 1
|  5> S    -3.117372   -0.219151   -0.000042
|  6> O     1.880210    1.021564   -0.000017
|  7> O     3.047958   -0.924185    0.000000
|  8> N     0.735994   -0.877231    0.000067
|  9> C    -0.262689    0.101627    0.000020
| 10> C     2.003640   -0.340666    0.000015
| 11> C     0.502611    1.419673    0.000015
| 12> C    -1.560452   -0.063026   -0.000009
| 13> H     0.587091   -1.870027    0.000039
| 14> H     0.307433    2.016200   -0.890818
| 15> H     0.307471    2.016180    0.890870
| 16> *
| 17>
| 18>                          ****END OF INPUT****

CARTESIAN COORDINATES (ANGSTROEM)
---------------------------------
  S     -3.117372   -0.219151   -0.000042
  O      1.880210    1.021564   -0.000017
  O      3.047958   -0.924185    0.000000
  N      0.735994   -0.877231    0.000067
  C     -0.262689    0.101627    0.000020
  C      2.003640   -0.340666    0.000015
  C      0.502611    1.419673    0.000015
  C     -1.560452   -0.063026   -0.000009
  H      0.587091   -1.870027    0.000039
  H      0.307433    2.016200   -0.890818
  H      0.307471    2.016180    0.890870

 Total Charge           Charge          ....    0
 Multiplicity           Mult            ....    1
 Number of Electrons    NEL             ....   66
 Basis Dimension        Dim             ....  782

ORBITAL ENERGIES
----------------

  NO   OCC          E(Eh)            E(eV)
   0   2.0000     -91.988597     -2503.1370
   1   2.0000     -20.626683      -561.2806
   2   2.0000     -20.548435      -559.1514
   3   2.0000     -15.635818      -425.4722
   4   2.0000     -11.427653      -310.9623
   5   2.0000     -11.341415      -308.6156
   6   2.0000     -11.338156      -308.5269
   7   2.0000     -11.330227      -308.3111
   8   2.0000      -8.990952      -244.6562
   9   2.0000      -6.672141      -181.5582
  10   2.0000      -6.671303      -181.5354
  11   2.0000      -6.669748      -181.4931
  12   2.0000      -1.494911       -40.6786
  13   2.0000      -1.389316       -37.8052
  14   2.0000      -1.288203       -35.0538
  15   2.0000      -1.123751       -30.5788
  16   2.0000      -1.041848       -28.3501
  17   2.0000      -0.947688       -25.7879
  18   2.0000      -0.873272       -23.7629
  19   2.0000      -0.802463       -21.8361
  20   2.0000      -0.732595       -19.9349
  21   2.0000      -0.725738       -19.7483
  22   2.0000      -0.660398       -17.9703
  23   2.0000      -0.632630       -17.2147
  24   2.0000      -0.612058       -16.6549
  25   2.0000      -0.611605       -16.6426
  26   2.0000      -0.580797       -15.8043
  27   2.0000      -0.565449       -15.3867
  28   2.0000      -0.484711       -13.1896
  29   2.0000      -0.482995       -13.1430
  30   2.0000      -0.464531       -12.6405
  31   2.0000      -0.441256       -12.0072
  32   2.0000      -0.316343        -8.6081
  33   0.0000       0.019825         0.5395
  34   0.0000       0.024777         0.6742
  35   0.0000       0.030868         0.8400
  36   0.0000       0.034736         0.9452
  37   0.0000       0.043037         1.1711

MULLIKEN ATOMIC CHARGES
-----------------------
   0 S :   -0.013221
   1 O :   -0.699948
   2 O :   -0.726511
   3 N :   -0.507765
   4 C :    0.117369
   5 C :    1.144139
   6 C :    0.065814
   7 C :   -0.213700
   8 H :    0.183191
   9 H :    0.325314
  10 H :    0.325318
Sum of atomic charges:    0.0000000

LOEWDIN ATOMIC CHARGES
----------------------
   0 S :    1.021265
   1 O :    0.848121
   2 O :    0.643739
   3 N :    0.762266
   4 C :   -0.426403
   5 C :   -1.233044
   6 C :    0.155560
   7 C :   -0.703089
   8 H :   -0.477342
   9 H :   -0.295537
  10 H :   -0.295536

  Mayer bond orders larger than 0.100000
B(  0-S ,  4-C ) :  -0.1397 B(  0-S ,  7-C ) :   1.8125 B(  1-O ,  2-O ) :   0.1109
B(  1-O ,  4-C ) :   0.1243 B(  1-O ,  5-C ) :   1.0337 B(  1-O ,  6-C ) :   0.6070
B(  2-O ,  3-N ) :   0.1455 B(  2-O ,  5-C ) :   1.4290 B(  3-N ,  4-C ) :   0.6613
B(  3-N ,  5-C ) :   1.2671 B(  3-N ,  8-H ) :   1.0210 B(  4-C ,  6-C ) :   1.0014
B(  4-C ,  7-C ) :   1.8381 B(  6-C ,  9-H ) :   0.8785 B(  6-C , 10-H ) :   0.8785

MP2 TOTAL ENERGY:     -756.615698931 Eh
FINAL SINGLE POINT ENERGY      -756.615698930837

DIPOLE MOMENT
-------------
                                X             Y             Z
Electronic contribution:     -2.52435      -1.71957      -0.00007
Nuclear contribution   :      1.32483       2.07863       0.00009
                        -----------------------------------------
Total Dipole Moment    :     -1.19952       0.35907       0.00002
                        -----------------------------------------
Magnitude (a.u.)       :      1.25211
Magnitude (Debye)      :      3.18262

Rotational constants in cm-1:     0.206241     0.027736     0.024562
Rotational constants in MHz :  6182.944808   831.503362   736.352791

                             ****ORCA TERMINATED NORMALLY****
TOTAL RUN TIME: 0 days 0 hours 19 minutes 45 seconds 187 msec
