                         Program Version 5.0.4 -  RELEASE  -
|  1> !ri-mp2 aug-cc-pvqz aug-cc-pvqz/c tightscf
|  2> %pal nprocs 16 end
|  3>
|  4> * xyz 0 1
|  5> C     2.045287    1.959573    0.000020
|  6> C     1.079023    0.821006    0.000009
|  7> C     1.317642   -0.506197    0.000000
|  8> C     2.614953   -1.243781    0.000000
|  9> S    -0.210914   -1.391881   -0.000010
| 10> C    -1.168018    0.085615   -0.000003
| 11> N    -0.281545    1.116807    0.000007
| 12> S    -2.819584    0.202116   -0.000008
| 13> H     1.909294    2.589853   -0.881908
| 14> H     3.071241    1.602683    0.000021
| 15> H     1.909289    2.589840    0.881956
| 16> H     2.709293   -1.883500   -0.879789
| 17> H     2.709288   -1.883511    0.879781
| 18> H     3.456495   -0.553476    0.000007
| 19> H    -0.639431    2.059413    0.000012
| 20> *
| 21>
| 22>                          ****END OF INPUT****

CARTESIAN COORDINATES (ANGSTROEM)
---------------------------------
  C      2.045287    1.959573    0.000020
  C      1.079023    0.821006    0.000009
  C      1.317642   -0.506197    0.000000
  C      2.614953   -1.243781    0.000000
  S     -0.210914   -1.391881   -0.000010
  C     -1.168018    0.085615   -0.000003
  N     -0.281545    1.116807    0.000007
  S     -2.819584    0.202116   -0.000008
  H      1.909294    2.589853   -0.881908
  H      3.071241    1.602683    0.000021
  H      1.909289    2.589840    0.881956
  H      2.709293   -1.883500   -0.879789
  H      2.709288   -1.883511    0.879781
  H      3.456495   -0.553476    0.000007
  H     -0.639431    2.059413    0.000012

 Total Charge           Charge          ....    0
 Multiplicity           Mult            ....    1
 Number of Electrons    NEL             ....   76
 Basis Dimension        Dim             ....  970

ORBITAL ENERGIES
----------------

  NO   OCC          E(Eh)            E(eV)
   0   2.0000     -91.995470     -2503.3240
   1   2.0000     -91.897784     -2500.6658
   2   2.0000     -15.634062      -425.4244
   3   2.0000     -11.371303      -309.4289
   4   2.0000     -11.305161      -307.6291
   5   2.0000     -11.279600      -306.9335
   6   2.0000     -11.260192      -306.4054
   7   2.0000     -11.252542      -306.1972
   8   2.0000      -8.997312      -244.8293
   9   2.0000      -8.901596      -242.2247
  10   2.0000      -6.678458      -181.7301
  11   2.0000      -6.677735      -181.7104
  12   2.0000      -6.676973      -181.6897
  13   2.0000      -6.583342      -179.1419
  14   2.0000      -6.581566      -179.0935
  15   2.0000      -6.580966      -179.0772
  16   2.0000      -1.328611       -36.1534
  17   2.0000      -1.117119       -30.3984
  18   2.0000      -1.083730       -29.4898
  19   2.0000      -0.999631       -27.2013
  20   2.0000      -0.978705       -26.6319
  21   2.0000      -0.897795       -24.4302
  22   2.0000      -0.812215       -22.1015
  23   2.0000      -0.776571       -21.1316
  24   2.0000      -0.681981       -18.5577
  25   2.0000      -0.641912       -17.4673
  26   2.0000      -0.619458       -16.8563
  27   2.0000      -0.594341       -16.1728
  28   2.0000      -0.589977       -16.0541
  29   2.0000      -0.578249       -15.7349
  30   2.0000      -0.571612       -15.5543
  31   2.0000      -0.562104       -15.2956
  32   2.0000      -0.505654       -13.7595
  33   2.0000      -0.487708       -13.2712
  34   2.0000      -0.421777       -11.4771
  35   2.0000      -0.396914       -10.8006
  36   2.0000      -0.325154        -8.8479
  37   2.0000      -0.291820        -7.9408
  38   0.0000       0.016266         0.4426
  39   0.0000       0.023285         0.6336
  40   0.0000       0.032296         0.8788
  41   0.0000       0.034638         0.9426
  42   0.0000       0.044982         1.2240

MULLIKEN ATOMIC CHARGES
-----------------------
   0 C :   -0.753288
   1 C :    0.590652
   2 C :   -0.256575
   3 C :   -0.672998
   4 S :    0.211003
   5 C :   -0.321934
   6 N :   -0.234279
   7 S :   -0.245425
   8 H :    0.268109
   9 H :    0.246576
  10 H :    0.268109
  11 H :    0.249733
  12 H :    0.249734
  13 H :    0.269494
  14 H :    0.131090
Sum of atomic charges:    0.0000000

LOEWDIN ATOMIC CHARGES
----------------------
   0 C :    0.932048
   1 C :   -0.317750
   2 C :   -0.457232
   3 C :    0.832248
   4 S :    1.277988
   5 C :   -1.470929
   6 N :    0.609039
   7 S :    0.889758
   8 H :   -0.274748
   9 H :   -0.317394
  10 H :   -0.274748
  11 H :   -0.296912
  12 H :   -0.296912
  13 H :   -0.324474
  14 H :   -0.509982

  Mayer bond orders larger than 0.100000
B(  0-C ,  1-C ) :   0.6297 B(  0-C ,  8-H ) :   0.9697 B(  0-C ,  9-H ) :   1.0591
B(  0-C , 10-H ) :   0.9697 B(  1-C ,  2-C ) :   1.4327 B(  1-C ,  4-S ) :  -0.2720
B(  1-C ,  6-N ) :   0.7209 B(  1-C ,  9-H ) :  -0.1186 B(  1-C , 14-H ) :  -0.1318
B(  2-C ,  3-C ) :   0.5846 B(  2-C ,  4-S ) :   1.0637 B(  2-C ,  5-C ) :  -0.1155
B(  3-C , 11-H ) :   0.9855 B(  3-C , 12-H ) :   0.9855 B(  3-C , 13-H ) :   1.0045
B(  4-S ,  5-C ) :   1.2052 B(  5-C ,  6-N ) :   0.9954 B(  5-C ,  7-S ) :   1.4428
B(  6-N , 14-H ) :   1.1646

MP2 TOTAL ENERGY:    -1044.545832710 Eh
FINAL SINGLE POINT ENERGY     -1044.545832709631

DIPOLE MOMENT
-------------
                                X             Y             Z
Electronic contribution:    -12.38729      -3.74615      -0.00007
Nuclear contribution   :     14.95492       4.48586       0.00008
                        -----------------------------------------
Total Dipole Moment    :      2.56764       0.73970       0.00001
                        -----------------------------------------
Magnitude (a.u.)       :      2.67206
Magnitude (Debye)      :      6.79184

Rotational constants in cm-1:     0.089823     0.034637     0.025232
Rotational constants in MHz :  2692.812609  1038.402137   756.431794

                             ****ORCA TERMINATED NORMALLY****
TOTAL RUN TIME: 0 days 0 hours 42 minutes 9 seconds 817 msec
