                         Program Version 5.0.4 -  RELEASE  -
|  1> !ri-mp2 aug-cc-pvqz aug-cc-pvqz/c tightscf
|  2> %pal nprocs 16 end
|  3>
|  4> * xyz 0 1
|  5> C      1.363855    0.030075   -0.170042
|  6> C      2.606929   -0.557824    0.463532
|  7> C     -1.455280    1.225604    0.713644
|  8> C     -2.421092   -0.889332   -0.272124
|  9> C      0.061163   -0.705726    0.102479
| 10> C     -1.218410    0.057722   -0.248330
| 11> O      1.416645    1.020203   -0.864763
| 12> H      2.642224   -1.640680    0.332842
| 13> H      3.496393   -0.099039    0.039705
| 14> H      2.584875   -0.368191    1.539724
| 15> H     -2.352545    1.781025    0.436354
| 16> H     -1.594220    0.865028    1.736746
| 17> H     -0.618385    1.922898    0.706321
| 18> H     -3.332967   -0.354649   -0.542235
| 19> H     -2.584846   -1.345226    0.707862
| 20> H     -2.281272   -1.695729   -0.994592
| 21> H      0.119090   -1.634373   -0.479035
| 22> H      0.049131   -1.027199    1.149683
| 23> H     -1.083622    0.471398   -1.250224
| 24> *
| 25>
| 26>                          ****END OF INPUT****

CARTESIAN COORDINATES (ANGSTROEM)
---------------------------------
  C      1.363855    0.030075   -0.170042
  C      2.606929   -0.557824    0.463532
  C     -1.455280    1.225604    0.713644
  C     -2.421092   -0.889332   -0.272124
  C      0.061163   -0.705726    0.102479
  C     -1.218410    0.057722   -0.248330
  O      1.416645    1.020203   -0.864763
  H      2.642224   -1.640680    0.332842
  H      3.496393   -0.099039    0.039705
  H      2.584875   -0.368191    1.539724
  H     -2.352545    1.781025    0.436354
  H     -1.594220    0.865028    1.736746
  H     -0.618385    1.922898    0.706321
  H     -3.332967   -0.354649   -0.542235
  H     -2.584846   -1.345226    0.707862
  H     -2.281272   -1.695729   -0.994592
  H      0.119090   -1.634373   -0.479035
  H      0.049131   -1.027199    1.149683
  H     -1.083622    0.471398   -1.250224

 Total Charge           Charge          ....    0
 Multiplicity           Mult            ....    1
 Number of Electrons    NEL             ....   56
 Basis Dimension        Dim             .... 1112

ORBITAL ENERGIES
----------------

  NO   OCC          E(Eh)            E(eV)
   0   2.0000     -20.540414      -558.9331
   1   2.0000     -11.328350      -308.2601
   2   2.0000     -11.234118      -305.6959
   3   2.0000     -11.232580      -305.6540
   4   2.0000     -11.227593      -305.5183
   5   2.0000     -11.213219      -305.1272
   6   2.0000     -11.207050      -304.9593
   7   2.0000      -1.385373       -37.6979
   8   2.0000      -1.095209       -29.8022
   9   2.0000      -1.023927       -27.8625
  10   2.0000      -0.949320       -25.8323
  11   2.0000      -0.929994       -25.3064
  12   2.0000      -0.790347       -21.5064
  13   2.0000      -0.731328       -19.9004
  14   2.0000      -0.660653       -17.9773
  15   2.0000      -0.638190       -17.3660
  16   2.0000      -0.627394       -17.0723
  17   2.0000      -0.601090       -16.3565
  18   2.0000      -0.581594       -15.8260
  19   2.0000      -0.567857       -15.4522
  20   2.0000      -0.552890       -15.0449
  21   2.0000      -0.537631       -14.6297
  22   2.0000      -0.523164       -14.2360
  23   2.0000      -0.491561       -13.3760
  24   2.0000      -0.479317       -13.0429
  25   2.0000      -0.466520       -12.6947
  26   2.0000      -0.465353       -12.6629
  27   2.0000      -0.406481       -11.0609
  28   0.0000       0.022188         0.6038
  29   0.0000       0.028897         0.7863
  30   0.0000       0.031591         0.8596
  31   0.0000       0.035232         0.9587
  32   0.0000       0.045719         1.2441

MULLIKEN ATOMIC CHARGES
-----------------------
   0 C :    0.768877
   1 C :   -0.931630
   2 C :   -0.981481
   3 C :   -0.974154
   4 C :   -0.423653
   5 C :    0.340372
   6 O :   -0.844534
   7 H :    0.231346
   8 H :    0.309703
   9 H :    0.276731
  10 H :    0.259380
  11 H :    0.182404
  12 H :    0.268904
  13 H :    0.251911
  14 H :    0.181777
  15 H :    0.241315
  16 H :    0.342365
  17 H :    0.245277
  18 H :    0.255089
Sum of atomic charges:    0.0000000

LOEWDIN ATOMIC CHARGES
----------------------
   0 C :   -0.621219
   1 C :    0.901744
   2 C :    0.920826
   3 C :    0.923250
   4 C :    0.463601
   5 C :    0.077742
   6 O :    0.758680
   7 H :   -0.295114
   8 H :   -0.315056
   9 H :   -0.289239
  10 H :   -0.273720
  11 H :   -0.275476
  12 H :   -0.290899
  13 H :   -0.277008
  14 H :   -0.275095
  15 H :   -0.277081
  16 H :   -0.280250
  17 H :   -0.282859
  18 H :   -0.292827

  Mayer bond orders larger than 0.100000
B(  0-C ,  1-C ) :   1.0094 B(  0-C ,  4-C ) :   0.7954 B(  0-C ,  6-O ) :   1.0196
B(  1-C ,  7-H ) :   1.0010 B(  1-C ,  8-H ) :   0.9815 B(  1-C ,  9-H ) :   0.8899
B(  2-C ,  3-C ) :   0.1256 B(  2-C ,  5-C ) :   0.6057 B(  2-C , 10-H ) :   1.0257
B(  2-C , 11-H ) :   1.0008 B(  2-C , 12-H ) :   0.9886 B(  3-C ,  5-C ) :   0.6656
B(  3-C , 13-H ) :   1.0439 B(  3-C , 14-H ) :   1.0187 B(  3-C , 15-H ) :   0.9996
B(  4-C ,  5-C ) :   0.7568 B(  4-C ,  6-O ) :   0.2917 B(  4-C , 16-H ) :   0.8278
B(  4-C , 17-H ) :   0.9264 B(  5-C , 13-H ) :  -0.1127 B(  5-C , 18-H ) :   0.9059

MP2 TOTAL ENERGY:     -310.556941835 Eh
FINAL SINGLE POINT ENERGY      -310.556941834754

DIPOLE MOMENT
-------------
                                X             Y             Z
Electronic contribution:      5.09603       2.28041      -2.88173
Nuclear contribution   :     -5.18065      -3.26418       3.53810
                        -----------------------------------------
Total Dipole Moment    :     -0.08462      -0.98377       0.65636
                        -----------------------------------------
Magnitude (a.u.)       :      1.18566
Magnitude (Debye)      :      3.01370

Rotational constants in cm-1:     0.157667     0.049243     0.044132
Rotational constants in MHz :  4726.737481  1476.254154  1323.040304

                             ****ORCA TERMINATED NORMALLY****
TOTAL RUN TIME: 0 days 1 hours 1 minutes 37 seconds 982 msec
