                         Program Version 5.0.4 -  RELEASE  -
|  1> !ri-mp2 aug-cc-pvqz aug-cc-pvqz/c tightscf
|  2> %pal nprocs 16 end
|  3>
|  4> * xyz 0 1
|  5> S    -0.844455   -1.432131   -0.001735
|  6> N    -1.485615    1.063138    0.005370
|  7> N     0.565464    2.204052   -0.054581
|  8> N     2.937529   -0.771304    0.008341
|  9> C    -0.117671    1.028945   -0.005236
| 10> C     0.435762   -0.243451   -0.005215
| 11> C    -1.980824   -0.136886    0.007729
| 12> C     1.800797   -0.558509   -0.000399
| 13> H    -3.040901   -0.340536    0.015885
| 14> H     0.051496    3.036922    0.173244
| 15> H     1.550661    2.205914    0.143440
| 16> *
| 17>
| 18>                          ****END OF INPUT****

CARTESIAN COORDINATES (ANGSTROEM)
---------------------------------
  S     -0.844455   -1.432131   -0.001735
  N     -1.485615    1.063138    0.005370
  N      0.565464    2.204052   -0.054581
  N      2.937529   -0.771304    0.008341
  C     -0.117671    1.028945   -0.005236
  C      0.435762   -0.243451   -0.005215
  C     -1.980824   -0.136886    0.007729
  C      1.800797   -0.558509   -0.000399
  H     -3.040901   -0.340536    0.015885
  H      0.051496    3.036922    0.173244
  H      1.550661    2.205914    0.143440

 Total Charge           Charge          ....    0
 Multiplicity           Mult            ....    1
 Number of Electrons    NEL             ....   64
 Basis Dimension        Dim             ....  782

ORBITAL ENERGIES
----------------

  NO   OCC          E(Eh)            E(eV)
   0   2.0000     -92.020082     -2503.9937
   1   2.0000     -15.600108      -424.5005
   2   2.0000     -15.596464      -424.4014
   3   2.0000     -15.570323      -423.6900
   4   2.0000     -11.357415      -309.0510
   5   2.0000     -11.348903      -308.8193
   6   2.0000     -11.288497      -307.1756
   7   2.0000     -11.281194      -306.9769
   8   2.0000      -9.021263      -245.4811
   9   2.0000      -6.702428      -182.3823
  10   2.0000      -6.701875      -182.3673
  11   2.0000      -6.701079      -182.3456
  12   2.0000      -1.336120       -36.3577
  13   2.0000      -1.234757       -33.5994
  14   2.0000      -1.221896       -33.2495
  15   2.0000      -1.100872       -29.9563
  16   2.0000      -1.017688       -27.6927
  17   2.0000      -0.886952       -24.1352
  18   2.0000      -0.819921       -22.3112
  19   2.0000      -0.774359       -21.0714
  20   2.0000      -0.704802       -19.1786
  21   2.0000      -0.657138       -17.8816
  22   2.0000      -0.628291       -17.0967
  23   2.0000      -0.620239       -16.8776
  24   2.0000      -0.559287       -15.2190
  25   2.0000      -0.556987       -15.1564
  26   2.0000      -0.508601       -13.8397
  27   2.0000      -0.498078       -13.5534
  28   2.0000      -0.473767       -12.8918
  29   2.0000      -0.454031       -12.3548
  30   2.0000      -0.408260       -11.1093
  31   2.0000      -0.326996        -8.8980
  32   0.0000       0.019429         0.5287
  33   0.0000       0.024829         0.6756
  34   0.0000       0.043911         1.1949
  35   0.0000       0.052458         1.4274
  36   0.0000       0.053901         1.4667

MULLIKEN ATOMIC CHARGES
-----------------------
   0 S :    0.294651
   1 N :   -0.561067
   2 N :   -0.793604
   3 N :   -0.733570
   4 C :    0.872463
   5 C :   -0.399024
   6 C :   -0.527831
   7 C :    0.654351
   8 H :    0.569083
   9 H :    0.330116
  10 H :    0.294432
Sum of atomic charges:   -0.0000000

LOEWDIN ATOMIC CHARGES
----------------------
   0 S :    1.349241
   1 N :    0.505687
   2 N :    1.263542
   3 N :    0.389264
   4 C :   -0.676281
   5 C :   -0.656188
   6 C :   -0.324775
   7 C :   -0.446610
   8 H :   -0.412633
   9 H :   -0.495946
  10 H :   -0.495300

  Mayer bond orders larger than 0.100000
B(  0-S ,  4-C ) :  -0.1256 B(  0-S ,  5-C ) :   0.8332 B(  0-S ,  6-C ) :   1.3587
B(  1-N ,  4-C ) :   0.9881 B(  1-N ,  6-C ) :   1.5480 B(  2-N ,  4-C ) :   1.0326
B(  2-N ,  9-H ) :   0.8802 B(  2-N , 10-H ) :   0.8882 B(  3-N ,  7-C ) :   2.3424
B(  4-C ,  5-C ) :   1.1542 B(  5-C ,  6-C ) :  -0.2003 B(  5-C ,  7-C ) :   1.3136
B(  6-C ,  8-H ) :   0.6873

MP2 TOTAL ENERGY:     -715.714855442 Eh
FINAL SINGLE POINT ENERGY      -715.714855441502

DIPOLE MOMENT
-------------
                                X             Y             Z
Electronic contribution:     -0.16645      -4.11115      -0.07632
Nuclear contribution   :     -1.34541       4.76482       0.31923
                        -----------------------------------------
Total Dipole Moment    :     -1.51186       0.65367       0.24291
                        -----------------------------------------
Magnitude (a.u.)       :      1.66494
Magnitude (Debye)      :      4.23194

Rotational constants in cm-1:     0.089024     0.060272     0.035954
Rotational constants in MHz :  2668.881103  1806.911918  1077.866202

                             ****ORCA TERMINATED NORMALLY****
TOTAL RUN TIME: 0 days 0 hours 19 minutes 29 seconds 775 msec
