                         Program Version 5.0.4 -  RELEASE  -
|  1> !ri-mp2 aug-cc-pvqz aug-cc-pvqz/c tightscf
|  2> %pal nprocs 16 end
|  3>
|  4> * xyz 0 1
|  5> S     3.132710   -0.028210    0.000007
|  6> O    -1.337989    2.079383   -0.000019
|  7> N     0.658787    0.991064   -0.000007
|  8> N     0.797722   -1.297239    0.000012
|  9> N    -3.917479   -0.575246   -0.000004
| 10> C    -1.360122   -0.311158    0.000000
| 11> C    -0.749660    1.025767   -0.000010
| 12> C    -0.554818   -1.403788    0.000010
| 13> C     1.482361   -0.097815    0.000004
| 14> C    -2.773022   -0.442707   -0.000002
| 15> H     1.112595    1.894358   -0.000013
| 16> H    -0.951396   -2.408389    0.000017
| 17> H     1.377708   -2.121519    0.000020
| 18> *
| 19>
| 20>                          ****END OF INPUT****

CARTESIAN COORDINATES (ANGSTROEM)
---------------------------------
  S      3.132710   -0.028210    0.000007
  O     -1.337989    2.079383   -0.000019
  N      0.658787    0.991064   -0.000007
  N      0.797722   -1.297239    0.000012
  N     -3.917479   -0.575246   -0.000004
  C     -1.360122   -0.311158    0.000000
  C     -0.749660    1.025767   -0.000010
  C     -0.554818   -1.403788    0.000010
  C      1.482361   -0.097815    0.000004
  C     -2.773022   -0.442707   -0.000002
  H      1.112595    1.894358   -0.000013
  H     -0.951396   -2.408389    0.000017
  H      1.377708   -2.121519    0.000020

 Total Charge           Charge          ....    0
 Multiplicity           Mult            ....    1
 Number of Electrons    NEL             ....   78
 Basis Dimension        Dim             ....  942

ORBITAL ENERGIES
----------------

  NO   OCC          E(Eh)            E(eV)
   0   2.0000     -91.939662     -2501.8054
   1   2.0000     -20.572519      -559.8067
   2   2.0000     -15.686623      -426.8547
   3   2.0000     -15.664538      -426.2537
   4   2.0000     -15.587924      -424.1690
   5   2.0000     -11.434726      -311.1547
   6   2.0000     -11.415397      -310.6287
   7   2.0000     -11.386157      -309.8331
   8   2.0000     -11.316870      -307.9477
   9   2.0000     -11.294087      -307.3277
  10   2.0000      -8.943855      -243.3747
  11   2.0000      -6.625544      -180.2902
  12   2.0000      -6.623765      -180.2418
  13   2.0000      -6.623101      -180.2237
  14   2.0000      -1.446979       -39.3743
  15   2.0000      -1.392584       -37.8941
  16   2.0000      -1.286559       -35.0091
  17   2.0000      -1.240893       -33.7664
  18   2.0000      -1.156762       -31.4771
  19   2.0000      -1.046093       -28.4656
  20   2.0000      -0.963321       -26.2133
  21   2.0000      -0.908424       -24.7195
  22   2.0000      -0.878323       -23.9004
  23   2.0000      -0.801612       -21.8130
  24   2.0000      -0.752158       -20.4673
  25   2.0000      -0.727769       -19.8036
  26   2.0000      -0.699757       -19.0414
  27   2.0000      -0.690460       -18.7884
  28   2.0000      -0.645570       -17.5668
  29   2.0000      -0.598240       -16.2789
  30   2.0000      -0.576390       -15.6844
  31   2.0000      -0.571095       -15.5403
  32   2.0000      -0.553191       -15.0531
  33   2.0000      -0.497068       -13.5259
  34   2.0000      -0.494558       -13.4576
  35   2.0000      -0.481262       -13.0958
  36   2.0000      -0.413676       -11.2567
  37   2.0000      -0.374155       -10.1813
  38   2.0000      -0.359748        -9.7892
  39   0.0000       0.007454         0.2028
  40   0.0000       0.024298         0.6612
  41   0.0000       0.030922         0.8414
  42   0.0000       0.035406         0.9635
  43   0.0000       0.046786         1.2731

MULLIKEN ATOMIC CHARGES
-----------------------
   0 S :   -0.265823
   1 O :   -0.791400
   2 N :   -0.385993
   3 N :   -0.265761
   4 N :   -0.794999
   5 C :   -0.312620
   6 C :    1.281896
   7 C :   -0.037154
   8 C :    0.148089
   9 C :    0.670509
  10 H :    0.157665
  11 H :    0.431224
  12 H :    0.164367
Sum of atomic charges:    0.0000000

LOEWDIN ATOMIC CHARGES
----------------------
   0 S :    1.080628
   1 O :    0.723504
   2 N :    0.709101
   3 N :    0.743581
   4 N :    0.424051
   5 C :   -0.206631
   6 C :   -0.863799
   7 C :    0.224005
   8 C :   -1.128939
   9 C :   -0.346828
  10 H :   -0.550749
  11 H :   -0.280295
  12 H :   -0.527629

  Mayer bond orders larger than 0.100000
B(  0-S ,  2-N ) :  -0.1336 B(  0-S ,  3-N ) :  -0.1392 B(  0-S ,  8-C ) :   1.5898
B(  1-O ,  2-N ) :   0.1951 B(  1-O ,  5-C ) :   0.3626 B(  1-O ,  6-C ) :   1.0077
B(  2-N ,  6-C ) :   1.0390 B(  2-N ,  8-C ) :   0.8251 B(  2-N , 10-H ) :   1.1080
B(  3-N ,  7-C ) :   1.0594 B(  3-N ,  8-C ) :   0.7466 B(  3-N , 12-H ) :   1.1113
B(  4-N ,  9-C ) :   2.2314 B(  5-C ,  6-C ) :   0.9987 B(  5-C ,  7-C ) :   1.3179
B(  5-C ,  9-C ) :   1.4645 B(  6-C ,  9-C ) :  -0.2167 B(  7-C ,  9-C ) :  -0.2682
B(  7-C , 11-H ) :   0.8513

MP2 TOTAL ENERGY:     -828.919062629 Eh
FINAL SINGLE POINT ENERGY      -828.919062628828

DIPOLE MOMENT
-------------
                                X             Y             Z
Electronic contribution:     -0.12724       0.83936      -0.00001
Nuclear contribution   :      1.34545      -2.49355       0.00002
                        -----------------------------------------
Total Dipole Moment    :      1.21821      -1.65418       0.00002
                        -----------------------------------------
Magnitude (a.u.)       :      2.05435
Magnitude (Debye)      :      5.22175

Rotational constants in cm-1:     0.102131     0.023133     0.018861
Rotational constants in MHz :  3061.808098   693.524586   565.446359

                             ****ORCA TERMINATED NORMALLY****
TOTAL RUN TIME: 0 days 0 hours 39 minutes 40 seconds 375 msec
