                         Program Version 5.0.4 -  RELEASE  -
|  1> !ri-mp2 aug-cc-pvqz aug-cc-pvqz/c tightscf
|  2> %pal nprocs 16 end
|  3>
|  4> * xyz 0 1
|  5> H      0.028003   -2.438976    1.284839
|  6> C     -0.009038   -1.553163    0.664724
|  7> H      0.028003   -2.438976   -1.284839
|  8> C     -0.009038   -1.553163   -0.664724
|  9> H      0.979678    0.096300    1.630209
| 10> H     -0.717848   -0.020955    2.047210
| 11> C     -0.009038   -0.154824    1.227012
| 12> H     -0.717848   -0.020955   -2.047210
| 13> H      0.979678    0.096300   -1.630209
| 14> C     -0.009038   -0.154824   -1.227012
| 15> H     -1.442190    0.863921    0.000000
| 16> C     -0.357295    0.727796    0.000000
| 17> H      0.014739    2.680869    0.880857
| 18> H      0.014739    2.680869   -0.880857
| 19> H      1.389603    2.014165    0.000000
| 20> C      0.300687    2.102752    0.000000
| 21> *
| 22>
| 23>                          ****END OF INPUT****

CARTESIAN COORDINATES (ANGSTROEM)
---------------------------------
  H      0.028003   -2.438976    1.284839
  C     -0.009038   -1.553163    0.664724
  H      0.028003   -2.438976   -1.284839
  C     -0.009038   -1.553163   -0.664724
  H      0.979678    0.096300    1.630209
  H     -0.717848   -0.020955    2.047210
  C     -0.009038   -0.154824    1.227012
  H     -0.717848   -0.020955   -2.047210
  H      0.979678    0.096300   -1.630209
  C     -0.009038   -0.154824   -1.227012
  H     -1.442190    0.863921    0.000000
  C     -0.357295    0.727796    0.000000
  H      0.014739    2.680869    0.880857
  H      0.014739    2.680869   -0.880857
  H      1.389603    2.014165    0.000000
  C      0.300687    2.102752    0.000000

 Total Charge           Charge          ....    0
 Multiplicity           Mult            ....    1
 Number of Electrons    NEL             ....   46
 Basis Dimension        Dim             ....  940

ORBITAL ENERGIES
----------------

  NO   OCC          E(Eh)            E(eV)
   0   2.0000     -11.223152      -305.3975
   1   2.0000     -11.217960      -305.2562
   2   2.0000     -11.217098      -305.2327
   3   2.0000     -11.216834      -305.2256
   4   2.0000     -11.215968      -305.2020
   5   2.0000     -11.209470      -305.0252
   6   2.0000      -1.133059       -30.8321
   7   2.0000      -1.009542       -27.4710
   8   2.0000      -0.954281       -25.9673
   9   2.0000      -0.892474       -24.2855
  10   2.0000      -0.763633       -20.7795
  11   2.0000      -0.724878       -19.7249
  12   2.0000      -0.668916       -18.2021
  13   2.0000      -0.626139       -17.0381
  14   2.0000      -0.563156       -15.3242
  15   2.0000      -0.549684       -14.9577
  16   2.0000      -0.548757       -14.9324
  17   2.0000      -0.529774       -14.4159
  18   2.0000      -0.487837       -13.2747
  19   2.0000      -0.473047       -12.8723
  20   2.0000      -0.463349       -12.6084
  21   2.0000      -0.448490       -12.2040
  22   2.0000      -0.340357        -9.2616
  23   0.0000       0.027291         0.7426
  24   0.0000       0.031522         0.8578
  25   0.0000       0.032897         0.8952
  26   0.0000       0.036024         0.9803
  27   0.0000       0.044292         1.2052

MULLIKEN ATOMIC CHARGES
-----------------------
   0 H :    0.397163
   1 C :   -0.500411
   2 H :    0.397164
   3 C :   -0.500409
   4 H :    0.229424
   5 H :    0.242199
   6 C :   -0.509533
   7 H :    0.242199
   8 H :    0.229425
   9 C :   -0.509533
  10 H :    0.346390
  11 C :    0.187047
  12 H :    0.247090
  13 H :    0.247090
  14 H :    0.194481
  15 C :   -0.939787
Sum of atomic charges:   -0.0000000

LOEWDIN ATOMIC CHARGES
----------------------
   0 H :   -0.304981
   1 C :    0.401447
   2 H :   -0.304981
   3 C :    0.401447
   4 H :   -0.275745
   5 H :   -0.267561
   6 C :    0.492117
   7 H :   -0.267561
   8 H :   -0.275745
   9 C :    0.492117
  10 H :   -0.274595
  11 C :    0.086663
  12 H :   -0.275513
  13 H :   -0.275513
  14 H :   -0.284436
  15 C :    0.932841

  Mayer bond orders larger than 0.100000
B(  0-H ,  1-C ) :   0.8905 B(  1-C ,  3-C ) :   1.6557 B(  1-C ,  6-C ) :   0.9791
B(  1-C , 11-C ) :  -0.1587 B(  2-H ,  3-C ) :   0.8905 B(  3-C ,  9-C ) :   0.9791
B(  3-C , 11-C ) :  -0.1587 B(  4-H ,  6-C ) :   0.8852 B(  5-H ,  6-C ) :   0.9889
B(  6-C , 11-C ) :   0.8014 B(  7-H ,  9-C ) :   0.9889 B(  8-H ,  9-C ) :   0.8852
B(  9-C , 11-C ) :   0.8014 B( 10-H , 11-C ) :   0.8215 B( 11-C , 15-C ) :   0.7982
B( 12-H , 15-C ) :   1.0226 B( 13-H , 15-C ) :   1.0226 B( 14-H , 15-C ) :   0.9599

MP2 TOTAL ENERGY:     -234.184922994 Eh
FINAL SINGLE POINT ENERGY      -234.184922994180

DIPOLE MOMENT
-------------
                                X             Y             Z
Electronic contribution:     -0.58821      -3.60288      -0.00000
Nuclear contribution   :      0.58532       3.69409      -0.00000
                        -----------------------------------------
Total Dipole Moment    :     -0.00289       0.09121      -0.00000
                        -----------------------------------------
Magnitude (a.u.)       :      0.09126
Magnitude (Debye)      :      0.23195

Rotational constants in cm-1:     0.225334     0.106139     0.078417
Rotational constants in MHz :  6755.342207  3181.958180  2350.878795

                             ****ORCA TERMINATED NORMALLY****
TOTAL RUN TIME: 0 days 0 hours 36 minutes 46 seconds 63 msec
