                         Program Version 5.0.4 -  RELEASE  -
|  1> !ri-mp2 aug-cc-pvqz aug-cc-pvqz/c tightscf
|  2> %pal nprocs 16 end
|  3>
|  4> * xyz 0 1
|  5> H      1.956440   -1.637058    0.000000
|  6> C      0.000000    0.950174    0.000000
|  7> C      1.120691   -0.954132    0.000000
|  8> H      0.432261    2.850247    0.878324
|  9> H     -1.103247    2.790379    0.000000
| 10> H      0.432261    2.850247   -0.878324
| 11> C     -0.071430    2.443743    0.000000
| 12> S     -0.511579   -1.544954    0.000000
| 13> N      1.234040    0.335533    0.000000
| 14> H     -2.109532    0.327724    0.000000
| 15> C     -1.059462    0.091715    0.000000
| 16> *
| 17>
| 18>                          ****END OF INPUT****

CARTESIAN COORDINATES (ANGSTROEM)
---------------------------------
  H      1.956440   -1.637058    0.000000
  C      0.000000    0.950174    0.000000
  C      1.120691   -0.954132    0.000000
  H      0.432261    2.850247    0.878324
  H     -1.103247    2.790379    0.000000
  H      0.432261    2.850247   -0.878324
  C     -0.071430    2.443743    0.000000
  S     -0.511579   -1.544954    0.000000
  N      1.234040    0.335533    0.000000
  H     -2.109532    0.327724    0.000000
  C     -1.059462    0.091715    0.000000

 Total Charge           Charge          ....    0
 Multiplicity           Mult            ....    1
 Number of Electrons    NEL             ....   52
 Basis Dimension        Dim             ....  714

ORBITAL ENERGIES
----------------

  NO   OCC          E(Eh)            E(eV)
   0   2.0000     -91.991488     -2503.2156
   1   2.0000     -15.567601      -423.6160
   2   2.0000     -11.308761      -307.7270
   3   2.0000     -11.274617      -306.7979
   4   2.0000     -11.257759      -306.3392
   5   2.0000     -11.227190      -305.5074
   6   2.0000      -8.993417      -244.7233
   7   2.0000      -6.674626      -181.6258
   8   2.0000      -6.674120      -181.6120
   9   2.0000      -6.673495      -181.5950
  10   2.0000      -1.282606       -34.9015
  11   2.0000      -1.062532       -28.9130
  12   2.0000      -1.044547       -28.4236
  13   2.0000      -0.927267       -25.2322
  14   2.0000      -0.807222       -21.9656
  15   2.0000      -0.745419       -20.2839
  16   2.0000      -0.681325       -18.5398
  17   2.0000      -0.594950       -16.1894
  18   2.0000      -0.589349       -16.0370
  19   2.0000      -0.563377       -15.3303
  20   2.0000      -0.546730       -14.8773
  21   2.0000      -0.534524       -14.5451
  22   2.0000      -0.493792       -13.4368
  23   2.0000      -0.428748       -11.6668
  24   2.0000      -0.388782       -10.5793
  25   2.0000      -0.333574        -9.0770
  26   0.0000       0.026271         0.7149
  27   0.0000       0.029866         0.8127
  28   0.0000       0.033084         0.9003
  29   0.0000       0.044540         1.2120
  30   0.0000       0.049844         1.3563

MULLIKEN ATOMIC CHARGES
-----------------------
   0 H :    0.590518
   1 C :    0.523397
   2 C :   -0.649581
   3 H :    0.264407
   4 H :    0.229260
   5 H :    0.264407
   6 C :   -0.665936
   7 S :    0.338517
   8 N :   -0.480683
   9 H :    0.436832
  10 C :   -0.851137
Sum of atomic charges:    0.0000000

LOEWDIN ATOMIC CHARGES
----------------------
   0 H :   -0.424706
   1 C :   -0.502669
   2 C :   -0.338721
   3 H :   -0.295799
   4 H :   -0.312224
   5 H :   -0.295799
   6 C :    0.879605
   7 S :    1.321710
   8 N :    0.479718
   9 H :   -0.407425
  10 C :   -0.103689

  Mayer bond orders larger than 0.100000
B(  0-H ,  2-C ) :   0.6292 B(  1-C ,  4-H ) :  -0.1360 B(  1-C ,  6-C ) :   0.6617
B(  1-C ,  7-S ) :  -0.2879 B(  1-C ,  8-N ) :   0.9038 B(  1-C , 10-C ) :   1.2277
B(  2-C ,  7-S ) :   1.2760 B(  2-C ,  8-N ) :   1.6411 B(  3-H ,  6-C ) :   0.9584
B(  4-H ,  6-C ) :   1.0582 B(  5-H ,  6-C ) :   0.9584 B(  7-S , 10-C ) :   1.2466
B(  9-H , 10-C ) :   0.7828

MP2 TOTAL ENERGY:     -607.556700962 Eh
FINAL SINGLE POINT ENERGY      -607.556700962276

DIPOLE MOMENT
-------------
                                X             Y             Z
Electronic contribution:     -0.10045      -7.17371       0.00000
Nuclear contribution   :     -0.36324       7.12242       0.00000
                        -----------------------------------------
Total Dipole Moment    :     -0.46369      -0.05129       0.00000
                        -----------------------------------------
Magnitude (a.u.)       :      0.46652
Magnitude (Debye)      :      1.18580

Rotational constants in cm-1:     0.244294     0.084026     0.063251
Rotational constants in MHz :  7323.739584  2519.042445  1896.224457

                             ****ORCA TERMINATED NORMALLY****
TOTAL RUN TIME: 0 days 0 hours 13 minutes 55 seconds 177 msec
