                         Program Version 5.0.4 -  RELEASE  -
|  1> !ri-mp2 aug-cc-pvqz aug-cc-pvqz/c tightscf
|  2> %pal nprocs 16 end
|  3>
|  4> * xyz 0 1
|  5> F    -2.610592   -0.327834    1.201239
|  6> F    -2.811525   -0.037318   -0.964662
|  7> O     1.182464    1.333129    0.117243
|  8> N     1.584817    0.016648   -0.354989
|  9> C    -0.642997   -0.097857   -0.059740
| 10> C     0.463626   -0.798090   -0.297934
| 11> C    -2.016538   -0.627408   -0.004321
| 12> C    -0.262774    1.356137    0.055783
| 13> C     2.824717   -0.333007   -0.014553
| 14> C     3.962621   -0.634351    0.227184
| 15> H     0.589733   -1.853786   -0.474588
| 16> H    -2.071144   -1.706782   -0.144639
| 17> H    -0.624227    1.838730    0.964570
| 18> H    -0.584651    1.938157   -0.814947
| 19> H     4.963978   -0.904064    0.448868
| 20> *
| 21>
| 22>                          ****END OF INPUT****

CARTESIAN COORDINATES (ANGSTROEM)
---------------------------------
  F     -2.610592   -0.327834    1.201239
  F     -2.811525   -0.037318   -0.964662
  O      1.182464    1.333129    0.117243
  N      1.584817    0.016648   -0.354989
  C     -0.642997   -0.097857   -0.059740
  C      0.463626   -0.798090   -0.297934
  C     -2.016538   -0.627408   -0.004321
  C     -0.262774    1.356137    0.055783
  C      2.824717   -0.333007   -0.014553
  C      3.962621   -0.634351    0.227184
  H      0.589733   -1.853786   -0.474588
  H     -2.071144   -1.706782   -0.144639
  H     -0.624227    1.838730    0.964570
  H     -0.584651    1.938157   -0.814947
  H      4.963978   -0.904064    0.448868

 Total Charge           Charge          ....    0
 Multiplicity           Mult            ....    1
 Number of Electrons    NEL             ....   74
 Basis Dimension        Dim             .... 1030

ORBITAL ENERGIES
----------------

  NO   OCC          E(Eh)            E(eV)
   0   2.0000     -26.311113      -715.9618
   1   2.0000     -26.311071      -715.9606
   2   2.0000     -20.624347      -561.2170
   3   2.0000     -15.676471      -426.5785
   4   2.0000     -11.426381      -310.9276
   5   2.0000     -11.319362      -308.0155
   6   2.0000     -11.311913      -307.8128
   7   2.0000     -11.282049      -307.0002
   8   2.0000     -11.261887      -306.4515
   9   2.0000     -11.240843      -305.8789
  10   2.0000      -1.658295       -45.1245
  11   2.0000      -1.597121       -43.4599
  12   2.0000      -1.457015       -39.6474
  13   2.0000      -1.227169       -33.3930
  14   2.0000      -1.135061       -30.8866
  15   2.0000      -1.031808       -28.0769
  16   2.0000      -0.977857       -26.6088
  17   2.0000      -0.919839       -25.0301
  18   2.0000      -0.839068       -22.8322
  19   2.0000      -0.797331       -21.6965
  20   2.0000      -0.774461       -21.0742
  21   2.0000      -0.756606       -20.5883
  22   2.0000      -0.743198       -20.2234
  23   2.0000      -0.712151       -19.3786
  24   2.0000      -0.702666       -19.1205
  25   2.0000      -0.668387       -18.1877
  26   2.0000      -0.648653       -17.6507
  27   2.0000      -0.631941       -17.1960
  28   2.0000      -0.626714       -17.0538
  29   2.0000      -0.594267       -16.1708
  30   2.0000      -0.591834       -16.1046
  31   2.0000      -0.582495       -15.8505
  32   2.0000      -0.529281       -14.4025
  33   2.0000      -0.490014       -13.3340
  34   2.0000      -0.424220       -11.5436
  35   2.0000      -0.416832       -11.3426
  36   2.0000      -0.329429        -8.9642
  37   0.0000       0.021014         0.5718
  38   0.0000       0.027425         0.7463
  39   0.0000       0.032783         0.8921
  40   0.0000       0.040559         1.1037
  41   0.0000       0.044457         1.2097

MULLIKEN ATOMIC CHARGES
-----------------------
   0 F :   -0.687582
   1 F :   -0.681491
   2 O :   -0.719678
   3 N :   -0.355128
   4 C :   -0.161704
   5 C :   -0.484924
   6 C :    1.188316
   7 C :    0.078055
   8 C :    0.488417
   9 C :   -0.589838
  10 H :    0.512938
  11 H :    0.353759
  12 H :    0.384794
  13 H :    0.293309
  14 H :    0.380758
Sum of atomic charges:   -0.0000000

LOEWDIN ATOMIC CHARGES
----------------------
   0 F :    0.753662
   1 F :    0.751754
   2 O :    0.738989
   3 N :    0.030345
   4 C :   -0.162442
   5 C :    0.154632
   6 C :   -1.044141
   7 C :    0.144073
   8 C :   -0.159278
   9 C :    0.553546
  10 H :   -0.289077
  11 H :   -0.407694
  12 H :   -0.301822
  13 H :   -0.291383
  14 H :   -0.471163

  Mayer bond orders larger than 0.100000
B(  0-F ,  4-C ) :   0.1057 B(  0-F ,  6-C ) :   0.3740 B(  1-F ,  6-C ) :   0.3633
B(  2-O ,  3-N ) :   0.6305 B(  2-O ,  7-C ) :   0.6721 B(  3-N ,  4-C ) :  -0.1805
B(  3-N ,  5-C ) :   1.2263 B(  3-N ,  8-C ) :   0.9362 B(  4-C ,  5-C ) :   1.6965
B(  4-C ,  6-C ) :   0.8140 B(  4-C ,  7-C ) :   0.7868 B(  4-C , 11-H ) :  -0.1402
B(  5-C , 10-H ) :   0.7334 B(  6-C , 11-H ) :   0.9403 B(  7-C , 12-H ) :   0.8439
B(  7-C , 13-H ) :   0.8859 B(  8-C ,  9-C ) :   2.4437 B(  8-C , 14-H ) :  -0.1032
B(  9-C , 14-H ) :   0.9651

MP2 TOTAL ENERGY:     -560.393661255 Eh
FINAL SINGLE POINT ENERGY      -560.393661254690

DIPOLE MOMENT
-------------
                                X             Y             Z
Electronic contribution:     -6.98220      -0.53581       0.11224
Nuclear contribution   :      7.33299      -0.29308      -0.24386
                        -----------------------------------------
Total Dipole Moment    :      0.35078      -0.82889      -0.13161
                        -----------------------------------------
Magnitude (a.u.)       :      0.90963
Magnitude (Debye)      :      2.31211

Rotational constants in cm-1:     0.123478     0.022192     0.021220
Rotational constants in MHz :  3701.774362   665.314204   636.151821

                             ****ORCA TERMINATED NORMALLY****
TOTAL RUN TIME: 0 days 0 hours 38 minutes 35 seconds 754 msec
