                         Program Version 5.0.4 -  RELEASE  -
|  1> !ri-mp2 aug-cc-pvqz aug-cc-pvqz/c tightscf
|  2> %pal nprocs 16 end
|  3>
|  4> * xyz 0 1
|  5> O     2.409384   -1.476771   -0.000003
|  6> O     2.963804    0.626484    0.000002
|  7> N    -1.062861    1.308586    0.000003
|  8> N     2.141777   -0.283046    0.000000
|  9> N    -3.957177   -0.642796   -0.000002
| 10> C     0.751730    0.081376    0.000000
| 11> C    -0.341936   -0.807462   -0.000002
| 12> C     0.284912    1.380757    0.000003
| 13> C    -1.469753   -0.017320    0.000000
| 14> C    -2.836470   -0.370988   -0.000001
| 15> H    -0.303559   -1.881146   -0.000005
| 16> H     0.823963    2.309913    0.000006
| 17> H    -1.688970    2.096140    0.000005
| 18> *
| 19>
| 20>                          ****END OF INPUT****

CARTESIAN COORDINATES (ANGSTROEM)
---------------------------------
  O      2.409384   -1.476771   -0.000003
  O      2.963804    0.626484    0.000002
  N     -1.062861    1.308586    0.000003
  N      2.141777   -0.283046    0.000000
  N     -3.957177   -0.642796   -0.000002
  C      0.751730    0.081376    0.000000
  C     -0.341936   -0.807462   -0.000002
  C      0.284912    1.380757    0.000003
  C     -1.469753   -0.017320    0.000000
  C     -2.836470   -0.370988   -0.000001
  H     -0.303559   -1.881146   -0.000005
  H      0.823963    2.309913    0.000006
  H     -1.688970    2.096140    0.000005

 Total Charge           Charge          ....    0
 Multiplicity           Mult            ....    1
 Number of Electrons    NEL             ....   70
 Basis Dimension        Dim             ....  938

ORBITAL ENERGIES
----------------

  NO   OCC          E(Eh)            E(eV)
   0   2.0000     -20.610732      -560.8465
   1   2.0000     -20.607562      -560.7603
   2   2.0000     -15.866805      -431.7577
   3   2.0000     -15.682202      -426.7344
   4   2.0000     -15.599627      -424.4874
   5   2.0000     -11.341843      -308.6272
   6   2.0000     -11.339927      -308.5751
   7   2.0000     -11.316037      -307.9250
   8   2.0000     -11.303404      -307.5812
   9   2.0000     -11.294925      -307.3505
  10   2.0000      -1.616171       -43.9782
  11   2.0000      -1.408943       -38.3393
  12   2.0000      -1.376304       -37.4511
  13   2.0000      -1.247242       -33.9392
  14   2.0000      -1.154850       -31.4251
  15   2.0000      -1.088600       -29.6223
  16   2.0000      -1.000181       -27.2163
  17   2.0000      -0.899772       -24.4840
  18   2.0000      -0.841528       -22.8991
  19   2.0000      -0.824736       -22.4422
  20   2.0000      -0.744922       -20.2704
  21   2.0000      -0.738610       -20.0986
  22   2.0000      -0.734642       -19.9906
  23   2.0000      -0.700887       -19.0721
  24   2.0000      -0.659200       -17.9378
  25   2.0000      -0.650383       -17.6978
  26   2.0000      -0.621993       -16.9253
  27   2.0000      -0.585610       -15.9353
  28   2.0000      -0.522515       -14.2183
  29   2.0000      -0.513230       -13.9657
  30   2.0000      -0.506893       -13.7933
  31   2.0000      -0.496840       -13.5197
  32   2.0000      -0.465276       -12.6608
  33   2.0000      -0.427149       -11.6233
  34   2.0000      -0.365571        -9.9477
  35   0.0000       0.009637         0.2622
  36   0.0000       0.030240         0.8229
  37   0.0000       0.033712         0.9173
  38   0.0000       0.036960         1.0057
  39   0.0000       0.055688         1.5153

MULLIKEN ATOMIC CHARGES
-----------------------
   0 O :   -0.569792
   1 O :   -0.588721
   2 N :   -0.358013
   3 N :    0.687270
   4 N :   -0.749449
   5 C :    0.037710
   6 C :   -0.153276
   7 C :   -0.104445
   8 C :   -0.034357
   9 C :    0.799101
  10 H :    0.423094
  11 H :    0.473443
  12 H :    0.137434
Sum of atomic charges:    0.0000000

LOEWDIN ATOMIC CHARGES
----------------------
   0 O :    0.538464
   1 O :    0.528848
   2 N :    0.817549
   3 N :   -0.865419
   4 N :    0.412434
   5 C :   -0.363409
   6 C :    0.314785
   7 C :    0.236255
   8 C :   -0.330302
   9 C :   -0.285920
  10 H :   -0.298845
  11 H :   -0.278336
  12 H :   -0.426103

  Mayer bond orders larger than 0.100000
B(  0-O ,  3-N ) :   1.2099 B(  0-O ,  5-C ) :   0.1333 B(  1-O ,  3-N ) :   1.1707
B(  1-O ,  5-C ) :   0.1060 B(  2-N ,  7-C ) :   1.1668 B(  2-N ,  8-C ) :   0.6672
B(  2-N ,  9-C ) :  -0.1402 B(  2-N , 12-H ) :   1.1514 B(  3-N ,  5-C ) :   1.0453
B(  3-N ,  6-C ) :  -0.1779 B(  4-N ,  9-C ) :   2.3209 B(  5-C ,  6-C ) :   1.2097
B(  5-C ,  7-C ) :   1.4097 B(  5-C ,  8-C ) :  -0.5083 B(  6-C ,  8-C ) :   1.3567
B(  6-C ,  9-C ) :  -0.2829 B(  6-C , 10-H ) :   0.8477 B(  7-C , 11-H ) :   0.8173
B(  8-C ,  9-C ) :   1.4424

MP2 TOTAL ENERGY:     -506.209122832 Eh
FINAL SINGLE POINT ENERGY      -506.209122832442

DIPOLE MOMENT
-------------
                                X             Y             Z
Electronic contribution:      0.53643      -0.85305      -0.00000
Nuclear contribution   :     -1.05553       2.41047       0.00001
                        -----------------------------------------
Total Dipole Moment    :     -0.51910       1.55742       0.00000
                        -----------------------------------------
Magnitude (a.u.)       :      1.64165
Magnitude (Debye)      :      4.17274

Rotational constants in cm-1:     0.143033     0.025228     0.021445
Rotational constants in MHz :  4288.006814   756.303518   642.909422

                             ****ORCA TERMINATED NORMALLY****
TOTAL RUN TIME: 0 days 0 hours 26 minutes 44 seconds 257 msec
