                         Program Version 5.0.4 -  RELEASE  -
|  1> !ri-mp2 aug-cc-pvqz aug-cc-pvqz/c tightscf
|  2> %pal nprocs 16 end
|  3>
|  4> * xyz 0 1
|  5> S     0.234585    1.466163    0.000019
|  6> O    -2.496898   -1.266018   -0.000007
|  7> N    -0.187033   -1.159171   -0.000015
|  8> N     3.238743   -0.724713   -0.000024
|  9> C    -1.499104    0.930285    0.000020
| 10> C    -1.494441   -0.611498   -0.000002
| 11> C     0.703863   -0.238954   -0.000007
| 12> C     2.103888   -0.535976   -0.000017
| 13> H    -2.012693    1.296805   -0.885980
| 14> H    -2.012684    1.296780    0.886036
| 15> *
| 16>
| 17>                          ****END OF INPUT****

CARTESIAN COORDINATES (ANGSTROEM)
---------------------------------
  S      0.234585    1.466163    0.000019
  O     -2.496898   -1.266018   -0.000007
  N     -0.187033   -1.159171   -0.000015
  N      3.238743   -0.724713   -0.000024
  C     -1.499104    0.930285    0.000020
  C     -1.494441   -0.611498   -0.000002
  C      0.703863   -0.238954   -0.000007
  C      2.103888   -0.535976   -0.000017
  H     -2.012693    1.296805   -0.885980
  H     -2.012684    1.296780    0.886036

 Total Charge           Charge          ....    0
 Multiplicity           Mult            ....    1
 Number of Electrons    NEL             ....   64
 Basis Dimension        Dim             ....  736

ORBITAL ENERGIES
----------------

  NO   OCC          E(Eh)            E(eV)
   0   2.0000     -92.029119     -2504.2396
   1   2.0000     -20.580918      -560.0352
   2   2.0000     -15.626485      -425.2183
   3   2.0000     -15.623401      -425.1343
   4   2.0000     -11.411653      -310.5269
   5   2.0000     -11.398534      -310.1699
   6   2.0000     -11.318812      -308.0005
   7   2.0000     -11.317192      -307.9565
   8   2.0000      -9.031117      -245.7492
   9   2.0000      -6.712344      -182.6522
  10   2.0000      -6.711408      -182.6267
  11   2.0000      -6.710529      -182.6028
  12   2.0000      -1.440365       -39.1943
  13   2.0000      -1.325476       -36.0680
  14   2.0000      -1.264542       -34.4099
  15   2.0000      -1.111763       -30.2526
  16   2.0000      -1.042946       -28.3800
  17   2.0000      -0.911546       -24.8044
  18   2.0000      -0.821780       -22.3618
  19   2.0000      -0.747583       -20.3428
  20   2.0000      -0.686098       -18.6697
  21   2.0000      -0.682516       -18.5722
  22   2.0000      -0.626637       -17.0517
  23   2.0000      -0.601967       -16.3803
  24   2.0000      -0.595643       -16.2083
  25   2.0000      -0.578567       -15.7436
  26   2.0000      -0.555627       -15.1194
  27   2.0000      -0.515562       -14.0292
  28   2.0000      -0.491162       -13.3652
  29   2.0000      -0.486338       -13.2339
  30   2.0000      -0.458692       -12.4816
  31   2.0000      -0.404186       -10.9985
  32   0.0000       0.011418         0.3107
  33   0.0000       0.016987         0.4623
  34   0.0000       0.031702         0.8627
  35   0.0000       0.040996         1.1155
  36   0.0000       0.045696         1.2434

MULLIKEN ATOMIC CHARGES
-----------------------
   0 S :    0.276528
   1 O :   -0.744523
   2 N :   -0.481547
   3 N :   -0.629192
   4 C :   -0.617028
   5 C :    0.879138
   6 C :    0.056630
   7 C :    0.649326
   8 H :    0.305334
   9 H :    0.305334
Sum of atomic charges:    0.0000000

LOEWDIN ATOMIC CHARGES
----------------------
   0 S :    1.358175
   1 O :    0.685536
   2 N :    0.471495
   3 N :    0.421945
   4 C :    0.111539
   5 C :   -1.015875
   6 C :   -0.892590
   7 C :   -0.411483
   8 H :   -0.364371
   9 H :   -0.364370

  Mayer bond orders larger than 0.100000
B(  0-S ,  4-C ) :   0.9649 B(  0-S ,  6-C ) :   0.9620 B(  1-O ,  5-C ) :   1.3885
B(  2-N ,  5-C ) :   1.0170 B(  2-N ,  6-C ) :   1.4067 B(  3-N ,  7-C ) :   2.4622
B(  4-C ,  5-C ) :   1.0778 B(  4-C ,  8-H ) :   0.8642 B(  4-C ,  9-H ) :   0.8642
B(  6-C ,  7-C ) :   1.2072

MP2 TOTAL ENERGY:     -735.561004730 Eh
FINAL SINGLE POINT ENERGY      -735.561004730287

DIPOLE MOMENT
-------------
                                X             Y             Z
Electronic contribution:      3.32400      -0.71632      -0.00003
Nuclear contribution   :     -3.86326       2.39885       0.00005
                        -----------------------------------------
Total Dipole Moment    :     -0.53926       1.68254       0.00003
                        -----------------------------------------
Magnitude (a.u.)       :      1.76684
Magnitude (Debye)      :      4.49096

Rotational constants in cm-1:     0.116612     0.045365     0.032861
Rotational constants in MHz :  3495.928680  1360.009191   985.150594

                             ****ORCA TERMINATED NORMALLY****
TOTAL RUN TIME: 0 days 0 hours 17 minutes 8 seconds 437 msec
