                         Program Version 5.0.4 -  RELEASE  -
|  1> !ri-mp2 aug-cc-pvqz aug-cc-pvqz/c tightscf
|  2> %pal nprocs 16 end
|  3>
|  4> * xyz 0 1
|  5> Cl    -2.010456   -0.590268   -0.599839
|  6> S      1.409201   -1.226558   -0.189113
|  7> S      1.477785    0.867297   -0.404520
|  8> O     -0.613216    2.315389    0.315501
|  9> C     -0.892502   -0.061929    0.726505
| 10> C      0.101019   -1.136073    1.098478
| 11> C     -0.172173    1.206202    0.240534
| 12> H     -1.528841    0.214376    1.562461
| 13> H      0.561916   -0.885355    2.054656
| 14> H     -0.359432   -2.118613    1.161173
| 15> *
| 16>
| 17>                          ****END OF INPUT****

CARTESIAN COORDINATES (ANGSTROEM)
---------------------------------
  Cl    -2.010456   -0.590268   -0.599839
  S      1.409201   -1.226558   -0.189113
  S      1.477785    0.867297   -0.404520
  O     -0.613216    2.315389    0.315501
  C     -0.892502   -0.061929    0.726505
  C      0.101019   -1.136073    1.098478
  C     -0.172173    1.206202    0.240534
  H     -1.528841    0.214376    1.562461
  H      0.561916   -0.885355    2.054656
  H     -0.359432   -2.118613    1.161173

 Total Charge           Charge          ....    0
 Multiplicity           Mult            ....    1
 Number of Electrons    NEL             ....   78
 Basis Dimension        Dim             ....  710

ORBITAL ENERGIES
----------------

  NO   OCC          E(Eh)            E(eV)
   0   2.0000    -104.852621     -2853.1849
   1   2.0000     -92.009953     -2503.7181
   2   2.0000     -92.002865     -2503.5252
   3   2.0000     -20.586716      -560.1930
   4   2.0000     -11.396169      -310.1055
   5   2.0000     -11.345731      -308.7330
   6   2.0000     -11.308792      -307.7279
   7   2.0000     -10.577708      -287.8341
   8   2.0000      -9.010450      -245.1868
   9   2.0000      -9.002767      -244.9777
  10   2.0000      -8.044723      -218.9080
  11   2.0000      -8.042930      -218.8593
  12   2.0000      -8.042891      -218.8582
  13   2.0000      -6.691347      -182.0808
  14   2.0000      -6.690564      -182.0595
  15   2.0000      -6.689435      -182.0288
  16   2.0000      -6.683885      -181.8778
  17   2.0000      -6.682899      -181.8509
  18   2.0000      -6.681626      -181.8163
  19   2.0000      -1.437378       -39.1130
  20   2.0000      -1.193030       -32.4640
  21   2.0000      -1.104138       -30.0451
  22   2.0000      -1.015394       -27.6303
  23   2.0000      -0.972426       -26.4610
  24   2.0000      -0.841122       -22.8881
  25   2.0000      -0.764916       -20.8144
  26   2.0000      -0.697155       -18.9706
  27   2.0000      -0.679877       -18.5004
  28   2.0000      -0.641466       -17.4552
  29   2.0000      -0.612058       -16.6549
  30   2.0000      -0.595647       -16.2084
  31   2.0000      -0.547190       -14.8898
  32   2.0000      -0.516825       -14.0635
  33   2.0000      -0.486974       -13.2512
  34   2.0000      -0.477189       -12.9850
  35   2.0000      -0.460621       -12.5341
  36   2.0000      -0.454611       -12.3706
  37   2.0000      -0.425700       -11.5839
  38   2.0000      -0.350758        -9.5446
  39   0.0000       0.020629         0.5613
  40   0.0000       0.033234         0.9043
  41   0.0000       0.037222         1.0129
  42   0.0000       0.045717         1.2440
  43   0.0000       0.055251         1.5035

MULLIKEN ATOMIC CHARGES
-----------------------
   0 Cl:   -0.355938
   1 S :   -0.094659
   2 S :    0.092705
   3 O :   -0.729736
   4 C :    0.073774
   5 C :   -0.483027
   6 C :    0.548379
   7 H :    0.357624
   8 H :    0.243328
   9 H :    0.347550
Sum of atomic charges:    0.0000000

LOEWDIN ATOMIC CHARGES
----------------------
   0 Cl:    1.172538
   1 S :    0.781294
   2 S :    0.775358
   3 O :    0.600005
   4 C :   -0.755488
   5 C :   -0.071457
   6 C :   -1.311689
   7 H :   -0.424445
   8 H :   -0.370091
   9 H :   -0.396025

  Mayer bond orders larger than 0.100000
B(  0-Cl,  4-C ) :   0.7219 B(  1-S ,  2-S ) :   1.0830 B(  1-S ,  4-C ) :  -0.1256
B(  1-S ,  5-C ) :   0.9658 B(  2-S ,  6-C ) :   1.0733 B(  3-O ,  4-C ) :   0.1312
B(  3-O ,  6-C ) :   1.3826 B(  4-C ,  5-C ) :   0.9875 B(  4-C ,  6-C ) :   0.9304
B(  4-C ,  7-H ) :   0.7560 B(  5-C ,  8-H ) :   0.9073 B(  5-C ,  9-H ) :   0.8611

MP2 TOTAL ENERGY:    -1446.271627468 Eh
FINAL SINGLE POINT ENERGY     -1446.271627468147

DIPOLE MOMENT
-------------
                                X             Y             Z
Electronic contribution:     -1.21496       0.74665      -4.41512
Nuclear contribution   :      1.37478      -1.79765       5.36183
                        -----------------------------------------
Total Dipole Moment    :      0.15982      -1.05101       0.94671
                        -----------------------------------------
Magnitude (a.u.)       :      1.42353
Magnitude (Debye)      :      3.61831

Rotational constants in cm-1:     0.065115     0.048738     0.033392
Rotational constants in MHz :  1952.100844  1461.114743  1001.080779

                             ****ORCA TERMINATED NORMALLY****
TOTAL RUN TIME: 0 days 0 hours 21 minutes 23 seconds 337 msec
