                         Program Version 5.0.4 -  RELEASE  -
|  1> !ri-mp2 aug-cc-pvqz aug-cc-pvqz/c tightscf
|  2> %pal nprocs 16 end
|  3>
|  4> * xyz 0 1
|  5> N      1.836314    0.047911   -0.000037
|  6> C      1.226255   -1.073102   -0.000001
|  7> C     -0.257423   -1.256683    0.000068
|  8> C     -1.075456    0.025969   -0.000044
|  9> C     -0.291026    1.257772    0.000051
| 10> C      1.053818    1.213993   -0.000020
| 11> O     -2.292236    0.003283   -0.000067
| 12> H      1.839628   -1.972339   -0.000073
| 13> H     -0.551220   -1.860885    0.865345
| 14> H     -0.825378    2.197611    0.000125
| 15> H      1.634483    2.127729    0.000039
| 16> H     -0.550829   -1.861455   -0.864964
| 17> *
| 18>
| 19>                          ****END OF INPUT****

CARTESIAN COORDINATES (ANGSTROEM)
---------------------------------
  N      1.836314    0.047911   -0.000037
  C      1.226255   -1.073102   -0.000001
  C     -0.257423   -1.256683    0.000068
  C     -1.075456    0.025969   -0.000044
  C     -0.291026    1.257772    0.000051
  C      1.053818    1.213993   -0.000020
  O     -2.292236    0.003283   -0.000067
  H      1.839628   -1.972339   -0.000073
  H     -0.551220   -1.860885    0.865345
  H     -0.825378    2.197611    0.000125
  H      1.634483    2.127729    0.000039
  H     -0.550829   -1.861455   -0.864964

 Total Charge           Charge          ....    0
 Multiplicity           Mult            ....    1
 Number of Electrons    NEL             ....   50
 Basis Dimension        Dim             ....  790

ORBITAL ENERGIES
----------------

  NO   OCC          E(Eh)            E(eV)
   0   2.0000     -20.543883      -559.0275
   1   2.0000     -15.582795      -424.0294
   2   2.0000     -11.341299      -308.6124
   3   2.0000     -11.317789      -307.9727
   4   2.0000     -11.301038      -307.5169
   5   2.0000     -11.265240      -306.5428
   6   2.0000     -11.243378      -305.9479
   7   2.0000      -1.387292       -37.7501
   8   2.0000      -1.278348       -34.7856
   9   2.0000      -1.070768       -29.1371
  10   2.0000      -1.059173       -28.8216
  11   2.0000      -0.889261       -24.1980
  12   2.0000      -0.837012       -22.7762
  13   2.0000      -0.707910       -19.2632
  14   2.0000      -0.695246       -18.9186
  15   2.0000      -0.681968       -18.5573
  16   2.0000      -0.641945       -17.4682
  17   2.0000      -0.615572       -16.7506
  18   2.0000      -0.606579       -16.5058
  19   2.0000      -0.564157       -15.3515
  20   2.0000      -0.522010       -14.2046
  21   2.0000      -0.510440       -13.8898
  22   2.0000      -0.441291       -12.0081
  23   2.0000      -0.421855       -11.4793
  24   2.0000      -0.362413        -9.8618
  25   0.0000       0.021025         0.5721
  26   0.0000       0.027921         0.7598
  27   0.0000       0.036380         0.9900
  28   0.0000       0.036922         1.0047
  29   0.0000       0.044768         1.2182

MULLIKEN ATOMIC CHARGES
-----------------------
   0 N :   -0.523222
   1 C :   -0.183506
   2 C :   -0.467740
   3 C :    1.026430
   4 C :   -0.521255
   5 C :   -0.301155
   6 O :   -0.804375
   7 H :    0.480488
   8 H :    0.254199
   9 H :    0.357155
  10 H :    0.428897
  11 H :    0.254083
Sum of atomic charges:   -0.0000000

LOEWDIN ATOMIC CHARGES
----------------------
   0 N :    0.601067
   1 C :    0.120354
   2 C :    0.457553
   3 C :   -0.704071
   4 C :    0.320678
   5 C :    0.106208
   6 O :    0.704695
   7 H :   -0.327960
   8 H :   -0.287710
   9 H :   -0.351279
  10 H :   -0.351864
  11 H :   -0.287670

  Mayer bond orders larger than 0.100000
B(  0-N ,  1-C ) :   1.5784 B(  0-N ,  5-C ) :   0.9445 B(  1-C ,  2-C ) :   0.9862
B(  1-C ,  7-H ) :   0.7815 B(  2-C ,  3-C ) :   0.9490 B(  2-C ,  6-O ) :   0.1596
B(  2-C ,  8-H ) :   0.9019 B(  2-C , 11-H ) :   0.9020 B(  3-C ,  4-C ) :   1.0328
B(  3-C ,  6-O ) :   1.0802 B(  4-C ,  5-C ) :   1.5997 B(  4-C ,  6-O ) :   0.2206
B(  4-C ,  9-H ) :   0.8893 B(  5-C , 10-H ) :   0.8807

MP2 TOTAL ENERGY:     -322.960900157 Eh
FINAL SINGLE POINT ENERGY      -322.960900157297

DIPOLE MOMENT
-------------
                                X             Y             Z
Electronic contribution:     -0.63537       0.88869      -0.00032
Nuclear contribution   :      1.50217      -1.35177       0.00046
                        -----------------------------------------
Total Dipole Moment    :      0.86680      -0.46308       0.00014
                        -----------------------------------------
Magnitude (a.u.)       :      0.98274
Magnitude (Debye)      :      2.49794

Rotational constants in cm-1:     0.184502     0.090009     0.061158
Rotational constants in MHz :  5531.221339  2698.389089  1833.477084

                             ****ORCA TERMINATED NORMALLY****
TOTAL RUN TIME: 0 days 0 hours 22 minutes 19 seconds 889 msec
