                         Program Version 5.0.4 -  RELEASE  -
|  1> !ri-mp2 aug-cc-pvqz aug-cc-pvqz/c tightscf
|  2> %pal nprocs 16 end
|  3>
|  4> * xyz 0 1
|  5> C      0.233751   -0.248858    1.186174
|  6> C      0.233751   -0.248858   -1.186174
|  7> C      0.233751   -1.636587    1.135286
|  8> C      0.233751   -1.636587   -1.135286
|  9> C      0.232164    0.482399    0.000000
| 10> C     -1.236306    2.546240    0.000000
| 11> C      0.194870    1.988942    0.000000
| 12> N      0.233121   -2.335890    0.000000
| 13> H      0.240621    0.255199    2.144492
| 14> H      0.240621    0.255199   -2.144492
| 15> H      0.238122   -2.214612    2.053040
| 16> H      0.238122   -2.214612   -2.053040
| 17> H     -1.786360    2.212834   -0.880654
| 18> H     -1.225706    3.636797    0.000000
| 19> H     -1.786360    2.212834    0.880654
| 20> H      0.727349    2.363720    0.876427
| 21> H      0.727349    2.363720   -0.876427
| 22> *
| 23>
| 24>                          ****END OF INPUT****

CARTESIAN COORDINATES (ANGSTROEM)
---------------------------------
  C      0.233751   -0.248858    1.186174
  C      0.233751   -0.248858   -1.186174
  C      0.233751   -1.636587    1.135286
  C      0.233751   -1.636587   -1.135286
  C      0.232164    0.482399    0.000000
  C     -1.236306    2.546240    0.000000
  C      0.194870    1.988942    0.000000
  N      0.233121   -2.335890    0.000000
  H      0.240621    0.255199    2.144492
  H      0.240621    0.255199   -2.144492
  H      0.238122   -2.214612    2.053040
  H      0.238122   -2.214612   -2.053040
  H     -1.786360    2.212834   -0.880654
  H     -1.225706    3.636797    0.000000
  H     -1.786360    2.212834    0.880654
  H      0.727349    2.363720    0.876427
  H      0.727349    2.363720   -0.876427

 Total Charge           Charge          ....    0
 Multiplicity           Mult            ....    1
 Number of Electrons    NEL             ....   58
 Basis Dimension        Dim             .... 1054

ORBITAL ENERGIES
----------------

  NO   OCC          E(Eh)            E(eV)
   0   2.0000     -15.555744      -423.2933
   1   2.0000     -11.268994      -306.6449
   2   2.0000     -11.268978      -306.6445
   3   2.0000     -11.259641      -306.3904
   4   2.0000     -11.239236      -305.8351
   5   2.0000     -11.232322      -305.6470
   6   2.0000     -11.232285      -305.6460
   7   2.0000     -11.225571      -305.4633
   8   2.0000      -1.255037       -34.1513
   9   2.0000      -1.115598       -30.3570
  10   2.0000      -1.029387       -28.0110
  11   2.0000      -1.020518       -27.7697
  12   2.0000      -0.888420       -24.1751
  13   2.0000      -0.855138       -23.2695
  14   2.0000      -0.809466       -22.0267
  15   2.0000      -0.694582       -18.9005
  16   2.0000      -0.675182       -18.3726
  17   2.0000      -0.648099       -17.6357
  18   2.0000      -0.604521       -16.4499
  19   2.0000      -0.599282       -16.3073
  20   2.0000      -0.589600       -16.0438
  21   2.0000      -0.550821       -14.9886
  22   2.0000      -0.521474       -14.1900
  23   2.0000      -0.519766       -14.1435
  24   2.0000      -0.508923       -13.8485
  25   2.0000      -0.492368       -13.3980
  26   2.0000      -0.412945       -11.2368
  27   2.0000      -0.368309       -10.0222
  28   2.0000      -0.344886        -9.3848
  29   0.0000       0.022735         0.6187
  30   0.0000       0.027868         0.7583
  31   0.0000       0.031056         0.8451
  32   0.0000       0.034575         0.9408
  33   0.0000       0.042669         1.1611

MULLIKEN ATOMIC CHARGES
-----------------------
   0 C :   -0.566482
   1 C :   -0.566476
   2 C :   -0.216091
   3 C :   -0.216091
   4 C :    0.736350
   5 C :   -0.879704
   6 C :   -0.295892
   7 N :   -0.706168
   8 H :    0.271738
   9 H :    0.271757
  10 H :    0.462742
  11 H :    0.462733
  12 H :    0.246732
  13 H :    0.328647
  14 H :    0.246728
  15 H :    0.209742
  16 H :    0.209734
Sum of atomic charges:    0.0000000

LOEWDIN ATOMIC CHARGES
----------------------
   0 C :    0.339352
   1 C :    0.339352
   2 C :    0.079228
   3 C :    0.079228
   4 C :   -0.096259
   5 C :    0.936019
   6 C :    0.494409
   7 N :    0.589389
   8 H :   -0.319228
   9 H :   -0.319228
  10 H :   -0.351159
  11 H :   -0.351159
  12 H :   -0.281450
  13 H :   -0.279680
  14 H :   -0.281450
  15 H :   -0.288682
  16 H :   -0.288682

  Mayer bond orders larger than 0.100000
B(  0-C ,  2-C ) :   1.3892 B(  0-C ,  3-C ) :   0.1078 B(  0-C ,  4-C ) :   0.9792
B(  0-C ,  6-C ) :  -0.1201 B(  0-C ,  8-H ) :   0.9889 B(  0-C , 10-H ) :  -0.1389
B(  1-C ,  2-C ) :   0.1078 B(  1-C ,  3-C ) :   1.3893 B(  1-C ,  4-C ) :   0.9792
B(  1-C ,  6-C ) :  -0.1201 B(  1-C ,  9-H ) :   0.9889 B(  1-C , 11-H ) :  -0.1389
B(  2-C ,  4-C ) :  -0.3270 B(  2-C ,  7-N ) :   1.1301 B(  2-C , 10-H ) :   0.9273
B(  3-C ,  4-C ) :  -0.3270 B(  3-C ,  7-N ) :   1.1301 B(  3-C , 11-H ) :   0.9273
B(  4-C ,  6-C ) :   0.6475 B(  5-C ,  6-C ) :   0.9861 B(  5-C , 12-H ) :   0.9424
B(  5-C , 13-H ) :   0.9274 B(  5-C , 14-H ) :   0.9424 B(  6-C , 15-H ) :   0.9846
B(  6-C , 16-H ) :   0.9846 B(  7-N , 10-H ) :  -0.1504 B(  7-N , 11-H ) :  -0.1504

MP2 TOTAL ENERGY:     -326.324810400 Eh
FINAL SINGLE POINT ENERGY      -326.324810400225

DIPOLE MOMENT
-------------
                                X             Y             Z
Electronic contribution:      2.37736      -7.86707      -0.00000
Nuclear contribution   :     -2.42432       9.00386       0.00000
                        -----------------------------------------
Total Dipole Moment    :     -0.04695       1.13679      -0.00000
                        -----------------------------------------
Magnitude (a.u.)       :      1.13776
Magnitude (Debye)      :      2.89196

Rotational constants in cm-1:     0.159720     0.048688     0.040919
Rotational constants in MHz :  4788.279056  1459.618881  1226.714672

                             ****ORCA TERMINATED NORMALLY****
TOTAL RUN TIME: 0 days 1 hours 13 minutes 56 seconds 185 msec
