                         Program Version 5.0.4 -  RELEASE  -
|  1> !ri-mp2 aug-cc-pvqz aug-cc-pvqz/c tightscf
|  2> %pal nprocs 16 end
|  3> %maxcore 3800
|  4>
|  5> * xyz 0 1
|  6> C     -0.490195    1.181024    0.380923
|  7> C     -0.087273   -0.940362   -0.656437
|  8> C     -1.855971    0.926677    0.397595
|  9> C     -1.445482   -1.198966   -0.668128
| 10> C      0.414573    0.251972   -0.124372
| 11> C     -2.340707   -0.270667   -0.129777
| 12> C      1.862691    0.635548   -0.187993
| 13> C      4.207575    0.027914   -0.102161
| 14> C      2.582085   -1.485876    0.935530
| 15> C     -4.617266    0.290682    0.342564
| 16> N      2.808906   -0.316370    0.101874
| 17> O      2.178901    1.768129   -0.533865
| 18> O     -3.654834   -0.618058   -0.172296
| 19> H     -0.115377    2.122535    0.757231
| 20> H      0.588383   -1.664528   -1.090945
| 21> H     -2.526213    1.665397    0.809027
| 22> H     -1.837104   -2.111604   -1.095000
| 23> H      4.753810   -0.863416   -0.414276
| 24> H      4.664605    0.410445    0.816274
| 25> H      4.282830    0.793784   -0.866477
| 26> H      3.181135   -1.412773    1.848519
| 27> H      2.873534   -2.401982    0.415066
| 28> H      1.539541   -1.562042    1.221072
| 29> H     -4.602392    1.237341   -0.202758
| 30> H     -4.455250    0.481757    1.406130
| 31> H     -5.582559   -0.188564    0.205851
| 32> *
| 33>
| 34>                          ****END OF INPUT****

CARTESIAN COORDINATES (ANGSTROEM)
---------------------------------
  C     -0.490195    1.181024    0.380923
  C     -0.087273   -0.940362   -0.656437
  C     -1.855971    0.926677    0.397595
  C     -1.445482   -1.198966   -0.668128
  C      0.414573    0.251972   -0.124372
  C     -2.340707   -0.270667   -0.129777
  C      1.862691    0.635548   -0.187993
  C      4.207575    0.027914   -0.102161
  C      2.582085   -1.485876    0.935530
  C     -4.617266    0.290682    0.342564
  N      2.808906   -0.316370    0.101874
  O      2.178901    1.768129   -0.533865
  O     -3.654834   -0.618058   -0.172296
  H     -0.115377    2.122535    0.757231
  H      0.588383   -1.664528   -1.090945
  H     -2.526213    1.665397    0.809027
  H     -1.837104   -2.111604   -1.095000
  H      4.753810   -0.863416   -0.414276
  H      4.664605    0.410445    0.816274
  H      4.282830    0.793784   -0.866477
  H      3.181135   -1.412773    1.848519
  H      2.873534   -2.401982    0.415066
  H      1.539541   -1.562042    1.221072
  H     -4.602392    1.237341   -0.202758
  H     -4.455250    0.481757    1.406130
  H     -5.582559   -0.188564    0.205851

 Total Charge           Charge          ....    0
 Multiplicity           Mult            ....    1
 Number of Electrons    NEL             ....   96
 Basis Dimension        Dim             .... 1638

ORBITAL ENERGIES
----------------

  NO   OCC          E(Eh)            E(eV)
   0   2.0000     -20.590892      -560.3067
   1   2.0000     -20.506417      -558.0080
   2   2.0000     -15.580979      -423.9800
   3   2.0000     -11.344434      -308.6977
   4   2.0000     -11.310849      -307.7838
   5   2.0000     -11.289638      -307.2067
   6   2.0000     -11.263239      -306.4883
   7   2.0000     -11.249808      -306.1228
   8   2.0000     -11.248779      -306.0948
   9   2.0000     -11.246548      -306.0341
  10   2.0000     -11.237779      -305.7955
  11   2.0000     -11.235196      -305.7252
  12   2.0000     -11.232790      -305.6598
  13   2.0000      -1.417911       -38.5833
  14   2.0000      -1.372600       -37.3503
  15   2.0000      -1.238821       -33.7100
  16   2.0000      -1.160429       -31.5769
  17   2.0000      -1.040911       -28.3246
  18   2.0000      -1.029517       -28.0146
  19   2.0000      -0.971596       -26.4385
  20   2.0000      -0.960600       -26.1392
  21   2.0000      -0.929342       -25.2887
  22   2.0000      -0.844379       -22.9767
  23   2.0000      -0.831368       -22.6227
  24   2.0000      -0.754594       -20.5335
  25   2.0000      -0.724767       -19.7219
  26   2.0000      -0.700149       -19.0520
  27   2.0000      -0.678217       -18.4552
  28   2.0000      -0.662715       -18.0334
  29   2.0000      -0.649669       -17.6784
  30   2.0000      -0.643828       -17.5194
  31   2.0000      -0.631777       -17.1915
  32   2.0000      -0.603392       -16.4191
  33   2.0000      -0.595900       -16.2153
  34   2.0000      -0.586761       -15.9666
  35   2.0000      -0.565138       -15.3782
  36   2.0000      -0.559690       -15.2299
  37   2.0000      -0.547860       -14.9080
  38   2.0000      -0.539105       -14.6698
  39   2.0000      -0.529809       -14.4168
  40   2.0000      -0.527484       -14.3536
  41   2.0000      -0.514113       -13.9897
  42   2.0000      -0.488429       -13.2908
  43   2.0000      -0.472425       -12.8553
  44   2.0000      -0.421380       -11.4663
  45   2.0000      -0.370656       -10.0861
  46   2.0000      -0.350191        -9.5292
  47   2.0000      -0.320112        -8.7107
  48   0.0000       0.021588         0.5874
  49   0.0000       0.024932         0.6784
  50   0.0000       0.029498         0.8027
  51   0.0000       0.033978         0.9246
  52   0.0000       0.036944         1.0053

MULLIKEN ATOMIC CHARGES
-----------------------
   0 C :   -0.393553
   1 C :   -0.278465
   2 C :   -0.569753
   3 C :   -0.504521
   4 C :   -0.103366
   5 C :    1.200410
   6 C :    1.708989
   7 C :   -0.965452
   8 C :   -0.989836
   9 C :   -0.733794
  10 N :   -0.382523
  11 O :   -0.991948
  12 O :   -0.839147
  13 H :    0.212170
  14 H :    0.244528
  15 H :    0.202953
  16 H :    0.208807
  17 H :    0.254124
  18 H :    0.334755
  19 H :    0.329628
  20 H :    0.334166
  21 H :    0.331401
  22 H :    0.360277
  23 H :    0.265699
  24 H :    0.259500
  25 H :    0.504952
Sum of atomic charges:    0.0000000

LOEWDIN ATOMIC CHARGES
----------------------
   0 C :    0.338450
   1 C :    0.322629
   2 C :    0.350430
   3 C :    0.343960
   4 C :   -0.141222
   5 C :   -0.449649
   6 C :   -0.861630
   7 C :    0.751908
   8 C :    0.769118
   9 C :    0.583126
  10 N :    0.410852
  11 O :    0.725661
  12 O :    0.876957
  13 H :   -0.318173
  14 H :   -0.314806
  15 H :   -0.357428
  16 H :   -0.324843
  17 H :   -0.286570
  18 H :   -0.267655
  19 H :   -0.343248
  20 H :   -0.272573
  21 H :   -0.267658
  22 H :   -0.337792
  23 H :   -0.305255
  24 H :   -0.306451
  25 H :   -0.318139

  Mayer bond orders larger than 0.100000
B(  0-C ,  2-C ) :   1.0249 B(  0-C ,  3-C ) :   0.2220 B(  0-C ,  4-C ) :   1.2806
B(  0-C ,  5-C ) :  -0.1598 B(  0-C ,  6-C ) :  -0.4477 B(  0-C , 13-H ) :   1.0799
B(  0-C , 15-H ) :  -0.1176 B(  1-C ,  3-C ) :   1.3115 B(  1-C ,  4-C ) :   1.2486
B(  1-C ,  5-C ) :  -0.2429 B(  1-C ,  6-C ) :  -0.3291 B(  1-C , 14-H ) :   1.0347
B(  2-C ,  4-C ) :  -0.4076 B(  2-C ,  5-C ) :   1.2918 B(  2-C ,  9-C ) :   0.1926
B(  2-C , 12-O ) :   0.2047 B(  2-C , 13-H ) :  -0.1714 B(  2-C , 15-H ) :   1.1353
B(  3-C ,  4-C ) :  -0.3256 B(  3-C ,  5-C ) :   1.1469 B(  3-C , 12-O ) :   0.2849
B(  3-C , 14-H ) :  -0.1410 B(  3-C , 16-H ) :   1.0448 B(  4-C ,  6-C ) :   1.1066
B(  4-C , 11-O ) :   0.3407 B(  5-C ,  9-C ) :  -0.1872 B(  5-C , 15-H ) :  -0.1050
B(  5-C , 16-H ) :  -0.1123 B(  6-C ,  7-C ) :  -0.1138 B(  6-C , 10-N ) :   1.0192
B(  6-C , 11-O ) :   0.6471 B(  7-C , 10-N ) :   0.8549 B(  7-C , 17-H ) :   1.0090
B(  7-C , 18-H ) :   0.9367 B(  7-C , 19-H ) :   0.9231 B(  8-C , 10-N ) :   0.7287
B(  8-C , 20-H ) :   0.9142 B(  8-C , 21-H ) :   0.9342 B(  8-C , 22-H ) :   0.9102
B(  9-C , 12-O ) :   0.9376 B(  9-C , 23-H ) :   0.9186 B(  9-C , 24-H ) :   0.9182
B(  9-C , 25-H ) :   0.7474 B( 10-N , 11-O ) :   0.3069

MP2 TOTAL ENERGY:     -593.129180587 Eh
FINAL SINGLE POINT ENERGY      -593.129180586894

DIPOLE MOMENT
-------------
                                X             Y             Z
Electronic contribution:     -3.36591       2.52678      -3.04533
Nuclear contribution   :      2.77472      -3.49826       3.82199
                        -----------------------------------------
Total Dipole Moment    :     -0.59119      -0.97148       0.77665
                        -----------------------------------------
Magnitude (a.u.)       :      1.37712
Magnitude (Debye)      :      3.50036

Rotational constants in cm-1:     0.076998     0.012581     0.011470
Rotational constants in MHz :  2308.343669   377.164582   343.850742

                             ****ORCA TERMINATED NORMALLY****
TOTAL RUN TIME: 0 days 2 hours 50 minutes 5 seconds 928 msec
