                         Program Version 5.0.4 -  RELEASE  -
|  1> !ri-mp2 aug-cc-pvqz aug-cc-pvqz/c tightscf
|  2> %pal nprocs 16 end
|  3>
|  4> * xyz 0 1
|  5> S     -1.557947   -0.547420   -0.078355
|  6> C      0.113521   -1.121692    0.074303
|  7> C      1.026808   -0.155065    0.016891
|  8> C      0.488759    1.236776   -0.190699
|  9> C     -0.987946    1.187007    0.215046
| 10> O      2.374694   -0.392412    0.019811
| 11> H      0.314952   -2.177612    0.152421
| 12> H      1.028571    1.980024    0.403180
| 13> H     -1.614058    1.868088   -0.353978
| 14> H      0.605870    1.517008   -1.244505
| 15> H     -1.102813    1.398424    1.277082
| 16> H      2.850231    0.429936    0.167745
| 17> *
| 18>
| 19>                          ****END OF INPUT****

CARTESIAN COORDINATES (ANGSTROEM)
---------------------------------
  S     -1.557947   -0.547420   -0.078355
  C      0.113521   -1.121692    0.074303
  C      1.026808   -0.155065    0.016891
  C      0.488759    1.236776   -0.190699
  C     -0.987946    1.187007    0.215046
  O      2.374694   -0.392412    0.019811
  H      0.314952   -2.177612    0.152421
  H      1.028571    1.980024    0.403180
  H     -1.614058    1.868088   -0.353978
  H      0.605870    1.517008   -1.244505
  H     -1.102813    1.398424    1.277082
  H      2.850231    0.429936    0.167745

 Total Charge           Charge          ....    0
 Multiplicity           Mult            ....    1
 Number of Electrons    NEL             ....   54
 Basis Dimension        Dim             ....  760

ORBITAL ENERGIES
----------------

  NO   OCC          E(Eh)            E(eV)
   0   2.0000     -91.948977     -2502.0589
   1   2.0000     -20.593196      -560.3694
   2   2.0000     -11.298929      -307.4595
   3   2.0000     -11.266434      -306.5753
   4   2.0000     -11.253559      -306.2249
   5   2.0000     -11.240199      -305.8614
   6   2.0000      -8.950220      -243.5479
   7   2.0000      -6.631734      -180.4587
   8   2.0000      -6.630936      -180.4370
   9   2.0000      -6.629910      -180.4090
  10   2.0000      -1.406097       -38.2618
  11   2.0000      -1.136298       -30.9202
  12   2.0000      -0.995643       -27.0928
  13   2.0000      -0.963298       -26.2127
  14   2.0000      -0.823117       -22.3982
  15   2.0000      -0.756128       -20.5753
  16   2.0000      -0.710560       -19.3353
  17   2.0000      -0.661686       -18.0054
  18   2.0000      -0.634761       -17.2727
  19   2.0000      -0.587896       -15.9975
  20   2.0000      -0.563058       -15.3216
  21   2.0000      -0.532103       -14.4793
  22   2.0000      -0.508414       -13.8347
  23   2.0000      -0.497547       -13.5390
  24   2.0000      -0.449060       -12.2195
  25   2.0000      -0.415954       -11.3187
  26   2.0000      -0.291079        -7.9207
  27   0.0000       0.020541         0.5589
  28   0.0000       0.031847         0.8666
  29   0.0000       0.035635         0.9697
  30   0.0000       0.036497         0.9931
  31   0.0000       0.050762         1.3813

MULLIKEN ATOMIC CHARGES
-----------------------
   0 S :   -0.052755
   1 C :   -0.815229
   2 C :    0.790021
   3 C :   -0.438634
   4 C :   -0.531546
   5 O :   -0.851692
   6 H :    0.444973
   7 H :    0.256649
   8 H :    0.309867
   9 H :    0.311012
  10 H :    0.223621
  11 H :    0.353712
Sum of atomic charges:    0.0000000

LOEWDIN ATOMIC CHARGES
----------------------
   0 S :    1.269274
   1 C :   -0.080604
   2 C :   -0.525408
   3 C :    0.392847
   4 C :    0.165700
   5 O :    1.261580
   6 H :   -0.416302
   7 H :   -0.281440
   8 H :   -0.351863
   9 H :   -0.275914
  10 H :   -0.354720
  11 H :   -0.803150

  Mayer bond orders larger than 0.100000
B(  0-S ,  1-C ) :   1.1121 B(  0-S ,  2-C ) :  -0.1394 B(  0-S ,  4-C ) :   0.8954
B(  1-C ,  2-C ) :   1.5635 B(  1-C ,  5-O ) :   0.1471 B(  1-C ,  6-H ) :   0.7655
B(  2-C ,  3-C ) :   0.9208 B(  2-C ,  5-O ) :   0.4304 B(  3-C ,  4-C ) :   1.0340
B(  3-C ,  7-H ) :   0.9245 B(  3-C ,  9-H ) :   0.8015 B(  4-C ,  8-H ) :   0.9018
B(  4-C , 10-H ) :   0.9180 B(  5-O , 11-H ) :   0.8976

MP2 TOTAL ENERGY:     -628.601363505 Eh
FINAL SINGLE POINT ENERGY      -628.601363505234

DIPOLE MOMENT
-------------
                                X             Y             Z
Electronic contribution:     -1.61657      -3.83271      -0.25374
Nuclear contribution   :      2.15266       4.99040       0.40176
                        -----------------------------------------
Total Dipole Moment    :      0.53609       1.15769       0.14802
                        -----------------------------------------
Magnitude (a.u.)       :      1.28435
Magnitude (Debye)      :      3.26456

Rotational constants in cm-1:     0.200565     0.078849     0.058486
Rotational constants in MHz :  6012.773531  2363.825269  1753.376362

                             ****ORCA TERMINATED NORMALLY****
TOTAL RUN TIME: 0 days 0 hours 18 minutes 39 seconds 465 msec
