                         Program Version 5.0.4 -  RELEASE  -
|  1> !ri-mp2 aug-cc-pvqz aug-cc-pvqz/c tightscf
|  2> %pal nprocs 16 end
|  3>
|  4> * xyz 0 1
|  5> Cl   -2.280642   -0.628707   -0.145550
|  6> O     1.092025    1.391278    0.220496
|  7> O    -0.955684    2.323645   -0.050493
|  8> O     2.553373   -0.218210   -0.655230
|  9> N     0.574476   -2.183960    0.238082
| 10> C    -0.663800   -0.075616    0.058842
| 11> C     0.431472   -0.842507    0.189010
| 12> C    -0.290734    1.338463    0.058027
| 13> C     1.619020    0.075759    0.341980
| 14> H     3.324738    0.348497   -0.543164
| 15> H    -0.217906   -2.752537   -0.012740
| 16> H     1.479328   -2.567370    0.021871
| 17> H     2.069968   -0.003146    1.336481
| 18> *
| 19>
| 20>                          ****END OF INPUT****

CARTESIAN COORDINATES (ANGSTROEM)
---------------------------------
  Cl    -2.280642   -0.628707   -0.145550
  O      1.092025    1.391278    0.220496
  O     -0.955684    2.323645   -0.050493
  O      2.553373   -0.218210   -0.655230
  N      0.574476   -2.183960    0.238082
  C     -0.663800   -0.075616    0.058842
  C      0.431472   -0.842507    0.189010
  C     -0.290734    1.338463    0.058027
  C      1.619020    0.075759    0.341980
  H      3.324738    0.348497   -0.543164
  H     -0.217906   -2.752537   -0.012740
  H      1.479328   -2.567370    0.021871
  H      2.069968   -0.003146    1.336481

 Total Charge           Charge          ....    0
 Multiplicity           Mult            ....    1
 Number of Electrons    NEL             ....   76
 Basis Dimension        Dim             ....  908

ORBITAL ENERGIES
----------------

  NO   OCC          E(Eh)            E(eV)
   0   2.0000    -104.855893     -2853.2739
   1   2.0000     -20.610400      -560.8375
   2   2.0000     -20.608235      -560.7786
   3   2.0000     -20.544465      -559.0433
   4   2.0000     -15.616732      -424.9529
   5   2.0000     -11.390814      -309.9598
   6   2.0000     -11.388106      -309.8861
   7   2.0000     -11.336390      -308.4789
   8   2.0000     -11.298037      -307.4352
   9   2.0000     -10.580599      -287.9127
  10   2.0000      -8.047838      -218.9928
  11   2.0000      -8.045993      -218.9426
  12   2.0000      -8.045892      -218.9398
  13   2.0000      -1.480660       -40.2908
  14   2.0000      -1.416699       -38.5503
  15   2.0000      -1.366367       -37.1807
  16   2.0000      -1.280107       -34.8335
  17   2.0000      -1.167508       -31.7695
  18   2.0000      -1.060858       -28.8674
  19   2.0000      -0.974681       -26.5224
  20   2.0000      -0.843834       -22.9619
  21   2.0000      -0.819912       -22.3109
  22   2.0000      -0.763979       -20.7889
  23   2.0000      -0.735032       -20.0012
  24   2.0000      -0.722331       -19.6556
  25   2.0000      -0.692150       -18.8344
  26   2.0000      -0.651247       -17.7213
  27   2.0000      -0.639842       -17.4110
  28   2.0000      -0.599943       -16.3253
  29   2.0000      -0.584440       -15.9034
  30   2.0000      -0.566584       -15.4175
  31   2.0000      -0.546865       -14.8809
  32   2.0000      -0.526611       -14.3298
  33   2.0000      -0.497231       -13.5303
  34   2.0000      -0.479233       -13.0406
  35   2.0000      -0.475735       -12.9454
  36   2.0000      -0.449671       -12.2362
  37   2.0000      -0.352395        -9.5892
  38   0.0000       0.013659         0.3717
  39   0.0000       0.024581         0.6689
  40   0.0000       0.034324         0.9340
  41   0.0000       0.041981         1.1423
  42   0.0000       0.060160         1.6370

MULLIKEN ATOMIC CHARGES
-----------------------
   0 Cl:   -0.295661
   1 O :   -0.756313
   2 O :   -0.724127
   3 O :   -0.771051
   4 N :   -0.739783
   5 C :   -0.302330
   6 C :    0.174736
   7 C :    1.055670
   8 C :    1.081897
   9 H :    0.327224
  10 H :    0.318351
  11 H :    0.310535
  12 H :    0.320853
Sum of atomic charges:    0.0000000

LOEWDIN ATOMIC CHARGES
----------------------
   0 Cl:    1.201429
   1 O :    0.829235
   2 O :    0.631245
   3 O :    1.282076
   4 N :    1.278871
   5 C :   -0.920750
   6 C :   -0.407230
   7 C :   -1.208072
   8 C :   -0.627863
   9 H :   -0.764040
  10 H :   -0.499714
  11 H :   -0.483785
  12 H :   -0.311403

  Mayer bond orders larger than 0.100000
B(  0-Cl,  5-C ) :   0.7178 B(  1-O ,  6-C ) :   0.1390 B(  1-O ,  7-C ) :   1.0061
B(  1-O ,  8-C ) :   0.5592 B(  2-O ,  5-C ) :   0.2134 B(  2-O ,  7-C ) :   1.3609
B(  3-O ,  8-C ) :   0.6131 B(  3-O ,  9-H ) :   0.9072 B(  4-N ,  6-C ) :   1.0169
B(  4-N , 10-H ) :   0.8929 B(  4-N , 11-H ) :   0.8846 B(  5-C ,  6-C ) :   1.1716
B(  5-C ,  7-C ) :   1.2916 B(  5-C ,  8-C ) :  -0.2424 B(  6-C ,  8-C ) :   0.8184
B(  8-C , 12-H ) :   0.8689

MP2 TOTAL ENERGY:     -894.417312732 Eh
FINAL SINGLE POINT ENERGY      -894.417312732459

DIPOLE MOMENT
-------------
                                X             Y             Z
Electronic contribution:     -7.86988       1.80553      -0.60417
Nuclear contribution   :      9.51160      -3.84941       0.95876
                        -----------------------------------------
Total Dipole Moment    :      1.64172      -2.04388       0.35458
                        -----------------------------------------
Magnitude (a.u.)       :      2.64546
Magnitude (Debye)      :      6.72422

Rotational constants in cm-1:     0.065717     0.042411     0.026864
Rotational constants in MHz :  1970.154874  1271.436614   805.350556

                             ****ORCA TERMINATED NORMALLY****
TOTAL RUN TIME: 0 days 0 hours 28 minutes 21 seconds 216 msec
