                         Program Version 5.0.4 -  RELEASE  -
|  1> !ri-mp2 aug-cc-pvqz aug-cc-pvqz/c tightscf
|  2> %pal nprocs 16 end
|  3>
|  4> * xyz 0 1
|  5> F    -1.348626   -0.049956    1.364939
|  6> F    -2.375705   -0.844928   -0.412965
|  7> O     0.433224   -0.723724   -0.682853
|  8> O     1.618313    0.882499    0.312093
|  9> O     2.419188   -1.228012    0.268661
| 10> C    -0.406254    0.422707   -0.759710
| 11> C     1.578879   -0.436900    0.000770
| 12> C    -1.668924    0.213355    0.065480
| 13> C     0.485739    1.562976   -0.229668
| 14> H    -0.703392    0.567543   -1.797832
| 15> H    -2.315882    1.094850    0.045598
| 16> H     0.016202    2.142547    0.562716
| 17> H     0.819614    2.230086   -1.022680
| 18> *
| 19>
| 20>                          ****END OF INPUT****

CARTESIAN COORDINATES (ANGSTROEM)
---------------------------------
  F     -1.348626   -0.049956    1.364939
  F     -2.375705   -0.844928   -0.412965
  O      0.433224   -0.723724   -0.682853
  O      1.618313    0.882499    0.312093
  O      2.419188   -1.228012    0.268661
  C     -0.406254    0.422707   -0.759710
  C      1.578879   -0.436900    0.000770
  C     -1.668924    0.213355    0.065480
  C      0.485739    1.562976   -0.229668
  H     -0.703392    0.567543   -1.797832
  H     -2.315882    1.094850    0.045598
  H      0.016202    2.142547    0.562716
  H      0.819614    2.230086   -1.022680

 Total Charge           Charge          ....    0
 Multiplicity           Mult            ....    1
 Number of Electrons    NEL             ....   70
 Basis Dimension        Dim             ....  904

ORBITAL ENERGIES
----------------

  NO   OCC          E(Eh)            E(eV)
   0   2.0000     -26.332999      -716.5573
   1   2.0000     -26.330821      -716.4981
   2   2.0000     -20.638759      -561.6092
   3   2.0000     -20.636170      -561.5387
   4   2.0000     -20.555523      -559.3442
   5   2.0000     -11.446186      -311.4666
   6   2.0000     -11.438623      -311.2608
   7   2.0000     -11.352175      -308.9084
   8   2.0000     -11.341275      -308.6118
   9   2.0000      -1.683187       -45.8018
  10   2.0000      -1.622232       -44.1432
  11   2.0000      -1.538551       -41.8661
  12   2.0000      -1.413589       -38.4657
  13   2.0000      -1.401332       -38.1322
  14   2.0000      -1.109243       -30.1840
  15   2.0000      -0.992911       -27.0185
  16   2.0000      -0.912026       -24.8175
  17   2.0000      -0.857319       -23.3288
  18   2.0000      -0.805959       -21.9313
  19   2.0000      -0.793435       -21.5905
  20   2.0000      -0.781888       -21.2762
  21   2.0000      -0.742475       -20.2038
  22   2.0000      -0.724091       -19.7035
  23   2.0000      -0.698216       -18.9994
  24   2.0000      -0.687437       -18.7061
  25   2.0000      -0.655842       -17.8464
  26   2.0000      -0.654945       -17.8220
  27   2.0000      -0.641976       -17.4691
  28   2.0000      -0.632487       -17.2108
  29   2.0000      -0.591770       -16.1029
  30   2.0000      -0.575872       -15.6703
  31   2.0000      -0.559895       -15.2355
  32   2.0000      -0.496974       -13.5234
  33   2.0000      -0.490373       -13.3437
  34   2.0000      -0.484045       -13.1715
  35   0.0000       0.011976         0.3259
  36   0.0000       0.025887         0.7044
  37   0.0000       0.029293         0.7971
  38   0.0000       0.043789         1.1916
  39   0.0000       0.051553         1.4028

MULLIKEN ATOMIC CHARGES
-----------------------
   0 F :   -0.687205
   1 F :   -0.702904
   2 O :   -0.690245
   3 O :   -0.703208
   4 O :   -0.742437
   5 C :    0.158528
   6 C :    1.222837
   7 C :    0.853910
   8 C :   -0.242621
   9 H :    0.482571
  10 H :    0.382810
  11 H :    0.325244
  12 H :    0.342719
Sum of atomic charges:   -0.0000000

LOEWDIN ATOMIC CHARGES
----------------------
   0 F :    0.797061
   1 F :    0.793187
   2 O :    0.837196
   3 O :    0.845333
   4 O :    0.619547
   5 C :   -0.301478
   6 C :   -1.445693
   7 C :   -1.057241
   8 C :    0.189830
   9 H :   -0.308660
  10 H :   -0.381125
  11 H :   -0.303651
  12 H :   -0.284306

  Mayer bond orders larger than 0.100000
B(  0-F ,  7-C ) :   0.5181 B(  1-F ,  7-C ) :   0.4254 B(  2-O ,  5-C ) :   0.5349
B(  2-O ,  6-C ) :   1.0400 B(  2-O ,  8-C ) :   0.1202 B(  3-O ,  6-C ) :   1.0116
B(  3-O ,  8-C ) :   0.6141 B(  4-O ,  6-C ) :   1.5890 B(  5-C ,  7-C ) :   0.9006
B(  5-C ,  8-C ) :   1.0714 B(  5-C ,  9-H ) :   0.7122 B(  7-C , 10-H ) :   0.8388
B(  8-C , 11-H ) :   0.8859 B(  8-C , 12-H ) :   0.8755

MP2 TOTAL ENERGY:     -579.528163171 Eh
FINAL SINGLE POINT ENERGY      -579.528163171187

DIPOLE MOMENT
-------------
                                X             Y             Z
Electronic contribution:     -2.78151      -4.39943       2.08242
Nuclear contribution   :      1.49027       6.57183      -3.00311
                        -----------------------------------------
Total Dipole Moment    :     -1.29124       2.17239      -0.92070
                        -----------------------------------------
Magnitude (a.u.)       :      2.68966
Magnitude (Debye)      :      6.83657

Rotational constants in cm-1:     0.102365     0.040526     0.036729
Rotational constants in MHz :  3068.812102  1214.932037  1101.105192

                             ****ORCA TERMINATED NORMALLY****
TOTAL RUN TIME: 0 days 0 hours 29 minutes 19 seconds 92 msec
