                         Program Version 5.0.4 -  RELEASE  -
|  1> !ri-mp2 aug-cc-pvqz aug-cc-pvqz/c tightscf
|  2> %pal nprocs 16 end
|  3>
|  4> * xyz 0 1
|  5> C      1.209009    0.686001        0.000000
|  6> C     -1.202025    0.675134        0.000000
|  7> C      1.216005   -0.701909        0.000000
|  8> C     -1.199895   -0.715998        0.000000
|  9> C      0.000000    1.377007        0.000000
| 10> C      0.010446   -1.381379        0.000000
| 11> O      0.057288    2.745374        0.000000
| 12> F      0.018013   -2.736527        0.000000
| 13> H      2.134342    1.243985        0.000000
| 14> H     -2.143868    1.210090        0.000000
| 15> H      2.143774   -1.255723        0.000000
| 16> H     -2.123419   -1.276673        0.000000
| 17> H     -0.832492    3.110943        0.000000
| 18> *
| 19>
| 20>                          ****END OF INPUT****

CARTESIAN COORDINATES (ANGSTROEM)
---------------------------------
  C      1.209009    0.686001    0.000000
  C     -1.202025    0.675134    0.000000
  C      1.216005   -0.701909    0.000000
  C     -1.199895   -0.715998    0.000000
  C      0.000000    1.377007    0.000000
  C      0.010446   -1.381379    0.000000
  O      0.057288    2.745374    0.000000
  F      0.018013   -2.736527    0.000000
  H      2.134342    1.243985    0.000000
  H     -2.143868    1.210090    0.000000
  H      2.143774   -1.255723    0.000000
  H     -2.123419   -1.276673    0.000000
  H     -0.832492    3.110943    0.000000

 Total Charge           Charge          ....    0
 Multiplicity           Mult            ....    1
 Number of Electrons    NEL             ....   58
 Basis Dimension        Dim             ....  870

ORBITAL ENERGIES
----------------

  NO   OCC          E(Eh)            E(eV)
   0   2.0000     -26.300821      -715.6817
   1   2.0000     -20.594666      -560.4093
   2   2.0000     -11.320383      -308.0433
   3   2.0000     -11.309276      -307.7410
   4   2.0000     -11.251502      -306.1689
   5   2.0000     -11.249922      -306.1259
   6   2.0000     -11.249050      -306.1022
   7   2.0000     -11.243582      -305.9534
   8   2.0000      -1.617550       -44.0158
   9   2.0000      -1.410924       -38.3932
  10   2.0000      -1.165322       -31.7100
  11   2.0000      -1.040025       -28.3005
  12   2.0000      -1.015607       -27.6361
  13   2.0000      -0.873430       -23.7672
  14   2.0000      -0.842316       -22.9206
  15   2.0000      -0.750891       -20.4328
  16   2.0000      -0.742951       -20.2167
  17   2.0000      -0.706152       -19.2154
  18   2.0000      -0.688788       -18.7429
  19   2.0000      -0.644123       -17.5275
  20   2.0000      -0.627072       -17.0635
  21   2.0000      -0.610295       -16.6070
  22   2.0000      -0.598650       -16.2901
  23   2.0000      -0.584309       -15.8999
  24   2.0000      -0.559924       -15.2363
  25   2.0000      -0.510183       -13.8828
  26   2.0000      -0.493330       -13.4242
  27   2.0000      -0.359548        -9.7838
  28   2.0000      -0.322278        -8.7696
  29   0.0000       0.020864         0.5677
  30   0.0000       0.029788         0.8106
  31   0.0000       0.032643         0.8883
  32   0.0000       0.043224         1.1762
  33   0.0000       0.049693         1.3522

MULLIKEN ATOMIC CHARGES
-----------------------
   0 C :   -0.471407
   1 C :   -0.584961
   2 C :   -0.453549
   3 C :   -0.443121
   4 C :    0.966812
   5 C :    0.884626
   6 O :   -0.789564
   7 F :   -0.772825
   8 H :    0.325472
   9 H :    0.238051
  10 H :    0.353664
  11 H :    0.392670
  12 H :    0.354133
Sum of atomic charges:   -0.0000000

LOEWDIN ATOMIC CHARGES
----------------------
   0 C :    0.312866
   1 C :    0.319871
   2 C :    0.292733
   3 C :    0.292277
   4 C :   -0.439035
   5 C :   -0.688587
   6 O :    1.269219
   7 F :    0.755565
   8 H :   -0.325573
   9 H :   -0.324328
  10 H :   -0.329081
  11 H :   -0.329355
  12 H :   -0.806572

  Mayer bond orders larger than 0.100000
B(  0-C ,  2-C ) :   1.2810 B(  0-C ,  4-C ) :   1.2687 B(  0-C ,  5-C ) :  -0.1086
B(  0-C ,  6-O ) :   0.2675 B(  0-C ,  8-H ) :   0.9524 B(  1-C ,  3-C ) :   1.2346
B(  1-C ,  4-C ) :   1.2968 B(  1-C ,  6-O ) :   0.2232 B(  1-C ,  9-H ) :   1.0621
B(  1-C , 11-H ) :  -0.1027 B(  2-C ,  4-C ) :  -0.1400 B(  2-C ,  5-C ) :   1.3198
B(  2-C , 10-H ) :   0.9106 B(  3-C ,  4-C ) :  -0.1268 B(  3-C ,  5-C ) :   1.4112
B(  3-C , 11-H ) :   0.8547 B(  4-C ,  5-C ) :   0.1714 B(  6-O , 12-H ) :   0.8973

MP2 TOTAL ENERGY:     -406.125382813 Eh
FINAL SINGLE POINT ENERGY      -406.125382813251

DIPOLE MOMENT
-------------
                                X             Y             Z
Electronic contribution:      0.28590      -4.99205      -0.00000
Nuclear contribution   :     -0.81480       5.61482       0.00000
                        -----------------------------------------
Total Dipole Moment    :     -0.52890       0.62277      -0.00000
                        -----------------------------------------
Magnitude (a.u.)       :      0.81705
Magnitude (Debye)      :      2.07678

Rotational constants in cm-1:     0.189165     0.048514     0.038611
Rotational constants in MHz :  5671.024350  1454.405222  1157.539675

                             ****ORCA TERMINATED NORMALLY****
TOTAL RUN TIME: 0 days 0 hours 30 minutes 42 seconds 680 msec
