                         Program Version 5.0.4 -  RELEASE  -
|  1> !ri-mp2 aug-cc-pvqz aug-cc-pvqz/c tightscf
|  2> %pal nprocs 16 end
|  3>
|  4> * xyz 0 1
|  5> C     -0.225569    1.332966   -0.000002
|  6> C     -0.455485   -1.064735   -0.000006
|  7> C      1.156764    1.200181   -0.000032
|  8> C      0.920244   -1.190395   -0.000036
|  9> C     -1.043674    0.204925    0.000012
| 10> C      1.751261   -0.060989   -0.000040
| 11> C     -2.509207    0.366017    0.000015
| 12> C      3.247030   -0.218201    0.000041
| 13> O     -3.310674   -0.540952    0.000015
| 14> H     -0.675329    2.318557   -0.000006
| 15> H     -1.096676   -1.935469   -0.000014
| 16> H      1.781369    2.084082   -0.000052
| 17> H      1.367447   -2.176702   -0.000067
| 18> H     -2.854814    1.419797    0.000014
| 19> H      3.582124   -0.775241   -0.877101
| 20> H      3.750856    0.746927   -0.001219
| 21> H      3.582235   -0.772949    0.878607
| 22> *
| 23>
| 24>                          ****END OF INPUT****

CARTESIAN COORDINATES (ANGSTROEM)
---------------------------------
  C     -0.225569    1.332966   -0.000002
  C     -0.455485   -1.064735   -0.000006
  C      1.156764    1.200181   -0.000032
  C      0.920244   -1.190395   -0.000036
  C     -1.043674    0.204925    0.000012
  C      1.751261   -0.060989   -0.000040
  C     -2.509207    0.366017    0.000015
  C      3.247030   -0.218201    0.000041
  O     -3.310674   -0.540952    0.000015
  H     -0.675329    2.318557   -0.000006
  H     -1.096676   -1.935469   -0.000014
  H      1.781369    2.084082   -0.000052
  H      1.367447   -2.176702   -0.000067
  H     -2.854814    1.419797    0.000014
  H      3.582124   -0.775241   -0.877101
  H      3.750856    0.746927   -0.001219
  H      3.582235   -0.772949    0.878607

 Total Charge           Charge          ....    0
 Multiplicity           Mult            ....    1
 Number of Electrons    NEL             ....   64
 Basis Dimension        Dim             .... 1088

ORBITAL ENERGIES
----------------

  NO   OCC          E(Eh)            E(eV)
   0   2.0000     -20.548284      -559.1472
   1   2.0000     -11.329960      -308.3039
   2   2.0000     -11.263929      -306.5071
   3   2.0000     -11.257391      -306.3292
   4   2.0000     -11.250468      -306.1408
   5   2.0000     -11.244784      -305.9861
   6   2.0000     -11.242908      -305.9351
   7   2.0000     -11.241536      -305.8977
   8   2.0000     -11.236410      -305.7583
   9   2.0000      -1.386860       -37.7384
  10   2.0000      -1.175389       -31.9840
  11   2.0000      -1.073829       -29.2204
  12   2.0000      -1.032467       -28.0949
  13   2.0000      -0.967963       -26.3396
  14   2.0000      -0.865299       -23.5460
  15   2.0000      -0.845430       -23.0053
  16   2.0000      -0.786295       -21.3962
  17   2.0000      -0.707240       -19.2450
  18   2.0000      -0.671441       -18.2708
  19   2.0000      -0.649858       -17.6835
  20   2.0000      -0.622899       -16.9499
  21   2.0000      -0.606745       -16.5104
  22   2.0000      -0.601278       -16.3616
  23   2.0000      -0.591636       -16.0992
  24   2.0000      -0.553352       -15.0575
  25   2.0000      -0.549469       -14.9518
  26   2.0000      -0.519704       -14.1419
  27   2.0000      -0.501667       -13.6510
  28   2.0000      -0.491756       -13.3814
  29   2.0000      -0.425292       -11.5728
  30   2.0000      -0.353725        -9.6254
  31   2.0000      -0.342202        -9.3118
  32   0.0000       0.020675         0.5626
  33   0.0000       0.025186         0.6853
  34   0.0000       0.031169         0.8482
  35   0.0000       0.037631         1.0240
  36   0.0000       0.040000         1.0884

MULLIKEN ATOMIC CHARGES
-----------------------
   0 C :   -0.182102
   1 C :   -0.041119
   2 C :   -0.431198
   3 C :   -0.412181
   4 C :   -0.174500
   5 C :    0.467831
   6 C :    0.411772
   7 C :   -0.803362
   8 O :   -0.792387
   9 H :    0.223535
  10 H :    0.276067
  11 H :    0.186362
  12 H :    0.298411
  13 H :    0.271901
  14 H :    0.237348
  15 H :    0.225874
  16 H :    0.237749
Sum of atomic charges:   -0.0000000

LOEWDIN ATOMIC CHARGES
----------------------
   0 C :    0.328853
   1 C :    0.333107
   2 C :    0.363451
   3 C :    0.362602
   4 C :   -0.136955
   5 C :   -0.064579
   6 C :   -0.281620
   7 C :    0.913880
   8 O :    0.699964
   9 H :   -0.320443
  10 H :   -0.324139
  11 H :   -0.322618
  12 H :   -0.314415
  13 H :   -0.368134
  14 H :   -0.281080
  15 H :   -0.306858
  16 H :   -0.281015

  Mayer bond orders larger than 0.100000
B(  0-C ,  2-C ) :   1.2717 B(  0-C ,  3-C ) :   0.1074 B(  0-C ,  4-C ) :   0.9200
B(  0-C ,  5-C ) :  -0.2202 B(  0-C ,  6-C ) :  -0.2683 B(  0-C ,  9-H ) :   1.0720
B(  0-C , 11-H ) :  -0.1575 B(  1-C ,  2-C ) :   0.1426 B(  1-C ,  3-C ) :   1.2973
B(  1-C ,  4-C ) :   0.9856 B(  1-C ,  5-C ) :  -0.1381 B(  1-C ,  6-C ) :  -0.2229
B(  1-C , 10-H ) :   0.9425 B(  1-C , 12-H ) :  -0.1300 B(  2-C ,  4-C ) :  -0.2083
B(  2-C ,  5-C ) :   1.0044 B(  2-C ,  9-H ) :  -0.1472 B(  2-C , 11-H ) :   1.1121
B(  3-C ,  4-C ) :  -0.1452 B(  3-C ,  5-C ) :   0.9598 B(  3-C , 12-H ) :   0.9926
B(  4-C ,  6-C ) :   1.0712 B(  4-C ,  8-O ) :   0.2953 B(  4-C ,  9-H ) :  -0.1099
B(  4-C , 13-H ) :  -0.2665 B(  5-C ,  7-C ) :   0.6034 B(  5-C , 11-H ) :  -0.1104
B(  5-C , 14-H ) :  -0.1100 B(  5-C , 15-H ) :  -0.1268 B(  5-C , 16-H ) :  -0.1098
B(  6-C ,  8-O ) :   1.2489 B(  6-C , 13-H ) :   1.0837 B(  7-C , 14-H ) :   1.0250
B(  7-C , 15-H ) :   1.0449 B(  7-C , 16-H ) :   1.0245

MP2 TOTAL ENERGY:     -384.233754367 Eh
FINAL SINGLE POINT ENERGY      -384.233754367111

DIPOLE MOMENT
-------------
                                X             Y             Z
Electronic contribution:     -7.83787      -0.24822      -0.00011
Nuclear contribution   :      9.38859       0.90082       0.00016
                        -----------------------------------------
Total Dipole Moment    :      1.55071       0.65260       0.00005
                        -----------------------------------------
Magnitude (a.u.)       :      1.68244
Magnitude (Debye)      :      4.27642

Rotational constants in cm-1:     0.168041     0.032874     0.027635
Rotational constants in MHz :  5037.748588   985.524657   828.472188

                             ****ORCA TERMINATED NORMALLY****
TOTAL RUN TIME: 0 days 1 hours 11 minutes 49 seconds 252 msec
