                         Program Version 5.0.4 -  RELEASE  -
|  1> !ri-mp2 aug-cc-pvqz aug-cc-pvqz/c tightscf
|  2> %pal nprocs 16 end
|  3>
|  4> * xyz 0 1
|  5> C     0.000000     0.000000    1.088734
|  6> C     0.000000     1.198351    0.149259
|  7> C     0.000000    -1.198351    0.149259
|  8> C     0.000000     0.669044   -1.243983
|  9> C     0.000000    -0.669044   -1.243983
| 10> O     0.000000     2.365037    0.458652
| 11> O     0.000000    -2.365037    0.458652
| 12> H     0.878958     0.000000    1.734426
| 13> H    -0.878958     0.000000    1.734426
| 14> H     0.000000     1.326391   -2.101506
| 15> H     0.000000    -1.326391   -2.101506
| 16> *
| 17>
| 18>                          ****END OF INPUT****

CARTESIAN COORDINATES (ANGSTROEM)
---------------------------------
  C      0.000000    0.000000    1.088734
  C      0.000000    1.198351    0.149259
  C      0.000000   -1.198351    0.149259
  C      0.000000    0.669044   -1.243983
  C      0.000000   -0.669044   -1.243983
  O      0.000000    2.365037    0.458652
  O      0.000000   -2.365037    0.458652
  H      0.878958    0.000000    1.734426
  H     -0.878958    0.000000    1.734426
  H      0.000000    1.326391   -2.101506
  H      0.000000   -1.326391   -2.101506

 Total Charge           Charge          ....    0
 Multiplicity           Mult            ....    1
 Number of Electrons    NEL             ....   50
 Basis Dimension        Dim             ....  744

ORBITAL ENERGIES
----------------

  NO   OCC          E(Eh)            E(eV)
   0   2.0000     -20.571025      -559.7661
   1   2.0000     -20.571025      -559.7661
   2   2.0000     -11.358879      -309.0908
   3   2.0000     -11.358870      -309.0906
   4   2.0000     -11.287705      -307.1541
   5   2.0000     -11.286006      -307.1078
   6   2.0000     -11.264447      -306.5212
   7   2.0000      -1.415546       -38.5190
   8   2.0000      -1.410657       -38.3859
   9   2.0000      -1.171715       -31.8840
  10   2.0000      -1.025755       -27.9122
  11   2.0000      -0.918699       -24.9991
  12   2.0000      -0.794510       -21.6197
  13   2.0000      -0.764795       -20.8111
  14   2.0000      -0.709677       -19.3113
  15   2.0000      -0.656260       -17.8577
  16   2.0000      -0.647816       -17.6280
  17   2.0000      -0.641729       -17.4623
  18   2.0000      -0.614551       -16.7228
  19   2.0000      -0.604392       -16.4463
  20   2.0000      -0.551969       -15.0198
  21   2.0000      -0.527449       -14.3526
  22   2.0000      -0.462474       -12.5846
  23   2.0000      -0.423682       -11.5290
  24   2.0000      -0.421806       -11.4779
  25   0.0000       0.020332         0.5533
  26   0.0000       0.031629         0.8607
  27   0.0000       0.034123         0.9285
  28   0.0000       0.037588         1.0228
  29   0.0000       0.037930         1.0321

MULLIKEN ATOMIC CHARGES
-----------------------
   0 C :   -0.696189
   1 C :    0.962488
   2 C :    0.962488
   3 C :   -0.544116
   4 C :   -0.544116
   5 O :   -0.786774
   6 O :   -0.786774
   7 H :    0.279755
   8 H :    0.279755
   9 H :    0.436741
  10 H :    0.436741
Sum of atomic charges:   -0.0000000

LOEWDIN ATOMIC CHARGES
----------------------
   0 C :    0.449794
   1 C :   -0.697402
   2 C :   -0.697402
   3 C :    0.362796
   4 C :    0.362796
   5 O :    0.704665
   6 O :    0.704665
   7 H :   -0.282999
   8 H :   -0.282999
   9 H :   -0.311957
  10 H :   -0.311957

  Mayer bond orders larger than 0.100000
B(  0-C ,  1-C ) :   1.0615 B(  0-C ,  2-C ) :   1.0615 B(  0-C ,  5-O ) :   0.1598
B(  0-C ,  6-O ) :   0.1598 B(  0-C ,  7-H ) :   0.8868 B(  0-C ,  8-H ) :   0.8868
B(  1-C ,  2-C ) :  -0.2007 B(  1-C ,  3-C ) :   1.1352 B(  1-C ,  4-C ) :  -0.1535
B(  1-C ,  5-O ) :   1.0960 B(  2-C ,  3-C ) :  -0.1535 B(  2-C ,  4-C ) :   1.1352
B(  2-C ,  6-O ) :   1.0960 B(  3-C ,  4-C ) :   1.3856 B(  3-C ,  5-O ) :   0.2358
B(  3-C ,  9-H ) :   0.7895 B(  4-C ,  6-O ) :   0.2358 B(  4-C , 10-H ) :   0.7895

MP2 TOTAL ENERGY:     -342.849151319 Eh
FINAL SINGLE POINT ENERGY      -342.849151318702

DIPOLE MOMENT
-------------
                                X             Y             Z
Electronic contribution:      0.00000      -0.00000      -0.07378
Nuclear contribution   :      0.00000       0.00000      -0.70336
                        -----------------------------------------
Total Dipole Moment    :      0.00000      -0.00000      -0.77714
                        -----------------------------------------
Magnitude (a.u.)       :      0.77714
Magnitude (Debye)      :      1.97532

Rotational constants in cm-1:     0.224178     0.073508     0.055929
Rotational constants in MHz :  6720.700600  2203.709278  1676.696922

                             ****ORCA TERMINATED NORMALLY****
TOTAL RUN TIME: 0 days 0 hours 19 minutes 17 seconds 914 msec
