                         Program Version 5.0.4 -  RELEASE  -
|  1> !ri-mp2 aug-cc-pvqz aug-cc-pvqz/c tightscf
|  2> %pal nprocs 16 end
|  3>
|  4> * xyz 0 1
|  5> S     0.212246    1.503595    0.000013
|  6> S     2.374967   -0.597531   -0.000005
|  7> N    -0.270384   -1.016336   -0.000009
|  8> N    -2.558616   -1.309203   -0.000011
|  9> C     0.793728   -0.164480   -0.000001
| 10> C    -1.566028   -0.523204   -0.000005
| 11> C    -1.550107    0.995182    0.000009
| 12> H    -0.112586   -2.013711   -0.000018
| 13> H    -3.442358   -0.809316   -0.000007
| 14> H    -2.051518    1.379900   -0.885946
| 15> H    -2.051518    1.379884    0.885970
| 16> *
| 17>
| 18>                          ****END OF INPUT****

CARTESIAN COORDINATES (ANGSTROEM)
---------------------------------
  S      0.212246    1.503595    0.000013
  S      2.374967   -0.597531   -0.000005
  N     -0.270384   -1.016336   -0.000009
  N     -2.558616   -1.309203   -0.000011
  C      0.793728   -0.164480   -0.000001
  C     -1.566028   -0.523204   -0.000005
  C     -1.550107    0.995182    0.000009
  H     -0.112586   -2.013711   -0.000018
  H     -3.442358   -0.809316   -0.000007
  H     -2.051518    1.379900   -0.885946
  H     -2.051518    1.379884    0.885970

 Total Charge           Charge          ....    0
 Multiplicity           Mult            ....    1
 Number of Electrons    NEL             ....   68
 Basis Dimension        Dim             ....  752

ORBITAL ENERGIES
----------------

  NO   OCC          E(Eh)            E(eV)
   0   2.0000     -92.004788     -2503.5776
   1   2.0000     -91.923774     -2501.3731
   2   2.0000     -15.640951      -425.6119
   3   2.0000     -15.564919      -423.5430
   4   2.0000     -11.394088      -310.0489
   5   2.0000     -11.364197      -309.2355
   6   2.0000     -11.309802      -307.7554
   7   2.0000      -9.006559      -245.0809
   8   2.0000      -8.927759      -242.9367
   9   2.0000      -6.687722      -181.9822
  10   2.0000      -6.686839      -181.9581
  11   2.0000      -6.685920      -181.9331
  12   2.0000      -6.609321      -179.8488
  13   2.0000      -6.607807      -179.8076
  14   2.0000      -6.606966      -179.7847
  15   2.0000      -1.349614       -36.7249
  16   2.0000      -1.222206       -33.2579
  17   2.0000      -1.102122       -29.9903
  18   2.0000      -1.046833       -28.4858
  19   2.0000      -0.925702       -25.1896
  20   2.0000      -0.854306       -23.2468
  21   2.0000      -0.824660       -22.4401
  22   2.0000      -0.696228       -18.9453
  23   2.0000      -0.675318       -18.3763
  24   2.0000      -0.646526       -17.5929
  25   2.0000      -0.621817       -16.9205
  26   2.0000      -0.585991       -15.9456
  27   2.0000      -0.534944       -14.5566
  28   2.0000      -0.522082       -14.2066
  29   2.0000      -0.483861       -13.1665
  30   2.0000      -0.450518       -12.2592
  31   2.0000      -0.389640       -10.6026
  32   2.0000      -0.347960        -9.4685
  33   2.0000      -0.347012        -9.4427
  34   0.0000       0.016514         0.4494
  35   0.0000       0.032288         0.8786
  36   0.0000       0.034988         0.9521
  37   0.0000       0.039117         1.0644
  38   0.0000       0.057563         1.5664

MULLIKEN ATOMIC CHARGES
-----------------------
   0 S :    0.181623
   1 S :   -0.109101
   2 N :   -0.213435
   3 N :   -0.799719
   4 C :   -0.211834
   5 C :    0.532111
   6 C :   -0.408752
   7 H :    0.119917
   8 H :    0.314723
   9 H :    0.297234
  10 H :    0.297234
Sum of atomic charges:    0.0000000

LOEWDIN ATOMIC CHARGES
----------------------
   0 S :    1.246832
   1 S :    0.949113
   2 N :    0.601155
   3 N :    0.995910
   4 C :   -1.481686
   5 C :   -0.558671
   6 C :    0.161687
   7 H :   -0.527907
   8 H :   -0.675024
   9 H :   -0.355704
  10 H :   -0.355705

  Mayer bond orders larger than 0.100000
B(  0-S ,  4-C ) :   1.0342 B(  0-S ,  6-C ) :   0.8765 B(  1-S ,  4-C ) :   1.5548
B(  2-N ,  4-C ) :   0.9021 B(  2-N ,  5-C ) :   0.9138 B(  2-N ,  7-H ) :   1.1287
B(  3-N ,  5-C ) :   1.6223 B(  3-N ,  8-H ) :   0.8256 B(  5-C ,  6-C ) :   1.0105
B(  6-C ,  9-H ) :   0.8837 B(  6-C , 10-H ) :   0.8837

MP2 TOTAL ENERGY:    -1021.345032919 Eh
FINAL SINGLE POINT ENERGY     -1021.345032919465

DIPOLE MOMENT
-------------
                                X             Y             Z
Electronic contribution:      5.87782       0.91199       0.00001
Nuclear contribution   :     -7.49104      -0.10129      -0.00000
                        -----------------------------------------
Total Dipole Moment    :     -1.61322       0.81070       0.00001
                        -----------------------------------------
Magnitude (a.u.)       :      1.80547
Magnitude (Debye)      :      4.58914

Rotational constants in cm-1:     0.113864     0.046505     0.033225
Rotational constants in MHz :  3413.554851  1394.194101   996.067774

                             ****ORCA TERMINATED NORMALLY****
TOTAL RUN TIME: 0 days 0 hours 20 minutes 48 seconds 639 msec
