                         Program Version 5.0.4 -  RELEASE  -
|  1> !ri-mp2 aug-cc-pvqz aug-cc-pvqz/c tightscf
|  2> %pal nprocs 16 end
|  3>
|  4> * xyz 0 1
|  5> S    -1.983658   -0.378275   -0.077921
|  6> S     2.278646   -0.016762   -0.202915
|  7> N    -0.053374    1.287591    0.110852
|  8> N    -1.248787    1.259796   -0.126326
|  9> C     0.571612   -0.012113    0.475502
| 10> C    -0.332408   -1.149797   -0.006743
| 11> H     2.698054   -1.070500    0.520774
| 12> H     0.640671    0.011826    1.564772
| 13> H    -0.043820   -1.503899   -0.993521
| 14> H    -0.334803   -1.977092    0.697118
| 15> *
| 16>
| 17>                          ****END OF INPUT****

CARTESIAN COORDINATES (ANGSTROEM)
---------------------------------
  S     -1.983658   -0.378275   -0.077921
  S      2.278646   -0.016762   -0.202915
  N     -0.053374    1.287591    0.110852
  N     -1.248787    1.259796   -0.126326
  C      0.571612   -0.012113    0.475502
  C     -0.332408   -1.149797   -0.006743
  H      2.698054   -1.070500    0.520774
  H      0.640671    0.011826    1.564772
  H     -0.043820   -1.503899   -0.993521
  H     -0.334803   -1.977092    0.697118

 Total Charge           Charge          ....    0
 Multiplicity           Mult            ....    1
 Number of Electrons    NEL             ....   62
 Basis Dimension        Dim             ....  672

ORBITAL ENERGIES
----------------

  NO   OCC          E(Eh)            E(eV)
   0   2.0000     -91.994646     -2503.3016
   1   2.0000     -91.977530     -2502.8358
   2   2.0000     -15.672305      -426.4651
   3   2.0000     -15.647293      -425.7845
   4   2.0000     -11.330232      -308.3113
   5   2.0000     -11.288127      -307.1656
   6   2.0000      -8.994618      -244.7560
   7   2.0000      -8.979594      -244.3472
   8   2.0000      -6.675731      -181.6559
   9   2.0000      -6.674548      -181.6237
  10   2.0000      -6.673582      -181.5974
  11   2.0000      -6.660956      -181.2538
  12   2.0000      -6.660166      -181.2323
  13   2.0000      -6.659078      -181.2027
  14   2.0000      -1.405151       -38.2361
  15   2.0000      -1.116026       -30.3686
  16   2.0000      -1.058420       -28.8011
  17   2.0000      -0.954805       -25.9816
  18   2.0000      -0.864223       -23.5167
  19   2.0000      -0.781945       -21.2778
  20   2.0000      -0.699063       -19.0225
  21   2.0000      -0.659719       -17.9519
  22   2.0000      -0.607301       -16.5255
  23   2.0000      -0.588935       -16.0257
  24   2.0000      -0.548063       -14.9135
  25   2.0000      -0.543305       -14.7841
  26   2.0000      -0.514906       -14.0113
  27   2.0000      -0.465172       -12.6580
  28   2.0000      -0.398852       -10.8533
  29   2.0000      -0.382843       -10.4177
  30   2.0000      -0.369269       -10.0483
  31   0.0000       0.019807         0.5390
  32   0.0000       0.033342         0.9073
  33   0.0000       0.035888         0.9766
  34   0.0000       0.042455         1.1553
  35   0.0000       0.058223         1.5843

MULLIKEN ATOMIC CHARGES
-----------------------
   0 S :    0.148522
   1 S :   -0.156079
   2 N :   -0.223925
   3 N :   -0.346567
   4 C :    0.141051
   5 C :   -0.527319
   6 H :    0.055560
   7 H :    0.344734
   8 H :    0.260860
   9 H :    0.303163
Sum of atomic charges:   -0.0000000

LOEWDIN ATOMIC CHARGES
----------------------
   0 S :    1.069270
   1 S :    1.580411
   2 N :    0.094897
   3 N :   -0.118471
   4 C :   -0.671504
   5 C :    0.004239
   6 H :   -0.774063
   7 H :   -0.410304
   8 H :   -0.401717
   9 H :   -0.372758

  Mayer bond orders larger than 0.100000
B(  0-S ,  2-N ) :   0.1172 B(  0-S ,  3-N ) :   0.8913 B(  0-S ,  5-C ) :   0.9443
B(  1-S ,  4-C ) :   0.7599 B(  1-S ,  6-H ) :   1.0341 B(  2-N ,  3-N ) :   1.5711
B(  2-N ,  4-C ) :   0.6601 B(  4-C ,  5-C ) :   0.9569 B(  4-C ,  7-H ) :   0.8251
B(  5-C ,  8-H ) :   0.8825 B(  5-C ,  9-H ) :   0.9112

MP2 TOTAL ENERGY:     -983.242263787 Eh
FINAL SINGLE POINT ENERGY      -983.242263786618

DIPOLE MOMENT
-------------
                                X             Y             Z
Electronic contribution:     -2.45399       2.99386      -1.20960
Nuclear contribution   :      2.85158      -4.37182       1.74166
                        -----------------------------------------
Total Dipole Moment    :      0.39759      -1.37796       0.53207
                        -----------------------------------------
Magnitude (a.u.)       :      1.52969
Magnitude (Debye)      :      3.88817

Rotational constants in cm-1:     0.205763     0.050114     0.042070
Rotational constants in MHz :  6168.614870  1502.367606  1261.230864

                             ****ORCA TERMINATED NORMALLY****
TOTAL RUN TIME: 0 days 0 hours 15 minutes 14 seconds 643 msec
