                         Program Version 5.0.4 -  RELEASE  -
|  1> !ri-mp2 aug-cc-pvqz aug-cc-pvqz/c tightscf
|  2> %pal nprocs 16 end
|  3> %maxcore 3800
|  4>
|  5> * xyz 0 1
|  6> C     -0.358008   -1.192497   -0.280254
|  7> C     -0.343198    1.192831   -0.282150
|  8> C     -1.721958   -1.189747   -0.010477
|  9> C     -1.704067    1.215219   -0.013027
| 10> C      0.359997   -0.006025   -0.420220
| 11> C     -2.398815    0.017812    0.125458
| 12> C      4.192562   -0.004905    0.338317
| 13> C      1.847021   -0.015398   -0.674427
| 14> C      2.689971    0.002765    0.610921
| 15> O     -3.741651    0.088900    0.388088
| 16> H      0.152278   -2.141809   -0.388206
| 17> H      0.183030    2.133209   -0.392492
| 18> H     -2.257935   -2.126629    0.088883
| 19> H     -2.239210    2.149244    0.086996
| 20> H      4.489024   -0.895456   -0.219839
| 21> H      4.492677    0.865907   -0.248259
| 22> H      4.763947    0.008939    1.267358
| 23> H      2.112002   -0.900851   -1.258622
| 24> H      2.117837    0.849206   -1.286581
| 25> H      2.424357    0.886004    1.197601
| 26> H      2.420111   -0.860563    1.224708
| 27> H     -4.105938   -0.798727    0.458901
| 28> *
| 29>
| 30>                          ****END OF INPUT****

CARTESIAN COORDINATES (ANGSTROEM)
---------------------------------
  C     -0.358008   -1.192497   -0.280254
  C     -0.343198    1.192831   -0.282150
  C     -1.721958   -1.189747   -0.010477
  C     -1.704067    1.215219   -0.013027
  C      0.359997   -0.006025   -0.420220
  C     -2.398815    0.017812    0.125458
  C      4.192562   -0.004905    0.338317
  C      1.847021   -0.015398   -0.674427
  C      2.689971    0.002765    0.610921
  O     -3.741651    0.088900    0.388088
  H      0.152278   -2.141809   -0.388206
  H      0.183030    2.133209   -0.392492
  H     -2.257935   -2.126629    0.088883
  H     -2.239210    2.149244    0.086996
  H      4.489024   -0.895456   -0.219839
  H      4.492677    0.865907   -0.248259
  H      4.763947    0.008939    1.267358
  H      2.112002   -0.900851   -1.258622
  H      2.117837    0.849206   -1.286581
  H      2.424357    0.886004    1.197601
  H      2.420111   -0.860563    1.224708
  H     -4.105938   -0.798727    0.458901

 Total Charge           Charge          ....    0
 Multiplicity           Mult            ....    1
 Number of Electrons    NEL             ....   74
 Basis Dimension        Dim             .... 1352

ORBITAL ENERGIES
----------------

  NO   OCC          E(Eh)            E(eV)
   0   2.0000     -20.584991      -560.1461
   1   2.0000     -11.296520      -307.3939
   2   2.0000     -11.234526      -305.7070
   3   2.0000     -11.232813      -305.6604
   4   2.0000     -11.230227      -305.5900
   5   2.0000     -11.228396      -305.5402
   6   2.0000     -11.224491      -305.4339
   7   2.0000     -11.222831      -305.3888
   8   2.0000     -11.218734      -305.2773
   9   2.0000     -11.211290      -305.0747
  10   2.0000      -1.400587       -38.1119
  11   2.0000      -1.152616       -31.3643
  12   2.0000      -1.070666       -29.1343
  13   2.0000      -1.017824       -27.6964
  14   2.0000      -1.007608       -27.4184
  15   2.0000      -0.919906       -25.0319
  16   2.0000      -0.845560       -23.0088
  17   2.0000      -0.822520       -22.3819
  18   2.0000      -0.789300       -21.4779
  19   2.0000      -0.732128       -19.9222
  20   2.0000      -0.674108       -18.3434
  21   2.0000      -0.648430       -17.6447
  22   2.0000      -0.625148       -17.0112
  23   2.0000      -0.604708       -16.4549
  24   2.0000      -0.588546       -16.0152
  25   2.0000      -0.586893       -15.9702
  26   2.0000      -0.576538       -15.6884
  27   2.0000      -0.565825       -15.3969
  28   2.0000      -0.543300       -14.7840
  29   2.0000      -0.525913       -14.3108
  30   2.0000      -0.492985       -13.4148
  31   2.0000      -0.489564       -13.3217
  32   2.0000      -0.475032       -12.9263
  33   2.0000      -0.469054       -12.7636
  34   2.0000      -0.461698       -12.5634
  35   2.0000      -0.340927        -9.2771
  36   2.0000      -0.305497        -8.3130
  37   0.0000       0.023154         0.6300
  38   0.0000       0.027360         0.7445
  39   0.0000       0.030478         0.8293
  40   0.0000       0.034670         0.9434
  41   0.0000       0.038859         1.0574

MULLIKEN ATOMIC CHARGES
-----------------------
   0 C :   -0.432600
   1 C :   -0.592215
   2 C :   -0.542878
   3 C :   -0.549640
   4 C :    0.479148
   5 C :    1.122973
   6 C :   -0.818018
   7 C :   -0.235922
   8 C :   -0.390935
   9 O :   -0.850614
  10 H :    0.205845
  11 H :    0.188875
  12 H :    0.141307
  13 H :    0.276443
  14 H :    0.221218
  15 H :    0.220787
  16 H :    0.262922
  17 H :    0.213027
  18 H :    0.224413
  19 H :    0.238919
  20 H :    0.237371
  21 H :    0.379573
Sum of atomic charges:   -0.0000000

LOEWDIN ATOMIC CHARGES
----------------------
   0 C :    0.346355
   1 C :    0.345492
   2 C :    0.341444
   3 C :    0.334645
   4 C :   -0.071645
   5 C :   -0.434804
   6 C :    0.928787
   7 C :    0.484533
   8 C :    0.513155
   9 O :    1.268623
  10 H :   -0.311687
  11 H :   -0.311376
  12 H :   -0.325037
  13 H :   -0.326526
  14 H :   -0.284677
  15 H :   -0.284627
  16 H :   -0.284080
  17 H :   -0.287890
  18 H :   -0.286795
  19 H :   -0.272513
  20 H :   -0.272219
  21 H :   -0.809157

  Mayer bond orders larger than 0.100000
B(  0-C ,  2-C ) :   1.2350 B(  0-C ,  3-C ) :   0.1278 B(  0-C ,  4-C ) :   1.0210
B(  0-C ,  7-C ) :  -0.2438 B(  0-C , 10-H ) :   1.0490 B(  0-C , 12-H ) :  -0.1732
B(  1-C ,  2-C ) :   0.1425 B(  1-C ,  3-C ) :   1.3439 B(  1-C ,  4-C ) :   1.0122
B(  1-C ,  7-C ) :  -0.1932 B(  1-C , 11-H ) :   1.0880 B(  1-C , 13-H ) :  -0.1321
B(  2-C ,  4-C ) :  -0.2896 B(  2-C ,  5-C ) :   1.2686 B(  2-C ,  9-O ) :   0.2192
B(  2-C , 10-H ) :  -0.1337 B(  2-C , 12-H ) :   1.1677 B(  3-C ,  4-C ) :  -0.2971
B(  3-C ,  5-C ) :   1.3120 B(  3-C ,  9-O ) :   0.3522 B(  3-C , 11-H ) :  -0.1340
B(  3-C , 13-H ) :   1.0135 B(  4-C ,  7-C ) :   0.8827 B(  5-C ,  9-O ) :  -0.1773
B(  5-C , 12-H ) :  -0.1101 B(  5-C , 21-H ) :  -0.1268 B(  6-C ,  8-C ) :   0.9314
B(  6-C , 14-H ) :   0.9642 B(  6-C , 15-H ) :   0.9634 B(  6-C , 16-H ) :   0.9966
B(  7-C ,  8-C ) :   0.9242 B(  7-C , 17-H ) :   0.9497 B(  7-C , 18-H ) :   0.9289
B(  8-C , 19-H ) :   0.8761 B(  8-C , 20-H ) :   0.8797 B(  9-O , 21-H ) :   0.8908

MP2 TOTAL ENERGY:     -424.676736704 Eh
FINAL SINGLE POINT ENERGY      -424.676736703796

DIPOLE MOMENT
-------------
                                X             Y             Z
Electronic contribution:    -14.55534       0.32460      -0.54441
Nuclear contribution   :     14.78939      -0.84709       0.54753
                        -----------------------------------------
Total Dipole Moment    :      0.23406      -0.52249       0.00313
                        -----------------------------------------
Magnitude (a.u.)       :      0.57253
Magnitude (Debye)      :      1.45525

Rotational constants in cm-1:     0.141465     0.019982     0.018525
Rotational constants in MHz :  4241.025755   599.035012   555.376886

                             ****ORCA TERMINATED NORMALLY****
TOTAL RUN TIME: 0 days 1 hours 49 minutes 35 seconds 623 msec
