                         Program Version 5.0.4 -  RELEASE  -
|  1> !ri-mp2 aug-cc-pvqz aug-cc-pvqz/c tightscf
|  2> %pal nprocs 16 end
|  3>
|  4> * xyz 0 1
|  5> C      1.108723   -0.145442    0.000000
|  6> C     -0.725124   -1.365652    0.000000
|  7> C      0.000000    0.658242    0.000000
|  8> C     -0.075878    2.147531    0.000000
|  9> N     -1.137354   -0.122450    0.000000
| 10> N      0.632730   -1.439852    0.000000
| 11> H      2.160529    0.077190    0.000000
| 12> H     -1.353102   -2.241108    0.000000
| 13> H     -0.613019    2.509034    0.878479
| 14> H      0.918810    2.592122    0.000000
| 15> H     -0.613019    2.509034   -0.878479
| 16> H      1.185847   -2.278231    0.000000
| 17> *
| 18>
| 19>                          ****END OF INPUT****

CARTESIAN COORDINATES (ANGSTROEM)
---------------------------------
  C      1.108723   -0.145442    0.000000
  C     -0.725124   -1.365652    0.000000
  C      0.000000    0.658242    0.000000
  C     -0.075878    2.147531    0.000000
  N     -1.137354   -0.122450    0.000000
  N      0.632730   -1.439852    0.000000
  H      2.160529    0.077190    0.000000
  H     -1.353102   -2.241108    0.000000
  H     -0.613019    2.509034    0.878479
  H      0.918810    2.592122    0.000000
  H     -0.613019    2.509034   -0.878479
  H      1.185847   -2.278231    0.000000

 Total Charge           Charge          ....    0
 Multiplicity           Mult            ....    1
 Number of Electrons    NEL             ....   44
 Basis Dimension        Dim             ....  756

ORBITAL ENERGIES
----------------

  NO   OCC          E(Eh)            E(eV)
   0   2.0000     -15.614858      -424.9019
   1   2.0000     -15.536395      -422.7668
   2   2.0000     -11.293261      -307.3053
   3   2.0000     -11.250490      -306.1414
   4   2.0000     -11.245148      -305.9960
   5   2.0000     -11.213717      -305.1407
   6   2.0000      -1.337476       -36.3946
   7   2.0000      -1.164882       -31.6981
   8   2.0000      -1.032426       -28.0937
   9   2.0000      -0.938612       -25.5409
  10   2.0000      -0.824414       -22.4334
  11   2.0000      -0.771206       -20.9856
  12   2.0000      -0.738202       -20.0875
  13   2.0000      -0.619774       -16.8649
  14   2.0000      -0.605299       -16.4710
  15   2.0000      -0.596975       -16.2445
  16   2.0000      -0.549382       -14.9495
  17   2.0000      -0.542581       -14.7644
  18   2.0000      -0.527305       -14.3487
  19   2.0000      -0.431085       -11.7304
  20   2.0000      -0.391768       -10.6605
  21   2.0000      -0.311942        -8.4884
  22   0.0000       0.019268         0.5243
  23   0.0000       0.029113         0.7922
  24   0.0000       0.034327         0.9341
  25   0.0000       0.045212         1.2303
  26   0.0000       0.046427         1.2634

MULLIKEN ATOMIC CHARGES
-----------------------
   0 C :   -0.301263
   1 C :   -0.074323
   2 C :    0.279618
   3 C :   -0.568851
   4 N :   -0.611351
   5 N :   -0.537652
   6 H :    0.437071
   7 H :    0.585976
   8 H :    0.243168
   9 H :    0.213853
  10 H :    0.243168
  11 H :    0.090586
Sum of atomic charges:    0.0000000

LOEWDIN ATOMIC CHARGES
----------------------
   0 C :    0.198437
   1 C :   -0.064480
   2 C :   -0.385119
   3 C :    0.882874
   4 N :    0.574544
   5 N :    0.783694
   6 H :   -0.307331
   7 H :   -0.322707
   8 H :   -0.299301
   9 H :   -0.311730
  10 H :   -0.299301
  11 H :   -0.449581

  Mayer bond orders larger than 0.100000
B(  0-C ,  2-C ) :   1.6486 B(  0-C ,  5-N ) :   0.9581 B(  0-C ,  6-H ) :   0.8308
B(  1-C ,  4-N ) :   1.6374 B(  1-C ,  5-N ) :   1.2582 B(  1-C ,  7-H ) :   0.6715
B(  2-C ,  3-C ) :   0.6406 B(  2-C ,  4-N ) :   0.7628 B(  2-C ,  5-N ) :  -0.1058
B(  2-C ,  9-H ) :  -0.1281 B(  3-C ,  8-H ) :   0.9756 B(  3-C ,  9-H ) :   1.0619
B(  3-C , 10-H ) :   0.9756 B(  5-N , 11-H ) :   1.1725

MP2 TOTAL ENERGY:     -265.099771469 Eh
FINAL SINGLE POINT ENERGY      -265.099771468812

DIPOLE MOMENT
-------------
                                X             Y             Z
Electronic contribution:     -0.61938      -4.01479      -0.00000
Nuclear contribution   :      1.69393       3.17923       0.00000
                        -----------------------------------------
Total Dipole Moment    :      1.07456      -0.83556      -0.00000
                        -----------------------------------------
Magnitude (a.u.)       :      1.36119
Magnitude (Debye)      :      3.45986

Rotational constants in cm-1:     0.301745     0.117222     0.085761
Rotational constants in MHz :  9046.098565  3514.238323  2571.060082

                             ****ORCA TERMINATED NORMALLY****
TOTAL RUN TIME: 0 days 0 hours 11 minutes 14 seconds 141 msec
