                         Program Version 5.0.4 -  RELEASE  -
|  1> !ri-mp2 aug-cc-pvqz aug-cc-pvqz/c tightscf
|  2> %pal nprocs 16 end
|  3>
|  4> * xyz 0 1
|  5> C      0.170112    1.186351   -0.008143
|  6> C      0.170422   -1.186190   -0.008142
|  7> C     -1.217953    1.135555    0.002250
|  8> C     -1.217513   -1.135808    0.002253
|  9> C      0.901466    0.000262   -0.011063
| 10> C      2.404775    0.000161    0.007281
| 11> N     -1.916745   -0.000180    0.008110
| 12> H      0.673396    2.144679   -0.017182
| 13> H      0.673970   -2.144393   -0.017199
| 14> H     -1.795666    2.053142    0.003167
| 15> H     -1.794994   -2.053533    0.003164
| 16> H      2.808502   -0.876247   -0.498790
| 17> H      2.808455    0.891635   -0.471579
| 18> H      2.775701   -0.016004    1.035029
| 19> *
| 20>
| 21>                          ****END OF INPUT****

CARTESIAN COORDINATES (ANGSTROEM)
---------------------------------
  C      0.170112    1.186351   -0.008143
  C      0.170422   -1.186190   -0.008142
  C     -1.217953    1.135555    0.002250
  C     -1.217513   -1.135808    0.002253
  C      0.901466    0.000262   -0.011063
  C      2.404775    0.000161    0.007281
  N     -1.916745   -0.000180    0.008110
  H      0.673396    2.144679   -0.017182
  H      0.673970   -2.144393   -0.017199
  H     -1.795666    2.053142    0.003167
  H     -1.794994   -2.053533    0.003164
  H      2.808502   -0.876247   -0.498790
  H      2.808455    0.891635   -0.471579
  H      2.775701   -0.016004    1.035029

 Total Charge           Charge          ....    0
 Multiplicity           Mult            ....    1
 Number of Electrons    NEL             ....   50
 Basis Dimension        Dim             ....  882

ORBITAL ENERGIES
----------------

  NO   OCC          E(Eh)            E(eV)
   0   2.0000     -15.556149      -423.3043
   1   2.0000     -11.269786      -306.6665
   2   2.0000     -11.269756      -306.6657
   3   2.0000     -11.263602      -306.4982
   4   2.0000     -11.235560      -305.7351
   5   2.0000     -11.232848      -305.6613
   6   2.0000     -11.232808      -305.6602
   7   2.0000      -1.255406       -34.1613
   8   2.0000      -1.108831       -30.1728
   9   2.0000      -1.029954       -28.0265
  10   2.0000      -0.970505       -26.4088
  11   2.0000      -0.855570       -23.2813
  12   2.0000      -0.823980       -22.4216
  13   2.0000      -0.695154       -18.9161
  14   2.0000      -0.671646       -18.2764
  15   2.0000      -0.647882       -17.6298
  16   2.0000      -0.593980       -16.1630
  17   2.0000      -0.591244       -16.0886
  18   2.0000      -0.560650       -15.2561
  19   2.0000      -0.550161       -14.9707
  20   2.0000      -0.529307       -14.4032
  21   2.0000      -0.507071       -13.7981
  22   2.0000      -0.414032       -11.2664
  23   2.0000      -0.368997       -10.0409
  24   2.0000      -0.345598        -9.4042
  25   0.0000       0.022580         0.6144
  26   0.0000       0.028404         0.7729
  27   0.0000       0.031946         0.8693
  28   0.0000       0.038322         1.0428
  29   0.0000       0.043008         1.1703

MULLIKEN ATOMIC CHARGES
-----------------------
   0 C :   -0.430294
   1 C :   -0.423601
   2 C :   -0.237071
   3 C :   -0.235692
   4 C :    0.478478
   5 C :   -0.757068
   6 N :   -0.657370
   7 H :    0.303968
   8 H :    0.306687
   9 H :    0.467697
  10 H :    0.466715
  11 H :    0.217199
  12 H :    0.218135
  13 H :    0.282217
Sum of atomic charges:   -0.0000000

LOEWDIN ATOMIC CHARGES
----------------------
   0 C :    0.332405
   1 C :    0.332194
   2 C :    0.074639
   3 C :    0.074608
   4 C :   -0.091829
   5 C :    0.915564
   6 N :    0.587272
   7 H :   -0.325347
   8 H :   -0.325049
   9 H :   -0.352028
  10 H :   -0.352060
  11 H :   -0.296544
  12 H :   -0.297460
  13 H :   -0.276366

  Mayer bond orders larger than 0.100000
B(  0-C ,  2-C ) :   1.3517 B(  0-C ,  4-C ) :   1.0732 B(  0-C ,  7-H ) :   0.9533
B(  1-C ,  3-C ) :   1.3480 B(  1-C ,  4-C ) :   1.0740 B(  1-C ,  8-H ) :   0.9496
B(  2-C ,  4-C ) :  -0.2416 B(  2-C ,  6-N ) :   1.1518 B(  2-C ,  9-H ) :   0.9013
B(  3-C ,  4-C ) :  -0.2360 B(  3-C ,  6-N ) :   1.1484 B(  3-C , 10-H ) :   0.9030
B(  4-C ,  5-C ) :   0.6669 B(  4-C , 11-H ) :  -0.1246 B(  4-C , 12-H ) :  -0.1261
B(  5-C , 11-H ) :   1.0395 B(  5-C , 12-H ) :   1.0394 B(  5-C , 13-H ) :   0.9293
B(  6-N ,  9-H ) :  -0.1361 B(  6-N , 10-H ) :  -0.1370

MP2 TOTAL ENERGY:     -287.087892430 Eh
FINAL SINGLE POINT ENERGY      -287.087892430242

DIPOLE MOMENT
-------------
                                X             Y             Z
Electronic contribution:     -5.07885       0.00047      -0.02691
Nuclear contribution   :      6.18917      -0.00073       0.03696
                        -----------------------------------------
Total Dipole Moment    :      1.11032      -0.00026       0.01005
                        -----------------------------------------
Magnitude (a.u.)       :      1.11037
Magnitude (Debye)      :      2.82233

Rotational constants in cm-1:     0.196717     0.084610     0.059818
Rotational constants in MHz :  5897.438347  2536.548825  1793.311200

                             ****ORCA TERMINATED NORMALLY****
TOTAL RUN TIME: 0 days 0 hours 23 minutes 48 seconds 926 msec
