                         Program Version 5.0.4 -  RELEASE  -
|  1> !ri-mp2 aug-cc-pvqz aug-cc-pvqz/c tightscf
|  2> %pal nprocs 16 end
|  3>
|  4> * xyz 0 1
|  5> C      0.151624    1.390687    0.000000
|  6> C      0.020289    0.194427    0.000000
|  7> C      0.300477    2.743694    0.000000
|  8> C     -0.137549   -1.254142    0.000000
|  9> C      0.432336    3.940048    0.000000
| 10> H      0.548834    4.995753    0.000000
| 11> F      0.432336   -1.811612    1.085585
| 12> F      0.432336   -1.811612   -1.085585
| 13> F     -1.437103   -1.608337    0.000000
| 14> *
| 15>
| 16>                          ****END OF INPUT****

CARTESIAN COORDINATES (ANGSTROEM)
---------------------------------
  C      0.151624    1.390687    0.000000
  C      0.020289    0.194427    0.000000
  C      0.300477    2.743694    0.000000
  C     -0.137549   -1.254142    0.000000
  C      0.432336    3.940048    0.000000
  H      0.548834    4.995753    0.000000
  F      0.432336   -1.811612    1.085585
  F      0.432336   -1.811612   -1.085585
  F     -1.437103   -1.608337    0.000000

 Total Charge           Charge          ....    0
 Multiplicity           Mult            ....    1
 Number of Electrons    NEL             ....   58
 Basis Dimension        Dim             ....  686

ORBITAL ENERGIES
----------------

  NO   OCC          E(Eh)            E(eV)
   0   2.0000     -26.349545      -717.0076
   1   2.0000     -26.349541      -717.0075
   2   2.0000     -26.349512      -717.0067
   3   2.0000     -11.548484      -314.2502
   4   2.0000     -11.305522      -307.6389
   5   2.0000     -11.286767      -307.1285
   6   2.0000     -11.286090      -307.1101
   7   2.0000     -11.282283      -307.0065
   8   2.0000      -1.740176       -47.3526
   9   2.0000      -1.645169       -44.7673
  10   2.0000      -1.645150       -44.7668
  11   2.0000      -1.132251       -30.8101
  12   2.0000      -1.074083       -29.2273
  13   2.0000      -1.002063       -27.2675
  14   2.0000      -0.892901       -24.2971
  15   2.0000      -0.841583       -22.9006
  16   2.0000      -0.835194       -22.7268
  17   2.0000      -0.835190       -22.7267
  18   2.0000      -0.741365       -20.1736
  19   2.0000      -0.721850       -19.6425
  20   2.0000      -0.721844       -19.6424
  21   2.0000      -0.675500       -18.3813
  22   2.0000      -0.675496       -18.3812
  23   2.0000      -0.661081       -17.9889
  24   2.0000      -0.647295       -17.6138
  25   2.0000      -0.521931       -14.2025
  26   2.0000      -0.521930       -14.2024
  27   2.0000      -0.399691       -10.8761
  28   2.0000      -0.399687       -10.8760
  29   0.0000       0.019167         0.5216
  30   0.0000       0.046795         1.2734
  31   0.0000       0.054370         1.4795
  32   0.0000       0.054371         1.4795
  33   0.0000       0.058482         1.5914

MULLIKEN ATOMIC CHARGES
-----------------------
   0 C :   -0.408916
   1 C :   -0.691641
   2 C :   -0.019796
   3 C :    2.142043
   4 C :    0.305786
   5 H :    0.477534
   6 F :   -0.601637
   7 F :   -0.601637
   8 F :   -0.601737
Sum of atomic charges:   -0.0000000

LOEWDIN ATOMIC CHARGES
----------------------
   0 C :   -0.031443
   1 C :   -0.021102
   2 C :   -0.041397
   3 C :   -2.222656
   4 C :    0.558287
   5 H :   -0.439207
   6 F :    0.732550
   7 F :    0.732550
   8 F :    0.732417

  Mayer bond orders larger than 0.100000
B(  0-C ,  1-C ) :   2.9754 B(  0-C ,  2-C ) :   0.4917 B(  0-C ,  3-C ) :  -0.1411
B(  0-C ,  4-C ) :  -0.9324 B(  1-C ,  3-C ) :   1.0311 B(  1-C ,  6-F ) :   0.1384
B(  1-C ,  7-F ) :   0.1384 B(  1-C ,  8-F ) :   0.1380 B(  2-C ,  4-C ) :   2.7788
B(  3-C ,  6-F ) :   0.4003 B(  3-C ,  7-F ) :   0.4003 B(  3-C ,  8-F ) :   0.4004
B(  4-C ,  5-H ) :   0.8695

MP2 TOTAL ENERGY:     -489.951993270 Eh
FINAL SINGLE POINT ENERGY      -489.951993270394

DIPOLE MOMENT
-------------
                                X             Y             Z
Electronic contribution:     -0.88873      -8.10803      -0.00000
Nuclear contribution   :      1.02801       9.37658       0.00000
                        -----------------------------------------
Total Dipole Moment    :      0.13928       1.26855      -0.00000
                        -----------------------------------------
Magnitude (a.u.)       :      1.27617
Magnitude (Debye)      :      3.24377

Rotational constants in cm-1:     0.188218     0.029676     0.029676
Rotational constants in MHz :  5642.646667   889.676843   889.664180

                             ****ORCA TERMINATED NORMALLY****
TOTAL RUN TIME: 0 days 0 hours 9 minutes 18 seconds 456 msec
