                         Program Version 5.0.4 -  RELEASE  -
|  1> !ri-mp2 aug-cc-pvqz aug-cc-pvqz/c tightscf
|  2> %pal nprocs 16 end
|  3>
|  4> * xyz 0 1
|  5> C     -0.346200    2.073702    0.000000
|  6> H     -0.936846    2.330581    0.880543
|  7> H      0.558932    2.676627    0.000000
|  8> H     -0.936846    2.330581   -0.880543
|  9> C      0.000000    0.630252    0.000000
| 10> O     -1.025177   -0.242897    0.000000
| 11> N     -0.522613   -1.551143    0.000000
| 12> C      0.774494   -1.414513    0.000000
| 13> H      1.390658   -2.299799    0.000000
| 14> C      1.173944   -0.053727    0.000000
| 15> H      2.170386    0.348899    0.000000
| 16> *
| 17>
| 18>                          ****END OF INPUT****

CARTESIAN COORDINATES (ANGSTROEM)
---------------------------------
  C     -0.346200    2.073702    0.000000
  H     -0.936846    2.330581    0.880543
  H      0.558932    2.676627    0.000000
  H     -0.936846    2.330581   -0.880543
  C      0.000000    0.630252    0.000000
  O     -1.025177   -0.242897    0.000000
  N     -0.522613   -1.551143    0.000000
  C      0.774494   -1.414513    0.000000
  H      1.390658   -2.299799    0.000000
  C      1.173944   -0.053727    0.000000
  H      2.170386    0.348899    0.000000

 Total Charge           Charge          ....    0
 Multiplicity           Mult            ....    1
 Number of Electrons    NEL             ....   44
 Basis Dimension        Dim             ....  710

ORBITAL ENERGIES
----------------

  NO   OCC          E(Eh)            E(eV)
   0   2.0000     -20.636749      -561.5545
   1   2.0000     -15.616269      -424.9403
   2   2.0000     -11.319996      -308.0328
   3   2.0000     -11.277429      -306.8744
   4   2.0000     -11.249013      -306.1012
   5   2.0000     -11.231968      -305.6374
   6   2.0000      -1.486527       -40.4505
   7   2.0000      -1.166088       -31.7309
   8   2.0000      -1.089862       -29.6566
   9   2.0000      -0.982146       -26.7256
  10   2.0000      -0.824860       -22.4456
  11   2.0000      -0.793908       -21.6033
  12   2.0000      -0.704375       -19.1670
  13   2.0000      -0.662216       -18.0198
  14   2.0000      -0.622748       -16.9458
  15   2.0000      -0.583840       -15.8871
  16   2.0000      -0.580809       -15.8046
  17   2.0000      -0.566036       -15.4026
  18   2.0000      -0.551214       -14.9993
  19   2.0000      -0.474986       -12.9250
  20   2.0000      -0.426901       -11.6166
  21   2.0000      -0.357239        -9.7210
  22   0.0000       0.021787         0.5929
  23   0.0000       0.026866         0.7311
  24   0.0000       0.036111         0.9826
  25   0.0000       0.041474         1.1286
  26   0.0000       0.049977         1.3600

MULLIKEN ATOMIC CHARGES
-----------------------
   0 C :   -0.618149
   1 H :    0.281339
   2 H :    0.232309
   3 H :    0.281339
   4 C :    0.613586
   5 O :   -0.494364
   6 N :   -0.402446
   7 C :   -0.018013
   8 H :    0.503820
   9 C :   -0.815703
  10 H :    0.436282
Sum of atomic charges:   -0.0000000

LOEWDIN ATOMIC CHARGES
----------------------
   0 C :    0.914662
   1 H :   -0.291011
   2 H :   -0.306402
   3 H :   -0.291011
   4 C :   -0.511175
   5 O :    0.610053
   6 N :    0.285318
   7 C :   -0.019352
   8 H :   -0.352837
   9 C :    0.295508
  10 H :   -0.333753

  Mayer bond orders larger than 0.100000
B(  0-C ,  1-H ) :   0.9461 B(  0-C ,  2-H ) :   1.0234 B(  0-C ,  3-H ) :   0.9461
B(  0-C ,  4-C ) :   0.7169 B(  2-H ,  4-C ) :  -0.1027 B(  4-C ,  5-O ) :   0.7244
B(  4-C ,  7-C ) :  -0.3151 B(  4-C ,  9-C ) :   1.3454 B(  5-O ,  6-N ) :   0.7157
B(  5-O ,  9-C ) :   0.1629 B(  6-N ,  7-C ) :   1.4674 B(  6-N ,  9-C ) :   0.1221
B(  7-C ,  8-H ) :   0.7654 B(  7-C ,  9-C ) :   1.3599 B(  9-C , 10-H ) :   0.8040

MP2 TOTAL ENERGY:     -284.915464825 Eh
FINAL SINGLE POINT ENERGY      -284.915464824939

DIPOLE MOMENT
-------------
                                X             Y             Z
Electronic contribution:     -1.19895      -4.36960      -0.00000
Nuclear contribution   :      2.21487       5.34454       0.00000
                        -----------------------------------------
Total Dipole Moment    :      1.01592       0.97495      -0.00000
                        -----------------------------------------
Magnitude (a.u.)       :      1.40805
Magnitude (Debye)      :      3.57898

Rotational constants in cm-1:     0.310778     0.118834     0.087356
Rotational constants in MHz :  9316.879348  3562.539210  2618.864881

                             ****ORCA TERMINATED NORMALLY****
TOTAL RUN TIME: 0 days 0 hours 13 minutes 3 seconds 977 msec
