                         Program Version 5.0.4 -  RELEASE  -
|  1> !ri-mp2 aug-cc-pvqz aug-cc-pvqz/c tightscf
|  2> %pal nprocs 16 end
|  3>
|  4> * xyz 0 1
|  5> S     1.303707    1.137937   -0.000005
|  6> F     2.339801   -1.305984    0.000004
|  7> N    -3.545099   -0.372952    0.000002
|  8> C    -0.996543   -0.005333    0.000000
|  9> C    -0.047454   -1.079338    0.000004
| 10> C    -0.415563    1.234811   -0.000005
| 11> C     1.215353   -0.596779    0.000002
| 12> C    -2.404958   -0.204569    0.000001
| 13> H    -0.299796   -2.127042    0.000008
| 14> H    -0.907038    2.191826   -0.000008
| 15> *
| 16>
| 17>                          ****END OF INPUT****

CARTESIAN COORDINATES (ANGSTROEM)
---------------------------------
  S      1.303707    1.137937   -0.000005
  F      2.339801   -1.305984    0.000004
  N     -3.545099   -0.372952    0.000002
  C     -0.996543   -0.005333    0.000000
  C     -0.047454   -1.079338    0.000004
  C     -0.415563    1.234811   -0.000005
  C      1.215353   -0.596779    0.000002
  C     -2.404958   -0.204569    0.000001
  H     -0.299796   -2.127042    0.000008
  H     -0.907038    2.191826   -0.000008

 Total Charge           Charge          ....    0
 Multiplicity           Mult            ....    1
 Number of Electrons    NEL             ....   64
 Basis Dimension        Dim             ....  736

ORBITAL ENERGIES
----------------

  NO   OCC          E(Eh)            E(eV)
   0   2.0000     -92.030064     -2504.2654
   1   2.0000     -26.352357      -717.0841
   2   2.0000     -15.582761      -424.0285
   3   2.0000     -11.384736      -309.7944
   4   2.0000     -11.312253      -307.8221
   5   2.0000     -11.307315      -307.6877
   6   2.0000     -11.287466      -307.1476
   7   2.0000     -11.276372      -306.8457
   8   2.0000      -9.031381      -245.7564
   9   2.0000      -6.712552      -182.6578
  10   2.0000      -6.712112      -182.6458
  11   2.0000      -6.711312      -182.6241
  12   2.0000      -1.672830       -45.5200
  13   2.0000      -1.241701       -33.7884
  14   2.0000      -1.212603       -32.9966
  15   2.0000      -1.050521       -28.5861
  16   2.0000      -1.036499       -28.2046
  17   2.0000      -0.864229       -23.5169
  18   2.0000      -0.844666       -22.9845
  19   2.0000      -0.771872       -21.0037
  20   2.0000      -0.738563       -20.0973
  21   2.0000      -0.729723       -19.8568
  22   2.0000      -0.691759       -18.8237
  23   2.0000      -0.619246       -16.8505
  24   2.0000      -0.586698       -15.9649
  25   2.0000      -0.578085       -15.7305
  26   2.0000      -0.562793       -15.3144
  27   2.0000      -0.528427       -14.3792
  28   2.0000      -0.499053       -13.5799
  29   2.0000      -0.479078       -13.0364
  30   2.0000      -0.388813       -10.5801
  31   2.0000      -0.359690        -9.7877
  32   0.0000       0.022444         0.6107
  33   0.0000       0.028756         0.7825
  34   0.0000       0.043279         1.1777
  35   0.0000       0.055773         1.5177
  36   0.0000       0.058344         1.5876

MULLIKEN ATOMIC CHARGES
-----------------------
   0 S :    0.409942
   1 F :   -0.667805
   2 N :   -0.732786
   3 C :    0.031787
   4 C :   -0.507201
   5 C :   -0.734393
   6 C :    0.675107
   7 C :    0.693898
   8 H :    0.420398
   9 H :    0.411054
Sum of atomic charges:    0.0000000

LOEWDIN ATOMIC CHARGES
----------------------
   0 S :    1.355505
   1 F :    0.709207
   2 N :    0.409571
   3 C :   -0.380525
   4 C :    0.155834
   5 C :   -0.100454
   6 C :   -1.108893
   7 C :   -0.324329
   8 H :   -0.325844
   9 H :   -0.390073

  Mayer bond orders larger than 0.100000
B(  0-S ,  3-C ) :  -0.2257 B(  0-S ,  4-C ) :   0.1269 B(  0-S ,  5-C ) :   1.3076
B(  0-S ,  6-C ) :   1.0795 B(  1-F ,  4-C ) :   0.2147 B(  1-F ,  6-C ) :   0.2162
B(  2-N ,  7-C ) :   2.3867 B(  3-C ,  4-C ) :   0.8993 B(  3-C ,  5-C ) :   1.1651
B(  3-C ,  6-C ) :  -0.2929 B(  3-C ,  7-C ) :   1.3785 B(  4-C ,  6-C ) :   1.7378
B(  4-C ,  7-C ) :  -0.2771 B(  4-C ,  8-H ) :   0.7999 B(  5-C ,  7-C ) :  -0.1862
B(  5-C ,  9-H ) :   0.8424

MP2 TOTAL ENERGY:     -743.532131002 Eh
FINAL SINGLE POINT ENERGY      -743.532131002492

DIPOLE MOMENT
-------------
                                X             Y             Z
Electronic contribution:      4.53398      -0.71475       0.00000
Nuclear contribution   :     -3.38331       1.24536      -0.00000
                        -----------------------------------------
Total Dipole Moment    :      1.15068       0.53061      -0.00000
                        -----------------------------------------
Magnitude (a.u.)       :      1.26713
Magnitude (Debye)      :      3.22078

Rotational constants in cm-1:     0.137800     0.038611     0.030160
Rotational constants in MHz :  4131.137092  1157.525771   904.178952

                             ****ORCA TERMINATED NORMALLY****
TOTAL RUN TIME: 0 days 0 hours 14 minutes 53 seconds 0 msec
