                         Program Version 5.0.4 -  RELEASE  -
|  1> !ri-mp2 aug-cc-pvqz aug-cc-pvqz/c tightscf
|  2> %pal nprocs 16 end
|  3>
|  4> * xyz 0 1
|  5> C      1.977238   -0.001331    0.000000
|  6> C      0.770993    0.001118    0.000000
|  7> C      3.336251   -0.004812    0.000000
|  8> C     -0.659885    0.001640    0.000000
|  9> C      4.540805   -0.008521    0.000000
| 10> H      5.602698   -0.011921    0.000000
| 11> Cl    -1.282257   -0.846315    1.468789
| 12> Cl    -1.282257   -0.846315   -1.468789
| 13> Cl    -1.282257    1.697533    0.000000
| 14> *
| 15>
| 16>                          ****END OF INPUT****

CARTESIAN COORDINATES (ANGSTROEM)
---------------------------------
  C      1.977238   -0.001331    0.000000
  C      0.770993    0.001118    0.000000
  C      3.336251   -0.004812    0.000000
  C     -0.659885    0.001640    0.000000
  C      4.540805   -0.008521    0.000000
  H      5.602698   -0.011921    0.000000
  Cl    -1.282257   -0.846315    1.468789
  Cl    -1.282257   -0.846315   -1.468789
  Cl    -1.282257    1.697533    0.000000

 Total Charge           Charge          ....    0
 Multiplicity           Mult            ....    1
 Number of Electrons    NEL             ....   82
 Basis Dimension        Dim             ....  698

ORBITAL ENERGIES
----------------

  NO   OCC          E(Eh)            E(eV)
   0   2.0000    -104.869722     -2853.6502
   1   2.0000    -104.869705     -2853.6498
   2   2.0000    -104.869705     -2853.6498
   3   2.0000     -11.469967      -312.1137
   4   2.0000     -11.293691      -307.3170
   5   2.0000     -11.285261      -307.0876
   6   2.0000     -11.279128      -306.9207
   7   2.0000     -11.274630      -306.7983
   8   2.0000     -10.594711      -288.2967
   9   2.0000     -10.594697      -288.2963
  10   2.0000     -10.594686      -288.2961
  11   2.0000      -8.061633      -219.3682
  12   2.0000      -8.061617      -219.3677
  13   2.0000      -8.061615      -219.3677
  14   2.0000      -8.059607      -219.3130
  15   2.0000      -8.059595      -219.3127
  16   2.0000      -8.059590      -219.3126
  17   2.0000      -8.059589      -219.3126
  18   2.0000      -8.059579      -219.3123
  19   2.0000      -8.059577      -219.3122
  20   2.0000      -1.251253       -34.0483
  21   2.0000      -1.115193       -30.3459
  22   2.0000      -1.114119       -30.3167
  23   2.0000      -1.114110       -30.3165
  24   2.0000      -1.049229       -28.5510
  25   2.0000      -0.936035       -25.4708
  26   2.0000      -0.844306       -22.9747
  27   2.0000      -0.735338       -20.0096
  28   2.0000      -0.703155       -19.1338
  29   2.0000      -0.639493       -17.4015
  30   2.0000      -0.639488       -17.4014
  31   2.0000      -0.523229       -14.2378
  32   2.0000      -0.523195       -14.2369
  33   2.0000      -0.498254       -13.5582
  34   2.0000      -0.498235       -13.5577
  35   2.0000      -0.490562       -13.3489
  36   2.0000      -0.468020       -12.7355
  37   2.0000      -0.468018       -12.7354
  38   2.0000      -0.455243       -12.3878
  39   2.0000      -0.384138       -10.4529
  40   2.0000      -0.384124       -10.4525
  41   0.0000       0.021404         0.5824
  42   0.0000       0.043806         1.1920
  43   0.0000       0.050395         1.3713
  44   0.0000       0.050399         1.3714
  45   0.0000       0.061016         1.6603

MULLIKEN ATOMIC CHARGES
-----------------------
   0 C :   -0.207871
   1 C :    0.155324
   2 C :   -0.054665
   3 C :    0.174445
   4 C :    0.079987
   5 H :    0.460675
   6 Cl:   -0.202599
   7 Cl:   -0.202599
   8 Cl:   -0.202697
Sum of atomic charges:   -0.0000000

LOEWDIN ATOMIC CHARGES
----------------------
   0 C :   -0.061523
   1 C :   -0.398798
   2 C :   -0.046576
   3 C :   -2.524204
   4 C :    0.554704
   5 H :   -0.443575
   6 Cl:    0.973335
   7 Cl:    0.973335
   8 Cl:    0.973301

  Mayer bond orders larger than 0.100000
B(  0-C ,  1-C ) :   2.8435 B(  0-C ,  2-C ) :   0.5198 B(  0-C ,  3-C ) :  -0.1660
B(  0-C ,  4-C ) :  -0.6302 B(  1-C ,  2-C ) :  -0.3196 B(  1-C ,  3-C ) :   0.9844
B(  1-C ,  6-Cl) :  -0.1801 B(  1-C ,  7-Cl) :  -0.1801 B(  1-C ,  8-Cl) :  -0.1820
B(  2-C ,  4-C ) :   2.6137 B(  3-C ,  6-Cl) :   0.9273 B(  3-C ,  7-Cl) :   0.9273
B(  3-C ,  8-Cl) :   0.9284 B(  4-C ,  5-H ) :   0.9122

MP2 TOTAL ENERGY:    -1569.846542680 Eh
FINAL SINGLE POINT ENERGY     -1569.846542680393

DIPOLE MOMENT
-------------
                                X             Y             Z
Electronic contribution:     -9.36147       0.01529       0.00000
Nuclear contribution   :     10.21587      -0.01742       0.00000
                        -----------------------------------------
Total Dipole Moment    :      0.85440      -0.00212       0.00000
                        -----------------------------------------
Magnitude (a.u.)       :      0.85441
Magnitude (Debye)      :      2.17173

Rotational constants in cm-1:     0.055105     0.021088     0.021087
Rotational constants in MHz :  1652.019284   632.193285   632.176956

                             ****ORCA TERMINATED NORMALLY****
TOTAL RUN TIME: 0 days 0 hours 14 minutes 50 seconds 889 msec
