                         Program Version 5.0.4 -  RELEASE  -
|  1> !ri-mp2 aug-cc-pvqz aug-cc-pvqz/c tightscf
|  2> %pal nprocs 16 end
|  3>
|  4> * xyz 0 1
|  5> O      0.546539   -0.953762        0.000000
|  6> O     -3.228086   -0.349170        0.000000
|  7> N     -1.101796    0.691502        0.000000
|  8> N      1.947764   -1.059792        0.000000
|  9> C      0.218242    0.351741        0.000000
| 10> C      1.335896    1.124727        0.000000
| 11> C      2.382875    0.171585        0.000000
| 12> C     -2.155264    0.095523        0.000000
| 13> H      1.392435    2.196850        0.000000
| 14> H      3.447671    0.343180        0.000001
| 15> *
| 16>
| 17>                          ****END OF INPUT****

CARTESIAN COORDINATES (ANGSTROEM)
---------------------------------
  O      0.546539   -0.953762    0.000000
  O     -3.228086   -0.349170    0.000000
  N     -1.101796    0.691502    0.000000
  N      1.947764   -1.059792    0.000000
  C      0.218242    0.351741    0.000000
  C      1.335896    1.124727    0.000000
  C      2.382875    0.171585    0.000000
  C     -2.155264    0.095523    0.000000
  H      1.392435    2.196850    0.000000
  H      3.447671    0.343180    0.000001

 Total Charge           Charge          ....    0
 Multiplicity           Mult            ....    1
 Number of Electrons    NEL             ....   56
 Basis Dimension        Dim             ....  732

ORBITAL ENERGIES
----------------

  NO   OCC          E(Eh)            E(eV)
   0   2.0000     -20.658812      -562.1549
   1   2.0000     -20.647910      -561.8582
   2   2.0000     -15.633667      -425.4137
   3   2.0000     -15.629184      -425.2917
   4   2.0000     -11.445049      -311.4356
   5   2.0000     -11.387452      -309.8683
   6   2.0000     -11.296194      -307.3851
   7   2.0000     -11.251678      -306.1737
   8   2.0000      -1.513351       -41.1804
   9   2.0000      -1.501983       -40.8710
  10   2.0000      -1.323826       -36.0231
  11   2.0000      -1.180387       -32.1200
  12   2.0000      -1.094680       -29.7878
  13   2.0000      -0.921014       -25.0621
  14   2.0000      -0.849385       -23.1129
  15   2.0000      -0.793028       -21.5794
  16   2.0000      -0.761354       -20.7175
  17   2.0000      -0.704512       -19.1708
  18   2.0000      -0.681831       -18.5536
  19   2.0000      -0.666358       -18.1325
  20   2.0000      -0.661233       -17.9931
  21   2.0000      -0.620935       -16.8965
  22   2.0000      -0.585768       -15.9395
  23   2.0000      -0.527388       -14.3510
  24   2.0000      -0.518023       -14.0961
  25   2.0000      -0.477267       -12.9871
  26   2.0000      -0.447305       -12.1718
  27   2.0000      -0.359650        -9.7866
  28   0.0000       0.019649         0.5347
  29   0.0000       0.031604         0.8600
  30   0.0000       0.041255         1.1226
  31   0.0000       0.053981         1.4689
  32   0.0000       0.062836         1.7099

MULLIKEN ATOMIC CHARGES
-----------------------
   0 O :   -0.439489
   1 O :   -0.583147
   2 N :   -0.784937
   3 N :   -0.398200
   4 C :    1.023937
   5 C :   -0.966868
   6 C :    0.042070
   7 C :    1.136813
   8 H :    0.468702
   9 H :    0.501120
Sum of atomic charges:    0.0000000

LOEWDIN ATOMIC CHARGES
----------------------
   0 O :    0.590822
   1 O :    0.631644
   2 N :    0.467964
   3 N :    0.290140
   4 C :   -0.846574
   5 C :    0.275006
   6 C :   -0.018698
   7 C :   -0.705874
   8 H :   -0.335217
   9 H :   -0.349214

  Mayer bond orders larger than 0.100000
B(  0-O ,  3-N ) :   0.6695 B(  0-O ,  4-C ) :   0.7372 B(  0-O ,  5-C ) :   0.1328
B(  1-O ,  2-N ) :   0.2791 B(  1-O ,  7-C ) :   1.6749 B(  2-N ,  4-C ) :   0.8975
B(  2-N ,  7-C ) :   2.1237 B(  3-N ,  5-C ) :   0.1644 B(  3-N ,  6-C ) :   1.4751
B(  4-C ,  5-C ) :   1.4246 B(  4-C ,  6-C ) :  -0.4092 B(  5-C ,  6-C ) :   1.3119
B(  5-C ,  8-H ) :   0.7808 B(  6-C ,  9-H ) :   0.7895

MP2 TOTAL ENERGY:     -412.944844984 Eh
FINAL SINGLE POINT ENERGY      -412.944844984138

DIPOLE MOMENT
-------------
                                X             Y             Z
Electronic contribution:     -4.14224      -1.24680      -0.00000
Nuclear contribution   :      4.58900       2.40527       0.00000
                        -----------------------------------------
Total Dipole Moment    :      0.44676       1.15847       0.00000
                        -----------------------------------------
Magnitude (a.u.)       :      1.24163
Magnitude (Debye)      :      3.15597

Rotational constants in cm-1:     0.276585     0.041995     0.036459
Rotational constants in MHz :  8291.801476  1258.966685  1093.011750

                             ****ORCA TERMINATED NORMALLY****
TOTAL RUN TIME: 0 days 0 hours 13 minutes 43 seconds 393 msec
