                         Program Version 5.0.4 -  RELEASE  -
|  1> !ri-mp2 aug-cc-pvqz aug-cc-pvqz/c tightscf
|  2> %pal nprocs 16 end
|  3>
|  4> * xyz 0 1
|  5> Cl    -1.769018   -1.402538    0.178117
|  6> Cl    -1.547273    1.487912   -0.423243
|  7> O      1.460798    0.667411    0.845353
|  8> N      2.756231    0.418539    0.391564
|  9> C      0.598785   -0.083649    0.134479
| 10> C     -0.831962    0.092960    0.483695
| 11> C      1.270958   -0.829507   -0.776098
| 12> C      2.623928   -0.463831   -0.561859
| 13> H     -0.948218    0.336127    1.532441
| 14> H      0.868419   -1.532812   -1.480568
| 15> H      3.506494   -0.819577   -1.069811
| 16> *
| 17>
| 18>                          ****END OF INPUT****

CARTESIAN COORDINATES (ANGSTROEM)
---------------------------------
  Cl    -1.769018   -1.402538    0.178117
  Cl    -1.547273    1.487912   -0.423243
  O      1.460798    0.667411    0.845353
  N      2.756231    0.418539    0.391564
  C      0.598785   -0.083649    0.134479
  C     -0.831962    0.092960    0.483695
  C      1.270958   -0.829507   -0.776098
  C      2.623928   -0.463831   -0.561859
  H     -0.948218    0.336127    1.532441
  H      0.868419   -1.532812   -1.480568
  H      3.506494   -0.819577   -1.069811

 Total Charge           Charge          ....    0
 Multiplicity           Mult            ....    1
 Number of Electrons    NEL             ....   76
 Basis Dimension        Dim             ....  786

ORBITAL ENERGIES
----------------

  NO   OCC          E(Eh)            E(eV)
   0   2.0000    -104.864309     -2853.5029
   1   2.0000    -104.858533     -2853.3458
   2   2.0000     -20.662833      -562.2643
   3   2.0000     -15.640659      -425.6040
   4   2.0000     -11.397672      -310.1464
   5   2.0000     -11.344968      -308.7123
   6   2.0000     -11.296537      -307.3944
   7   2.0000     -11.259283      -306.3807
   8   2.0000     -10.589550      -288.1563
   9   2.0000     -10.583560      -287.9933
  10   2.0000      -8.056570      -219.2304
  11   2.0000      -8.054715      -219.1799
  12   2.0000      -8.054662      -219.1785
  13   2.0000      -8.050523      -219.0659
  14   2.0000      -8.048663      -219.0152
  15   2.0000      -8.048605      -219.0137
  16   2.0000      -1.514023       -41.1986
  17   2.0000      -1.218509       -33.1573
  18   2.0000      -1.181362       -32.1465
  19   2.0000      -1.105979       -30.0952
  20   2.0000      -1.092454       -29.7272
  21   2.0000      -0.943771       -25.6813
  22   2.0000      -0.845958       -23.0197
  23   2.0000      -0.812328       -22.1046
  24   2.0000      -0.746304       -20.3080
  25   2.0000      -0.684878       -18.6365
  26   2.0000      -0.658217       -17.9110
  27   2.0000      -0.620906       -16.8957
  28   2.0000      -0.614642       -16.7253
  29   2.0000      -0.593028       -16.1371
  30   2.0000      -0.586573       -15.9615
  31   2.0000      -0.505938       -13.7673
  32   2.0000      -0.487919       -13.2770
  33   2.0000      -0.482828       -13.1384
  34   2.0000      -0.465149       -12.6574
  35   2.0000      -0.458545       -12.4776
  36   2.0000      -0.445285       -12.1168
  37   2.0000      -0.381391       -10.3782
  38   0.0000       0.023655         0.6437
  39   0.0000       0.030720         0.8359
  40   0.0000       0.035657         0.9703
  41   0.0000       0.054328         1.4783
  42   0.0000       0.060523         1.6469

MULLIKEN ATOMIC CHARGES
-----------------------
   0 Cl:   -0.266908
   1 Cl:   -0.247961
   2 O :   -0.485046
   3 N :   -0.420260
   4 C :    0.753021
   5 C :    0.114635
   6 C :   -0.826257
   7 C :    0.020873
   8 H :    0.414938
   9 H :    0.434000
  10 H :    0.508965
Sum of atomic charges:    0.0000000

LOEWDIN ATOMIC CHARGES
----------------------
   0 Cl:    1.106363
   1 Cl:    1.071209
   2 O :    0.597592
   3 N :    0.299440
   4 C :   -0.807525
   5 C :   -1.272400
   6 C :    0.245394
   7 C :    0.000498
   8 H :   -0.553887
   9 H :   -0.339797
  10 H :   -0.346888

  Mayer bond orders larger than 0.100000
B(  0-Cl,  5-C ) :   0.9146 B(  1-Cl,  4-C ) :  -0.1099 B(  1-Cl,  5-C ) :   0.8499
B(  2-O ,  3-N ) :   0.7480 B(  2-O ,  4-C ) :   0.6892 B(  2-O ,  6-C ) :   0.1594
B(  3-N ,  6-C ) :   0.1462 B(  3-N ,  7-C ) :   1.4353 B(  4-C ,  5-C ) :   0.8951
B(  4-C ,  6-C ) :   1.3240 B(  4-C ,  7-C ) :  -0.3398 B(  5-C ,  8-H ) :   0.7661
B(  6-C ,  7-C ) :   1.3343 B(  6-C ,  9-H ) :   0.8421 B(  7-C , 10-H ) :   0.7620

MP2 TOTAL ENERGY:    -1203.184680024 Eh
FINAL SINGLE POINT ENERGY     -1203.184680023508

DIPOLE MOMENT
-------------
                                X             Y             Z
Electronic contribution:     -7.75909       1.21428       0.19662
Nuclear contribution   :      7.71085      -1.99611      -0.61198
                        -----------------------------------------
Total Dipole Moment    :     -0.04824      -0.78184      -0.41536
                        -----------------------------------------
Magnitude (a.u.)       :      0.88664
Magnitude (Debye)      :      2.25365

Rotational constants in cm-1:     0.079285     0.033353     0.026464
Rotational constants in MHz :  2376.909270   999.883461   793.382868

                             ****ORCA TERMINATED NORMALLY****
TOTAL RUN TIME: 0 days 0 hours 17 minutes 35 seconds 42 msec
