                         Program Version 5.0.4 -  RELEASE  -
|  1> !ri-mp2 aug-cc-pvqz aug-cc-pvqz/c tightscf
|  2> %pal nprocs 16 end
|  3>
|  4> * xyz 0 1
|  5> Cl   -2.933937   -0.850434   -0.000044
|  6> O    -0.346846   -0.549858   -0.000006
|  7> O     4.235353   -0.675671   -0.000125
|  8> N     3.080676   -0.335472   -0.000056
|  9> C     0.058308    1.657615    0.000110
| 10> C     0.637991    0.420462    0.000047
| 11> C    -1.349070    1.455584    0.000089
| 12> C    -1.524517    0.108140    0.000020
| 13> C     1.968174   -0.006252    0.000050
| 14> H     0.583129    2.596701    0.000164
| 15> H    -2.124310    2.199912    0.000120
| 16> *
| 17>
| 18>                          ****END OF INPUT****

CARTESIAN COORDINATES (ANGSTROEM)
---------------------------------
  Cl    -2.933937   -0.850434   -0.000044
  O     -0.346846   -0.549858   -0.000006
  O      4.235353   -0.675671   -0.000125
  N      3.080676   -0.335472   -0.000056
  C      0.058308    1.657615    0.000110
  C      0.637991    0.420462    0.000047
  C     -1.349070    1.455584    0.000089
  C     -1.524517    0.108140    0.000020
  C      1.968174   -0.006252    0.000050
  H      0.583129    2.596701    0.000164
  H     -2.124310    2.199912    0.000120

 Total Charge           Charge          ....    0
 Multiplicity           Mult            ....    1
 Number of Electrons    NEL             ....   72
 Basis Dimension        Dim             ....  816

ORBITAL ENERGIES
----------------

  NO   OCC          E(Eh)            E(eV)
   0   2.0000    -104.884673     -2854.0570
   1   2.0000     -20.672248      -562.5205
   2   2.0000     -20.580221      -560.0163
   3   2.0000     -15.752036      -428.6347
   4   2.0000     -11.390666      -309.9558
   5   2.0000     -11.357252      -309.0465
   6   2.0000     -11.321439      -308.0720
   7   2.0000     -11.289545      -307.2041
   8   2.0000     -11.272912      -306.7515
   9   2.0000     -10.609568      -288.7010
  10   2.0000      -8.076800      -219.7809
  11   2.0000      -8.074801      -219.7265
  12   2.0000      -8.074745      -219.7250
  13   2.0000      -1.513984       -41.1976
  14   2.0000      -1.505216       -40.9590
  15   2.0000      -1.232984       -33.5512
  16   2.0000      -1.189241       -32.3609
  17   2.0000      -1.139576       -31.0094
  18   2.0000      -1.048037       -28.5185
  19   2.0000      -0.886507       -24.1231
  20   2.0000      -0.837964       -22.8021
  21   2.0000      -0.799615       -21.7586
  22   2.0000      -0.734589       -19.9892
  23   2.0000      -0.704263       -19.1640
  24   2.0000      -0.679379       -18.4869
  25   2.0000      -0.675227       -18.3739
  26   2.0000      -0.674818       -18.3627
  27   2.0000      -0.630473       -17.1560
  28   2.0000      -0.616009       -16.7625
  29   2.0000      -0.598161       -16.2768
  30   2.0000      -0.531029       -14.4500
  31   2.0000      -0.500011       -13.6060
  32   2.0000      -0.462733       -12.5916
  33   2.0000      -0.425037       -11.5658
  34   2.0000      -0.405013       -11.0210
  35   2.0000      -0.331345        -9.0164
  36   0.0000       0.017041         0.4637
  37   0.0000       0.028965         0.7882
  38   0.0000       0.043725         1.1898
  39   0.0000       0.050784         1.3819
  40   0.0000       0.057585         1.5670

MULLIKEN ATOMIC CHARGES
-----------------------
   0 Cl:   -0.181264
   1 O :   -0.359549
   2 O :   -0.697189
   3 N :   -0.084134
   4 C :   -0.388175
   5 C :    0.167615
   6 C :   -0.342432
   7 C :    0.094165
   8 C :    0.922442
   9 H :    0.467624
  10 H :    0.400897
Sum of atomic charges:   -0.0000000

LOEWDIN ATOMIC CHARGES
----------------------
   0 Cl:    1.202270
   1 O :    0.741288
   2 O :    0.362175
   3 N :   -0.250169
   4 C :    0.282431
   5 C :   -0.545171
   6 C :    0.198051
   7 C :   -1.285729
   8 C :   -0.058398
   9 H :   -0.305875
  10 H :   -0.340872

  Mayer bond orders larger than 0.100000
B(  0-Cl,  6-C ) :  -0.1643 B(  0-Cl,  7-C ) :   0.8768 B(  1-O ,  5-C ) :   0.5536
B(  1-O ,  7-C ) :   0.8797 B(  2-O ,  3-N ) :   1.0957 B(  2-O ,  8-C ) :   0.2888
B(  3-N ,  8-C ) :   2.3350 B(  4-C ,  5-C ) :   1.4732 B(  4-C ,  6-C ) :   1.3076
B(  4-C ,  7-C ) :  -0.1212 B(  4-C ,  8-C ) :  -0.2213 B(  4-C ,  9-H ) :   0.7633
B(  5-C ,  6-C ) :  -0.3000 B(  5-C ,  7-C ) :  -0.1434 B(  5-C ,  8-C ) :   0.9029
B(  6-C ,  7-C ) :   1.3704 B(  6-C , 10-H ) :   0.8494

MP2 TOTAL ENERGY:     -855.979550278 Eh
FINAL SINGLE POINT ENERGY      -855.979550277994

DIPOLE MOMENT
-------------
                                X             Y             Z
Electronic contribution:     -4.32347      -4.39593      -0.00020
Nuclear contribution   :      2.57731       5.64517       0.00032
                        -----------------------------------------
Total Dipole Moment    :     -1.74617       1.24924       0.00012
                        -----------------------------------------
Magnitude (a.u.)       :      2.14702
Magnitude (Debye)      :      5.45729

Rotational constants in cm-1:     0.151270     0.020233     0.017846
Rotational constants in MHz :  4534.964825   606.578322   535.016682

                             ****ORCA TERMINATED NORMALLY****
TOTAL RUN TIME: 0 days 0 hours 20 minutes 40 seconds 44 msec
