                         Program Version 5.0.4 -  RELEASE  -
|  1> !ri-mp2 aug-cc-pvqz aug-cc-pvqz/c tightscf
|  2> %pal nprocs 16 end
|  3> %maxcore 3800
|  4>
|  5> * xyz 0 1
|  6> C      0.000000    0.000000   -0.758430
|  7> C     -0.754120    0.903797   -1.510292
|  8> C      0.754120   -0.903797   -1.510292
|  9> N     -0.757576    0.915186   -2.840582
| 10> C      0.000000    0.000000   -3.441454
| 11> N      0.757576   -0.915186   -2.840582
| 12> C      0.000000    0.000000    0.718089
| 13> C      0.000000    1.201904    1.434398
| 14> C     -0.000714    1.201397    2.822810
| 15> C      0.000000    0.000000    3.522386
| 16> C      0.000714   -1.201397    2.822810
| 17> C      0.000000   -1.201904    1.434398
| 18> H      0.000000    0.000000   -4.524887
| 19> H     -1.389638    1.632242   -1.018874
| 20> H      1.389638   -1.632242   -1.018874
| 21> H     -0.006602   -2.140956    3.358639
| 22> H      0.000000    0.000000    4.603795
| 23> H      0.006602    2.140956    3.358639
| 24> H      0.024377    2.142989    0.901579
| 25> H     -0.024377   -2.142989    0.901579
| 26> *
| 27>
| 28>                          ****END OF INPUT****

CARTESIAN COORDINATES (ANGSTROEM)
---------------------------------
  C      0.000000    0.000000   -0.758430
  C     -0.754120    0.903797   -1.510292
  C      0.754120   -0.903797   -1.510292
  N     -0.757576    0.915186   -2.840582
  C      0.000000    0.000000   -3.441454
  N      0.757576   -0.915186   -2.840582
  C      0.000000    0.000000    0.718089
  C      0.000000    1.201904    1.434398
  C     -0.000714    1.201397    2.822810
  C      0.000000    0.000000    3.522386
  C      0.000714   -1.201397    2.822810
  C      0.000000   -1.201904    1.434398
  H      0.000000    0.000000   -4.524887
  H     -1.389638    1.632242   -1.018874
  H      1.389638   -1.632242   -1.018874
  H     -0.006602   -2.140956    3.358639
  H      0.000000    0.000000    4.603795
  H      0.006602    2.140956    3.358639
  H      0.024377    2.142989    0.901579
  H     -0.024377   -2.142989    0.901579

 Total Charge           Charge          ....    0
 Multiplicity           Mult            ....    1
 Number of Electrons    NEL             ....   82
 Basis Dimension        Dim             .... 1328

ORBITAL ENERGIES
----------------

  NO   OCC          E(Eh)            E(eV)
   0   2.0000     -15.572897      -423.7601
   1   2.0000     -15.572871      -423.7594
   2   2.0000     -11.311630      -307.8051
   3   2.0000     -11.297095      -307.4096
   4   2.0000     -11.297078      -307.4091
   5   2.0000     -11.260731      -306.4201
   6   2.0000     -11.258037      -306.3468
   7   2.0000     -11.246706      -306.0384
   8   2.0000     -11.246675      -306.0376
   9   2.0000     -11.245556      -306.0071
  10   2.0000     -11.245270      -305.9994
  11   2.0000     -11.243509      -305.9514
  12   2.0000      -1.316103       -35.8130
  13   2.0000      -1.197386       -32.5825
  14   2.0000      -1.174560       -31.9614
  15   2.0000      -1.098980       -29.9048
  16   2.0000      -1.029840       -28.0234
  17   2.0000      -1.014251       -27.5992
  18   2.0000      -0.901771       -24.5384
  19   2.0000      -0.900118       -24.4935
  20   2.0000      -0.837608       -22.7925
  21   2.0000      -0.822854       -22.3910
  22   2.0000      -0.742540       -20.2055
  23   2.0000      -0.713939       -19.4273
  24   2.0000      -0.709789       -19.3144
  25   2.0000      -0.663892       -18.0654
  26   2.0000      -0.635950       -17.3051
  27   2.0000      -0.610797       -16.6206
  28   2.0000      -0.603172       -16.4131
  29   2.0000      -0.591681       -16.1005
  30   2.0000      -0.587535       -15.9876
  31   2.0000      -0.579576       -15.7711
  32   2.0000      -0.526041       -14.3143
  33   2.0000      -0.520070       -14.1518
  34   2.0000      -0.507314       -13.8047
  35   2.0000      -0.471532       -12.8310
  36   2.0000      -0.424554       -11.5527
  37   2.0000      -0.416456       -11.3323
  38   2.0000      -0.399963       -10.8835
  39   2.0000      -0.351422        -9.5627
  40   2.0000      -0.323151        -8.7934
  41   0.0000       0.020695         0.5631
  42   0.0000       0.026103         0.7103
  43   0.0000       0.029916         0.8141
  44   0.0000       0.036249         0.9864
  45   0.0000       0.036986         1.0064

MULLIKEN ATOMIC CHARGES
-----------------------
   0 C :    0.254259
   1 C :   -0.114518
   2 C :   -0.114421
   3 N :   -0.700043
   4 C :   -0.349516
   5 N :   -0.700080
   6 C :    0.594309
   7 C :   -0.397602
   8 C :   -0.373895
   9 C :   -0.356208
  10 C :   -0.373986
  11 C :   -0.397781
  12 H :    0.643616
  13 H :    0.472394
  14 H :    0.472348
  15 H :    0.247753
  16 H :    0.347231
  17 H :    0.247642
  18 H :    0.299275
  19 H :    0.299222
Sum of atomic charges:   -0.0000000

LOEWDIN ATOMIC CHARGES
----------------------
   0 C :   -0.113866
   1 C :    0.073169
   2 C :    0.073169
   3 N :    0.601501
   4 C :   -0.180454
   5 N :    0.601502
   6 C :   -0.111052
   7 C :    0.338337
   8 C :    0.353452
   9 C :    0.344274
  10 C :    0.353452
  11 C :    0.338337
  12 H :   -0.382355
  13 H :   -0.338797
  14 H :   -0.338797
  15 H :   -0.319955
  16 H :   -0.322730
  17 H :   -0.319955
  18 H :   -0.324616
  19 H :   -0.324617

  Mayer bond orders larger than 0.100000
B(  0-C ,  1-C ) :   1.3322 B(  0-C ,  2-C ) :   1.3322 B(  0-C ,  6-C ) :   0.5293
B(  0-C ,  7-C ) :  -0.4068 B(  0-C , 11-C ) :  -0.4069 B(  1-C ,  3-N ) :   0.9749
B(  1-C ,  6-C ) :  -0.2836 B(  1-C , 13-H ) :   0.8481 B(  2-C ,  5-N ) :   0.9747
B(  2-C ,  6-C ) :  -0.2835 B(  2-C , 14-H ) :   0.8481 B(  3-N ,  4-C ) :   1.4650
B(  4-C ,  5-N ) :   1.4650 B(  4-C , 12-H ) :   0.6254 B(  6-C ,  7-C ) :   1.1457
B(  6-C ,  8-C ) :  -0.2841 B(  6-C , 10-C ) :  -0.2840 B(  6-C , 11-C ) :   1.1456
B(  7-C ,  8-C ) :   1.3169 B(  7-C , 10-C ) :   0.1360 B(  7-C , 11-C ) :   0.1318
B(  7-C , 17-H ) :  -0.1224 B(  7-C , 18-H ) :   0.9742 B(  8-C ,  9-C ) :   1.1789
B(  8-C , 11-C ) :   0.1360 B(  8-C , 17-H ) :   1.1259 B(  9-C , 10-C ) :   1.1790
B(  9-C , 16-H ) :   0.9899 B( 10-C , 11-C ) :   1.3172 B( 10-C , 15-H ) :   1.1257
B( 11-C , 15-H ) :  -0.1224 B( 11-C , 19-H ) :   0.9743

MP2 TOTAL ENERGY:     -494.521999593 Eh
FINAL SINGLE POINT ENERGY      -494.521999593258

DIPOLE MOMENT
-------------
                                X             Y             Z
Electronic contribution:     -0.00000       0.00000      -5.33602
Nuclear contribution   :      0.00000      -0.00000       6.43688
                        -----------------------------------------
Total Dipole Moment    :     -0.00000       0.00000       1.10087
                        -----------------------------------------
Magnitude (a.u.)       :      1.10087
Magnitude (Debye)      :      2.79818

Rotational constants in cm-1:     0.099184     0.018444     0.016140
Rotational constants in MHz :  2973.463646   552.934571   483.853809

                             ****ORCA TERMINATED NORMALLY****
TOTAL RUN TIME: 0 days 1 hours 50 minutes 3 seconds 832 msec
