                         Program Version 5.0.4 -  RELEASE  -
|  1> !ri-mp2 aug-cc-pvqz aug-cc-pvqz/c tightscf
|  2> %pal nprocs 16 end
|  3>
|  4> * xyz 0 1
|  5> S     -1.381222    0.952356    0.131158
|  6> S     -1.060922   -1.105763   -0.180184
|  7> O      0.561045   -1.063545    0.339172
|  8> C      1.148044    0.146398   -0.006454
|  9> C      2.633844    0.082759   -0.038161
| 10> C      0.357752    1.202401   -0.188373
| 11> H      2.975948   -0.613159   -0.805738
| 12> H      3.010492   -0.275655    0.922250
| 13> H      3.055424    1.065713   -0.234875
| 14> H      0.706231    2.196611   -0.412681
| 15> *
| 16>
| 17>                          ****END OF INPUT****

CARTESIAN COORDINATES (ANGSTROEM)
---------------------------------
  S     -1.381222    0.952356    0.131158
  S     -1.060922   -1.105763   -0.180184
  O      0.561045   -1.063545    0.339172
  C      1.148044    0.146398   -0.006454
  C      2.633844    0.082759   -0.038161
  C      0.357752    1.202401   -0.188373
  H      2.975948   -0.613159   -0.805738
  H      3.010492   -0.275655    0.922250
  H      3.055424    1.065713   -0.234875
  H      0.706231    2.196611   -0.412681

 Total Charge           Charge          ....    0
 Multiplicity           Mult            ....    1
 Number of Electrons    NEL             ....   62
 Basis Dimension        Dim             ....  672

ORBITAL ENERGIES
----------------

  NO   OCC          E(Eh)            E(eV)
   0   2.0000     -92.032357     -2504.3278
   1   2.0000     -91.991962     -2503.2286
   2   2.0000     -20.616458      -561.0023
   3   2.0000     -11.321543      -308.0748
   4   2.0000     -11.264264      -306.5162
   5   2.0000     -11.245305      -306.0003
   6   2.0000      -9.026318      -245.6186
   7   2.0000      -8.991571      -244.6731
   8   2.0000      -6.707229      -182.5130
   9   2.0000      -6.706103      -182.4823
  10   2.0000      -6.704348      -182.4346
  11   2.0000      -6.672774      -181.5754
  12   2.0000      -6.671901      -181.5517
  13   2.0000      -6.670577      -181.5156
  14   2.0000      -1.419418       -38.6243
  15   2.0000      -1.095465       -29.8091
  16   2.0000      -1.057304       -28.7707
  17   2.0000      -0.950050       -25.8522
  18   2.0000      -0.850784       -23.1510
  19   2.0000      -0.773040       -21.0355
  20   2.0000      -0.670580       -18.2474
  21   2.0000      -0.646629       -17.5957
  22   2.0000      -0.620198       -16.8764
  23   2.0000      -0.572850       -15.5880
  24   2.0000      -0.571932       -15.5631
  25   2.0000      -0.538611       -14.6564
  26   2.0000      -0.510297       -13.8859
  27   2.0000      -0.480542       -13.0762
  28   2.0000      -0.444144       -12.0858
  29   2.0000      -0.385976       -10.5029
  30   2.0000      -0.305950        -8.3253
  31   0.0000       0.024206         0.6587
  32   0.0000       0.031069         0.8454
  33   0.0000       0.040946         1.1142
  34   0.0000       0.042622         1.1598
  35   0.0000       0.051535         1.4023

MULLIKEN ATOMIC CHARGES
-----------------------
   0 S :    0.013653
   1 S :    0.238197
   2 O :   -0.666280
   3 C :    0.660839
   4 C :   -0.698701
   5 C :   -0.733061
   6 H :    0.282745
   7 H :    0.287787
   8 H :    0.231401
   9 H :    0.383419
Sum of atomic charges:   -0.0000000

LOEWDIN ATOMIC CHARGES
----------------------
   0 S :    0.737514
   1 S :    0.440853
   2 O :    0.285002
   3 C :   -0.758334
   4 C :    0.864230
   5 C :   -0.232188
   6 H :   -0.294155
   7 H :   -0.295553
   8 H :   -0.313299
   9 H :   -0.434069

  Mayer bond orders larger than 0.100000
B(  0-S ,  1-S ) :   1.0947 B(  0-S ,  3-C ) :  -0.2049 B(  0-S ,  5-C ) :   1.0416
B(  1-S ,  2-O ) :   0.7555 B(  2-O ,  3-C ) :   0.6510 B(  2-O ,  5-C ) :   0.1234
B(  3-C ,  4-C ) :   0.7129 B(  3-C ,  5-C ) :   1.4814 B(  4-C ,  6-H ) :   0.9398
B(  4-C ,  7-H ) :   0.9442 B(  4-C ,  8-H ) :   1.0054 B(  5-C ,  9-H ) :   0.8598

MP2 TOTAL ENERGY:     -987.075692741 Eh
FINAL SINGLE POINT ENERGY      -987.075692741005

DIPOLE MOMENT
-------------
                                X             Y             Z
Electronic contribution:     -8.78640      -1.82535       0.31911
Nuclear contribution   :      9.52604       2.28792      -0.50786
                        -----------------------------------------
Total Dipole Moment    :      0.73964       0.46257      -0.18874
                        -----------------------------------------
Magnitude (a.u.)       :      0.89256
Magnitude (Debye)      :      2.26872

Rotational constants in cm-1:     0.145243     0.071489     0.049485
Rotational constants in MHz :  4354.288704  2143.200720  1483.513064

                             ****ORCA TERMINATED NORMALLY****
TOTAL RUN TIME: 0 days 0 hours 15 minutes 34 seconds 754 msec
