                         Program Version 5.0.4 -  RELEASE  -
|  1> !ri-mp2 aug-cc-pvqz aug-cc-pvqz/c tightscf
|  2> %pal nprocs 16 end
|  3>
|  4> * xyz 0 1
|  5> Cl   -2.273721   -1.145016    0.000007
|  6> N    -0.545925    0.931210   -0.000361
|  7> N     0.780358    1.189764   -0.000206
|  8> N     0.415924   -1.046068    0.000109
|  9> C    -1.507346    2.016770    0.000250
| 10> C    -0.725032   -0.407416   -0.000057
| 11> C     1.323326   -0.022938    0.000027
| 12> C     2.726873   -0.228945    0.000057
| 13> C     3.911599   -0.413981    0.000075
| 14> H    -1.359292    2.633377   -0.883814
| 15> H    -2.508410    1.598147   -0.006840
| 16> H    -1.368588    2.625200    0.891548
| 17> H     4.960520   -0.576746    0.000087
| 18> *
| 19>
| 20>                          ****END OF INPUT****

CARTESIAN COORDINATES (ANGSTROEM)
---------------------------------
  Cl    -2.273721   -1.145016    0.000007
  N     -0.545925    0.931210   -0.000361
  N      0.780358    1.189764   -0.000206
  N      0.415924   -1.046068    0.000109
  C     -1.507346    2.016770    0.000250
  C     -0.725032   -0.407416   -0.000057
  C      1.323326   -0.022938    0.000027
  C      2.726873   -0.228945    0.000057
  C      3.911599   -0.413981    0.000075
  H     -1.359292    2.633377   -0.883814
  H     -2.508410    1.598147   -0.006840
  H     -1.368588    2.625200    0.891548
  H      4.960520   -0.576746    0.000087

 Total Charge           Charge          ....    0
 Multiplicity           Mult            ....    1
 Number of Electrons    NEL             ....   72
 Basis Dimension        Dim             ....  908

ORBITAL ENERGIES
----------------

  NO   OCC          E(Eh)            E(eV)
   0   2.0000    -104.881129     -2853.9606
   1   2.0000     -15.675109      -426.5414
   2   2.0000     -15.613074      -424.8533
   3   2.0000     -15.577237      -423.8782
   4   2.0000     -11.386287      -309.8366
   5   2.0000     -11.328032      -308.2514
   6   2.0000     -11.294065      -307.3271
   7   2.0000     -11.247335      -306.0555
   8   2.0000     -11.242777      -305.9315
   9   2.0000     -10.606208      -288.6096
  10   2.0000      -8.073410      -219.6887
  11   2.0000      -8.071428      -219.6347
  12   2.0000      -8.071399      -219.6339
  13   2.0000      -1.443493       -39.2794
  14   2.0000      -1.241317       -33.7780
  15   2.0000      -1.199955       -32.6524
  16   2.0000      -1.112706       -30.2783
  17   2.0000      -1.051173       -28.6039
  18   2.0000      -0.988305       -26.8931
  19   2.0000      -0.888179       -24.1686
  20   2.0000      -0.818625       -22.2759
  21   2.0000      -0.760781       -20.7019
  22   2.0000      -0.715070       -19.4580
  23   2.0000      -0.697515       -18.9803
  24   2.0000      -0.656545       -17.8655
  25   2.0000      -0.627390       -17.0722
  26   2.0000      -0.599524       -16.3139
  27   2.0000      -0.599460       -16.3121
  28   2.0000      -0.532030       -14.4773
  29   2.0000      -0.526074       -14.3152
  30   2.0000      -0.496947       -13.5226
  31   2.0000      -0.465336       -12.6624
  32   2.0000      -0.457428       -12.4472
  33   2.0000      -0.413279       -11.2459
  34   2.0000      -0.413256       -11.2453
  35   2.0000      -0.351952        -9.5771
  36   0.0000       0.022140         0.6025
  37   0.0000       0.028449         0.7741
  38   0.0000       0.038700         1.0531
  39   0.0000       0.038921         1.0591
  40   0.0000       0.053007         1.4424

MULLIKEN ATOMIC CHARGES
-----------------------
   0 Cl:   -0.105414
   1 N :    0.188690
   2 N :   -0.595966
   3 N :   -0.481802
   4 C :   -0.833514
   5 C :    0.453585
   6 C :    0.546364
   7 C :    0.177548
   8 C :   -0.686969
   9 H :    0.309862
  10 H :    0.352068
  11 H :    0.310442
  12 H :    0.365103
Sum of atomic charges:   -0.0000000

LOEWDIN ATOMIC CHARGES
----------------------
   0 Cl:    1.242076
   1 N :    0.024136
   2 N :    0.456165
   3 N :    0.441768
   4 C :    0.771503
   5 C :   -1.340256
   6 C :   -0.797042
   7 C :    0.017063
   8 C :    0.563015
   9 H :   -0.284148
  10 H :   -0.356800
  11 H :   -0.283774
  12 H :   -0.453707

  Mayer bond orders larger than 0.100000
B(  0-Cl,  5-C ) :   0.8433 B(  1-N ,  2-N ) :   0.4189 B(  1-N ,  4-C ) :   0.6442
B(  1-N ,  5-C ) :   1.3254 B(  2-N ,  3-N ) :   0.1133 B(  2-N ,  6-C ) :   1.3439
B(  3-N ,  5-C ) :   1.4642 B(  3-N ,  6-C ) :   1.2090 B(  3-N ,  7-C ) :  -0.1958
B(  4-C ,  9-H ) :   0.9487 B(  4-C , 10-H ) :   0.8809 B(  4-C , 11-H ) :   0.9483
B(  6-C ,  7-C ) :   0.6921 B(  6-C ,  8-C ) :  -0.2662 B(  7-C ,  8-C ) :   2.4886
B(  7-C , 12-H ) :  -0.2441 B(  8-C , 12-H ) :   1.1223

MP2 TOTAL ENERGY:     -816.275787599 Eh
FINAL SINGLE POINT ENERGY      -816.275787598852

DIPOLE MOMENT
-------------
                                X             Y             Z
Electronic contribution:     -3.63831      -6.80057      -0.00095
Nuclear contribution   :      2.84746       7.56952       0.00092
                        -----------------------------------------
Total Dipole Moment    :     -0.79085       0.76894      -0.00002
                        -----------------------------------------
Magnitude (a.u.)       :      1.10305
Magnitude (Debye)      :      2.80373

Rotational constants in cm-1:     0.102446     0.029925     0.023261
Rotational constants in MHz :  3071.253252   897.129563   697.360162

                             ****ORCA TERMINATED NORMALLY****
TOTAL RUN TIME: 0 days 0 hours 26 minutes 51 seconds 464 msec
