                         Program Version 5.0.4 -  RELEASE  -
|  1> !ri-mp2 aug-cc-pvqz aug-cc-pvqz/c tightscf
|  2> %pal nprocs 16 end
|  3>
|  4> * xyz 0 1
|  5> N     -1.139760   -0.058016    0.000000
|  6> C      0.000000    0.597494    0.000000
|  7> C      0.176443    2.072182    0.000000
|  8> H      0.723233    2.405707    0.882916
|  9> H      0.723233    2.405707   -0.882916
| 10> H     -0.803151    2.542233    0.000000
| 11> N      0.988808   -0.317104    0.000000
| 12> N      0.447343   -1.553756    0.000000
| 13> N     -0.823573   -1.381071    0.000000
| 14> H      1.988304   -0.202077    0.000000
| 15> *
| 16>
| 17>                          ****END OF INPUT****

CARTESIAN COORDINATES (ANGSTROEM)
---------------------------------
  N     -1.139760   -0.058016    0.000000
  C      0.000000    0.597494    0.000000
  C      0.176443    2.072182    0.000000
  H      0.723233    2.405707    0.882916
  H      0.723233    2.405707   -0.882916
  H     -0.803151    2.542233    0.000000
  N      0.988808   -0.317104    0.000000
  N      0.447343   -1.553756    0.000000
  N     -0.823573   -1.381071    0.000000
  H      1.988304   -0.202077    0.000000

 Total Charge           Charge          ....    0
 Multiplicity           Mult            ....    1
 Number of Electrons    NEL             ....   44
 Basis Dimension        Dim             ....  664

ORBITAL ENERGIES
----------------

  NO   OCC          E(Eh)            E(eV)
   0   2.0000     -15.667903      -426.3453
   1   2.0000     -15.653868      -425.9634
   2   2.0000     -15.639326      -425.5677
   3   2.0000     -15.589991      -424.2252
   4   2.0000     -11.335436      -308.4529
   5   2.0000     -11.265323      -306.5450
   6   2.0000      -1.485980       -40.4356
   7   2.0000      -1.245634       -33.8954
   8   2.0000      -1.198884       -32.6233
   9   2.0000      -1.021617       -27.7996
  10   2.0000      -0.895214       -24.3600
  11   2.0000      -0.862269       -23.4635
  12   2.0000      -0.761763       -20.7286
  13   2.0000      -0.680611       -18.5204
  14   2.0000      -0.636209       -17.3121
  15   2.0000      -0.601304       -16.3623
  16   2.0000      -0.598162       -16.2768
  17   2.0000      -0.555914       -15.1272
  18   2.0000      -0.468479       -12.7480
  19   2.0000      -0.463834       -12.6216
  20   2.0000      -0.449690       -12.2367
  21   2.0000      -0.403368       -10.9762
  22   0.0000       0.013681         0.3723
  23   0.0000       0.029745         0.8094
  24   0.0000       0.032805         0.8927
  25   0.0000       0.046663         1.2698
  26   0.0000       0.063040         1.7154

MULLIKEN ATOMIC CHARGES
-----------------------
   0 N :   -0.362844
   1 C :    0.448034
   2 C :   -0.647911
   3 H :    0.276518
   4 H :    0.276518
   5 H :    0.303590
   6 N :   -0.314842
   7 N :   -0.143759
   8 N :   -0.161477
   9 H :    0.326173
Sum of atomic charges:   -0.0000000

LOEWDIN ATOMIC CHARGES
----------------------
   0 N :    0.303249
   1 C :   -0.588068
   2 C :    0.918362
   3 H :   -0.289605
   4 H :   -0.289605
   5 H :   -0.311941
   6 N :    0.529157
   7 N :    0.175124
   8 N :    0.027141
   9 H :   -0.473815

  Mayer bond orders larger than 0.100000
B(  0-N ,  1-C ) :   1.4454 B(  0-N ,  8-N ) :   0.9877 B(  1-C ,  2-C ) :   0.8392
B(  1-C ,  6-N ) :   1.1587 B(  2-C ,  3-H ) :   0.9330 B(  2-C ,  4-H ) :   0.9330
B(  2-C ,  5-H ) :   0.9541 B(  6-N ,  7-N ) :   0.8978 B(  6-N ,  9-H ) :   0.8965
B(  7-N ,  8-N ) :   1.4765

MP2 TOTAL ENERGY:     -297.142412883 Eh
FINAL SINGLE POINT ENERGY      -297.142412882731

DIPOLE MOMENT
-------------
                                X             Y             Z
Electronic contribution:     -0.91074      -5.34615       0.00000
Nuclear contribution   :      2.58330       7.00942       0.00000
                        -----------------------------------------
Total Dipole Moment    :      1.67256       1.66327       0.00000
                        -----------------------------------------
Magnitude (a.u.)       :      2.35880
Magnitude (Debye)      :      5.99558

Rotational constants in cm-1:     0.330446     0.122351     0.090802
Rotational constants in MHz :  9906.535513  3667.999992  2722.182523

                             ****ORCA TERMINATED NORMALLY****
TOTAL RUN TIME: 0 days 0 hours 9 minutes 31 seconds 682 msec
