                         Program Version 5.0.4 -  RELEASE  -
|  1> !ri-mp2 aug-cc-pvqz aug-cc-pvqz/c tightscf
|  2> %pal nprocs 16 end
|  3>
|  4> * xyz 0 1
|  5> S     -1.220858    0.001998    0.091689
|  6> O     -0.018734   -1.194169   -0.271412
|  7> N      1.276449   -0.701292    0.081978
|  8> C      0.008231    1.252585   -0.070218
|  9> C      1.225589    0.721438   -0.045189
| 10> H      1.431922   -0.961286    1.061342
| 11> H     -0.249835    2.295344   -0.144943
| 12> H      2.163454    1.252241   -0.093527
| 13> *
| 14>
| 15>                          ****END OF INPUT****

CARTESIAN COORDINATES (ANGSTROEM)
---------------------------------
  S     -1.220858    0.001998    0.091689
  O     -0.018734   -1.194169   -0.271412
  N      1.276449   -0.701292    0.081978
  C      0.008231    1.252585   -0.070218
  C      1.225589    0.721438   -0.045189
  H      1.431922   -0.961286    1.061342
  H     -0.249835    2.295344   -0.144943
  H      2.163454    1.252241   -0.093527

 Total Charge           Charge          ....    0
 Multiplicity           Mult            ....    1
 Number of Electrons    NEL             ....   46
 Basis Dimension        Dim             ....  542

ORBITAL ENERGIES
----------------

  NO   OCC          E(Eh)            E(eV)
   0   2.0000     -92.015079     -2503.8576
   1   2.0000     -20.620635      -561.1160
   2   2.0000     -15.636678      -425.4956
   3   2.0000     -11.285854      -307.1037
   4   2.0000     -11.275479      -306.8214
   5   2.0000      -9.011326      -245.2106
   6   2.0000      -6.692572      -182.1141
   7   2.0000      -6.691448      -182.0836
   8   2.0000      -6.690073      -182.0461
   9   2.0000      -1.427288       -38.8385
  10   2.0000      -1.152589       -31.3635
  11   2.0000      -1.079801       -29.3829
  12   2.0000      -0.889510       -24.2048
  13   2.0000      -0.802143       -21.8274
  14   2.0000      -0.726623       -19.7724
  15   2.0000      -0.681459       -18.5434
  16   2.0000      -0.610440       -16.6109
  17   2.0000      -0.576963       -15.7000
  18   2.0000      -0.535497       -14.5716
  19   2.0000      -0.516515       -14.0551
  20   2.0000      -0.465411       -12.6645
  21   2.0000      -0.427244       -11.6259
  22   2.0000      -0.316370        -8.6089
  23   0.0000       0.022960         0.6248
  24   0.0000       0.030976         0.8429
  25   0.0000       0.037963         1.0330
  26   0.0000       0.057701         1.5701
  27   0.0000       0.065015         1.7691

MULLIKEN ATOMIC CHARGES
-----------------------
   0 S :    0.407908
   1 O :   -0.671668
   2 N :   -0.125968
   3 C :   -0.608596
   4 C :   -0.244180
   5 H :    0.270501
   6 H :    0.445633
   7 H :    0.526370
Sum of atomic charges:   -0.0000000

LOEWDIN ATOMIC CHARGES
----------------------
   0 S :    0.909735
   1 O :    0.176605
   2 N :    0.402058
   3 C :   -0.134339
   4 C :   -0.002425
   5 H :   -0.587199
   6 H :   -0.422375
   7 H :   -0.342061

  Mayer bond orders larger than 0.100000
B(  0-S ,  1-O ) :   0.8045 B(  0-S ,  3-C ) :   0.9705 B(  1-O ,  2-N ) :   0.7065
B(  2-N ,  4-C ) :   0.9666 B(  2-N ,  5-H ) :   0.8819 B(  3-C ,  4-C ) :   1.7222
B(  3-C ,  6-H ) :   0.8112 B(  4-C ,  7-H ) :   0.7173

MP2 TOTAL ENERGY:     -605.311050146 Eh
FINAL SINGLE POINT ENERGY      -605.311050146279

DIPOLE MOMENT
-------------
                                X             Y             Z
Electronic contribution:     -2.92841      -1.50707      -0.20596
Nuclear contribution   :      3.28690       2.48504       0.79132
                        -----------------------------------------
Total Dipole Moment    :      0.35849       0.97796       0.58537
                        -----------------------------------------
Magnitude (a.u.)       :      1.19481
Magnitude (Debye)      :      3.03697

Rotational constants in cm-1:     0.258192     0.171757     0.106707
Rotational constants in MHz :  7740.413509  5149.134641  3199.009830

                             ****ORCA TERMINATED NORMALLY****
TOTAL RUN TIME: 0 days 0 hours 6 minutes 7 seconds 96 msec
