                         Program Version 5.0.4 -  RELEASE  -
|  1> !ri-mp2 aug-cc-pvqz aug-cc-pvqz/c tightscf
|  2> %pal nprocs 16 end
|  3>
|  4> * xyz 0 1
|  5> N     2.935965   -0.304877   -0.073828
|  6> C     1.606186    0.090118    0.012997
|  7> S     0.316726   -1.115816   -0.018860
|  8> C    -0.949684    0.127458   -0.004415
|  9> S    -2.581806   -0.148817    0.010440
| 10> C     1.075661    1.327803    0.016693
| 11> N    -0.317561    1.323933   -0.009342
| 12> H     3.193890   -1.060264    0.544728
| 13> H     3.594248    0.457458   -0.006269
| 14> H     1.603851    2.266439    0.028808
| 15> H    -0.872523    2.164827   -0.002006
| 16> *
| 17>
| 18>                          ****END OF INPUT****

CARTESIAN COORDINATES (ANGSTROEM)
---------------------------------
  N      2.935965   -0.304877   -0.073828
  C      1.606186    0.090118    0.012997
  S      0.316726   -1.115816   -0.018860
  C     -0.949684    0.127458   -0.004415
  S     -2.581806   -0.148817    0.010440
  C      1.075661    1.327803    0.016693
  N     -0.317561    1.323933   -0.009342
  H      3.193890   -1.060264    0.544728
  H      3.594248    0.457458   -0.006269
  H      1.603851    2.266439    0.028808
  H     -0.872523    2.164827   -0.002006

 Total Charge           Charge          ....    0
 Multiplicity           Mult            ....    1
 Number of Electrons    NEL             ....   68
 Basis Dimension        Dim             ....  752

ORBITAL ENERGIES
----------------

  NO   OCC          E(Eh)            E(eV)
   0   2.0000     -92.004854     -2503.5794
   1   2.0000     -91.898793     -2500.6933
   2   2.0000     -15.637690      -425.5232
   3   2.0000     -15.598031      -424.4440
   4   2.0000     -11.374554      -309.5173
   5   2.0000     -11.326115      -308.1993
   6   2.0000     -11.288765      -307.1829
   7   2.0000      -9.006548      -245.0806
   8   2.0000      -8.902619      -242.2526
   9   2.0000      -6.687633      -181.9797
  10   2.0000      -6.686968      -181.9616
  11   2.0000      -6.686120      -181.9386
  12   2.0000      -6.584381      -179.1701
  13   2.0000      -6.582555      -179.1204
  14   2.0000      -6.581994      -179.1052
  15   2.0000      -1.330169       -36.1957
  16   2.0000      -1.246391       -33.9160
  17   2.0000      -1.073394       -29.2085
  18   2.0000      -1.055758       -28.7286
  19   2.0000      -0.931056       -25.3353
  20   2.0000      -0.821024       -22.3412
  21   2.0000      -0.814555       -22.1652
  22   2.0000      -0.731047       -19.8928
  23   2.0000      -0.687120       -18.6975
  24   2.0000      -0.669166       -18.2089
  25   2.0000      -0.615759       -16.7556
  26   2.0000      -0.598900       -16.2969
  27   2.0000      -0.529172       -14.3995
  28   2.0000      -0.510280       -13.8854
  29   2.0000      -0.499983       -13.6052
  30   2.0000      -0.421453       -11.4683
  31   2.0000      -0.385380       -10.4867
  32   2.0000      -0.327105        -8.9010
  33   2.0000      -0.288912        -7.8617
  34   0.0000       0.012830         0.3491
  35   0.0000       0.024076         0.6551
  36   0.0000       0.035652         0.9701
  37   0.0000       0.049395         1.3441
  38   0.0000       0.056203         1.5294

MULLIKEN ATOMIC CHARGES
-----------------------
   0 N :   -0.722908
   1 C :   -0.011420
   2 S :    0.372347
   3 C :   -0.214239
   4 S :   -0.200919
   5 C :   -0.151697
   6 N :   -0.260016
   7 H :    0.305382
   8 H :    0.310434
   9 H :    0.449234
  10 H :    0.123803
Sum of atomic charges:   -0.0000000

LOEWDIN ATOMIC CHARGES
----------------------
   0 N :    1.185601
   1 C :   -0.656824
   2 S :    1.263069
   3 C :   -1.480721
   4 S :    0.881230
   5 C :    0.096810
   6 N :    0.583750
   7 H :   -0.524544
   8 H :   -0.518322
   9 H :   -0.317330
  10 H :   -0.512720

  Mayer bond orders larger than 0.100000
B(  0-N ,  1-C ) :   0.9707 B(  0-N ,  7-H ) :   0.8851 B(  0-N ,  8-H ) :   0.8701
B(  1-C ,  2-S ) :   1.0269 B(  1-C ,  5-C ) :   1.6872 B(  2-S ,  3-C ) :   1.1603
B(  3-C ,  4-S ) :   1.4200 B(  3-C ,  6-N ) :   1.0442 B(  5-C ,  6-N ) :   0.9030
B(  5-C ,  9-H ) :   0.8255 B(  6-N , 10-H ) :   1.1421

MP2 TOTAL ENERGY:    -1021.338351984 Eh
FINAL SINGLE POINT ENERGY     -1021.338351983802

DIPOLE MOMENT
-------------
                                X             Y             Z
Electronic contribution:     -4.93542      -2.65694      -0.16190
Nuclear contribution   :      7.34644       3.74190       0.54584
                        -----------------------------------------
Total Dipole Moment    :      2.41102       1.08496       0.38394
                        -----------------------------------------
Magnitude (a.u.)       :      2.67163
Magnitude (Debye)      :      6.79073

Rotational constants in cm-1:     0.169474     0.040003     0.032412
Rotational constants in MHz :  5080.717017  1199.250110   971.674519

                             ****ORCA TERMINATED NORMALLY****
TOTAL RUN TIME: 0 days 0 hours 17 minutes 28 seconds 219 msec
