                         Program Version 5.0.4 -  RELEASE  -
|  1> !ri-mp2 aug-cc-pvqz aug-cc-pvqz/c tightscf
|  2> %pal nprocs 16 end
|  3>
|  4> * xyz 0 1
|  5> Cl   -2.472282   -0.267612   -0.000030
|  6> S     0.639929   -1.110653    0.000024
|  7> N     1.179481    1.352505   -0.000015
|  8> N     2.252013   -0.695943   -0.000013
|  9> C     0.152322    0.548818    0.000016
| 10> C     2.324073    0.610198   -0.000029
| 11> C    -1.251803    1.057260    0.000047
| 12> H     3.286720    1.101720   -0.000055
| 13> H    -1.432399    1.662317   -0.884472
| 14> H    -1.432404    1.662208    0.884642
| 15> *
| 16>
| 17>                          ****END OF INPUT****

CARTESIAN COORDINATES (ANGSTROEM)
---------------------------------
  Cl    -2.472282   -0.267612   -0.000030
  S      0.639929   -1.110653    0.000024
  N      1.179481    1.352505   -0.000015
  N      2.252013   -0.695943   -0.000013
  C      0.152322    0.548818    0.000016
  C      2.324073    0.610198   -0.000029
  C     -1.251803    1.057260    0.000047
  H      3.286720    1.101720   -0.000055
  H     -1.432399    1.662317   -0.884472
  H     -1.432404    1.662208    0.884642

 Total Charge           Charge          ....    0
 Multiplicity           Mult            ....    1
 Number of Electrons    NEL             ....   68
 Basis Dimension        Dim             ....  706

ORBITAL ENERGIES
----------------

  NO   OCC          E(Eh)            E(eV)
   0   2.0000    -104.851787     -2853.1622
   1   2.0000     -92.028356     -2504.2189
   2   2.0000     -15.598028      -424.4439
   3   2.0000     -15.587154      -424.1480
   4   2.0000     -11.348287      -308.8026
   5   2.0000     -11.333460      -308.3991
   6   2.0000     -11.321948      -308.0859
   7   2.0000     -10.577103      -287.8176
   8   2.0000      -9.027123      -245.6405
   9   2.0000      -8.044160      -218.8927
  10   2.0000      -8.042456      -218.8464
  11   2.0000      -8.042381      -218.8443
  12   2.0000      -6.708115      -182.5371
  13   2.0000      -6.707249      -182.5135
  14   2.0000      -6.706729      -182.4994
  15   2.0000      -1.348137       -36.6847
  16   2.0000      -1.196292       -32.5527
  17   2.0000      -1.159086       -31.5403
  18   2.0000      -1.047989       -28.5172
  19   2.0000      -0.961832       -26.1728
  20   2.0000      -0.829032       -22.5591
  21   2.0000      -0.785752       -21.3814
  22   2.0000      -0.697086       -18.9687
  23   2.0000      -0.672007       -18.2862
  24   2.0000      -0.635562       -17.2945
  25   2.0000      -0.592978       -16.1358
  26   2.0000      -0.568724       -15.4758
  27   2.0000      -0.544717       -14.8225
  28   2.0000      -0.482645       -13.1334
  29   2.0000      -0.470257       -12.7963
  30   2.0000      -0.467087       -12.7101
  31   2.0000      -0.448871       -12.2144
  32   2.0000      -0.422845       -11.5062
  33   2.0000      -0.382449       -10.4070
  34   0.0000       0.024873         0.6768
  35   0.0000       0.031463         0.8561
  36   0.0000       0.036396         0.9904
  37   0.0000       0.048245         1.3128
  38   0.0000       0.062527         1.7015

MULLIKEN ATOMIC CHARGES
-----------------------
   0 Cl:   -0.310576
   1 S :    0.630428
   2 N :   -0.527418
   3 N :   -0.759337
   4 C :    0.016735
   5 C :   -0.122782
   6 C :   -0.219825
   7 H :    0.637088
   8 H :    0.327841
   9 H :    0.327848
Sum of atomic charges:    0.0000000

LOEWDIN ATOMIC CHARGES
----------------------
   0 Cl:    1.118957
   1 S :    1.066637
   2 N :    0.469953
   3 N :    0.087568
   4 C :   -0.906106
   5 C :   -0.394600
   6 C :   -0.236201
   7 H :   -0.380459
   8 H :   -0.412876
   9 H :   -0.412873

  Mayer bond orders larger than 0.100000
B(  0-Cl,  4-C ) :  -0.1361 B(  0-Cl,  6-C ) :   0.9349 B(  1-S ,  3-N ) :   0.9687
B(  1-S ,  4-C ) :   1.1480 B(  2-N ,  4-C ) :   1.3702 B(  2-N ,  5-C ) :   1.2619
B(  3-N ,  5-C ) :   1.6360 B(  4-C ,  6-C ) :   0.7929 B(  5-C ,  7-H ) :   0.6273
B(  6-C ,  8-H ) :   0.8638 B(  6-C ,  9-H ) :   0.8638

MP2 TOTAL ENERGY:    -1082.739164034 Eh
FINAL SINGLE POINT ENERGY     -1082.739164033726

DIPOLE MOMENT
-------------
                                X             Y             Z
Electronic contribution:     -4.08800      -3.95864      -0.00010
Nuclear contribution   :      3.75704       4.59962       0.00015
                        -----------------------------------------
Total Dipole Moment    :     -0.33096       0.64097       0.00005
                        -----------------------------------------
Magnitude (a.u.)       :      0.72137
Magnitude (Debye)      :      1.83359

Rotational constants in cm-1:     0.161787     0.040059     0.032303
Rotational constants in MHz :  4850.255128  1200.934192   968.412916

                             ****ORCA TERMINATED NORMALLY****
TOTAL RUN TIME: 0 days 0 hours 13 minutes 30 seconds 906 msec
