                         Program Version 5.0.4 -  RELEASE  -
|  1> !ri-mp2 aug-cc-pvqz aug-cc-pvqz/c tightscf
|  2> %pal nprocs 16 end
|  3>
|  4> * xyz 0 1
|  5> C     0.056743   -1.403063    1.105281
|  6> C     0.056743   -1.403063   -1.105281
|  7> C     0.056743   -0.108428    0.714480
|  8> C     0.056743   -0.108428   -0.714480
|  9> C     0.061614    1.293990    1.248837
| 10> C     0.061614    1.293990   -1.248837
| 11> C    -0.362168    2.121493    0.000000
| 12> O     0.055843   -2.213536    0.000000
| 13> H     0.050540   -1.910773    2.052548
| 14> H     0.050540   -1.910773   -2.052548
| 15> H    -0.610306    1.450561    2.092349
| 16> H     1.064430    1.578481    1.579793
| 17> H     1.064430    1.578481   -1.579793
| 18> H    -0.610306    1.450561   -2.092349
| 19> H    -1.447985    2.228635    0.000000
| 20> H     0.063723    3.124156    0.000000
| 21> *
| 22>
| 23>                          ****END OF INPUT****

CARTESIAN COORDINATES (ANGSTROEM)
---------------------------------
  C      0.056743   -1.403063    1.105281
  C      0.056743   -1.403063   -1.105281
  C      0.056743   -0.108428    0.714480
  C      0.056743   -0.108428   -0.714480
  C      0.061614    1.293990    1.248837
  C      0.061614    1.293990   -1.248837
  C     -0.362168    2.121493    0.000000
  O      0.055843   -2.213536    0.000000
  H      0.050540   -1.910773    2.052548
  H      0.050540   -1.910773   -2.052548
  H     -0.610306    1.450561    2.092349
  H      1.064430    1.578481    1.579793
  H      1.064430    1.578481   -1.579793
  H     -0.610306    1.450561   -2.092349
  H     -1.447985    2.228635    0.000000
  H      0.063723    3.124156    0.000000

 Total Charge           Charge          ....    0
 Multiplicity           Mult            ....    1
 Number of Electrons    NEL             ....   58
 Basis Dimension        Dim             .... 1008

ORBITAL ENERGIES
----------------

  NO   OCC          E(Eh)            E(eV)
   0   2.0000     -20.606635      -560.7351
   1   2.0000     -11.275796      -306.8300
   2   2.0000     -11.275752      -306.8288
   3   2.0000     -11.232919      -305.6633
   4   2.0000     -11.232895      -305.6626
   5   2.0000     -11.228818      -305.5517
   6   2.0000     -11.219889      -305.3087
   7   2.0000     -11.218854      -305.2805
   8   2.0000      -1.439027       -39.1579
   9   2.0000      -1.142018       -31.0759
  10   2.0000      -1.014807       -27.6143
  11   2.0000      -1.009536       -27.4709
  12   2.0000      -0.939202       -25.5570
  13   2.0000      -0.826301       -22.4848
  14   2.0000      -0.772574       -21.0228
  15   2.0000      -0.751189       -20.4409
  16   2.0000      -0.700847       -19.0710
  17   2.0000      -0.648474       -17.6459
  18   2.0000      -0.613479       -16.6936
  19   2.0000      -0.595979       -16.2174
  20   2.0000      -0.581555       -15.8249
  21   2.0000      -0.565803       -15.3963
  22   2.0000      -0.547511       -14.8985
  23   2.0000      -0.495857       -13.4930
  24   2.0000      -0.490227       -13.3397
  25   2.0000      -0.486771       -13.2457
  26   2.0000      -0.485336       -13.2067
  27   2.0000      -0.367721       -10.0062
  28   2.0000      -0.308668        -8.3993
  29   0.0000       0.026039         0.7086
  30   0.0000       0.029327         0.7980
  31   0.0000       0.031338         0.8528
  32   0.0000       0.035363         0.9623
  33   0.0000       0.041780         1.1369

MULLIKEN ATOMIC CHARGES
-----------------------
   0 C :   -0.176885
   1 C :   -0.176779
   2 C :    0.038844
   3 C :    0.038895
   4 C :   -0.437617
   5 C :   -0.437635
   6 C :   -0.543485
   7 O :   -0.949192
   8 H :    0.534307
   9 H :    0.534250
  10 H :    0.270419
  11 H :    0.253499
  12 H :    0.253490
  13 H :    0.270430
  14 H :    0.240565
  15 H :    0.286894
Sum of atomic charges:    0.0000000

LOEWDIN ATOMIC CHARGES
----------------------
   0 C :    0.047989
   1 C :    0.047989
   2 C :   -0.128998
   3 C :   -0.128998
   4 C :    0.542043
   5 C :    0.542043
   6 C :    0.536028
   7 O :    0.823524
   8 H :   -0.334643
   9 H :   -0.334643
  10 H :   -0.270873
  11 H :   -0.269772
  12 H :   -0.269771
  13 H :   -0.270873
  14 H :   -0.270219
  15 H :   -0.260824

  Mayer bond orders larger than 0.100000
B(  0-C ,  1-C ) :   0.1305 B(  0-C ,  2-C ) :   1.6513 B(  0-C ,  3-C ) :  -0.2411
B(  0-C ,  7-O ) :   0.7972 B(  0-C ,  8-H ) :   0.7697 B(  1-C ,  2-C ) :  -0.2411
B(  1-C ,  3-C ) :   1.6513 B(  1-C ,  7-O ) :   0.7971 B(  1-C ,  9-H ) :   0.7698
B(  2-C ,  3-C ) :   0.5450 B(  2-C ,  4-C ) :   0.7090 B(  2-C ,  5-C ) :  -0.1191
B(  2-C ,  6-C ) :  -0.1148 B(  2-C ,  7-O ) :   0.1669 B(  3-C ,  4-C ) :  -0.1192
B(  3-C ,  5-C ) :   0.7090 B(  3-C ,  6-C ) :  -0.1148 B(  3-C ,  7-O ) :   0.1670
B(  4-C ,  6-C ) :   1.0787 B(  4-C , 10-H ) :   0.9702 B(  4-C , 11-H ) :   0.9000
B(  5-C ,  6-C ) :   1.0787 B(  5-C , 12-H ) :   0.9000 B(  5-C , 13-H ) :   0.9702
B(  6-C , 14-H ) :   0.9106 B(  6-C , 15-H ) :   0.9299

MP2 TOTAL ENERGY:     -346.165085964 Eh
FINAL SINGLE POINT ENERGY      -346.165085964363

DIPOLE MOMENT
-------------
                                X             Y             Z
Electronic contribution:      0.37452      -6.95612       0.00000
Nuclear contribution   :     -0.37678       7.60950       0.00000
                        -----------------------------------------
Total Dipole Moment    :     -0.00226       0.65338       0.00000
                        -----------------------------------------
Magnitude (a.u.)       :      0.65339
Magnitude (Debye)      :      1.66078

Rotational constants in cm-1:     0.156430     0.065284     0.047714
Rotational constants in MHz :  4689.642616  1957.161458  1430.436633

                             ****ORCA TERMINATED NORMALLY****
TOTAL RUN TIME: 0 days 0 hours 55 minutes 44 seconds 425 msec
