                         Program Version 5.0.4 -  RELEASE  -
|  1> !ri-mp2 aug-cc-pvqz aug-cc-pvqz/c tightscf
|  2> %pal nprocs 16 end
|  3>
|  4> * xyz 0 1
|  5> S      0.063989   -1.268775   -0.106157
|  6> C     -0.855000    0.245265    0.022198
|  7> C     -0.124231    1.361916    0.026050
|  8> C      1.350842    1.127767   -0.161767
|  9> C      1.614187   -0.331940    0.244577
| 10> O     -2.200117    0.086742    0.072454
| 11> H     -0.557765    2.351675    0.076223
| 12> H      1.963154    1.798749    0.443646
| 13> H      1.811188   -0.410907    1.312550
| 14> H      1.639155    1.290531   -1.207061
| 15> H      2.432239   -0.791140   -0.303764
| 16> H     -2.625644    0.949515    0.010935
| 17> *
| 18>
| 19>                          ****END OF INPUT****

CARTESIAN COORDINATES (ANGSTROEM)
---------------------------------
  S      0.063989   -1.268775   -0.106157
  C     -0.855000    0.245265    0.022198
  C     -0.124231    1.361916    0.026050
  C      1.350842    1.127767   -0.161767
  C      1.614187   -0.331940    0.244577
  O     -2.200117    0.086742    0.072454
  H     -0.557765    2.351675    0.076223
  H      1.963154    1.798749    0.443646
  H      1.811188   -0.410907    1.312550
  H      1.639155    1.290531   -1.207061
  H      2.432239   -0.791140   -0.303764
  H     -2.625644    0.949515    0.010935

 Total Charge           Charge          ....    0
 Multiplicity           Mult            ....    1
 Number of Electrons    NEL             ....   54
 Basis Dimension        Dim             ....  760

ORBITAL ENERGIES
----------------

  NO   OCC          E(Eh)            E(eV)
   0   2.0000     -91.955119     -2502.2260
   1   2.0000     -20.600492      -560.5679
   2   2.0000     -11.324540      -308.1564
   3   2.0000     -11.262885      -306.4787
   4   2.0000     -11.240652      -305.8737
   5   2.0000     -11.218589      -305.2733
   6   2.0000      -8.956977      -243.7317
   7   2.0000      -6.638380      -180.6395
   8   2.0000      -6.637619      -180.6188
   9   2.0000      -6.636629      -180.5918
  10   2.0000      -1.417341       -38.5678
  11   2.0000      -1.133320       -30.8392
  12   2.0000      -0.981133       -26.6980
  13   2.0000      -0.971935       -26.4477
  14   2.0000      -0.815724       -22.1970
  15   2.0000      -0.786528       -21.4025
  16   2.0000      -0.685011       -18.6401
  17   2.0000      -0.653086       -17.7714
  18   2.0000      -0.629358       -17.1257
  19   2.0000      -0.593873       -16.1601
  20   2.0000      -0.563393       -15.3307
  21   2.0000      -0.531613       -14.4659
  22   2.0000      -0.509737       -13.8707
  23   2.0000      -0.496669       -13.5150
  24   2.0000      -0.449180       -12.2228
  25   2.0000      -0.400825       -10.9070
  26   2.0000      -0.303929        -8.2703
  27   0.0000       0.023063         0.6276
  28   0.0000       0.029424         0.8007
  29   0.0000       0.037396         1.0176
  30   0.0000       0.038192         1.0393
  31   0.0000       0.051398         1.3986

MULLIKEN ATOMIC CHARGES
-----------------------
   0 S :    0.085447
   1 C :    0.547335
   2 C :   -0.672951
   3 C :   -0.431911
   4 C :   -0.553522
   5 O :   -0.776304
   6 H :    0.360738
   7 H :    0.258508
   8 H :    0.229508
   9 H :    0.269985
  10 H :    0.327049
  11 H :    0.356119
Sum of atomic charges:   -0.0000000

LOEWDIN ATOMIC CHARGES
----------------------
   0 S :    1.306980
   1 C :   -0.855288
   2 C :    0.248256
   3 C :    0.378949
   4 C :    0.160655
   5 O :    1.182435
   6 H :   -0.328644
   7 H :   -0.287631
   8 H :   -0.355353
   9 H :   -0.287976
  10 H :   -0.353320
  11 H :   -0.809064

  Mayer bond orders larger than 0.100000
B(  0-S ,  1-C ) :   0.9456 B(  0-S ,  4-C ) :   0.9506 B(  1-C ,  2-C ) :   1.7104
B(  1-C ,  5-O ) :   0.5024 B(  2-C ,  3-C ) :   0.9360 B(  2-C ,  4-C ) :  -0.1102
B(  2-C ,  5-O ) :   0.2544 B(  2-C ,  6-H ) :   0.8542 B(  3-C ,  4-C ) :   1.0117
B(  3-C ,  7-H ) :   0.9396 B(  3-C ,  9-H ) :   0.8432 B(  4-C ,  8-H ) :   0.9173
B(  4-C , 10-H ) :   0.8925 B(  5-O , 11-H ) :   0.8810

MP2 TOTAL ENERGY:     -628.603065336 Eh
FINAL SINGLE POINT ENERGY      -628.603065336153

DIPOLE MOMENT
-------------
                                X             Y             Z
Electronic contribution:     -4.21219      -4.19066      -0.29913
Nuclear contribution   :      4.59238       5.19131       0.33452
                        -----------------------------------------
Total Dipole Moment    :      0.38019       1.00065       0.03539
                        -----------------------------------------
Magnitude (a.u.)       :      1.07103
Magnitude (Debye)      :      2.72234

Rotational constants in cm-1:     0.155689     0.100544     0.063381
Rotational constants in MHz :  4667.448691  3014.232940  1900.121949

                             ****ORCA TERMINATED NORMALLY****
TOTAL RUN TIME: 0 days 0 hours 19 minutes 37 seconds 408 msec
