                         Program Version 5.0.4 -  RELEASE  -
|  1> !ri-mp2 aug-cc-pvqz aug-cc-pvqz/c tightscf
|  2> %pal nprocs 16 end
|  3>
|  4> * xyz 0 1
|  5> Cl     0.000000    0.000000    2.639630
|  6> F      0.000000    0.000000   -3.046511
|  7> N      0.000000    1.187688   -1.149552
|  8> N      0.000000   -1.187688   -1.149552
|  9> C      0.000000    0.000000   -1.718678
| 10> C      0.000000    0.000000    0.901715
| 11> C      0.000000    1.186904    0.181469
| 12> C      0.000000   -1.186904    0.181469
| 13> H      0.000000    2.147124    0.681378
| 14> H      0.000000   -2.147124    0.681378
| 15> *
| 16>
| 17>                          ****END OF INPUT****

CARTESIAN COORDINATES (ANGSTROEM)
---------------------------------
  Cl     0.000000    0.000000    2.639630
  F      0.000000    0.000000   -3.046511
  N      0.000000    1.187688   -1.149552
  N      0.000000   -1.187688   -1.149552
  C      0.000000    0.000000   -1.718678
  C      0.000000    0.000000    0.901715
  C      0.000000    1.186904    0.181469
  C      0.000000   -1.186904    0.181469
  H      0.000000    2.147124    0.681378
  H      0.000000   -2.147124    0.681378

 Total Charge           Charge          ....    0
 Multiplicity           Mult            ....    1
 Number of Electrons    NEL             ....   66
 Basis Dimension        Dim             ....  736

ORBITAL ENERGIES
----------------

  NO   OCC          E(Eh)            E(eV)
   0   2.0000    -104.868957     -2853.6294
   1   2.0000     -26.332733      -716.5501
   2   2.0000     -15.603166      -424.5837
   3   2.0000     -15.603138      -424.5830
   4   2.0000     -11.421725      -310.8009
   5   2.0000     -11.334955      -308.4398
   6   2.0000     -11.334874      -308.4376
   7   2.0000     -11.325784      -308.1902
   8   2.0000     -10.593952      -288.2761
   9   2.0000      -8.061138      -219.3547
  10   2.0000      -8.059311      -219.3050
  11   2.0000      -8.059214      -219.3024
  12   2.0000      -1.663164       -45.2570
  13   2.0000      -1.353550       -36.8320
  14   2.0000      -1.241755       -33.7899
  15   2.0000      -1.187775       -32.3210
  16   2.0000      -1.056300       -28.7434
  17   2.0000      -0.950646       -25.8684
  18   2.0000      -0.905777       -24.6474
  19   2.0000      -0.801116       -21.7995
  20   2.0000      -0.780363       -21.2348
  21   2.0000      -0.729611       -19.8537
  22   2.0000      -0.684455       -18.6250
  23   2.0000      -0.671355       -18.2685
  24   2.0000      -0.632010       -17.1979
  25   2.0000      -0.621278       -16.9058
  26   2.0000      -0.608671       -16.5628
  27   2.0000      -0.527698       -14.3594
  28   2.0000      -0.520833       -14.1726
  29   2.0000      -0.496867       -13.5204
  30   2.0000      -0.461354       -12.5541
  31   2.0000      -0.444861       -12.1053
  32   2.0000      -0.380343       -10.3497
  33   0.0000       0.024538         0.6677
  34   0.0000       0.028909         0.7867
  35   0.0000       0.048648         1.3238
  36   0.0000       0.051137         1.3915
  37   0.0000       0.051806         1.4097

MULLIKEN ATOMIC CHARGES
-----------------------
   0 Cl:   -0.232376
   1 F :   -0.658857
   2 N :   -0.503412
   3 N :   -0.503412
   4 C :    1.030333
   5 C :   -0.039561
   6 C :   -0.087899
   7 C :   -0.087899
   8 H :    0.541542
   9 H :    0.541542
Sum of atomic charges:    0.0000000

LOEWDIN ATOMIC CHARGES
----------------------
   0 Cl:    1.182344
   1 F :    0.759742
   2 N :    0.534253
   3 N :    0.534253
   4 C :   -1.253822
   5 C :   -0.883479
   6 C :   -0.072318
   7 C :   -0.072318
   8 H :   -0.364329
   9 H :   -0.364329

  Mayer bond orders larger than 0.100000
B(  0-Cl,  5-C ) :   0.7137 B(  1-F ,  4-C ) :   0.6389 B(  2-N ,  4-C ) :   1.4738
B(  2-N ,  6-C ) :   1.2244 B(  3-N ,  4-C ) :   1.4738 B(  3-N ,  7-C ) :   1.2244
B(  5-C ,  6-C ) :   1.1428 B(  5-C ,  7-C ) :   1.1428 B(  6-C ,  8-H ) :   0.7486
B(  7-C ,  9-H ) :   0.7486

MP2 TOTAL ENERGY:     -822.198702297 Eh
FINAL SINGLE POINT ENERGY      -822.198702297204

DIPOLE MOMENT
-------------
                                X             Y             Z
Electronic contribution:     -0.00000      -0.00000       0.47451
Nuclear contribution   :      0.00000       0.00000       0.54395
                        -----------------------------------------
Total Dipole Moment    :     -0.00000      -0.00000       1.01846
                        -----------------------------------------
Magnitude (a.u.)       :      1.01846
Magnitude (Debye)      :      2.58871

Rotational constants in cm-1:     0.203961     0.033228     0.028573
Rotational constants in MHz :  6114.586941   996.140176   856.591121

                             ****ORCA TERMINATED NORMALLY****
TOTAL RUN TIME: 0 days 0 hours 16 minutes 2 seconds 112 msec
