                         Program Version 5.0.4 -  RELEASE  -
|  1> !ri-mp2 aug-cc-pvqz aug-cc-pvqz/c tightscf
|  2> %pal nprocs 16 end
|  3>
|  4> * xyz 0 1
|  5> O      2.917786   -1.157943   -0.000019
|  6> O      2.935541    1.069886   -0.000044
|  7> O     -4.203167    0.107734    0.000034
|  8> C      2.298217   -0.130187   -0.000019
|  9> C      0.859664   -0.051301    0.000006
| 10> C     -0.350583   -0.022132    0.000009
| 11> C     -1.705579    0.003733    0.000014
| 12> C     -2.911532    0.002168    0.000026
| 13> H      2.290340    1.788517   -0.000042
| 14> H     -4.632743   -0.759617    0.000060
| 15> *
| 16>
| 17>                          ****END OF INPUT****

CARTESIAN COORDINATES (ANGSTROEM)
---------------------------------
  O      2.917786   -1.157943   -0.000019
  O      2.935541    1.069886   -0.000044
  O     -4.203167    0.107734    0.000034
  C      2.298217   -0.130187   -0.000019
  C      0.859664   -0.051301    0.000006
  C     -0.350583   -0.022132    0.000009
  C     -1.705579    0.003733    0.000014
  C     -2.911532    0.002168    0.000026
  H      2.290340    1.788517   -0.000042
  H     -4.632743   -0.759617    0.000060

 Total Charge           Charge          ....    0
 Multiplicity           Mult            ....    1
 Number of Electrons    NEL             ....   56
 Basis Dimension        Dim             ....  732

ORBITAL ENERGIES
----------------

  NO   OCC          E(Eh)            E(eV)
   0   2.0000     -20.674909      -562.5929
   1   2.0000     -20.621749      -561.1463
   2   2.0000     -20.557564      -559.3998
   3   2.0000     -11.416286      -310.6529
   4   2.0000     -11.350280      -308.8568
   5   2.0000     -11.299114      -307.4645
   6   2.0000     -11.271971      -306.7259
   7   2.0000     -11.271451      -306.7118
   8   2.0000      -1.493172       -40.6313
   9   2.0000      -1.471306       -40.0363
  10   2.0000      -1.376985       -37.4697
  11   2.0000      -1.118518       -30.4364
  12   2.0000      -1.053213       -28.6594
  13   2.0000      -0.927887       -25.2491
  14   2.0000      -0.869426       -23.6583
  15   2.0000      -0.826444       -22.4887
  16   2.0000      -0.794979       -21.6325
  17   2.0000      -0.707593       -19.2546
  18   2.0000      -0.674172       -18.3451
  19   2.0000      -0.663722       -18.0608
  20   2.0000      -0.644396       -17.5349
  21   2.0000      -0.613115       -16.6837
  22   2.0000      -0.512425       -13.9438
  23   2.0000      -0.511425       -13.9166
  24   2.0000      -0.485874       -13.2213
  25   2.0000      -0.480474       -13.0744
  26   2.0000      -0.383328       -10.4309
  27   2.0000      -0.372765       -10.1435
  28   0.0000       0.009683         0.2635
  29   0.0000       0.027250         0.7415
  30   0.0000       0.050212         1.3663
  31   0.0000       0.053800         1.4640
  32   0.0000       0.057262         1.5582

MULLIKEN ATOMIC CHARGES
-----------------------
   0 O :   -0.698973
   1 O :   -0.709382
   2 O :   -0.863430
   3 C :    1.448453
   4 C :   -0.194414
   5 C :   -0.929880
   6 C :   -0.386252
   7 C :    1.581869
   8 H :    0.365716
   9 H :    0.386292
Sum of atomic charges:   -0.0000000

LOEWDIN ATOMIC CHARGES
----------------------
   0 O :    0.635064
   1 O :    1.213832
   2 O :    1.192347
   3 C :   -1.145549
   4 C :    0.027513
   5 C :   -0.035890
   6 C :   -0.033547
   7 C :   -0.256385
   8 H :   -0.825280
   9 H :   -0.772106

  Mayer bond orders larger than 0.100000
B(  0-O ,  1-O ) :   0.1084 B(  0-O ,  3-C ) :   1.4114 B(  0-O ,  4-C ) :   0.2168
B(  1-O ,  3-C ) :   0.6961 B(  1-O ,  4-C ) :   0.1027 B(  1-O ,  5-C ) :   0.1041
B(  1-O ,  8-H ) :   0.8575 B(  2-O ,  6-C ) :   0.6924 B(  2-O ,  7-C ) :   0.1790
B(  2-O ,  9-H ) :   0.8672 B(  3-C ,  4-C ) :   0.8937 B(  3-C ,  5-C ) :   0.1365
B(  4-C ,  5-C ) :   3.4081 B(  4-C ,  7-C ) :   0.1227 B(  5-C ,  6-C ) :   0.1957
B(  5-C ,  7-C ) :  -0.9356 B(  6-C ,  7-C ) :   2.9546

MP2 TOTAL ENERGY:     -416.698291661 Eh
FINAL SINGLE POINT ENERGY      -416.698291660676

DIPOLE MOMENT
-------------
                                X             Y             Z
Electronic contribution:     -0.16685      -0.47155       0.00001
Nuclear contribution   :     -2.21335       0.98343       0.00002
                        -----------------------------------------
Total Dipole Moment    :     -2.38020       0.51188       0.00003
                        -----------------------------------------
Magnitude (a.u.)       :      2.43462
Magnitude (Debye)      :      6.18832

Rotational constants in cm-1:     0.383886     0.021225     0.020113
Rotational constants in MHz : 11508.622701   636.318539   602.979450

                             ****ORCA TERMINATED NORMALLY****
TOTAL RUN TIME: 0 days 0 hours 15 minutes 14 seconds 810 msec
