                         Program Version 5.0.4 -  RELEASE  -
|  1> !ri-mp2 aug-cc-pvqz aug-cc-pvqz/c tightscf
|  2> %pal nprocs 16 end
|  3>
|  4> * xyz 0 1
|  5> Cl   -2.008972   -0.645633   -0.000016
|  6> S     0.916995   -1.382670    0.000044
|  7> N     1.562136    1.012518   -0.000064
|  8> N     2.104548   -0.138903    0.000000
|  9> C    -0.342527   -0.225321   -0.000029
| 10> C     0.192585    1.037355   -0.000081
| 11> C    -0.528302    2.343259    0.000042
| 12> H    -0.251761    2.929510   -0.876767
| 13> H    -1.605449    2.196556   -0.004895
| 14> H    -0.259520    2.925361    0.882074
| 15> *
| 16>
| 17>                          ****END OF INPUT****

CARTESIAN COORDINATES (ANGSTROEM)
---------------------------------
  Cl    -2.008972   -0.645633   -0.000016
  S      0.916995   -1.382670    0.000044
  N      1.562136    1.012518   -0.000064
  N      2.104548   -0.138903    0.000000
  C     -0.342527   -0.225321   -0.000029
  C      0.192585    1.037355   -0.000081
  C     -0.528302    2.343259    0.000042
  H     -0.251761    2.929510   -0.876767
  H     -1.605449    2.196556   -0.004895
  H     -0.259520    2.925361    0.882074

 Total Charge           Charge          ....    0
 Multiplicity           Mult            ....    1
 Number of Electrons    NEL             ....   68
 Basis Dimension        Dim             ....  706

ORBITAL ENERGIES
----------------

  NO   OCC          E(Eh)            E(eV)
   0   2.0000    -104.880020     -2853.9304
   1   2.0000     -92.033546     -2504.3601
   2   2.0000     -15.661192      -426.1627
   3   2.0000     -15.637533      -425.5189
   4   2.0000     -11.349314      -308.8305
   5   2.0000     -11.297283      -307.4147
   6   2.0000     -11.245826      -306.0145
   7   2.0000     -10.604688      -288.5682
   8   2.0000      -9.032962      -245.7994
   9   2.0000      -8.071903      -219.6476
  10   2.0000      -8.069936      -219.5941
  11   2.0000      -8.069894      -219.5930
  12   2.0000      -6.713887      -182.6941
  13   2.0000      -6.713029      -182.6708
  14   2.0000      -6.712413      -182.6540
  15   2.0000      -1.395640       -37.9773
  16   2.0000      -1.197249       -32.5788
  17   2.0000      -1.106093       -30.0983
  18   2.0000      -1.066469       -29.0201
  19   2.0000      -0.967210       -26.3191
  20   2.0000      -0.841120       -22.8880
  21   2.0000      -0.773444       -21.0465
  22   2.0000      -0.671116       -18.2620
  23   2.0000      -0.636878       -17.3303
  24   2.0000      -0.619761       -16.8646
  25   2.0000      -0.582654       -15.8548
  26   2.0000      -0.574090       -15.6218
  27   2.0000      -0.549037       -14.9401
  28   2.0000      -0.535689       -14.5768
  29   2.0000      -0.530870       -14.4457
  30   2.0000      -0.486227       -13.2309
  31   2.0000      -0.417647       -11.3648
  32   2.0000      -0.411127       -11.1873
  33   2.0000      -0.363900        -9.9022
  34   0.0000       0.025931         0.7056
  35   0.0000       0.040424         1.1000
  36   0.0000       0.041409         1.1268
  37   0.0000       0.045100         1.2272
  38   0.0000       0.058427         1.5899

MULLIKEN ATOMIC CHARGES
-----------------------
   0 Cl:   -0.138503
   1 S :    0.510655
   2 N :   -0.213437
   3 N :   -0.476234
   4 C :   -0.358593
   5 C :    0.478354
   6 C :   -0.652279
   7 H :    0.278365
   8 H :    0.292400
   9 H :    0.279272
Sum of atomic charges:   -0.0000000

LOEWDIN ATOMIC CHARGES
----------------------
   0 Cl:    1.142810
   1 S :    0.997416
   2 N :    0.141568
   3 N :   -0.132073
   4 C :   -1.406968
   5 C :   -0.653284
   6 C :    0.847975
   7 H :   -0.295382
   8 H :   -0.346905
   9 H :   -0.295158

  Mayer bond orders larger than 0.100000
B(  0-Cl,  4-C ) :   0.8224 B(  1-S ,  3-N ) :   1.1328 B(  1-S ,  4-C ) :   1.1160
B(  1-S ,  5-C ) :  -0.1126 B(  2-N ,  3-N ) :   1.2422 B(  2-N ,  5-C ) :   0.9068
B(  4-C ,  5-C ) :   1.2650 B(  5-C ,  6-C ) :   0.7724 B(  6-C ,  7-H ) :   0.9606
B(  6-C ,  8-H ) :   0.9608 B(  6-C ,  9-H ) :   0.9594

MP2 TOTAL ENERGY:    -1082.705984290 Eh
FINAL SINGLE POINT ENERGY     -1082.705984290416

DIPOLE MOMENT
-------------
                                X             Y             Z
Electronic contribution:     -1.68097      -8.47221      -0.00029
Nuclear contribution   :      0.71230       8.56198       0.00041
                        -----------------------------------------
Total Dipole Moment    :     -0.96867       0.08977       0.00012
                        -----------------------------------------
Magnitude (a.u.)       :      0.97282
Magnitude (Debye)      :      2.47271

Rotational constants in cm-1:     0.087463     0.061011     0.036181
Rotational constants in MHz :  2622.073391  1829.067222  1084.676305

                             ****ORCA TERMINATED NORMALLY****
TOTAL RUN TIME: 0 days 0 hours 16 minutes 12 seconds 879 msec
