                         Program Version 5.0.4 -  RELEASE  -
|  1> !ri-mp2 aug-cc-pvqz aug-cc-pvqz/c tightscf
|  2> %pal nprocs 16 end
|  3>
|  4> * xyz 0 1
|  5> F     2.375832    0.341649   -0.121397
|  6> O     1.124163   -2.287866    0.174880
|  7> O     0.695969    2.490935   -0.051098
|  8> O    -2.942224   -0.245940    0.022644
|  9> N    -0.875008   -1.207874    0.004582
| 10> N    -1.112015    1.111674   -0.020101
| 11> C     1.090406    0.142282    0.334810
| 12> C     0.527478   -1.113100   -0.322479
| 13> C     0.238552    1.381307    0.053108
| 14> C    -1.735828   -0.146180    0.002266
| 15> H     1.129546   -0.014071    1.416546
| 16> H     0.692280   -1.042947   -1.407061
| 17> H     2.004927   -2.374716   -0.205212
| 18> H    -1.307982   -2.113080   -0.090426
| 19> H    -1.739008    1.900491   -0.090282
| 20> *
| 21>
| 22>                          ****END OF INPUT****

CARTESIAN COORDINATES (ANGSTROEM)
---------------------------------
  F      2.375832    0.341649   -0.121397
  O      1.124163   -2.287866    0.174880
  O      0.695969    2.490935   -0.051098
  O     -2.942224   -0.245940    0.022644
  N     -0.875008   -1.207874    0.004582
  N     -1.112015    1.111674   -0.020101
  C      1.090406    0.142282    0.334810
  C      0.527478   -1.113100   -0.322479
  C      0.238552    1.381307    0.053108
  C     -1.735828   -0.146180    0.002266
  H      1.129546   -0.014071    1.416546
  H      0.692280   -1.042947   -1.407061
  H      2.004927   -2.374716   -0.205212
  H     -1.307982   -2.113080   -0.090426
  H     -1.739008    1.900491   -0.090282

 Total Charge           Charge          ....    0
 Multiplicity           Mult            ....    1
 Number of Electrons    NEL             ....   76
 Basis Dimension        Dim             .... 1030

ORBITAL ENERGIES
----------------

  NO   OCC          E(Eh)            E(eV)
   0   2.0000     -26.320045      -716.2048
   1   2.0000     -20.609364      -560.8093
   2   2.0000     -20.568276      -559.6912
   3   2.0000     -20.547845      -559.1353
   4   2.0000     -15.635920      -425.4750
   5   2.0000     -15.619643      -425.0321
   6   2.0000     -11.420574      -310.7696
   7   2.0000     -11.399038      -310.1836
   8   2.0000     -11.377160      -309.5883
   9   2.0000     -11.362836      -309.1985
  10   2.0000      -1.635326       -44.4995
  11   2.0000      -1.447084       -39.3772
  12   2.0000      -1.428249       -38.8646
  13   2.0000      -1.419452       -38.6252
  14   2.0000      -1.295993       -35.2658
  15   2.0000      -1.243506       -33.8375
  16   2.0000      -1.075476       -29.2652
  17   2.0000      -0.942138       -25.6369
  18   2.0000      -0.906491       -24.6669
  19   2.0000      -0.835786       -22.7429
  20   2.0000      -0.796037       -21.6613
  21   2.0000      -0.779132       -21.2013
  22   2.0000      -0.731205       -19.8971
  23   2.0000      -0.716400       -19.4942
  24   2.0000      -0.705364       -19.1939
  25   2.0000      -0.698256       -19.0005
  26   2.0000      -0.679301       -18.4847
  27   2.0000      -0.654829       -17.8188
  28   2.0000      -0.644612       -17.5408
  29   2.0000      -0.624979       -17.0065
  30   2.0000      -0.599631       -16.3168
  31   2.0000      -0.576299       -15.6819
  32   2.0000      -0.567446       -15.4410
  33   2.0000      -0.512802       -13.9541
  34   2.0000      -0.491377       -13.3710
  35   2.0000      -0.460236       -12.5237
  36   2.0000      -0.451108       -12.2753
  37   2.0000      -0.436876       -11.8880
  38   0.0000       0.018263         0.4970
  39   0.0000       0.030107         0.8193
  40   0.0000       0.032163         0.8752
  41   0.0000       0.037396         1.0176
  42   0.0000       0.046680         1.2702

MULLIKEN ATOMIC CHARGES
-----------------------
   0 F :   -0.789472
   1 O :   -0.868270
   2 O :   -0.784828
   3 O :   -0.788878
   4 N :   -0.657536
   5 N :   -0.743213
   6 C :    0.319159
   7 C :    0.703668
   8 C :    1.082460
   9 C :    1.372744
  10 H :    0.360253
  11 H :    0.323244
  12 H :    0.351322
  13 H :    0.097297
  14 H :    0.022052
Sum of atomic charges:   -0.0000000

LOEWDIN ATOMIC CHARGES
----------------------
   0 F :    0.815714
   1 O :    1.303221
   2 O :    0.713121
   3 O :    0.698316
   4 N :    0.816195
   5 N :    0.790885
   6 C :   -0.502157
   7 C :   -0.414687
   8 C :   -0.835811
   9 C :   -0.982152
  10 H :   -0.328534
  11 H :   -0.290706
  12 H :   -0.763199
  13 H :   -0.500316
  14 H :   -0.519889

  Mayer bond orders larger than 0.100000
B(  0-F ,  6-C ) :   0.2636 B(  0-F ,  8-C ) :   0.1161 B(  1-O ,  6-C ) :   0.1103
B(  1-O ,  7-C ) :   0.4783 B(  1-O , 12-H ) :   0.9044 B(  2-O ,  5-N ) :   0.2091
B(  2-O ,  6-C ) :   0.1741 B(  2-O ,  8-C ) :   1.1565 B(  3-O ,  4-N ) :   0.1938
B(  3-O ,  5-N ) :   0.1919 B(  3-O ,  9-C ) :   1.1890 B(  4-N ,  7-C ) :   0.5759
B(  4-N ,  9-C ) :   1.2098 B(  4-N , 13-H ) :   1.1609 B(  5-N ,  8-C ) :   0.9488
B(  5-N ,  9-C ) :   1.0359 B(  5-N , 14-H ) :   1.2615 B(  6-C ,  7-C ) :   0.9825
B(  6-C ,  8-C ) :   1.1191 B(  6-C , 10-H ) :   0.7862 B(  7-C , 11-H ) :   0.8646
B(  8-C , 14-H ) :  -0.1132

MP2 TOTAL ENERGY:     -589.753285491 Eh
FINAL SINGLE POINT ENERGY      -589.753285491219

DIPOLE MOMENT
-------------
                                X             Y             Z
Electronic contribution:      2.08832       2.77591      -0.04111
Nuclear contribution   :     -1.53818      -3.83883      -0.24512
                        -----------------------------------------
Total Dipole Moment    :      0.55014      -1.06292      -0.28623
                        -----------------------------------------
Magnitude (a.u.)       :      1.23060
Magnitude (Debye)      :      3.12793

Rotational constants in cm-1:     0.059341     0.044972     0.026181
Rotational constants in MHz :  1778.985162  1348.237404   784.876455

                             ****ORCA TERMINATED NORMALLY****
TOTAL RUN TIME: 0 days 0 hours 41 minutes 26 seconds 52 msec
