                         Program Version 5.0.4 -  RELEASE  -
|  1> !ri-mp2 aug-cc-pvqz aug-cc-pvqz/c tightscf
|  2> %pal nprocs 16 end
|  3>
|  4> * xyz 0 1
|  5> Cl    2.930400   -0.091791    0.000009
|  6> N    -0.768407   -1.166317   -0.000008
|  7> N     0.553379   -1.155933   -0.000004
|  8> N    -4.016345   -0.114795   -0.000012
|  9> C    -0.799758    1.241089    0.000003
| 10> C     0.573371    1.246721    0.000007
| 11> C    -1.433356   -0.007434   -0.000005
| 12> C     1.197294   -0.000622    0.000004
| 13> C    -2.865884   -0.095394   -0.000009
| 14> H    -1.376813    2.154336    0.000005
| 15> H     1.149618    2.159260    0.000013
| 16> *
| 17>
| 18>                          ****END OF INPUT****

CARTESIAN COORDINATES (ANGSTROEM)
---------------------------------
  Cl     2.930400   -0.091791    0.000009
  N     -0.768407   -1.166317   -0.000008
  N      0.553379   -1.155933   -0.000004
  N     -4.016345   -0.114795   -0.000012
  C     -0.799758    1.241089    0.000003
  C      0.573371    1.246721    0.000007
  C     -1.433356   -0.007434   -0.000005
  C      1.197294   -0.000622    0.000004
  C     -2.865884   -0.095394   -0.000009
  H     -1.376813    2.154336    0.000005
  H      1.149618    2.159260    0.000013

 Total Charge           Charge          ....    0
 Multiplicity           Mult            ....    1
 Number of Electrons    NEL             ....   70
 Basis Dimension        Dim             ....  816

ORBITAL ENERGIES
----------------

  NO   OCC          E(Eh)            E(eV)
   0   2.0000    -104.875645     -2853.8114
   1   2.0000     -15.663490      -426.2252
   2   2.0000     -15.651849      -425.9085
   3   2.0000     -15.597270      -424.4233
   4   2.0000     -11.382224      -309.7261
   5   2.0000     -11.351961      -308.9026
   6   2.0000     -11.318347      -307.9879
   7   2.0000     -11.311599      -307.8042
   8   2.0000     -11.296635      -307.3971
   9   2.0000     -10.600939      -288.4662
  10   2.0000      -8.068048      -219.5427
  11   2.0000      -8.066149      -219.4911
  12   2.0000      -8.066141      -219.4908
  13   2.0000      -1.404944       -38.2305
  14   2.0000      -1.249727       -34.0068
  15   2.0000      -1.213444       -33.0195
  16   2.0000      -1.167609       -31.7723
  17   2.0000      -1.108191       -30.1554
  18   2.0000      -0.969942       -26.3935
  19   2.0000      -0.928612       -25.2688
  20   2.0000      -0.814320       -22.1588
  21   2.0000      -0.764869       -20.8131
  22   2.0000      -0.707235       -19.2449
  23   2.0000      -0.657737       -17.8979
  24   2.0000      -0.645445       -17.5635
  25   2.0000      -0.629623       -17.1329
  26   2.0000      -0.585830       -15.9413
  27   2.0000      -0.548155       -14.9160
  28   2.0000      -0.539798       -14.6886
  29   2.0000      -0.502259       -13.6672
  30   2.0000      -0.500414       -13.6170
  31   2.0000      -0.490748       -13.3539
  32   2.0000      -0.450382       -12.2555
  33   2.0000      -0.448211       -12.1964
  34   2.0000      -0.397876       -10.8268
  35   0.0000       0.013980         0.3804
  36   0.0000       0.030323         0.8251
  37   0.0000       0.032462         0.8833
  38   0.0000       0.039511         1.0751
  39   0.0000       0.048730         1.3260

MULLIKEN ATOMIC CHARGES
-----------------------
   0 Cl:   -0.202495
   1 N :   -0.284593
   2 N :   -0.199017
   3 N :   -0.708430
   4 C :   -0.107557
   5 C :   -0.080326
   6 C :    0.044097
   7 C :    0.055694
   8 C :    0.726258
   9 H :    0.351703
  10 H :    0.404666
Sum of atomic charges:    0.0000000

LOEWDIN ATOMIC CHARGES
----------------------
   0 Cl:    1.184280
   1 N :    0.318268
   2 N :    0.208672
   3 N :    0.417444
   4 C :    0.303590
   5 C :    0.204618
   6 C :   -0.493564
   7 C :   -1.160664
   8 C :   -0.335389
   9 H :   -0.303173
  10 H :   -0.344082

  Mayer bond orders larger than 0.100000
B(  0-Cl,  2-N ) :  -0.1601 B(  0-Cl,  5-C ) :  -0.1463 B(  0-Cl,  7-C ) :   0.9615
B(  1-N ,  2-N ) :   0.6576 B(  1-N ,  6-C ) :   0.9485 B(  2-N ,  7-C ) :   1.1063
B(  3-N ,  8-C ) :   2.4329 B(  4-C ,  5-C ) :   1.2034 B(  4-C ,  6-C ) :   0.9546
B(  4-C ,  8-C ) :  -0.2614 B(  4-C ,  9-H ) :   0.9398 B(  5-C ,  6-C ) :  -0.2192
B(  5-C ,  7-C ) :   1.1059 B(  5-C , 10-H ) :   0.8731 B(  6-C ,  8-C ) :   1.3516

MP2 TOTAL ENERGY:     -815.097430585 Eh
FINAL SINGLE POINT ENERGY      -815.097430584881

DIPOLE MOMENT
-------------
                                X             Y             Z
Electronic contribution:      5.35106      -2.38766       0.00001
Nuclear contribution   :     -4.18708       4.17407       0.00000
                        -----------------------------------------
Total Dipole Moment    :      1.16398       1.78641       0.00001
                        -----------------------------------------
Magnitude (a.u.)       :      2.13216
Magnitude (Debye)      :      5.41952

Rotational constants in cm-1:     0.198861     0.024143     0.021530
Rotational constants in MHz :  5961.688820   723.801476   645.439448

                             ****ORCA TERMINATED NORMALLY****
TOTAL RUN TIME: 0 days 0 hours 21 minutes 45 seconds 694 msec
