                         Program Version 5.0.4 -  RELEASE  -
|  1> !ri-mp2 aug-cc-pvqz aug-cc-pvqz/c tightscf
|  2> %pal nprocs 16 end
|  3>
|  4> * xyz 0 1
|  5> Cl   -3.081143    0.085415    0.053858
|  6> O     3.477026    0.490747    0.348644
|  7> N     0.521246   -1.313680   -0.003582
|  8> N    -0.801147   -1.191495    0.027950
|  9> N     2.647107   -0.500843   -0.241609
| 10> C     1.286485   -0.231016   -0.098672
| 11> C    -1.337020    0.006725   -0.003734
| 12> C     0.766362    1.071813   -0.120508
| 13> C    -0.597170    1.192029   -0.066717
| 14> H     4.072324    0.747301   -0.364548
| 15> H     2.880061   -1.402555    0.159613
| 16> H     1.418677    1.929694   -0.168056
| 17> H    -1.090219    2.152346   -0.073288
| 18> *
| 19>
| 20>                          ****END OF INPUT****

CARTESIAN COORDINATES (ANGSTROEM)
---------------------------------
  Cl    -3.081143    0.085415    0.053858
  O      3.477026    0.490747    0.348644
  N      0.521246   -1.313680   -0.003582
  N     -0.801147   -1.191495    0.027950
  N      2.647107   -0.500843   -0.241609
  C      1.286485   -0.231016   -0.098672
  C     -1.337020    0.006725   -0.003734
  C      0.766362    1.071813   -0.120508
  C     -0.597170    1.192029   -0.066717
  H      4.072324    0.747301   -0.364548
  H      2.880061   -1.402555    0.159613
  H      1.418677    1.929694   -0.168056
  H     -1.090219    2.152346   -0.073288

 Total Charge           Charge          ....    0
 Multiplicity           Mult            ....    1
 Number of Electrons    NEL             ....   74
 Basis Dimension        Dim             ....  908

ORBITAL ENERGIES
----------------

  NO   OCC          E(Eh)            E(eV)
   0   2.0000    -104.848320     -2853.0678
   1   2.0000     -20.624817      -561.2298
   2   2.0000     -15.643376      -425.6779
   3   2.0000     -15.625496      -425.1914
   4   2.0000     -15.614374      -424.8887
   5   2.0000     -11.342266      -308.6388
   6   2.0000     -11.335419      -308.4524
   7   2.0000     -11.287251      -307.1417
   8   2.0000     -11.278472      -306.9028
   9   2.0000     -10.573592      -287.7221
  10   2.0000      -8.040708      -218.7988
  11   2.0000      -8.038911      -218.7499
  12   2.0000      -8.038865      -218.7486
  13   2.0000      -1.445329       -39.3294
  14   2.0000      -1.370469       -37.2923
  15   2.0000      -1.210334       -32.9349
  16   2.0000      -1.161227       -31.5986
  17   2.0000      -1.106826       -30.1183
  18   2.0000      -1.049534       -28.5593
  19   2.0000      -0.924976       -25.1699
  20   2.0000      -0.869533       -23.6612
  21   2.0000      -0.765593       -20.8328
  22   2.0000      -0.744116       -20.2484
  23   2.0000      -0.717185       -19.5156
  24   2.0000      -0.674634       -18.3577
  25   2.0000      -0.653675       -17.7874
  26   2.0000      -0.627108       -17.0645
  27   2.0000      -0.613301       -16.6888
  28   2.0000      -0.599253       -16.3065
  29   2.0000      -0.531303       -14.4575
  30   2.0000      -0.522182       -14.2093
  31   2.0000      -0.505608       -13.7583
  32   2.0000      -0.468743       -12.7551
  33   2.0000      -0.463299       -12.6070
  34   2.0000      -0.422286       -11.4910
  35   2.0000      -0.419252       -11.4084
  36   2.0000      -0.348931        -9.4949
  37   0.0000       0.017614         0.4793
  38   0.0000       0.027718         0.7542
  39   0.0000       0.036657         0.9975
  40   0.0000       0.047899         1.3034
  41   0.0000       0.060141         1.6365

MULLIKEN ATOMIC CHARGES
-----------------------
   0 Cl:   -0.246621
   1 O :   -0.644810
   2 N :   -0.433777
   3 N :   -0.151365
   4 N :   -0.302746
   5 C :    0.642466
   6 C :    0.059783
   7 C :   -0.279572
   8 C :   -0.110901
   9 H :    0.358311
  10 H :    0.360104
  11 H :    0.370440
  12 H :    0.378688
Sum of atomic charges:   -0.0000000

LOEWDIN ATOMIC CHARGES
----------------------
   0 Cl:    1.137119
   1 O :    1.115342
   2 N :    0.324102
   3 N :    0.195353
   4 N :    0.545111
   5 C :   -0.582007
   6 C :   -1.169542
   7 C :    0.319133
   8 C :    0.190057
   9 H :   -0.817805
  10 H :   -0.580819
  11 H :   -0.328166
  12 H :   -0.347878

  Mayer bond orders larger than 0.100000
B(  0-Cl,  3-N ) :  -0.1936 B(  0-Cl,  6-C ) :   0.9396 B(  0-Cl,  8-C ) :  -0.1335
B(  1-O ,  4-N ) :   0.8231 B(  1-O ,  9-H ) :   0.9004 B(  2-N ,  3-N ) :   0.5464
B(  2-N ,  5-C ) :   1.2922 B(  3-N ,  6-C ) :   1.1619 B(  4-N ,  5-C ) :   0.9987
B(  4-N , 10-H ) :   0.8016 B(  5-C ,  7-C ) :   1.0569 B(  5-C ,  8-C ) :  -0.2558
B(  6-C ,  8-C ) :   1.0489 B(  7-C ,  8-C ) :   1.2575 B(  7-C , 11-H ) :   0.9069
B(  7-C , 12-H ) :  -0.1134 B(  8-C , 12-H ) :   0.9089

MP2 TOTAL ENERGY:     -853.374341063 Eh
FINAL SINGLE POINT ENERGY      -853.374341063265

DIPOLE MOMENT
-------------
                                X             Y             Z
Electronic contribution:    -10.02734      -1.74259       0.18550
Nuclear contribution   :     11.22674       3.14592      -0.49567
                        -----------------------------------------
Total Dipole Moment    :      1.19940       1.40333      -0.31017
                        -----------------------------------------
Magnitude (a.u.)       :      1.87192
Magnitude (Debye)      :      4.75805

Rotational constants in cm-1:     0.172905     0.023271     0.020682
Rotational constants in MHz :  5183.560150   697.656775   620.028887

                             ****ORCA TERMINATED NORMALLY****
TOTAL RUN TIME: 0 days 0 hours 29 minutes 52 seconds 490 msec
