                         Program Version 5.0.4 -  RELEASE  -
|  1> !ri-mp2 aug-cc-pvqz aug-cc-pvqz/c tightscf
|  2> %pal nprocs 16 end
|  3>
|  4> * xyz 0 1
|  5> C     -1.358848    0.996788        0.000000
|  6> C     -1.701599   -1.270252        0.000000
|  7> C      2.192531    0.578405        0.000000
|  8> C      0.000000    0.735121        0.000000
|  9> C      0.431371   -0.608939        0.000000
| 10> N     -2.209140   -0.025435        0.000000
| 11> N     -0.422841   -1.629439        0.000000
| 12> N      1.809446   -0.668802        0.000000
| 13> N      1.159397    1.480474        0.000000
| 14> H     -1.773845    1.998833        0.000000
| 15> H     -2.428333   -2.073138        0.000000
| 16> H      3.219520    0.908175        0.000000
| 17> H      1.243895    2.481808        0.000000
| 18> *
| 19>
| 20>                          ****END OF INPUT****

CARTESIAN COORDINATES (ANGSTROEM)
---------------------------------
  C     -1.358848    0.996788    0.000000
  C     -1.701599   -1.270252    0.000000
  C      2.192531    0.578405    0.000000
  C      0.000000    0.735121    0.000000
  C      0.431371   -0.608939    0.000000
  N     -2.209140   -0.025435    0.000000
  N     -0.422841   -1.629439    0.000000
  N      1.809446   -0.668802    0.000000
  N      1.159397    1.480474    0.000000
  H     -1.773845    1.998833    0.000000
  H     -2.428333   -2.073138    0.000000
  H      3.219520    0.908175    0.000000
  H      1.243895    2.481808    0.000000

 Total Charge           Charge          ....    0
 Multiplicity           Mult            ....    1
 Number of Electrons    NEL             ....   62
 Basis Dimension        Dim             ....  904

ORBITAL ENERGIES
----------------

  NO   OCC          E(Eh)            E(eV)
   0   2.0000     -15.642925      -425.6656
   1   2.0000     -15.568092      -423.6293
   2   2.0000     -15.566728      -423.5922
   3   2.0000     -15.566349      -423.5819
   4   2.0000     -11.343449      -308.6709
   5   2.0000     -11.311822      -307.8103
   6   2.0000     -11.305125      -307.6281
   7   2.0000     -11.303611      -307.5869
   8   2.0000     -11.287190      -307.1400
   9   2.0000      -1.377929       -37.4953
  10   2.0000      -1.299431       -35.3593
  11   2.0000      -1.220986       -33.2247
  12   2.0000      -1.171517       -31.8786
  13   2.0000      -1.059634       -28.8341
  14   2.0000      -0.917681       -24.9714
  15   2.0000      -0.885934       -24.1075
  16   2.0000      -0.853259       -23.2184
  17   2.0000      -0.780624       -21.2419
  18   2.0000      -0.723090       -19.6763
  19   2.0000      -0.703569       -19.1451
  20   2.0000      -0.653125       -17.7724
  21   2.0000      -0.644634       -17.5414
  22   2.0000      -0.620400       -16.8819
  23   2.0000      -0.588840       -16.0231
  24   2.0000      -0.547273       -14.8921
  25   2.0000      -0.491458       -13.3733
  26   2.0000      -0.471214       -12.8224
  27   2.0000      -0.458490       -12.4761
  28   2.0000      -0.411325       -11.1927
  29   2.0000      -0.378343       -10.2952
  30   2.0000      -0.344757        -9.3813
  31   0.0000       0.010139         0.2759
  32   0.0000       0.024126         0.6565
  33   0.0000       0.036381         0.9900
  34   0.0000       0.042374         1.1531
  35   0.0000       0.047964         1.3052

MULLIKEN ATOMIC CHARGES
-----------------------
   0 C :   -0.025814
   1 C :   -0.277264
   2 C :   -0.146143
   3 C :    0.187347
   4 C :    0.910725
   5 N :   -0.614404
   6 N :   -0.593024
   7 N :   -0.763406
   8 N :   -0.509465
   9 H :    0.481408
  10 H :    0.603012
  11 H :    0.570900
  12 H :    0.176129
Sum of atomic charges:    0.0000000

LOEWDIN ATOMIC CHARGES
----------------------
   0 C :    0.107805
   1 C :   -0.189099
   2 C :   -0.033183
   3 C :   -0.318548
   4 C :   -0.702691
   5 N :    0.572996
   6 N :    0.594014
   7 N :    0.603471
   8 N :    0.844288
   9 H :   -0.338210
  10 H :   -0.391515
  11 H :   -0.307746
  12 H :   -0.441582

  Mayer bond orders larger than 0.100000
B(  0-C ,  3-C ) :   1.1906 B(  0-C ,  4-C ) :  -0.1014 B(  0-C ,  5-N ) :   1.1892
B(  0-C ,  9-H ) :   0.8238 B(  1-C ,  4-C ) :   0.1007 B(  1-C ,  5-N ) :   1.4112
B(  1-C ,  6-N ) :   1.4200 B(  1-C , 10-H ) :   0.6905 B(  2-C ,  7-N ) :   1.7105
B(  2-C ,  8-N ) :   1.2844 B(  2-C , 11-H ) :   0.6966 B(  3-C ,  4-C ) :   1.3537
B(  3-C ,  8-N ) :   0.7797 B(  4-C ,  5-N ) :   0.1107 B(  4-C ,  6-N ) :   0.9999
B(  4-C ,  7-N ) :   0.6367 B(  8-N , 12-H ) :   1.0713

MP2 TOTAL ENERGY:     -411.301669770 Eh
FINAL SINGLE POINT ENERGY      -411.301669770051

DIPOLE MOMENT
-------------
                                X             Y             Z
Electronic contribution:      0.45339      -0.93971       0.00000
Nuclear contribution   :      0.25516       3.20945       0.00000
                        -----------------------------------------
Total Dipole Moment    :      0.70856       2.26974       0.00000
                        -----------------------------------------
Magnitude (a.u.)       :      2.37777
Magnitude (Debye)      :      6.04380

Rotational constants in cm-1:     0.138934     0.058530     0.041181
Rotational constants in MHz :  4165.149398  1754.672792  1234.576663

                             ****ORCA TERMINATED NORMALLY****
TOTAL RUN TIME: 0 days 0 hours 30 minutes 35 seconds 869 msec
