                         Program Version 5.0.4 -  RELEASE  -
|  1> !ri-mp2 aug-cc-pvqz aug-cc-pvqz/c tightscf
|  2> %pal nprocs 16 end
|  3> %maxcore 3800
|  4>
|  5> * xyz 0 1
|  6> C     -2.118438    0.068567        0.000000
|  7> N     -1.263191    1.092745        0.000000
|  8> C      0.000000    0.698379        0.000000
|  9> C      0.447803   -0.635313        0.000000
| 10> N      1.831505   -0.681693        0.000000
| 11> C      2.197462    0.568529        0.000000
| 12> N      1.143662    1.456527        0.000000
| 13> N     -1.827298   -1.239681        0.000000
| 14> C     -0.545581   -1.604990        0.000000
| 15> H     -3.170670    0.323513        0.000000
| 16> H      3.218998    0.914021        0.000000
| 17> H      1.191504    2.461120        0.000000
| 18> H     -0.320055   -2.664970        0.000000
| 19> *
| 20>
| 21>                          ****END OF INPUT****

CARTESIAN COORDINATES (ANGSTROEM)
---------------------------------
  C     -2.118438    0.068567    0.000000
  N     -1.263191    1.092745    0.000000
  C      0.000000    0.698379    0.000000
  C      0.447803   -0.635313    0.000000
  N      1.831505   -0.681693    0.000000
  C      2.197462    0.568529    0.000000
  N      1.143662    1.456527    0.000000
  N     -1.827298   -1.239681    0.000000
  C     -0.545581   -1.604990    0.000000
  H     -3.170670    0.323513    0.000000
  H      3.218998    0.914021    0.000000
  H      1.191504    2.461120    0.000000
  H     -0.320055   -2.664970    0.000000

 Total Charge           Charge          ....    0
 Multiplicity           Mult            ....    1
 Number of Electrons    NEL             ....   62
 Basis Dimension        Dim             ....  904

ORBITAL ENERGIES
----------------

  NO   OCC          E(Eh)            E(eV)
   0   2.0000     -15.637705      -425.5236
   1   2.0000     -15.576694      -423.8634
   2   2.0000     -15.572597      -423.7519
   3   2.0000     -15.565650      -423.5629
   4   2.0000     -11.334887      -308.4379
   5   2.0000     -11.328329      -308.2595
   6   2.0000     -11.313391      -307.8530
   7   2.0000     -11.297342      -307.4163
   8   2.0000     -11.267767      -306.6115
   9   2.0000      -1.378883       -37.5213
  10   2.0000      -1.301238       -35.4085
  11   2.0000      -1.219940       -33.1963
  12   2.0000      -1.176320       -32.0093
  13   2.0000      -1.054649       -28.6985
  14   2.0000      -0.918028       -24.9808
  15   2.0000      -0.882237       -24.0069
  16   2.0000      -0.856217       -23.2989
  17   2.0000      -0.782076       -21.2814
  18   2.0000      -0.726168       -19.7600
  19   2.0000      -0.693836       -18.8803
  20   2.0000      -0.645826       -17.5738
  21   2.0000      -0.640615       -17.4320
  22   2.0000      -0.618791       -16.8382
  23   2.0000      -0.592670       -16.1274
  24   2.0000      -0.545901       -14.8547
  25   2.0000      -0.506022       -13.7695
  26   2.0000      -0.470944       -12.8150
  27   2.0000      -0.459196       -12.4954
  28   2.0000      -0.412941       -11.2367
  29   2.0000      -0.390094       -10.6150
  30   2.0000      -0.337053        -9.1717
  31   0.0000       0.015863         0.4317
  32   0.0000       0.030340         0.8256
  33   0.0000       0.033473         0.9108
  34   0.0000       0.040991         1.1154
  35   0.0000       0.050473         1.3734

MULLIKEN ATOMIC CHARGES
-----------------------
   0 C :   -0.277446
   1 N :   -0.658381
   2 C :    0.829379
   3 C :    0.314064
   4 N :   -0.667460
   5 C :   -0.177305
   6 N :   -0.545289
   7 N :   -0.616982
   8 C :   -0.034566
   9 H :    0.608854
  10 H :    0.570335
  11 H :    0.160786
  12 H :    0.494011
Sum of atomic charges:   -0.0000000

LOEWDIN ATOMIC CHARGES
----------------------
   0 C :   -0.186655
   1 N :    0.617595
   2 C :   -0.602805
   3 C :   -0.431998
   4 N :    0.599975
   5 C :   -0.034502
   6 N :    0.847017
   7 N :    0.575236
   8 C :    0.094687
   9 H :   -0.388898
  10 H :   -0.313914
  11 H :   -0.440578
  12 H :   -0.335160

  Mayer bond orders larger than 0.100000
B(  0-C ,  1-N ) :   1.4462 B(  0-C ,  7-N ) :   1.4111 B(  0-C ,  9-H ) :   0.6805
B(  1-N ,  2-C ) :   1.0402 B(  2-C ,  3-C ) :   1.3230 B(  2-C ,  6-N ) :   0.8529
B(  2-C ,  7-N ) :   0.1052 B(  2-C ,  8-C ) :  -0.1585 B(  3-C ,  4-N ) :   0.6572
B(  3-C ,  8-C ) :   1.1873 B(  4-N ,  5-C ) :   1.7563 B(  5-C ,  6-N ) :   1.2239
B(  5-C , 10-H ) :   0.7005 B(  6-N , 11-H ) :   1.0948 B(  7-N ,  8-C ) :   1.1722
B(  8-C , 12-H ) :   0.8175

MP2 TOTAL ENERGY:     -411.307461694 Eh
FINAL SINGLE POINT ENERGY      -411.307461694008

DIPOLE MOMENT
-------------
                                X             Y             Z
Electronic contribution:      0.01024       0.14393      -0.00000
Nuclear contribution   :      0.89098       1.00563       0.00000
                        -----------------------------------------
Total Dipole Moment    :      0.90122       1.14956      -0.00000
                        -----------------------------------------
Magnitude (a.u.)       :      1.46072
Magnitude (Debye)      :      3.71286

Rotational constants in cm-1:     0.138844     0.058683     0.041249
Rotational constants in MHz :  4162.427354  1759.266677  1236.608933

                             ****ORCA TERMINATED NORMALLY****
TOTAL RUN TIME: 0 days 0 hours 28 minutes 31 seconds 3 msec
