                         Program Version 5.0.4 -  RELEASE  -
|  1> !ri-mp2 aug-cc-pvqz aug-cc-pvqz/c tightscf
|  2> %pal nprocs 16 end
|  3>
|  4> * xyz 0 1
|  5> C      0.000000    0.690260        0.000000
|  6> C      0.612433   -0.524322        0.000000
|  7> C     -1.421181    0.815858        0.000000
|  8> C      2.250868    1.064696        0.000000
|  9> C     -1.472895   -1.715075        0.000000
| 10> N      1.008530    1.656063        0.000000
| 11> N      1.963364   -0.327181        0.000000
| 12> N     -0.075505   -1.702376        0.000000
| 13> N     -2.045569   -0.457319        0.000000
| 14> O     -2.078366    1.839915        0.000000
| 15> O      3.351110    1.564725        0.000000
| 16> O     -2.104133   -2.748954        0.000000
| 17> H      0.868938    2.650817        0.000000
| 18> H      2.693788   -1.017316        0.000000
| 19> H      0.372696   -2.603452        0.000000
| 20> H     -3.055399   -0.448350        0.000000
| 21> *
| 22>
| 23>                          ****END OF INPUT****

CARTESIAN COORDINATES (ANGSTROEM)
---------------------------------
  C      0.000000    0.690260    0.000000
  C      0.612433   -0.524322    0.000000
  C     -1.421181    0.815858    0.000000
  C      2.250868    1.064696    0.000000
  C     -1.472895   -1.715075    0.000000
  N      1.008530    1.656063    0.000000
  N      1.963364   -0.327181    0.000000
  N     -0.075505   -1.702376    0.000000
  N     -2.045569   -0.457319    0.000000
  O     -2.078366    1.839915    0.000000
  O      3.351110    1.564725    0.000000
  O     -2.104133   -2.748954    0.000000
  H      0.868938    2.650817    0.000000
  H      2.693788   -1.017316    0.000000
  H      0.372696   -2.603452    0.000000
  H     -3.055399   -0.448350    0.000000

 Total Charge           Charge          ....    0
 Multiplicity           Mult            ....    1
 Number of Electrons    NEL             ....   86
 Basis Dimension        Dim             .... 1144

ORBITAL ENERGIES
----------------

  NO   OCC          E(Eh)            E(eV)
   0   2.0000     -20.556538      -559.3718
   1   2.0000     -20.549875      -559.1905
   2   2.0000     -20.543869      -559.0271
   3   2.0000     -15.662624      -426.2017
   4   2.0000     -15.657583      -426.0645
   5   2.0000     -15.636633      -425.4944
   6   2.0000     -15.630708      -425.3332
   7   2.0000     -11.433589      -311.1238
   8   2.0000     -11.416920      -310.6702
   9   2.0000     -11.395969      -310.1001
  10   2.0000     -11.387153      -309.8602
  11   2.0000     -11.291843      -307.2667
  12   2.0000      -1.453252       -39.5450
  13   2.0000      -1.436941       -39.1012
  14   2.0000      -1.410696       -38.3870
  15   2.0000      -1.364937       -37.1418
  16   2.0000      -1.309514       -35.6337
  17   2.0000      -1.262419       -34.3522
  18   2.0000      -1.233991       -33.5786
  19   2.0000      -1.074109       -29.2280
  20   2.0000      -0.939656       -25.5694
  21   2.0000      -0.927278       -25.2325
  22   2.0000      -0.893313       -24.3083
  23   2.0000      -0.839891       -22.8546
  24   2.0000      -0.795433       -21.6448
  25   2.0000      -0.760546       -20.6955
  26   2.0000      -0.715147       -19.4601
  27   2.0000      -0.709222       -19.2989
  28   2.0000      -0.699945       -19.0465
  29   2.0000      -0.690607       -18.7924
  30   2.0000      -0.659430       -17.9440
  31   2.0000      -0.655834       -17.8462
  32   2.0000      -0.646597       -17.5948
  33   2.0000      -0.629536       -17.1305
  34   2.0000      -0.592247       -16.1159
  35   2.0000      -0.555416       -15.1136
  36   2.0000      -0.503403       -13.6983
  37   2.0000      -0.496170       -13.5015
  38   2.0000      -0.474279       -12.9058
  39   2.0000      -0.474090       -12.9006
  40   2.0000      -0.462761       -12.5924
  41   2.0000      -0.450380       -12.2555
  42   2.0000      -0.327139        -8.9019
  43   0.0000       0.009173         0.2496
  44   0.0000       0.030951         0.8422
  45   0.0000       0.035510         0.9663
  46   0.0000       0.042170         1.1475
  47   0.0000       0.042936         1.1683

MULLIKEN ATOMIC CHARGES
-----------------------
   0 C :   -0.358569
   1 C :    1.169082
   2 C :    1.583251
   3 C :    1.139313
   4 C :    1.323818
   5 N :   -0.591956
   6 N :   -0.694285
   7 N :   -0.794237
   8 N :   -0.809213
   9 O :   -0.828333
  10 O :   -0.768242
  11 O :   -0.788940
  12 H :    0.130050
  13 H :    0.132459
  14 H :    0.114583
  15 H :    0.041218
Sum of atomic charges:   -0.0000000

LOEWDIN ATOMIC CHARGES
----------------------
   0 C :   -0.299727
   1 C :   -0.402630
   2 C :   -0.828406
   3 C :   -0.980109
   4 C :   -0.971211
   5 N :    0.825787
   6 N :    0.870457
   7 N :    0.858785
   8 N :    0.793013
   9 O :    0.686338
  10 O :    0.658370
  11 O :    0.694787
  12 H :   -0.450518
  13 H :   -0.450542
  14 H :   -0.482474
  15 H :   -0.521919

  Mayer bond orders larger than 0.100000
B(  0-C ,  1-C ) :   1.4103 B(  0-C ,  2-C ) :   1.3901 B(  0-C ,  5-N ) :   0.5515
B(  0-C ,  9-O ) :   0.6514 B(  0-C , 12-H ) :  -0.1280 B(  1-C ,  2-C ) :  -0.2127
B(  1-C ,  6-N ) :   0.7485 B(  1-C ,  7-N ) :   0.8702 B(  1-C ,  8-N ) :  -0.1449
B(  1-C , 13-H ) :  -0.1317 B(  1-C , 14-H ) :  -0.1078 B(  2-C ,  5-N ) :  -0.1271
B(  2-C ,  8-N ) :   0.9447 B(  2-C ,  9-O ) :   0.6590 B(  2-C , 15-H ) :  -0.1055
B(  3-C ,  5-N ) :   1.3549 B(  3-C ,  6-N ) :   1.2469 B(  3-C , 10-O ) :   1.0308
B(  4-C ,  7-N ) :   1.2233 B(  4-C ,  8-N ) :   1.1163 B(  4-C , 11-O ) :   1.1013
B(  5-N , 10-O ) :   0.2633 B(  5-N , 12-H ) :   1.1255 B(  6-N ,  7-N ) :   0.1293
B(  6-N , 10-O ) :   0.2292 B(  6-N , 13-H ) :   1.0916 B(  7-N , 11-O ) :   0.1591
B(  7-N , 14-H ) :   1.1010 B(  8-N ,  9-O ) :   0.2780 B(  8-N , 11-O ) :   0.2543
B(  8-N , 15-H ) :   1.2381

MP2 TOTAL ENERGY:     -636.826340913 Eh
FINAL SINGLE POINT ENERGY      -636.826340913440

DIPOLE MOMENT
-------------
                                X             Y             Z
Electronic contribution:     -0.18587       0.18546       0.00000
Nuclear contribution   :      0.83769      -1.35739       0.00000
                        -----------------------------------------
Total Dipole Moment    :      0.65182      -1.17193       0.00000
                        -----------------------------------------
Magnitude (a.u.)       :      1.34100
Magnitude (Debye)      :      3.40855

Rotational constants in cm-1:     0.062901     0.024409     0.017585
Rotational constants in MHz :  1885.723002   731.777946   527.193889

                             ****ORCA TERMINATED NORMALLY****
TOTAL RUN TIME: 0 days 1 hours 4 minutes 14 seconds 724 msec
