                         Program Version 5.0.4 -  RELEASE  -
|  1> !ri-mp2 aug-cc-pvqz aug-cc-pvqz/c tightscf
|  2> %pal nprocs 16 end
|  3>
|  4> * xyz 0 1
|  5> C      0.893738   -2.119560    0.000000
|  6> C     -0.463564   -1.836161    0.000000
|  7> C      1.807314   -1.066569    0.000000
|  8> C     -0.921006   -0.519558    0.000000
|  9> C      1.369118    0.246605    0.000000
| 10> C      0.000000    0.526996    0.000000
| 11> C     -1.709890    2.199611    0.000000
| 12> O     -0.335558    1.848902    0.000000
| 13> H      1.239334   -3.143772    0.000000
| 14> H     -1.185110   -2.642410    0.000000
| 15> H      2.869659   -1.271259    0.000000
| 16> H     -1.982692   -0.326351    0.000000
| 17> H      2.067189    1.072124    0.000000
| 18> H     -2.218233    1.823281    0.891490
| 19> H     -2.218233    1.823281   -0.891490
| 20> H     -1.741707    3.285711    0.000000
| 21> *
| 22>
| 23>                          ****END OF INPUT****

CARTESIAN COORDINATES (ANGSTROEM)
---------------------------------
  C      0.893738   -2.119560    0.000000
  C     -0.463564   -1.836161    0.000000
  C      1.807314   -1.066569    0.000000
  C     -0.921006   -0.519558    0.000000
  C      1.369118    0.246605    0.000000
  C      0.000000    0.526996    0.000000
  C     -1.709890    2.199611    0.000000
  O     -0.335558    1.848902    0.000000
  H      1.239334   -3.143772    0.000000
  H     -1.185110   -2.642410    0.000000
  H      2.869659   -1.271259    0.000000
  H     -1.982692   -0.326351    0.000000
  H      2.067189    1.072124    0.000000
  H     -2.218233    1.823281    0.891490
  H     -2.218233    1.823281   -0.891490
  H     -1.741707    3.285711    0.000000

 Total Charge           Charge          ....    0
 Multiplicity           Mult            ....    1
 Number of Electrons    NEL             ....   58
 Basis Dimension        Dim             .... 1008

ORBITAL ENERGIES
----------------

  NO   OCC          E(Eh)            E(eV)
   0   2.0000     -20.581486      -560.0507
   1   2.0000     -11.298484      -307.4474
   2   2.0000     -11.283302      -307.0343
   3   2.0000     -11.236835      -305.7698
   4   2.0000     -11.235373      -305.7300
   5   2.0000     -11.228188      -305.5345
   6   2.0000     -11.223902      -305.4179
   7   2.0000     -11.222827      -305.3886
   8   2.0000      -1.408012       -38.3139
   9   2.0000      -1.147514       -31.2254
  10   2.0000      -1.022278       -27.8176
  11   2.0000      -1.014348       -27.6018
  12   2.0000      -0.941527       -25.6202
  13   2.0000      -0.832884       -22.6639
  14   2.0000      -0.807542       -21.9743
  15   2.0000      -0.721554       -19.6345
  16   2.0000      -0.664673       -18.0867
  17   2.0000      -0.662097       -18.0166
  18   2.0000      -0.655045       -17.8247
  19   2.0000      -0.619313       -16.8524
  20   2.0000      -0.589692       -16.0463
  21   2.0000      -0.577151       -15.7051
  22   2.0000      -0.527068       -14.3422
  23   2.0000      -0.525480       -14.2990
  24   2.0000      -0.512712       -13.9516
  25   2.0000      -0.481228       -13.0949
  26   2.0000      -0.468467       -12.7476
  27   2.0000      -0.340524        -9.2661
  28   2.0000      -0.312094        -8.4925
  29   0.0000       0.024417         0.6644
  30   0.0000       0.028540         0.7766
  31   0.0000       0.030366         0.8263
  32   0.0000       0.041064         1.1174
  33   0.0000       0.041842         1.1386

MULLIKEN ATOMIC CHARGES
-----------------------
   0 C :   -0.344465
   1 C :   -0.391861
   2 C :   -0.321312
   3 C :   -0.433025
   4 C :   -0.563546
   5 C :    1.079559
   6 C :   -0.626372
   7 O :   -0.822677
   8 H :    0.316396
   9 H :    0.271397
  10 H :    0.257864
  11 H :    0.272286
  12 H :    0.324619
  13 H :    0.241992
  14 H :    0.241992
  15 H :    0.497155
Sum of atomic charges:    0.0000000

LOEWDIN ATOMIC CHARGES
----------------------
   0 C :    0.330003
   1 C :    0.331412
   2 C :    0.324800
   3 C :    0.321148
   4 C :    0.314619
   5 C :   -0.463187
   6 C :    0.574854
   7 O :    0.871655
   8 H :   -0.331801
   9 H :   -0.322107
  10 H :   -0.323267
  11 H :   -0.362957
  12 H :   -0.330632
  13 H :   -0.307431
  14 H :   -0.307431
  15 H :   -0.319681

  Mayer bond orders larger than 0.100000
B(  0-C ,  1-C ) :   1.2865 B(  0-C ,  2-C ) :   1.1491 B(  0-C ,  3-C ) :  -0.1010
B(  0-C ,  8-H ) :   1.0107 B(  1-C ,  3-C ) :   1.0548 B(  1-C ,  4-C ) :   0.1654
B(  1-C ,  5-C ) :  -0.2189 B(  1-C ,  8-H ) :  -0.1010 B(  1-C ,  9-H ) :   1.0774
B(  2-C ,  4-C ) :   1.3818 B(  2-C ,  5-C ) :  -0.3690 B(  2-C , 10-H ) :   1.1303
B(  3-C ,  5-C ) :   1.3369 B(  3-C ,  7-O ) :   0.1477 B(  3-C ,  9-H ) :  -0.1201
B(  3-C , 11-H ) :   1.0124 B(  4-C ,  5-C ) :   1.0300 B(  4-C ,  7-O ) :   0.1849
B(  4-C , 10-H ) :  -0.1389 B(  4-C , 12-H ) :   0.9060 B(  5-C ,  7-O ) :   0.2619
B(  6-C ,  7-O ) :   0.9114 B(  6-C , 13-H ) :   0.9298 B(  6-C , 14-H ) :   0.9298
B(  6-C , 15-H ) :   0.7441

MP2 TOTAL ENERGY:     -346.181319450 Eh
FINAL SINGLE POINT ENERGY      -346.181319449559

DIPOLE MOMENT
-------------
                                X             Y             Z
Electronic contribution:      2.66939      -0.66526       0.00000
Nuclear contribution   :     -3.19823       0.65449       0.00000
                        -----------------------------------------
Total Dipole Moment    :     -0.52883      -0.01077       0.00000
                        -----------------------------------------
Magnitude (a.u.)       :      0.52894
Magnitude (Debye)      :      1.34446

Rotational constants in cm-1:     0.169268     0.052228     0.040218
Rotational constants in MHz :  5074.533437  1565.762630  1205.708040

                             ****ORCA TERMINATED NORMALLY****
TOTAL RUN TIME: 0 days 0 hours 50 minutes 25 seconds 603 msec
