                         Program Version 5.0.4 -  RELEASE  -
|  1> !ri-mp2 aug-cc-pvqz aug-cc-pvqz/c tightscf
|  2> %pal nprocs 16 end
|  3> %maxcore 3800
|  4>
|  5> * xyz 0 1
|  6> N     -2.526983    1.644610    0.539401
|  7> C     -2.309574    0.430804   -0.263716
|  8> C     -3.543059   -0.493877   -0.155950
|  9> O     -3.559770   -1.614822   -0.589237
| 10> O     -4.602147    0.075386    0.430775
| 11> H     -4.303472    0.974710    0.689949
| 12> C     -1.025447   -0.342914    0.052142
| 13> C      0.250781    0.404006   -0.330854
| 14> C      1.510265   -0.390892    0.003386
| 15> N      2.702104    0.351444   -0.372440
| 16> C      3.997767    0.022671   -0.008400
| 17> N      4.099684   -0.984055    0.943541
| 18> N      5.063631    0.606486   -0.414314
| 19> H     -2.286412    0.732459   -1.314703
| 20> H     -1.014272   -0.576246    1.122559
| 21> H     -1.076507   -1.298385   -0.469583
| 22> H      0.232932    0.616099   -1.405631
| 23> H      0.304202    1.368500    0.179891
| 24> H      1.544459   -0.575336    1.078269
| 25> H      1.458323   -1.369138   -0.495193
| 26> H      2.638588    0.883680   -1.223524
| 27> H      3.488801   -1.778017    0.839937
| 28> H      5.061405   -1.240273    1.103040
| 29> H      4.860793    1.403058   -1.010069
| 30> H     -2.070153    1.586068    1.441314
| 31> H     -2.196817    2.480125    0.078473
| 32> *
| 33>
| 34>                          ****END OF INPUT****

CARTESIAN COORDINATES (ANGSTROEM)
---------------------------------
  N     -2.526983    1.644610    0.539401
  C     -2.309574    0.430804   -0.263716
  C     -3.543059   -0.493877   -0.155950
  O     -3.559770   -1.614822   -0.589237
  O     -4.602147    0.075386    0.430775
  H     -4.303472    0.974710    0.689949
  C     -1.025447   -0.342914    0.052142
  C      0.250781    0.404006   -0.330854
  C      1.510265   -0.390892    0.003386
  N      2.702104    0.351444   -0.372440
  C      3.997767    0.022671   -0.008400
  N      4.099684   -0.984055    0.943541
  N      5.063631    0.606486   -0.414314
  H     -2.286412    0.732459   -1.314703
  H     -1.014272   -0.576246    1.122559
  H     -1.076507   -1.298385   -0.469583
  H      0.232932    0.616099   -1.405631
  H      0.304202    1.368500    0.179891
  H      1.544459   -0.575336    1.078269
  H      1.458323   -1.369138   -0.495193
  H      2.638588    0.883680   -1.223524
  H      3.488801   -1.778017    0.839937
  H      5.061405   -1.240273    1.103040
  H      4.860793    1.403058   -1.010069
  H     -2.070153    1.586068    1.441314
  H     -2.196817    2.480125    0.078473

 Total Charge           Charge          ....    0
 Multiplicity           Mult            ....    1
 Number of Electrons    NEL             ....   94
 Basis Dimension        Dim             .... 1604

ORBITAL ENERGIES
----------------

  NO   OCC          E(Eh)            E(eV)
   0   2.0000     -20.599085      -560.5296
   1   2.0000     -20.538709      -558.8867
   2   2.0000     -15.589626      -424.2153
   3   2.0000     -15.581835      -424.0033
   4   2.0000     -15.570899      -423.7057
   5   2.0000     -15.503315      -421.8667
   6   2.0000     -11.379495      -309.6518
   7   2.0000     -11.345253      -308.7200
   8   2.0000     -11.302336      -307.5522
   9   2.0000     -11.283617      -307.0428
  10   2.0000     -11.253439      -306.2216
  11   2.0000     -11.252003      -306.1826
  12   2.0000      -1.456613       -39.6365
  13   2.0000      -1.361083       -37.0369
  14   2.0000      -1.303622       -35.4734
  15   2.0000      -1.231881       -33.5212
  16   2.0000      -1.194335       -32.4995
  17   2.0000      -1.136475       -30.9251
  18   2.0000      -1.086254       -29.5585
  19   2.0000      -1.001430       -27.2503
  20   2.0000      -0.912888       -24.8409
  21   2.0000      -0.842538       -22.9266
  22   2.0000      -0.815554       -22.1924
  23   2.0000      -0.807846       -21.9826
  24   2.0000      -0.748325       -20.3630
  25   2.0000      -0.736592       -20.0437
  26   2.0000      -0.709257       -19.2999
  27   2.0000      -0.683000       -18.5854
  28   2.0000      -0.678468       -18.4621
  29   2.0000      -0.659804       -17.9542
  30   2.0000      -0.641024       -17.4432
  31   2.0000      -0.630217       -17.1491
  32   2.0000      -0.622619       -16.9423
  33   2.0000      -0.607869       -16.5410
  34   2.0000      -0.596111       -16.2210
  35   2.0000      -0.584291       -15.8994
  36   2.0000      -0.555779       -15.1235
  37   2.0000      -0.538023       -14.6403
  38   2.0000      -0.524201       -14.2642
  39   2.0000      -0.515943       -14.0395
  40   2.0000      -0.505864       -13.7653
  41   2.0000      -0.474590       -12.9142
  42   2.0000      -0.471597       -12.8328
  43   2.0000      -0.428754       -11.6670
  44   2.0000      -0.424378       -11.5479
  45   2.0000      -0.414427       -11.2771
  46   2.0000      -0.350580        -9.5398
  47   0.0000       0.012664         0.3446
  48   0.0000       0.021515         0.5855
  49   0.0000       0.023457         0.6383
  50   0.0000       0.031322         0.8523
  51   0.0000       0.037547         1.0217

MULLIKEN ATOMIC CHARGES
-----------------------
   0 N :   -0.693611
   1 C :   -0.296121
   2 C :    1.269699
   3 O :   -0.849054
   4 O :   -0.934808
   5 H :    0.400000
   6 C :   -0.307144
   7 C :   -0.404017
   8 C :    0.011478
   9 N :   -0.652770
  10 C :    0.668108
  11 N :   -0.673095
  12 N :   -0.895400
  13 H :    0.277386
  14 H :    0.277986
  15 H :    0.267683
  16 H :    0.257906
  17 H :    0.285691
  18 H :    0.171967
  19 H :    0.283010
  20 H :    0.237341
  21 H :    0.321335
  22 H :    0.222318
  23 H :    0.286241
  24 H :    0.242536
  25 H :    0.225336
Sum of atomic charges:   -0.0000000

LOEWDIN ATOMIC CHARGES
----------------------
   0 N :    1.305786
   1 C :   -0.035703
   2 C :   -1.006019
   3 O :    0.684886
   4 O :    1.254644
   5 H :   -0.951496
   6 C :    0.516122
   7 C :    0.533862
   8 C :    0.375944
   9 N :    0.877778
  10 C :   -0.635503
  11 N :    1.249316
  12 N :    0.956036
  13 H :   -0.290934
  14 H :   -0.257029
  15 H :   -0.297897
  16 H :   -0.259411
  17 H :   -0.268697
  18 H :   -0.296293
  19 H :   -0.254093
  20 H :   -0.516984
  21 H :   -0.525142
  22 H :   -0.527281
  23 H :   -0.705248
  24 H :   -0.467923
  25 H :   -0.458720

  Mayer bond orders larger than 0.100000
B(  0-N ,  1-C ) :   0.7270 B(  0-N ,  5-H ) :   0.1213 B(  0-N , 24-H ) :   0.9313
B(  0-N , 25-H ) :   0.9996 B(  1-C ,  2-C ) :   1.2745 B(  1-C ,  3-O ) :   0.3347
B(  1-C ,  4-O ) :   0.1194 B(  1-C ,  6-C ) :   0.9042 B(  1-C , 13-H ) :   0.9165
B(  2-C ,  3-O ) :   1.2491 B(  2-C ,  4-O ) :   0.5842 B(  2-C ,  6-C ) :  -0.1592
B(  3-O ,  4-O ) :   0.1530 B(  4-O ,  5-H ) :   0.7415 B(  6-C ,  7-C ) :   0.9321
B(  6-C , 14-H ) :   0.8585 B(  6-C , 15-H ) :   0.8292 B(  7-C ,  8-C ) :   1.2211
B(  7-C , 16-H ) :   0.8104 B(  7-C , 17-H ) :   0.8151 B(  8-C ,  9-N ) :   0.6585
B(  8-C , 18-H ) :   0.9269 B(  8-C , 19-H ) :   0.8678 B(  9-N , 10-C ) :   1.3101
B(  9-N , 20-H ) :   1.0044 B( 10-C , 11-N ) :   1.0898 B( 10-C , 12-N ) :   1.5530
B( 11-N , 21-H ) :   0.8479 B( 11-N , 22-H ) :   0.9586 B( 12-N , 23-H ) :   0.8414

MP2 TOTAL ENERGY:     -605.652159860 Eh
FINAL SINGLE POINT ENERGY      -605.652159859657

DIPOLE MOMENT
-------------
                                X             Y             Z
Electronic contribution:     -6.69965      -2.09416      -0.54156
Nuclear contribution   :      6.65605       3.23533       0.62458
                        -----------------------------------------
Total Dipole Moment    :     -0.04360       1.14117       0.08302
                        -----------------------------------------
Magnitude (a.u.)       :      1.14502
Magnitude (Debye)      :      2.91040

Rotational constants in cm-1:     0.093569     0.008735     0.008349
Rotational constants in MHz :  2805.131075   261.878884   250.305366

                             ****ORCA TERMINATED NORMALLY****
TOTAL RUN TIME: 0 days 2 hours 23 minutes 30 seconds 27 msec
