                         Program Version 5.0.4 -  RELEASE  -
|  1> !ri-mp2 aug-cc-pvqz aug-cc-pvqz/c tightscf
|  2> %pal nprocs 16 end
|  3>
|  4> * xyz 0 1
|  5> C    -0.418466     0.644989    0.791107
|  6> C    -0.418466     0.644989   -0.791107
|  7> C     0.418466    -0.644989    0.791107
|  8> C     0.418466     1.946235    0.777144
|  9> C     0.418466    -0.644989   -0.791107
| 10> C     0.418466     1.946235   -0.777144
| 11> C    -0.418466    -1.946235   -0.777144
| 12> C    -0.418466    -1.946235    0.777144
| 13> H    -1.320254     0.645883    1.403108
| 14> H    -1.320254     0.645883   -1.403108
| 15> H     1.320254    -0.645883    1.403108
| 16> H    -0.103896     2.800429    1.206129
| 17> H     1.394828     1.871332    1.257928
| 18> H     1.320254    -0.645883   -1.403108
| 19> H     1.394828     1.871332   -1.257928
| 20> H    -0.103896     2.800429   -1.206129
| 21> H    -1.394828    -1.871332   -1.257928
| 22> H     0.103896    -2.800429   -1.206129
| 23> H     0.103896    -2.800429    1.206129
| 24> H    -1.394828    -1.871332    1.257928
| 25> *
| 26>
| 27>                          ****END OF INPUT****

CARTESIAN COORDINATES (ANGSTROEM)
---------------------------------
  C     -0.418466    0.644989    0.791107
  C     -0.418466    0.644989   -0.791107
  C      0.418466   -0.644989    0.791107
  C      0.418466    1.946235    0.777144
  C      0.418466   -0.644989   -0.791107
  C      0.418466    1.946235   -0.777144
  C     -0.418466   -1.946235   -0.777144
  C     -0.418466   -1.946235    0.777144
  H     -1.320254    0.645883    1.403108
  H     -1.320254    0.645883   -1.403108
  H      1.320254   -0.645883    1.403108
  H     -0.103896    2.800429    1.206129
  H      1.394828    1.871332    1.257928
  H      1.320254   -0.645883   -1.403108
  H      1.394828    1.871332   -1.257928
  H     -0.103896    2.800429   -1.206129
  H     -1.394828   -1.871332   -1.257928
  H      0.103896   -2.800429   -1.206129
  H      0.103896   -2.800429    1.206129
  H     -1.394828   -1.871332    1.257928

 Total Charge           Charge          ....    0
 Multiplicity           Mult            ....    1
 Number of Electrons    NEL             ....   60
 Basis Dimension        Dim             .... 1192

ORBITAL ENERGIES
----------------

  NO   OCC          E(Eh)            E(eV)
   0   2.0000     -11.217302      -305.2383
   1   2.0000     -11.216822      -305.2252
   2   2.0000     -11.216722      -305.2225
   3   2.0000     -11.216237      -305.2093
   4   2.0000     -11.212897      -305.1184
   5   2.0000     -11.212890      -305.1182
   6   2.0000     -11.212356      -305.1037
   7   2.0000     -11.212349      -305.1035
   8   2.0000      -1.175192       -31.9786
   9   2.0000      -1.074588       -29.2410
  10   2.0000      -0.934958       -25.4415
  11   2.0000      -0.931494       -25.3472
  12   2.0000      -0.859180       -23.3795
  13   2.0000      -0.821147       -22.3446
  14   2.0000      -0.751050       -20.4371
  15   2.0000      -0.681075       -18.5330
  16   2.0000      -0.659815       -17.9545
  17   2.0000      -0.654409       -17.8074
  18   2.0000      -0.635062       -17.2809
  19   2.0000      -0.578542       -15.7429
  20   2.0000      -0.547484       -14.8978
  21   2.0000      -0.522257       -14.2113
  22   2.0000      -0.505941       -13.7673
  23   2.0000      -0.493562       -13.4305
  24   2.0000      -0.458809       -12.4848
  25   2.0000      -0.458784       -12.4842
  26   2.0000      -0.430888       -11.7251
  27   2.0000      -0.417040       -11.3482
  28   2.0000      -0.384937       -10.4747
  29   2.0000      -0.376982       -10.2582
  30   0.0000       0.026109         0.7105
  31   0.0000       0.030013         0.8167
  32   0.0000       0.030619         0.8332
  33   0.0000       0.032798         0.8925
  34   0.0000       0.041759         1.1363

MULLIKEN ATOMIC CHARGES
-----------------------
   0 C :   -0.265241
   1 C :   -0.265386
   2 C :   -0.265523
   3 C :   -0.668821
   4 C :   -0.265156
   5 C :   -0.668829
   6 C :   -0.668876
   7 C :   -0.668713
   8 H :    0.427543
   9 H :    0.427553
  10 H :    0.427543
  11 H :    0.283856
  12 H :    0.222747
  13 H :    0.427626
  14 H :    0.222708
  15 H :    0.283863
  16 H :    0.222740
  17 H :    0.283795
  18 H :    0.283856
  19 H :    0.222716
Sum of atomic charges:   -0.0000000

LOEWDIN ATOMIC CHARGES
----------------------
   0 C :    0.189039
   1 C :    0.189039
   2 C :    0.189039
   3 C :    0.572354
   4 C :    0.189039
   5 C :    0.572354
   6 C :    0.572354
   7 C :    0.572354
   8 H :   -0.234349
   9 H :   -0.234349
  10 H :   -0.234349
  11 H :   -0.264994
  12 H :   -0.262050
  13 H :   -0.234349
  14 H :   -0.262050
  15 H :   -0.264994
  16 H :   -0.262050
  17 H :   -0.264994
  18 H :   -0.264994
  19 H :   -0.262050

  Mayer bond orders larger than 0.100000
B(  0-C ,  1-C ) :   0.8364 B(  0-C ,  2-C ) :   0.8015 B(  0-C ,  3-C ) :   0.9074
B(  0-C ,  4-C ) :  -0.1163 B(  0-C ,  8-H ) :   0.8674 B(  1-C ,  2-C ) :  -0.1163
B(  1-C ,  4-C ) :   0.8015 B(  1-C ,  5-C ) :   0.9074 B(  1-C ,  9-H ) :   0.8673
B(  2-C ,  4-C ) :   0.8365 B(  2-C ,  7-C ) :   0.9075 B(  2-C , 10-H ) :   0.8673
B(  3-C ,  5-C ) :   1.1492 B(  3-C , 11-H ) :   0.9557 B(  3-C , 12-H ) :   0.9699
B(  4-C ,  6-C ) :   0.9074 B(  4-C , 13-H ) :   0.8673 B(  5-C , 14-H ) :   0.9700
B(  5-C , 15-H ) :   0.9557 B(  6-C ,  7-C ) :   1.1491 B(  6-C , 16-H ) :   0.9699
B(  6-C , 17-H ) :   0.9558 B(  7-C , 18-H ) :   0.9557 B(  7-C , 19-H ) :   0.9699

MP2 TOTAL ENERGY:     -311.388848483 Eh
FINAL SINGLE POINT ENERGY      -311.388848483241

DIPOLE MOMENT
-------------
                                X             Y             Z
Electronic contribution:     -0.00000      -0.00000       0.00000
Nuclear contribution   :      0.00000       0.00000      -0.00000
                        -----------------------------------------
Total Dipole Moment    :     -0.00000      -0.00000       0.00000
                        -----------------------------------------
Magnitude (a.u.)       :      0.00000
Magnitude (Debye)      :      0.00000

Rotational constants in cm-1:     0.158463     0.059963     0.050580
Rotational constants in MHz :  4750.596354  1797.646974  1516.344701

                             ****ORCA TERMINATED NORMALLY****
TOTAL RUN TIME: 0 days 1 hours 24 minutes 24 seconds 142 msec
