                         Program Version 5.0.4 -  RELEASE  -
|  1> !ri-mp2 aug-cc-pvqz aug-cc-pvqz/c tightscf
|  2> %pal nprocs 16 end
|  3>
|  4> * xyz 0 1
|  5> C      0.082897    1.078427    0.000000
|  6> C      0.082897   -0.051210    1.054630
|  7> C      0.082897   -0.051210   -1.054630
|  8> N     -0.374490   -0.989590    0.000000
|  9> H     -0.845440    1.645623    0.000000
| 10> H      0.926741    1.763706    0.000000
| 11> H      1.090133   -0.261322    1.431487
| 12> H     -0.597396    0.043257    1.901760
| 13> H     -0.597396    0.043257   -1.901760
| 14> H      1.090133   -0.261322   -1.431487
| 15> H      0.062512   -1.902110    0.000000
| 16> *
| 17>
| 18>                          ****END OF INPUT****

CARTESIAN COORDINATES (ANGSTROEM)
---------------------------------
  C      0.082897    1.078427    0.000000
  C      0.082897   -0.051210    1.054630
  C      0.082897   -0.051210   -1.054630
  N     -0.374490   -0.989590    0.000000
  H     -0.845440    1.645623    0.000000
  H      0.926741    1.763706    0.000000
  H      1.090133   -0.261322    1.431487
  H     -0.597396    0.043257    1.901760
  H     -0.597396    0.043257   -1.901760
  H      1.090133   -0.261322   -1.431487
  H      0.062512   -1.902110    0.000000

 Total Charge           Charge          ....    0
 Multiplicity           Mult            ....    1
 Number of Electrons    NEL             ....   32
 Basis Dimension        Dim             ....  642

ORBITAL ENERGIES
----------------

  NO   OCC          E(Eh)            E(eV)
   0   2.0000     -15.535168      -422.7334
   1   2.0000     -11.246535      -306.0338
   2   2.0000     -11.246531      -306.0337
   3   2.0000     -11.219720      -305.3041
   4   2.0000      -1.224142       -33.3106
   5   2.0000      -0.969237       -26.3743
   6   2.0000      -0.909525       -24.7494
   7   2.0000      -0.764631       -20.8067
   8   2.0000      -0.687884       -18.7183
   9   2.0000      -0.652141       -17.7457
  10   2.0000      -0.551775       -15.0146
  11   2.0000      -0.529348       -14.4043
  12   2.0000      -0.517703       -14.0874
  13   2.0000      -0.469380       -12.7725
  14   2.0000      -0.453681       -12.3453
  15   2.0000      -0.370089       -10.0706
  16   0.0000       0.026906         0.7321
  17   0.0000       0.034803         0.9470
  18   0.0000       0.036277         0.9872
  19   0.0000       0.037727         1.0266
  20   0.0000       0.053574         1.4578

MULLIKEN ATOMIC CHARGES
-----------------------
   0 C :   -0.672605
   1 C :   -0.418959
   2 C :   -0.418959
   3 N :   -0.606205
   4 H :    0.279803
   5 H :    0.286053
   6 H :    0.266104
   7 H :    0.397001
   8 H :    0.397001
   9 H :    0.266104
  10 H :    0.224661
Sum of atomic charges:   -0.0000000

LOEWDIN ATOMIC CHARGES
----------------------
   0 C :    0.520697
   1 C :    0.368364
   2 C :    0.368364
   3 N :    0.896604
   4 H :   -0.278658
   5 H :   -0.268852
   6 H :   -0.273012
   7 H :   -0.274756
   8 H :   -0.274756
   9 H :   -0.273012
  10 H :   -0.510983

  Mayer bond orders larger than 0.100000
B(  0-C ,  1-C ) :   1.0519 B(  0-C ,  2-C ) :   1.0519 B(  0-C ,  4-H ) :   0.8870
B(  0-C ,  5-H ) :   0.8925 B(  1-C ,  3-N ) :   0.9032 B(  1-C ,  6-H ) :   0.9046
B(  1-C ,  7-H ) :   0.8083 B(  2-C ,  3-N ) :   0.9032 B(  2-C ,  8-H ) :   0.8083
B(  2-C ,  9-H ) :   0.9046 B(  3-N , 10-H ) :   0.9045

MP2 TOTAL ENERGY:     -172.929502680 Eh
FINAL SINGLE POINT ENERGY      -172.929502679513

DIPOLE MOMENT
-------------
                                X             Y             Z
Electronic contribution:     -0.64724      -1.01053       0.00000
Nuclear contribution   :      1.18635       1.12130       0.00000
                        -----------------------------------------
Total Dipole Moment    :      0.53912       0.11077       0.00000
                        -----------------------------------------
Magnitude (a.u.)       :      0.55038
Magnitude (Debye)      :      1.39895

Rotational constants in cm-1:     0.382903     0.380721     0.220264
Rotational constants in MHz : 11479.134176 11413.721908  6603.360783

                             ****ORCA TERMINATED NORMALLY****
TOTAL RUN TIME: 0 days 0 hours 8 minutes 26 seconds 852 msec
