                         Program Version 5.0.4 -  RELEASE  -
|  1> !ri-mp2 aug-cc-pvqz aug-cc-pvqz/c tightscf
|  2> %pal nprocs 16 end
|  3> %maxcore 3800
|  4>
|  5> * xyz 0 1
|  6> C     -0.379463   -0.952795    0.667838
|  7> C     -1.216504   -0.612725   -0.585325
|  8> C      0.778841    0.063866    0.600579
|  9> C     -0.988784    0.890637   -0.693430
| 10> C      2.095188   -0.498544    0.089983
| 11> O      0.349765    1.101351   -0.325741
| 12> O     -1.140863   -0.858323    1.860672
| 13> O     -0.699210   -1.200894   -1.771280
| 14> O     -1.886143    1.504898    0.226296
| 15> O      3.091379    0.506028   -0.023038
| 16> H     -0.014736   -1.978871    0.624883
| 17> H     -2.268903   -0.855465   -0.435326
| 18> H      0.930469    0.517790    1.580985
| 19> H     -1.123910    1.287185   -1.699521
| 20> H      1.930774   -0.998818   -0.869860
| 21> H      2.475020   -1.231156    0.803418
| 22> H     -1.576805    0.003890    1.866101
| 23> H     -0.895993   -2.142073   -1.764060
| 24> H     -1.658150    2.439069    0.286412
| 25> H      2.747131    1.191335   -0.606172
| 26> *
| 27>
| 28>                          ****END OF INPUT****

CARTESIAN COORDINATES (ANGSTROEM)
---------------------------------
  C     -0.379463   -0.952795    0.667838
  C     -1.216504   -0.612725   -0.585325
  C      0.778841    0.063866    0.600579
  C     -0.988784    0.890637   -0.693430
  C      2.095188   -0.498544    0.089983
  O      0.349765    1.101351   -0.325741
  O     -1.140863   -0.858323    1.860672
  O     -0.699210   -1.200894   -1.771280
  O     -1.886143    1.504898    0.226296
  O      3.091379    0.506028   -0.023038
  H     -0.014736   -1.978871    0.624883
  H     -2.268903   -0.855465   -0.435326
  H      0.930469    0.517790    1.580985
  H     -1.123910    1.287185   -1.699521
  H      1.930774   -0.998818   -0.869860
  H      2.475020   -1.231156    0.803418
  H     -1.576805    0.003890    1.866101
  H     -0.895993   -2.142073   -1.764060
  H     -1.658150    2.439069    0.286412
  H      2.747131    1.191335   -0.606172

 Total Charge           Charge          ....    0
 Multiplicity           Mult            ....    1
 Number of Electrons    NEL             ....   80
 Basis Dimension        Dim             .... 1260

ORBITAL ENERGIES
----------------

  NO   OCC          E(Eh)            E(eV)
   0   2.0000     -20.585028      -560.1471
   1   2.0000     -20.581070      -560.0394
   2   2.0000     -20.574636      -559.8643
   3   2.0000     -20.563599      -559.5640
   4   2.0000     -20.552746      -559.2687
   5   2.0000     -11.349029      -308.8228
   6   2.0000     -11.299161      -307.4658
   7   2.0000     -11.297428      -307.4186
   8   2.0000     -11.288712      -307.1815
   9   2.0000     -11.276962      -306.8617
  10   2.0000      -1.439333       -39.1662
  11   2.0000      -1.384994       -37.6876
  12   2.0000      -1.369670       -37.2706
  13   2.0000      -1.365179       -37.1484
  14   2.0000      -1.347819       -36.6760
  15   2.0000      -1.053681       -28.6721
  16   2.0000      -1.025554       -27.9067
  17   2.0000      -0.911939       -24.8151
  18   2.0000      -0.837195       -22.7812
  19   2.0000      -0.819496       -22.2996
  20   2.0000      -0.756021       -20.5724
  21   2.0000      -0.738308       -20.0904
  22   2.0000      -0.711262       -19.3544
  23   2.0000      -0.690009       -18.7761
  24   2.0000      -0.655540       -17.8382
  25   2.0000      -0.646556       -17.5937
  26   2.0000      -0.624447       -16.9921
  27   2.0000      -0.618693       -16.8355
  28   2.0000      -0.610725       -16.6187
  29   2.0000      -0.585820       -15.9410
  30   2.0000      -0.571136       -15.5414
  31   2.0000      -0.561318       -15.2742
  32   2.0000      -0.533070       -14.5056
  33   2.0000      -0.521067       -14.1789
  34   2.0000      -0.514338       -13.9959
  35   2.0000      -0.485926       -13.2227
  36   2.0000      -0.475418       -12.9368
  37   2.0000      -0.470210       -12.7951
  38   2.0000      -0.437126       -11.8948
  39   2.0000      -0.424537       -11.5522
  40   0.0000       0.022496         0.6122
  41   0.0000       0.025596         0.6965
  42   0.0000       0.033286         0.9058
  43   0.0000       0.035396         0.9632
  44   0.0000       0.045822         1.2469

MULLIKEN ATOMIC CHARGES
-----------------------
   0 C :    0.497270
   1 C :    0.092489
   2 C :    0.247485
   3 C :    0.565440
   4 C :   -0.053849
   5 O :   -0.934592
   6 O :   -1.152926
   7 O :   -0.981630
   8 O :   -0.926360
   9 O :   -0.932234
  10 H :    0.394801
  11 H :    0.426933
  12 H :    0.408783
  13 H :    0.460979
  14 H :    0.170601
  15 H :    0.324441
  16 H :    0.403431
  17 H :    0.317019
  18 H :    0.330668
  19 H :    0.341252
Sum of atomic charges:    0.0000000

LOEWDIN ATOMIC CHARGES
----------------------
   0 C :   -0.217685
   1 C :   -0.246734
   2 C :   -0.199644
   3 C :   -0.575061
   4 C :    0.177706
   5 O :    0.908641
   6 O :    1.310501
   7 O :    1.300800
   8 O :    1.294818
   9 O :    1.280381
  10 H :   -0.312474
  11 H :   -0.292169
  12 H :   -0.300870
  13 H :   -0.316605
  14 H :   -0.302335
  15 H :   -0.307295
  16 H :   -0.853512
  17 H :   -0.766146
  18 H :   -0.763108
  19 H :   -0.819209

  Mayer bond orders larger than 0.100000
B(  0-C ,  1-C ) :   0.9217 B(  0-C ,  2-C ) :   0.9693 B(  0-C ,  5-O ) :   0.1074
B(  0-C ,  7-O ) :   0.1574 B(  0-C , 10-H ) :   0.8056 B(  1-C ,  3-C ) :   0.9181
B(  1-C ,  6-O ) :   0.3052 B(  1-C ,  7-O ) :   0.3102 B(  1-C ,  8-O ) :   0.1691
B(  1-C , 11-H ) :   0.8193 B(  2-C ,  4-C ) :   0.7954 B(  2-C ,  5-O ) :   0.3637
B(  2-C ,  6-O ) :   0.2325 B(  2-C , 12-H ) :   0.7605 B(  3-C ,  5-O ) :   0.8385
B(  3-C ,  7-O ) :   0.1737 B(  3-C ,  8-O ) :   0.4794 B(  3-C , 13-H ) :   0.7855
B(  4-C ,  9-O ) :   0.6243 B(  4-C , 14-H ) :   0.9989 B(  4-C , 15-H ) :   0.8857
B(  6-O , 16-H ) :   0.8193 B(  7-O , 17-H ) :   0.9220 B(  8-O , 18-H ) :   0.9213
B(  9-O , 19-H ) :   0.8516

MP2 TOTAL ENERGY:     -571.911422951 Eh
FINAL SINGLE POINT ENERGY      -571.911422951185

DIPOLE MOMENT
-------------
                                X             Y             Z
Electronic contribution:     -1.34571       1.70331      -0.24131
Nuclear contribution   :      0.54082      -1.75186      -0.21383
                        -----------------------------------------
Total Dipole Moment    :     -0.80488      -0.04856      -0.45514
                        -----------------------------------------
Magnitude (a.u.)       :      0.92593
Magnitude (Debye)      :      2.35353

Rotational constants in cm-1:     0.058935     0.033439     0.033233
Rotational constants in MHz :  1766.831144  1002.476691   996.290951

                             ****ORCA TERMINATED NORMALLY****
TOTAL RUN TIME: 0 days 1 hours 39 minutes 7 seconds 581 msec
