                         Program Version 5.0.4 -  RELEASE  -
|  1> !ri-mp2 aug-cc-pvqz aug-cc-pvqz/c tightscf
|  2> %pal nprocs 16 end
|  3>
|  4> * xyz 0 1
|  5> C      0.000000    0.459417    0.000000
|  6> C      0.930231   -0.717880    0.000000
|  7> O     -1.202256    0.385590    0.000000
|  8> H      0.496537    1.452118    0.000000
|  9> H      1.581867   -0.666234    0.876217
| 10> H      0.376396   -1.653588    0.000000
| 11> H      1.581867   -0.666234   -0.876217
| 12> *
| 13>
| 14>                          ****END OF INPUT****

CARTESIAN COORDINATES (ANGSTROEM)
---------------------------------
  C      0.000000    0.459417    0.000000
  C      0.930231   -0.717880    0.000000
  O     -1.202256    0.385590    0.000000
  H      0.496537    1.452118    0.000000
  H      1.581867   -0.666234    0.876217
  H      0.376396   -1.653588    0.000000
  H      1.581867   -0.666234   -0.876217

 Total Charge           Charge          ....    0
 Multiplicity           Mult            ....    1
 Number of Electrons    NEL             ....   24
 Basis Dimension        Dim             ....  424

ORBITAL ENERGIES
----------------

  NO   OCC          E(Eh)            E(eV)
   0   2.0000     -20.557738      -559.4045
   1   2.0000     -11.335213      -308.4468
   2   2.0000     -11.241684      -305.9018
   3   2.0000      -1.396930       -38.0124
   4   2.0000      -1.022835       -27.8327
   5   2.0000      -0.801936       -21.8218
   6   2.0000      -0.676677       -18.4133
   7   2.0000      -0.627061       -17.0632
   8   2.0000      -0.605904       -16.4875
   9   2.0000      -0.563373       -15.3302
  10   2.0000      -0.506687       -13.7877
  11   2.0000      -0.426910       -11.6168
  12   0.0000       0.023234         0.6322
  13   0.0000       0.034626         0.9422
  14   0.0000       0.038055         1.0355
  15   0.0000       0.047917         1.3039
  16   0.0000       0.076086         2.0704

MULLIKEN ATOMIC CHARGES
-----------------------
   0 C :    0.231659
   1 C :   -0.775540
   2 O :   -0.675610
   3 H :    0.440752
   4 H :    0.238230
   5 H :    0.302280
   6 H :    0.238230
Sum of atomic charges:    0.0000000

LOEWDIN ATOMIC CHARGES
----------------------
   0 C :   -0.262671
   1 C :    0.875198
   2 O :    0.688080
   3 H :   -0.355678
   4 H :   -0.309764
   5 H :   -0.325399
   6 H :   -0.309764

  Mayer bond orders larger than 0.100000
B(  0-C ,  1-C ) :   1.0379 B(  0-C ,  2-O ) :   1.6682 B(  0-C ,  3-H ) :   0.7403
B(  1-C ,  4-H ) :   0.9307 B(  1-C ,  5-H ) :   0.9083 B(  1-C ,  6-H ) :   0.9307

MP2 TOTAL ENERGY:     -153.597890648 Eh
FINAL SINGLE POINT ENERGY      -153.597890647730

DIPOLE MOMENT
-------------
                                X             Y             Z
Electronic contribution:     -2.84061       1.45538      -0.00000
Nuclear contribution   :      4.11081      -1.56326       0.00000
                        -----------------------------------------
Total Dipole Moment    :      1.27020      -0.10788      -0.00000
                        -----------------------------------------
Magnitude (a.u.)       :      1.27477
Magnitude (Debye)      :      3.24021

Rotational constants in cm-1:     1.915935     0.339067     0.304176
Rotational constants in MHz : 57438.296166 10164.983630  9118.958665

                             ****ORCA TERMINATED NORMALLY****
TOTAL RUN TIME: 0 days 0 hours 2 minutes 37 seconds 882 msec
