                         Program Version 5.0.4 -  RELEASE  -
|  1> !ri-mp2 aug-cc-pvqz aug-cc-pvqz/c tightscf
|  2> %pal nprocs 16 end
|  3>
|  4> * xyz 0 1
|  5> C      0.434679   -1.920126        0.000000
|  6> C     -0.444755   -0.925478        0.000000
|  7> C      0.000000    0.486809        0.000000
|  8> O      1.141969    0.875860        0.000000
|  9> O     -1.059533    1.335003        0.000000
| 10> H      1.497057   -1.715390        0.000000
| 11> H      0.116437   -2.953067        0.000000
| 12> H     -1.511645   -1.100215        0.000000
| 13> H     -0.700884    2.234531        0.000000
| 14> *
| 15>
| 16>                          ****END OF INPUT****

CARTESIAN COORDINATES (ANGSTROEM)
---------------------------------
  C      0.434679   -1.920126    0.000000
  C     -0.444755   -0.925478    0.000000
  C      0.000000    0.486809    0.000000
  O      1.141969    0.875860    0.000000
  O     -1.059533    1.335003    0.000000
  H      1.497057   -1.715390    0.000000
  H      0.116437   -2.953067    0.000000
  H     -1.511645   -1.100215    0.000000
  H     -0.700884    2.234531    0.000000

 Total Charge           Charge          ....    0
 Multiplicity           Mult            ....    1
 Number of Electrons    NEL             ....   38
 Basis Dimension        Dim             ....  584

ORBITAL ENERGIES
----------------

  NO   OCC          E(Eh)            E(eV)
   0   2.0000     -20.612500      -560.8946
   1   2.0000     -20.546478      -559.0981
   2   2.0000     -11.390114      -309.9408
   3   2.0000     -11.263749      -306.5022
   4   2.0000     -11.253828      -306.2322
   5   2.0000      -1.464826       -39.8599
   6   2.0000      -1.361768       -37.0556
   7   2.0000      -1.084716       -29.5166
   8   2.0000      -0.908387       -24.7185
   9   2.0000      -0.774526       -21.0759
  10   2.0000      -0.717257       -19.5176
  11   2.0000      -0.700445       -19.0601
  12   2.0000      -0.633550       -17.2398
  13   2.0000      -0.626198       -17.0397
  14   2.0000      -0.601108       -16.3570
  15   2.0000      -0.551242       -15.0001
  16   2.0000      -0.492702       -13.4071
  17   2.0000      -0.459261       -12.4971
  18   2.0000      -0.402745       -10.9593
  19   0.0000       0.024794         0.6747
  20   0.0000       0.030508         0.8302
  21   0.0000       0.038720         1.0536
  22   0.0000       0.049661         1.3514
  23   0.0000       0.062273         1.6945

MULLIKEN ATOMIC CHARGES
-----------------------
   0 C :   -0.615647
   1 C :   -0.722301
   2 C :    1.146384
   3 O :   -0.715638
   4 O :   -0.637944
   5 H :    0.414320
   6 H :    0.337643
   7 H :    0.473464
   8 H :    0.319719
Sum of atomic charges:   -0.0000000

LOEWDIN ATOMIC CHARGES
----------------------
   0 C :    0.781198
   1 C :    0.282302
   2 C :   -1.090416
   3 O :    0.682204
   4 O :    1.229388
   5 H :   -0.355702
   6 H :   -0.337349
   7 H :   -0.370037
   8 H :   -0.821588

  Mayer bond orders larger than 0.100000
B(  0-C ,  1-C ) :   1.7036 B(  0-C ,  2-C ) :  -0.1327 B(  0-C ,  5-H ) :   0.7902
B(  0-C ,  6-H ) :   0.9959 B(  1-C ,  2-C ) :   1.0374 B(  1-C ,  4-O ) :   0.1067
B(  1-C ,  7-H ) :   0.7614 B(  2-C ,  3-O ) :   1.4572 B(  2-C ,  4-O ) :   0.8347
B(  4-O ,  8-H ) :   0.9212

MP2 TOTAL ENERGY:     -266.795291502 Eh
FINAL SINGLE POINT ENERGY      -266.795291501798

DIPOLE MOMENT
-------------
                                X             Y             Z
Electronic contribution:      0.05496       2.97710      -0.00000
Nuclear contribution   :     -0.59196      -3.46548       0.00000
                        -----------------------------------------
Total Dipole Moment    :     -0.53700      -0.48838      -0.00000
                        -----------------------------------------
Magnitude (a.u.)       :      0.72587
Magnitude (Debye)      :      1.84501

Rotational constants in cm-1:     0.370300     0.141591     0.102427
Rotational constants in MHz : 11101.328629  4244.798798  3070.670868

                             ****ORCA TERMINATED NORMALLY****
TOTAL RUN TIME: 0 days 0 hours 7 minutes 20 seconds 288 msec
