                         Program Version 5.0.4 -  RELEASE  -
|  1> !ri-mp2 aug-cc-pvqz aug-cc-pvqz/c tightscf
|  2> %pal nprocs 16 end
|  3> %maxcore 3800
|  4>
|  5> * xyz 0 1
|  6> C     -0.889735    0.889735    0.889735
|  7> C      0.000000    0.000000    1.775473
|  8> C      0.000000    1.775473    0.000000
|  9> C      0.889735   -0.889735    0.889735
| 10> C     -1.775473    0.000000    0.000000
| 11> C     -0.889735   -0.889735   -0.889735
| 12> C      0.000000   -1.775473    0.000000
| 13> C      0.889735    0.889735   -0.889735
| 14> C      0.000000    0.000000   -1.775473
| 15> C      1.775473    0.000000    0.000000
| 16> H      1.520690   -1.520690    1.520690
| 17> H     -1.520690   -1.520690   -1.520690
| 18> H     -1.520690    1.520690    1.520690
| 19> H      2.427208   -0.621055   -0.621055
| 20> H      1.520690    1.520690   -1.520690
| 21> H     -2.427208    0.621055   -0.621055
| 22> H      0.621055   -0.621055   -2.427208
| 23> H      2.427208    0.621055    0.621055
| 24> H      0.621055   -2.427208   -0.621055
| 25> H      0.621055    2.427208    0.621055
| 26> H     -0.621055   -2.427208    0.621055
| 27> H      0.621055    0.621055    2.427208
| 28> H     -0.621055    0.621055   -2.427208
| 29> H     -0.621055    2.427208   -0.621055
| 30> H     -2.427208   -0.621055    0.621055
| 31> H     -0.621055   -0.621055    2.427208
| 32> *
| 33>
| 34>                          ****END OF INPUT****

CARTESIAN COORDINATES (ANGSTROEM)
---------------------------------
  C     -0.889735    0.889735    0.889735
  C      0.000000    0.000000    1.775473
  C      0.000000    1.775473    0.000000
  C      0.889735   -0.889735    0.889735
  C     -1.775473    0.000000    0.000000
  C     -0.889735   -0.889735   -0.889735
  C      0.000000   -1.775473    0.000000
  C      0.889735    0.889735   -0.889735
  C      0.000000    0.000000   -1.775473
  C      1.775473    0.000000    0.000000
  H      1.520690   -1.520690    1.520690
  H     -1.520690   -1.520690   -1.520690
  H     -1.520690    1.520690    1.520690
  H      2.427208   -0.621055   -0.621055
  H      1.520690    1.520690   -1.520690
  H     -2.427208    0.621055   -0.621055
  H      0.621055   -0.621055   -2.427208
  H      2.427208    0.621055    0.621055
  H      0.621055   -2.427208   -0.621055
  H      0.621055    2.427208    0.621055
  H     -0.621055   -2.427208    0.621055
  H      0.621055    0.621055    2.427208
  H     -0.621055    0.621055   -2.427208
  H     -0.621055    2.427208   -0.621055
  H     -2.427208   -0.621055    0.621055
  H     -0.621055   -0.621055    2.427208

 Total Charge           Charge          ....    0
 Multiplicity           Mult            ....    1
 Number of Electrons    NEL             ....   76
 Basis Dimension        Dim             .... 1536

ORBITAL ENERGIES
----------------

  NO   OCC          E(Eh)            E(eV)
   0   2.0000     -11.214194      -305.1537
   1   2.0000     -11.214164      -305.1529
   2   2.0000     -11.214164      -305.1529
   3   2.0000     -11.214164      -305.1529
   4   2.0000     -11.206902      -304.9553
   5   2.0000     -11.206902      -304.9553
   6   2.0000     -11.206867      -304.9544
   7   2.0000     -11.206867      -304.9544
   8   2.0000     -11.206867      -304.9544
   9   2.0000     -11.206801      -304.9526
  10   2.0000      -1.158176       -31.5156
  11   2.0000      -1.031724       -28.0746
  12   2.0000      -1.031724       -28.0746
  13   2.0000      -1.031724       -28.0746
  14   2.0000      -0.902350       -24.5542
  15   2.0000      -0.902350       -24.5542
  16   2.0000      -0.790208       -21.5027
  17   2.0000      -0.790208       -21.5027
  18   2.0000      -0.790208       -21.5027
  19   2.0000      -0.701398       -19.0860
  20   2.0000      -0.632303       -17.2058
  21   2.0000      -0.610409       -16.6101
  22   2.0000      -0.610409       -16.6101
  23   2.0000      -0.610409       -16.6101
  24   2.0000      -0.554058       -15.0767
  25   2.0000      -0.554058       -15.0767
  26   2.0000      -0.554058       -15.0767
  27   2.0000      -0.538052       -14.6411
  28   2.0000      -0.538052       -14.6411
  29   2.0000      -0.538052       -14.6411
  30   2.0000      -0.458941       -12.4884
  31   2.0000      -0.458941       -12.4884
  32   2.0000      -0.455528       -12.3955
  33   2.0000      -0.455528       -12.3955
  34   2.0000      -0.455528       -12.3955
  35   2.0000      -0.400712       -10.9039
  36   2.0000      -0.400712       -10.9039
  37   2.0000      -0.400712       -10.9039
  38   0.0000       0.023171         0.6305
  39   0.0000       0.030197         0.8217
  40   0.0000       0.030198         0.8217
  41   0.0000       0.030200         0.8218
  42   0.0000       0.043222         1.1761

MULLIKEN ATOMIC CHARGES
-----------------------
   0 C :    0.390730
   1 C :   -0.627322
   2 C :   -0.628237
   3 C :    0.391182
   4 C :   -0.628266
   5 C :    0.391110
   6 C :   -0.628618
   7 C :    0.391515
   8 C :   -0.627947
   9 C :   -0.628118
  10 H :    0.307932
  11 H :    0.307208
  12 H :    0.307356
  13 H :    0.080977
  14 H :    0.307794
  15 H :    0.080739
  16 H :    0.081239
  17 H :    0.081365
  18 H :    0.081428
  19 H :    0.081174
  20 H :    0.081213
  21 H :    0.081034
  22 H :    0.080852
  23 H :    0.081344
  24 H :    0.081378
  25 H :    0.080939
Sum of atomic charges:    0.0000000

LOEWDIN ATOMIC CHARGES
----------------------
   0 C :    0.168261
   1 C :    0.553129
   2 C :    0.553129
   3 C :    0.168261
   4 C :    0.553129
   5 C :    0.168261
   6 C :    0.553128
   7 C :    0.168262
   8 C :    0.553129
   9 C :    0.553129
  10 H :   -0.245252
  11 H :   -0.245252
  12 H :   -0.245252
  13 H :   -0.250901
  14 H :   -0.245252
  15 H :   -0.250901
  16 H :   -0.250901
  17 H :   -0.250901
  18 H :   -0.250901
  19 H :   -0.250901
  20 H :   -0.250901
  21 H :   -0.250901
  22 H :   -0.250901
  23 H :   -0.250901
  24 H :   -0.250901
  25 H :   -0.250901

  Mayer bond orders larger than 0.100000
B(  0-C ,  1-C ) :   0.7054 B(  0-C ,  2-C ) :   0.7055 B(  0-C ,  4-C ) :   0.7056
B(  0-C , 12-H ) :   0.9033 B(  1-C ,  3-C ) :   0.7055 B(  1-C , 21-H ) :   1.2031
B(  1-C , 25-H ) :   1.2031 B(  2-C ,  7-C ) :   0.7057 B(  2-C , 19-H ) :   1.2030
B(  2-C , 23-H ) :   1.2030 B(  3-C ,  6-C ) :   0.7060 B(  3-C ,  9-C ) :   0.7055
B(  3-C , 10-H ) :   0.9027 B(  4-C ,  5-C ) :   0.7050 B(  4-C , 15-H ) :   1.2037
B(  4-C , 24-H ) :   1.2030 B(  5-C ,  6-C ) :   0.7059 B(  5-C ,  8-C ) :   0.7059
B(  5-C , 11-H ) :   0.9033 B(  6-C , 18-H ) :   1.2028 B(  6-C , 20-H ) :   1.2032
B(  7-C ,  8-C ) :   0.7057 B(  7-C ,  9-C ) :   0.7053 B(  7-C , 14-H ) :   0.9028
B(  8-C , 16-H ) :   1.2029 B(  8-C , 22-H ) :   1.2033 B(  9-C , 13-H ) :   1.2035
B(  9-C , 17-H ) :   1.2029

MP2 TOTAL ENERGY:     -389.987879024 Eh
FINAL SINGLE POINT ENERGY      -389.987879023661

DIPOLE MOMENT
-------------
                                X             Y             Z
Electronic contribution:     -0.00000      -0.00000      -0.00000
Nuclear contribution   :     -0.00000       0.00000       0.00000
                        -----------------------------------------
Total Dipole Moment    :     -0.00000      -0.00000      -0.00000
                        -----------------------------------------
Magnitude (a.u.)       :      0.00000
Magnitude (Debye)      :      0.00000

Rotational constants in cm-1:     0.056212     0.056212     0.056212
Rotational constants in MHz :  1685.206302  1685.206302  1685.206302

                             ****ORCA TERMINATED NORMALLY****
TOTAL RUN TIME: 0 days 4 hours 4 minutes 33 seconds 278 msec
