                         Program Version 5.0.4 -  RELEASE  -
|  1> !ri-mp2 aug-cc-pvqz aug-cc-pvqz/c tightscf
|  2> %pal nprocs 16 end
|  3>
|  4> * xyz 0 1
|  5> C     0.000000     0.000000    0.000000
|  6> C     0.000000     0.000000    1.299944
|  7> C     0.000000     0.000000   -1.299944
|  8> H     0.000000     0.925401    1.862995
|  9> H     0.000000    -0.925401    1.862995
| 10> H     0.925401     0.000000   -1.862995
| 11> H    -0.925401     0.000000   -1.862995
| 12> *
| 13>
| 14>                          ****END OF INPUT****

CARTESIAN COORDINATES (ANGSTROEM)
---------------------------------
  C      0.000000    0.000000    0.000000
  C      0.000000    0.000000    1.299944
  C      0.000000    0.000000   -1.299944
  H      0.000000    0.925401    1.862995
  H      0.000000   -0.925401    1.862995
  H      0.925401    0.000000   -1.862995
  H     -0.925401    0.000000   -1.862995

 Total Charge           Charge          ....    0
 Multiplicity           Mult            ....    1
 Number of Electrons    NEL             ....   22
 Basis Dimension        Dim             ....  424

ORBITAL ENERGIES
----------------

  NO   OCC          E(Eh)            E(eV)
   0   2.0000     -11.260267      -306.4074
   1   2.0000     -11.234968      -305.7190
   2   2.0000     -11.234858      -305.7160
   3   2.0000      -1.076640       -29.2969
   4   2.0000      -0.960314       -26.1315
   5   2.0000      -0.716542       -19.4981
   6   2.0000      -0.631253       -17.1773
   7   2.0000      -0.608551       -16.5595
   8   2.0000      -0.608551       -16.5595
   9   2.0000      -0.379736       -10.3331
  10   2.0000      -0.379736       -10.3331
  11   0.0000       0.026760         0.7282
  12   0.0000       0.035573         0.9680
  13   0.0000       0.040876         1.1123
  14   0.0000       0.040876         1.1123
  15   0.0000       0.069594         1.8938

MULLIKEN ATOMIC CHARGES
-----------------------
   0 C :   -0.267129
   1 C :   -0.627273
   2 C :   -0.627273
   3 H :    0.380419
   4 H :    0.380419
   5 H :    0.380419
   6 H :    0.380419
Sum of atomic charges:    0.0000000

LOEWDIN ATOMIC CHARGES
----------------------
   0 C :    0.168117
   1 C :    0.706912
   2 C :    0.706912
   3 H :   -0.395486
   4 H :   -0.395486
   5 H :   -0.395486
   6 H :   -0.395486

  Mayer bond orders larger than 0.100000
B(  0-C ,  1-C ) :   1.9950 B(  0-C ,  2-C ) :   1.9950 B(  1-C ,  3-H ) :   0.8366
B(  1-C ,  4-H ) :   0.8366 B(  2-C ,  5-H ) :   0.8366 B(  2-C ,  6-H ) :   0.8366

MP2 TOTAL ENERGY:     -116.423341080 Eh
FINAL SINGLE POINT ENERGY      -116.423341079708

DIPOLE MOMENT
-------------
                                X             Y             Z
Electronic contribution:     -0.00000      -0.00000      -0.00000
Nuclear contribution   :      0.00000       0.00000       0.00000
                        -----------------------------------------
Total Dipole Moment    :     -0.00000      -0.00000      -0.00000
                        -----------------------------------------
Magnitude (a.u.)       :      0.00000
Magnitude (Debye)      :      0.00000

Rotational constants in cm-1:     4.882210     0.299350     0.299350
Rotational constants in MHz : 146364.971185  8974.284009  8974.284009

                             ****ORCA TERMINATED NORMALLY****
TOTAL RUN TIME: 0 days 0 hours 2 minutes 16 seconds 378 msec
