                         Program Version 5.0.4 -  RELEASE  -
|  1> !ri-mp2 aug-cc-pvqz aug-cc-pvqz/c tightscf
|  2> %pal nprocs 16 end
|  3>
|  4> * xyz 0 1
|  5> S     -0.154598    0.797920   -0.000126
|  6> N     -2.619333   -0.626920    0.000187
|  7> N      2.422422   -0.270399    0.000050
|  8> C     -1.619108   -0.044584    0.000062
|  9> C      1.077109   -0.690019   -0.000032
| 10> H      2.715554    0.220385    0.831850
| 11> H      2.715654    0.220307   -0.831658
| 12> H      0.836423   -1.259219   -0.891167
| 13> H      0.836311   -1.259342    0.891152
| 14> *
| 15>
| 16>                          ****END OF INPUT****

CARTESIAN COORDINATES (ANGSTROEM)
---------------------------------
  S     -0.154598    0.797920   -0.000126
  N     -2.619333   -0.626920    0.000187
  N      2.422422   -0.270399    0.000050
  C     -1.619108   -0.044584    0.000062
  C      1.077109   -0.690019   -0.000032
  H      2.715554    0.220385    0.831850
  H      2.715654    0.220307   -0.831658
  H      0.836423   -1.259219   -0.891167
  H      0.836311   -1.259342    0.891152

 Total Charge           Charge          ....    0
 Multiplicity           Mult            ....    1
 Number of Electrons    NEL             ....   46
 Basis Dimension        Dim             ....  588

ORBITAL ENERGIES
----------------

  NO   OCC          E(Eh)            E(eV)
   0   2.0000     -92.002220     -2503.5077
   1   2.0000     -15.590083      -424.2277
   2   2.0000     -15.575492      -423.8307
   3   2.0000     -11.333773      -308.4076
   4   2.0000     -11.291600      -307.2601
   5   2.0000      -9.003723      -245.0038
   6   2.0000      -6.685448      -181.9203
   7   2.0000      -6.683796      -181.8753
   8   2.0000      -6.683074      -181.8557
   9   2.0000      -1.241560       -33.7846
  10   2.0000      -1.223129       -33.2830
  11   2.0000      -1.049983       -28.5715
  12   2.0000      -0.913033       -24.8449
  13   2.0000      -0.735488       -20.0136
  14   2.0000      -0.679978       -18.5031
  15   2.0000      -0.656855       -17.8739
  16   2.0000      -0.593749       -16.1567
  17   2.0000      -0.570313       -15.5190
  18   2.0000      -0.535690       -14.5769
  19   2.0000      -0.515423       -14.0254
  20   2.0000      -0.482601       -13.1322
  21   2.0000      -0.403523       -10.9804
  22   2.0000      -0.380020       -10.3409
  23   0.0000       0.017012         0.4629
  24   0.0000       0.031721         0.8632
  25   0.0000       0.035138         0.9562
  26   0.0000       0.049841         1.3562
  27   0.0000       0.056225         1.5300

MULLIKEN ATOMIC CHARGES
-----------------------
   0 S :    0.358915
   1 N :   -0.516078
   2 N :   -0.688444
   3 C :   -0.120883
   4 C :   -0.232381
   5 H :    0.290488
   6 H :    0.290425
   7 H :    0.309027
   8 H :    0.308930
Sum of atomic charges:    0.0000000

LOEWDIN ATOMIC CHARGES
----------------------
   0 S :    1.159864
   1 N :    0.256006
   2 N :    1.209113
   3 C :   -0.923698
   4 C :    0.056890
   5 H :   -0.507365
   6 H :   -0.507503
   7 H :   -0.371748
   8 H :   -0.371558

  Mayer bond orders larger than 0.100000
B(  0-S ,  3-C ) :   0.9302 B(  0-S ,  4-C ) :   0.8661 B(  1-N ,  3-C ) :   2.6221
B(  2-N ,  4-C ) :   1.0096 B(  2-N ,  5-H ) :   0.8852 B(  2-N ,  6-H ) :   0.8853
B(  4-C ,  7-H ) :   0.8727 B(  4-C ,  8-H ) :   0.8728

MP2 TOTAL ENERGY:     -585.539050043 Eh
FINAL SINGLE POINT ENERGY      -585.539050042923

DIPOLE MOMENT
-------------
                                X             Y             Z
Electronic contribution:     -5.05929       2.41319      -0.00029
Nuclear contribution   :      6.96749      -2.06622       0.00018
                        -----------------------------------------
Total Dipole Moment    :      1.90820       0.34697      -0.00011
                        -----------------------------------------
Magnitude (a.u.)       :      1.93949
Magnitude (Debye)      :      4.92980

Rotational constants in cm-1:     0.433147     0.069317     0.061051
Rotational constants in MHz : 12985.417527  2078.076367  1830.267113

                             ****ORCA TERMINATED NORMALLY****
TOTAL RUN TIME: 0 days 0 hours 5 minutes 41 seconds 169 msec
