                         Program Version 5.0.4 -  RELEASE  -
|  1> !ri-mp2 aug-cc-pvqz aug-cc-pvqz/c tightscf
|  2> %pal nprocs 16 end
|  3> %maxcore 3800
|  4>
|  5> * xyz 0 1
|  6> C      0.000000    0.719869    1.218890
|  7> C      0.000000   -0.719869    1.218890
|  8> C      0.000000    1.398321    0.000000
|  9> C      0.000000    1.401530    2.470807
| 10> C      0.000000   -1.398321    0.000000
| 11> C      0.000000   -1.401530    2.470807
| 12> C      0.000000    0.719869   -1.218890
| 13> C      0.000000    0.710698    3.646151
| 14> C      0.000000   -0.719869   -1.218890
| 15> C      0.000000   -0.710698    3.646151
| 16> C      0.000000    1.401530   -2.470807
| 17> C      0.000000   -1.401530   -2.470807
| 18> C      0.000000    0.710698   -3.646151
| 19> C      0.000000   -0.710698   -3.646151
| 20> H      0.000000    2.481982    0.000000
| 21> H      0.000000    2.484308    2.470066
| 22> H      0.000000   -2.481982    0.000000
| 23> H      0.000000   -2.484308    2.470066
| 24> H      0.000000    1.241764    4.588686
| 25> H      0.000000   -1.241764    4.588686
| 26> H      0.000000    2.484308   -2.470066
| 27> H      0.000000   -2.484308   -2.470066
| 28> H      0.000000    1.241764   -4.588686
| 29> H      0.000000   -1.241764   -4.588686
| 30> *
| 31>
| 32>                          ****END OF INPUT****

CARTESIAN COORDINATES (ANGSTROEM)
---------------------------------
  C      0.000000    0.719869    1.218890
  C      0.000000   -0.719869    1.218890
  C      0.000000    1.398321    0.000000
  C      0.000000    1.401530    2.470807
  C      0.000000   -1.398321    0.000000
  C      0.000000   -1.401530    2.470807
  C      0.000000    0.719869   -1.218890
  C      0.000000    0.710698    3.646151
  C      0.000000   -0.719869   -1.218890
  C      0.000000   -0.710698    3.646151
  C      0.000000    1.401530   -2.470807
  C      0.000000   -1.401530   -2.470807
  C      0.000000    0.710698   -3.646151
  C      0.000000   -0.710698   -3.646151
  H      0.000000    2.481982    0.000000
  H      0.000000    2.484308    2.470066
  H      0.000000   -2.481982    0.000000
  H      0.000000   -2.484308    2.470066
  H      0.000000    1.241764    4.588686
  H      0.000000   -1.241764    4.588686
  H      0.000000    2.484308   -2.470066
  H      0.000000   -2.484308   -2.470066
  H      0.000000    1.241764   -4.588686
  H      0.000000   -1.241764   -4.588686

 Total Charge           Charge          ....    0
 Multiplicity           Mult            ....    1
 Number of Electrons    NEL             ....   94
 Basis Dimension        Dim             .... 1580

ORBITAL ENERGIES
----------------

  NO   OCC          E(Eh)            E(eV)
   0   2.0000     -11.245212      -305.9978
   1   2.0000     -11.245149      -305.9961
   2   2.0000     -11.244268      -305.9721
   3   2.0000     -11.244160      -305.9691
   4   2.0000     -11.237100      -305.7770
   5   2.0000     -11.237099      -305.7770
   6   2.0000     -11.236924      -305.7722
   7   2.0000     -11.236911      -305.7719
   8   2.0000     -11.236678      -305.7656
   9   2.0000     -11.236668      -305.7653
  10   2.0000     -11.235440      -305.7319
  11   2.0000     -11.235439      -305.7318
  12   2.0000     -11.234661      -305.7107
  13   2.0000     -11.234661      -305.7107
  14   2.0000      -1.188463       -32.3397
  15   2.0000      -1.148895       -31.2630
  16   2.0000      -1.086768       -29.5724
  17   2.0000      -1.066285       -29.0151
  18   2.0000      -1.024885       -27.8885
  19   2.0000      -1.007345       -27.4112
  20   2.0000      -0.963214       -26.2104
  21   2.0000      -0.880781       -23.9673
  22   2.0000      -0.844819       -22.9887
  23   2.0000      -0.817197       -22.2370
  24   2.0000      -0.811353       -22.0780
  25   2.0000      -0.746420       -20.3111
  26   2.0000      -0.712062       -19.3762
  27   2.0000      -0.689707       -18.7679
  28   2.0000      -0.650320       -17.6961
  29   2.0000      -0.643317       -17.5055
  30   2.0000      -0.628270       -17.0961
  31   2.0000      -0.618890       -16.8409
  32   2.0000      -0.593304       -16.1446
  33   2.0000      -0.581403       -15.8208
  34   2.0000      -0.575378       -15.6568
  35   2.0000      -0.549503       -14.9527
  36   2.0000      -0.548462       -14.9244
  37   2.0000      -0.539406       -14.6780
  38   2.0000      -0.497749       -13.5444
  39   2.0000      -0.496165       -13.5013
  40   2.0000      -0.488076       -13.2812
  41   2.0000      -0.471987       -12.8434
  42   2.0000      -0.415618       -11.3095
  43   2.0000      -0.408209       -11.1079
  44   2.0000      -0.348907        -9.4943
  45   2.0000      -0.311303        -8.4710
  46   2.0000      -0.259851        -7.0709
  47   0.0000       0.024981         0.6798
  48   0.0000       0.024991         0.6800
  49   0.0000       0.025189         0.6854
  50   0.0000       0.034046         0.9264
  51   0.0000       0.034681         0.9437

MULLIKEN ATOMIC CHARGES
-----------------------
   0 C :    0.713692
   1 C :    0.713595
   2 C :   -0.393316
   3 C :   -0.613805
   4 C :   -0.393289
   5 C :   -0.613666
   6 C :    0.713195
   7 C :   -0.417402
   8 C :    0.713176
   9 C :   -0.417465
  10 C :   -0.614512
  11 C :   -0.613599
  12 C :   -0.417093
  13 C :   -0.417715
  14 H :    0.115630
  15 H :    0.189467
  16 H :    0.115556
  17 H :    0.189459
  18 H :    0.267183
  19 H :    0.267035
  20 H :    0.189330
  21 H :    0.189502
  22 H :    0.267690
  23 H :    0.267352
Sum of atomic charges:   -0.0000000

LOEWDIN ATOMIC CHARGES
----------------------
   0 C :   -0.091990
   1 C :   -0.091990
   2 C :    0.375943
   3 C :    0.357716
   4 C :    0.375943
   5 C :    0.357716
   6 C :   -0.091991
   7 C :    0.352842
   8 C :   -0.091990
   9 C :    0.352842
  10 C :    0.357716
  11 C :    0.357716
  12 C :    0.352842
  13 C :    0.352841
  14 H :   -0.318257
  15 H :   -0.321741
  16 H :   -0.318257
  17 H :   -0.321741
  18 H :   -0.325669
  19 H :   -0.325669
  20 H :   -0.321741
  21 H :   -0.321741
  22 H :   -0.325669
  23 H :   -0.325669

  Mayer bond orders larger than 0.100000
B(  0-C ,  1-C ) :   1.0179 B(  0-C ,  2-C ) :   0.6524 B(  0-C ,  3-C ) :   0.7861
B(  0-C ,  4-C ) :  -0.1941 B(  0-C ,  5-C ) :  -0.2362 B(  0-C ,  6-C ) :  -0.5801
B(  0-C ,  7-C ) :  -0.3009 B(  0-C ,  8-C ) :   0.2488 B(  0-C , 14-H ) :  -0.1921
B(  0-C , 15-H ) :  -0.1602 B(  1-C ,  2-C ) :  -0.1950 B(  1-C ,  3-C ) :  -0.2359
B(  1-C ,  4-C ) :   0.6535 B(  1-C ,  5-C ) :   0.7851 B(  1-C ,  6-C ) :   0.2489
B(  1-C ,  8-C ) :  -0.5792 B(  1-C ,  9-C ) :  -0.3016 B(  1-C , 16-H ) :  -0.1919
B(  1-C , 17-H ) :  -0.1604 B(  2-C ,  3-C ) :  -0.4876 B(  2-C ,  4-C ) :   0.2499
B(  2-C ,  6-C ) :   0.6524 B(  2-C ,  8-C ) :  -0.1938 B(  2-C , 10-C ) :  -0.4879
B(  2-C , 14-H ) :   1.1975 B(  3-C ,  5-C ) :   0.2468 B(  3-C ,  7-C ) :   1.4460
B(  3-C , 15-H ) :   1.1278 B(  3-C , 18-H ) :  -0.1657 B(  4-C ,  5-C ) :  -0.4871
B(  4-C ,  6-C ) :  -0.1937 B(  4-C ,  8-C ) :   0.6519 B(  4-C , 11-C ) :  -0.4882
B(  4-C , 16-H ) :   1.1975 B(  5-C ,  9-C ) :   1.4460 B(  5-C , 17-H ) :   1.1280
B(  5-C , 19-H ) :  -0.1656 B(  6-C ,  8-C ) :   1.0190 B(  6-C , 10-C ) :   0.7850
B(  6-C , 11-C ) :  -0.2357 B(  6-C , 12-C ) :  -0.3008 B(  6-C , 14-H ) :  -0.1918
B(  6-C , 20-H ) :  -0.1605 B(  7-C ,  9-C ) :   1.0465 B(  7-C , 18-H ) :   1.1306
B(  8-C , 10-C ) :  -0.2356 B(  8-C , 11-C ) :   0.7852 B(  8-C , 13-C ) :  -0.3008
B(  8-C , 16-H ) :  -0.1919 B(  8-C , 21-H ) :  -0.1605 B(  9-C , 19-H ) :   1.1308
B( 10-C , 11-C ) :   0.2468 B( 10-C , 12-C ) :   1.4482 B( 10-C , 20-H ) :   1.1278
B( 10-C , 22-H ) :  -0.1650 B( 11-C , 13-C ) :   1.4476 B( 11-C , 21-H ) :   1.1276
B( 11-C , 23-H ) :  -0.1651 B( 12-C , 13-C ) :   1.0474 B( 12-C , 22-H ) :   1.1294
B( 13-C , 23-H ) :   1.1299

MP2 TOTAL ENERGY:     -538.537270671 Eh
FINAL SINGLE POINT ENERGY      -538.537270671343

DIPOLE MOMENT
-------------
                                X             Y             Z
Electronic contribution:     -0.00000       0.00000      -0.00000
Nuclear contribution   :      0.00000      -0.00000      -0.00000
                        -----------------------------------------
Total Dipole Moment    :     -0.00000       0.00000      -0.00000
                        -----------------------------------------
Magnitude (a.u.)       :      0.00000
Magnitude (Debye)      :      0.00000

Rotational constants in cm-1:     0.072033     0.015148     0.012516
Rotational constants in MHz :  2159.492852   454.111680   375.210142

                             ****ORCA TERMINATED NORMALLY****
TOTAL RUN TIME: 0 days 3 hours 38 minutes 31 seconds 642 msec
