                         Program Version 5.0.4 -  RELEASE  -
|  1> !ri-mp2 aug-cc-pvqz aug-cc-pvqz/c tightscf
|  2> %pal nprocs 16 end
|  3>
|  4> * xyz 0 1
|  5> C      0.000000    0.000000   -2.493269
|  6> C      0.000000    1.260954   -1.903510
|  7> C      0.000000    0.747825    0.551519
|  8> C      0.000000    1.588911   -0.550232
|  9> C      0.000000    0.000000    2.698578
| 10> C      0.000000   -1.145715    1.894921
| 11> C      0.000000   -0.747825    0.551519
| 12> C      0.000000    1.145715    1.894921
| 13> C      0.000000   -1.588911   -0.550232
| 14> C      0.000000   -1.260954   -1.903510
| 15> H      0.000000    0.000000   -3.577631
| 16> H      0.000000    2.098972   -2.589739
| 17> H      0.000000    2.650420   -0.323058
| 18> H      0.000000    0.000000    3.778585
| 19> H      0.000000   -2.167642    2.240201
| 20> H      0.000000    2.167642    2.240201
| 21> H      0.000000   -2.650420   -0.323058
| 22> H      0.000000   -2.098972   -2.589739
| 23> *
| 24>
| 25>                          ****END OF INPUT****

CARTESIAN COORDINATES (ANGSTROEM)
---------------------------------
  C      0.000000    0.000000   -2.493269
  C      0.000000    1.260954   -1.903510
  C      0.000000    0.747825    0.551519
  C      0.000000    1.588911   -0.550232
  C      0.000000    0.000000    2.698578
  C      0.000000   -1.145715    1.894921
  C      0.000000   -0.747825    0.551519
  C      0.000000    1.145715    1.894921
  C      0.000000   -1.588911   -0.550232
  C      0.000000   -1.260954   -1.903510
  H      0.000000    0.000000   -3.577631
  H      0.000000    2.098972   -2.589739
  H      0.000000    2.650420   -0.323058
  H      0.000000    0.000000    3.778585
  H      0.000000   -2.167642    2.240201
  H      0.000000    2.167642    2.240201
  H      0.000000   -2.650420   -0.323058
  H      0.000000   -2.098972   -2.589739

 Total Charge           Charge          ....    0
 Multiplicity           Mult            ....    1
 Number of Electrons    NEL             ....   68
 Basis Dimension        Dim             .... 1168

ORBITAL ENERGIES
----------------

  NO   OCC          E(Eh)            E(eV)
   0   2.0000     -11.262833      -306.4773
   1   2.0000     -11.262829      -306.4772
   2   2.0000     -11.260349      -306.4097
   3   2.0000     -11.242718      -305.9299
   4   2.0000     -11.242661      -305.9284
   5   2.0000     -11.241809      -305.9052
   6   2.0000     -11.241085      -305.8855
   7   2.0000     -11.228771      -305.5504
   8   2.0000     -11.212809      -305.1161
   9   2.0000     -11.212748      -305.1144
  10   2.0000      -1.177472       -32.0407
  11   2.0000      -1.115111       -30.3437
  12   2.0000      -1.071085       -29.1457
  13   2.0000      -1.004978       -27.3468
  14   2.0000      -0.962333       -26.1864
  15   2.0000      -0.884241       -24.0614
  16   2.0000      -0.849146       -23.1064
  17   2.0000      -0.753050       -20.4915
  18   2.0000      -0.747189       -20.3320
  19   2.0000      -0.711030       -19.3481
  20   2.0000      -0.681474       -18.5439
  21   2.0000      -0.631396       -17.1812
  22   2.0000      -0.627504       -17.0752
  23   2.0000      -0.575197       -15.6519
  24   2.0000      -0.557098       -15.1594
  25   2.0000      -0.532424       -14.4880
  26   2.0000      -0.531962       -14.4754
  27   2.0000      -0.530748       -14.4424
  28   2.0000      -0.513985       -13.9862
  29   2.0000      -0.479622       -13.0512
  30   2.0000      -0.452460       -12.3121
  31   2.0000      -0.407671       -11.0933
  32   2.0000      -0.301418        -8.2020
  33   2.0000      -0.261411        -7.1133
  34   0.0000       0.023165         0.6304
  35   0.0000       0.026964         0.7337
  36   0.0000       0.028962         0.7881
  37   0.0000       0.037813         1.0289
  38   0.0000       0.037877         1.0307

MULLIKEN ATOMIC CHARGES
-----------------------
   0 C :   -0.353731
   1 C :   -0.392618
   2 C :    0.521659
   3 C :   -0.273564
   4 C :   -0.519539
   5 C :   -0.523390
   6 C :    0.521610
   7 C :   -0.523476
   8 C :   -0.273793
   9 C :   -0.392781
  10 H :    0.357046
  11 H :    0.248364
  12 H :    0.257850
  13 H :    0.309989
  14 H :    0.265099
  15 H :    0.265031
  16 H :    0.257845
  17 H :    0.248399
Sum of atomic charges:    0.0000000

LOEWDIN ATOMIC CHARGES
----------------------
   0 C :    0.355624
   1 C :    0.371962
   2 C :   -0.110338
   3 C :    0.381489
   4 C :    0.339359
   5 C :    0.330750
   6 C :   -0.110338
   7 C :    0.330750
   8 C :    0.381489
   9 C :    0.371962
  10 H :   -0.339441
  11 H :   -0.349724
  12 H :   -0.330525
  13 H :   -0.311078
  14 H :   -0.315846
  15 H :   -0.315846
  16 H :   -0.330525
  17 H :   -0.349724

  Mayer bond orders larger than 0.100000
B(  0-C ,  1-C ) :   1.2827 B(  0-C ,  9-C ) :   1.2829 B(  0-C , 10-H ) :   0.9470
B(  0-C , 11-H ) :  -0.1292 B(  0-C , 17-H ) :  -0.1291 B(  1-C ,  2-C ) :  -0.2286
B(  1-C ,  3-C ) :   1.2566 B(  1-C , 11-H ) :   1.1110 B(  1-C , 12-H ) :  -0.1008
B(  2-C ,  3-C ) :   0.9949 B(  2-C ,  4-C ) :  -0.2927 B(  2-C ,  5-C ) :  -0.2082
B(  2-C ,  6-C ) :   0.5975 B(  2-C ,  7-C ) :   0.9065 B(  2-C , 12-H ) :  -0.1630
B(  2-C , 15-H ) :  -0.1131 B(  3-C , 11-H ) :  -0.1423 B(  3-C , 12-H ) :   1.0110
B(  4-C ,  5-C ) :   1.3948 B(  4-C ,  6-C ) :  -0.2930 B(  4-C ,  7-C ) :   1.3948
B(  4-C , 13-H ) :   1.0925 B(  5-C ,  6-C ) :   0.9064 B(  5-C , 14-H ) :   1.0506
B(  6-C ,  7-C ) :  -0.2081 B(  6-C ,  8-C ) :   0.9952 B(  6-C ,  9-C ) :  -0.2285
B(  6-C , 14-H ) :  -0.1131 B(  6-C , 16-H ) :  -0.1629 B(  7-C , 15-H ) :   1.0507
B(  8-C ,  9-C ) :   1.2566 B(  8-C , 16-H ) :   1.0110 B(  8-C , 17-H ) :  -0.1424
B(  9-C , 16-H ) :  -0.1008 B(  9-C , 17-H ) :   1.1110

MP2 TOTAL ENERGY:     -385.121184541 Eh
FINAL SINGLE POINT ENERGY      -385.121184540607

DIPOLE MOMENT
-------------
                                X             Y             Z
Electronic contribution:     -0.00000      -0.00000       0.57929
Nuclear contribution   :      0.00000      -0.00000      -1.14009
                        -----------------------------------------
Total Dipole Moment    :     -0.00000      -0.00000      -0.56080
                        -----------------------------------------
Magnitude (a.u.)       :      0.56080
Magnitude (Debye)      :      1.42544

Rotational constants in cm-1:     0.095605     0.042024     0.029192
Rotational constants in MHz :  2866.180184  1259.853720   875.166771

                             ****ORCA TERMINATED NORMALLY****
TOTAL RUN TIME: 0 days 1 hours 37 minutes 36 seconds 208 msec
