                         Program Version 5.0.4 -  RELEASE  -
|  1> !ri-mp2 aug-cc-pvqz aug-cc-pvqz/c tightscf
|  2> %pal nprocs 16 end
|  3>
|  4> * xyz 0 1
|  5> C     -0.574872   -0.536672        0.000000
|  6> N     -1.065007   -1.579735        0.000000
|  7> C      0.000000    0.768522        0.000000
|  8> H     -0.704356    1.590862        0.000000
|  9> C      1.313391    0.985354        0.000000
| 10> H      2.024361    0.171397        0.000000
| 11> H      1.703931    1.992659        0.000000
| 12> *
| 13>
| 14>                          ****END OF INPUT****

CARTESIAN COORDINATES (ANGSTROEM)
---------------------------------
  C     -0.574872   -0.536672    0.000000
  N     -1.065007   -1.579735    0.000000
  C      0.000000    0.768522    0.000000
  H     -0.704356    1.590862    0.000000
  C      1.313391    0.985354    0.000000
  H      2.024361    0.171397    0.000000
  H      1.703931    1.992659    0.000000

 Total Charge           Charge          ....    0
 Multiplicity           Mult            ....    1
 Number of Electrons    NEL             ....   28
 Basis Dimension        Dim             ....  458

ORBITAL ENERGIES
----------------

  NO   OCC          E(Eh)            E(eV)
   0   2.0000     -15.575149      -423.8214
   1   2.0000     -11.291713      -307.2631
   2   2.0000     -11.282003      -306.9989
   3   2.0000     -11.278866      -306.9136
   4   2.0000      -1.227258       -33.3954
   5   2.0000      -1.102521       -30.0011
   6   2.0000      -0.888840       -24.1866
   7   2.0000      -0.730159       -19.8686
   8   2.0000      -0.663942       -18.0668
   9   2.0000      -0.587595       -15.9893
  10   2.0000      -0.555781       -15.1236
  11   2.0000      -0.522367       -14.2143
  12   2.0000      -0.472903       -12.8684
  13   2.0000      -0.399909       -10.8821
  14   0.0000       0.019211         0.5228
  15   0.0000       0.031303         0.8518
  16   0.0000       0.038890         1.0583
  17   0.0000       0.055710         1.5159
  18   0.0000       0.068439         1.8623

MULLIKEN ATOMIC CHARGES
-----------------------
   0 C :    0.458474
   1 N :   -0.630761
   2 C :   -0.425701
   3 H :    0.524731
   4 C :   -0.764914
   5 H :    0.468724
   6 H :    0.369446
Sum of atomic charges:   -0.0000000

LOEWDIN ATOMIC CHARGES
----------------------
   0 C :   -0.344491
   1 N :    0.389036
   2 C :    0.237533
   3 H :   -0.372520
   4 C :    0.774913
   5 H :   -0.342209
   6 H :   -0.342262

  Mayer bond orders larger than 0.100000
B(  0-C ,  1-N ) :   2.5624 B(  0-C ,  2-C ) :   1.1527 B(  2-C ,  3-H ) :   0.6998
B(  2-C ,  4-C ) :   1.7719 B(  4-C ,  5-H ) :   0.7551 B(  4-C ,  6-H ) :   0.9253

MP2 TOTAL ENERGY:     -170.539640130 Eh
FINAL SINGLE POINT ENERGY      -170.539640130008

DIPOLE MOMENT
-------------
                                X             Y             Z
Electronic contribution:     -2.09108      -2.23752       0.00000
Nuclear contribution   :      2.99050       3.71191       0.00000
                        -----------------------------------------
Total Dipole Moment    :      0.89942       1.47439       0.00000
                        -----------------------------------------
Magnitude (a.u.)       :      1.72707
Magnitude (Debye)      :      4.38986

Rotational constants in cm-1:     1.716867     0.165861     0.151249
Rotational constants in MHz : 51470.366326  4972.384372  4534.336863

                             ****ORCA TERMINATED NORMALLY****
TOTAL RUN TIME: 0 days 0 hours 2 minutes 32 seconds 419 msec
