                         Program Version 5.0.4 -  RELEASE  -
|  1> !ri-mp2 aug-cc-pvqz aug-cc-pvqz/c tightscf
|  2> %pal nprocs 16 end
|  3>
|  4> * xyz 0 1
|  5> O     -1.938443    0.000039   -0.123358
|  6> N      1.923699    0.000027    0.086116
|  7> C      0.571151   -0.000066   -0.003646
|  8> C     -0.628026   -0.000043    0.028755
|  9> H      2.378420    0.835039   -0.252203
| 10> H      2.378550   -0.834876   -0.252294
| 11> H     -2.374067   -0.000010    0.737900
| 12> *
| 13>
| 14>                          ****END OF INPUT****

CARTESIAN COORDINATES (ANGSTROEM)
---------------------------------
  O     -1.938443    0.000039   -0.123358
  N      1.923699    0.000027    0.086116
  C      0.571151   -0.000066   -0.003646
  C     -0.628026   -0.000043    0.028755
  H      2.378420    0.835039   -0.252203
  H      2.378550   -0.834876   -0.252294
  H     -2.374067   -0.000010    0.737900

 Total Charge           Charge          ....    0
 Multiplicity           Mult            ....    1
 Number of Electrons    NEL             ....   30
 Basis Dimension        Dim             ....  458

ORBITAL ENERGIES
----------------

  NO   OCC          E(Eh)            E(eV)
   0   2.0000     -20.618141      -561.0481
   1   2.0000     -15.582510      -424.0216
   2   2.0000     -11.267901      -306.6152
   3   2.0000     -11.245436      -306.0039
   4   2.0000      -1.426802       -38.8253
   5   2.0000      -1.217115       -33.1194
   6   2.0000      -0.994823       -27.0705
   7   2.0000      -0.798657       -21.7326
   8   2.0000      -0.718473       -19.5506
   9   2.0000      -0.695235       -18.9183
  10   2.0000      -0.652104       -17.7446
  11   2.0000      -0.601048       -16.3553
  12   2.0000      -0.513550       -13.9744
  13   2.0000      -0.362486        -9.8638
  14   2.0000      -0.335724        -9.1355
  15   0.0000       0.022040         0.5997
  16   0.0000       0.029111         0.7922
  17   0.0000       0.042583         1.1587
  18   0.0000       0.070446         1.9169
  19   0.0000       0.082020         2.2319

MULLIKEN ATOMIC CHARGES
-----------------------
   0 O :   -0.760814
   1 N :   -0.823190
   2 C :    0.108777
   3 C :    0.511741
   4 H :    0.318750
   5 H :    0.318730
   6 H :    0.326006
Sum of atomic charges:   -0.0000000

LOEWDIN ATOMIC CHARGES
----------------------
   0 O :    1.139063
   1 N :    1.136815
   2 C :   -0.107671
   3 C :   -0.283703
   4 H :   -0.536359
   5 H :   -0.536362
   6 H :   -0.811783

  Mayer bond orders larger than 0.100000
B(  0-O ,  2-C ) :   0.1866 B(  0-O ,  3-C ) :   0.7423 B(  0-O ,  6-H ) :   0.9347
B(  1-N ,  2-C ) :   1.0590 B(  1-N ,  4-H ) :   0.8726 B(  1-N ,  5-H ) :   0.8726
B(  2-C ,  3-C ) :   2.7863

MP2 TOTAL ENERGY:     -207.599332652 Eh
FINAL SINGLE POINT ENERGY      -207.599332651582

DIPOLE MOMENT
-------------
                                X             Y             Z
Electronic contribution:     -2.05290      -0.00009      -0.06687
Nuclear contribution   :      2.33423       0.00015       0.22908
                        -----------------------------------------
Total Dipole Moment    :      0.28133       0.00006       0.16221
                        -----------------------------------------
Magnitude (a.u.)       :      0.32474
Magnitude (Debye)      :      0.82543

Rotational constants in cm-1:     7.092857     0.121601     0.121222
Rotational constants in MHz : 212638.513945  3645.518323  3634.135480

                             ****ORCA TERMINATED NORMALLY****
TOTAL RUN TIME: 0 days 0 hours 2 minutes 32 seconds 999 msec
