                         Program Version 5.0.4 -  RELEASE  -
|  1> !ri-mp2 aug-cc-pvqz aug-cc-pvqz/c tightscf
|  2> %pal nprocs 16 end
|  3> %maxcore 3800
|  4>
|  5> * xyz 0 1
|  6> C      0.000000    0.000000   -0.139949
|  7> C      0.000000    0.000000    1.250982
|  8> C      0.000000    1.278325    1.873143
|  9> C      0.000000   -1.278325    1.873143
| 10> C      0.000000    1.157671   -0.947530
| 11> C      0.000000   -1.157671   -0.947530
| 12> C      0.000000    2.419948    1.100100
| 13> C      0.000000   -2.419948    1.100100
| 14> C      0.000000    2.381426   -0.319988
| 15> C      0.000000   -2.381426   -0.319988
| 16> C      0.000000    0.679125   -2.336932
| 17> C      0.000000   -0.679125   -2.336932
| 18> H      0.000000    3.385258    1.589050
| 19> H      0.000000   -3.385258    1.589050
| 20> H      0.000000    1.356296    2.952947
| 21> H      0.000000   -1.356296    2.952947
| 22> H      0.000000    3.310213   -0.876427
| 23> H      0.000000   -3.310213   -0.876427
| 24> H      0.000000    1.311632   -3.211425
| 25> H      0.000000   -1.311632   -3.211425
| 26> *
| 27>
| 28>                          ****END OF INPUT****

CARTESIAN COORDINATES (ANGSTROEM)
---------------------------------
  C      0.000000    0.000000   -0.139949
  C      0.000000    0.000000    1.250982
  C      0.000000    1.278325    1.873143
  C      0.000000   -1.278325    1.873143
  C      0.000000    1.157671   -0.947530
  C      0.000000   -1.157671   -0.947530
  C      0.000000    2.419948    1.100100
  C      0.000000   -2.419948    1.100100
  C      0.000000    2.381426   -0.319988
  C      0.000000   -2.381426   -0.319988
  C      0.000000    0.679125   -2.336932
  C      0.000000   -0.679125   -2.336932
  H      0.000000    3.385258    1.589050
  H      0.000000   -3.385258    1.589050
  H      0.000000    1.356296    2.952947
  H      0.000000   -1.356296    2.952947
  H      0.000000    3.310213   -0.876427
  H      0.000000   -3.310213   -0.876427
  H      0.000000    1.311632   -3.211425
  H      0.000000   -1.311632   -3.211425

 Total Charge           Charge          ....    0
 Multiplicity           Mult            ....    1
 Number of Electrons    NEL             ....   80
 Basis Dimension        Dim             .... 1328

ORBITAL ENERGIES
----------------

  NO   OCC          E(Eh)            E(eV)
   0   2.0000     -11.246384      -306.0297
   1   2.0000     -11.246384      -306.0297
   2   2.0000     -11.242927      -305.9356
   3   2.0000     -11.242757      -305.9310
   4   2.0000     -11.239829      -305.8513
   5   2.0000     -11.238573      -305.8171
   6   2.0000     -11.238138      -305.8053
   7   2.0000     -11.238129      -305.8050
   8   2.0000     -11.237129      -305.7778
   9   2.0000     -11.235810      -305.7419
  10   2.0000     -11.235726      -305.7396
  11   2.0000     -11.213595      -305.1374
  12   2.0000      -1.201695       -32.6998
  13   2.0000      -1.114298       -30.3216
  14   2.0000      -1.112931       -30.2844
  15   2.0000      -1.015277       -27.6271
  16   2.0000      -0.992289       -27.0016
  17   2.0000      -0.976857       -26.5816
  18   2.0000      -0.874383       -23.7932
  19   2.0000      -0.842841       -22.9349
  20   2.0000      -0.792843       -21.5743
  21   2.0000      -0.783422       -21.3180
  22   2.0000      -0.709402       -19.3038
  23   2.0000      -0.694936       -18.9102
  24   2.0000      -0.659626       -17.9493
  25   2.0000      -0.633851       -17.2480
  26   2.0000      -0.614994       -16.7348
  27   2.0000      -0.588699       -16.0193
  28   2.0000      -0.584318       -15.9001
  29   2.0000      -0.560676       -15.2568
  30   2.0000      -0.554510       -15.0890
  31   2.0000      -0.548763       -14.9326
  32   2.0000      -0.514720       -14.0063
  33   2.0000      -0.484661       -13.1883
  34   2.0000      -0.475707       -12.9446
  35   2.0000      -0.453184       -12.3318
  36   2.0000      -0.446809       -12.1583
  37   2.0000      -0.323212        -8.7950
  38   2.0000      -0.303279        -8.2527
  39   2.0000      -0.302256        -8.2248
  40   0.0000       0.025421         0.6917
  41   0.0000       0.025642         0.6977
  42   0.0000       0.026747         0.7278
  43   0.0000       0.036381         0.9900
  44   0.0000       0.037038         1.0079

MULLIKEN ATOMIC CHARGES
-----------------------
   0 C :    2.127965
   1 C :   -0.001730
   2 C :   -0.420809
   3 C :   -0.420561
   4 C :   -0.116540
   5 C :   -0.116342
   6 C :   -0.585041
   7 C :   -0.585093
   8 C :   -0.329765
   9 C :   -0.329171
  10 C :   -0.684670
  11 C :   -0.684766
  12 H :    0.183534
  13 H :    0.183602
  14 H :    0.266471
  15 H :    0.266621
  16 H :    0.311922
  17 H :    0.311836
  18 H :    0.311297
  19 H :    0.311241
Sum of atomic charges:    0.0000000

LOEWDIN ATOMIC CHARGES
----------------------
   0 C :   -0.236881
   1 C :   -0.080473
   2 C :    0.377987
   3 C :    0.377987
   4 C :   -0.092418
   5 C :   -0.092418
   6 C :    0.359079
   7 C :    0.359079
   8 C :    0.390661
   9 C :    0.390661
  10 C :    0.395065
  11 C :    0.395065
  12 H :   -0.330562
  13 H :   -0.330562
  14 H :   -0.317031
  15 H :   -0.317031
  16 H :   -0.314937
  17 H :   -0.314937
  18 H :   -0.309167
  19 H :   -0.309167

  Mayer bond orders larger than 0.100000
B(  0-C ,  1-C ) :   0.1113 B(  0-C ,  2-C ) :  -0.3762 B(  0-C ,  3-C ) :  -0.3760
B(  0-C ,  4-C ) :  -0.1406 B(  0-C ,  5-C ) :  -0.1404 B(  0-C ,  6-C ) :   0.1357
B(  0-C ,  7-C ) :   0.1364 B(  0-C ,  8-C ) :  -0.3118 B(  0-C ,  9-C ) :  -0.3116
B(  0-C , 10-C ) :  -0.5554 B(  0-C , 11-C ) :  -0.5551 B(  1-C ,  2-C ) :   0.8880
B(  1-C ,  3-C ) :   0.8879 B(  1-C ,  6-C ) :  -0.2363 B(  1-C ,  7-C ) :  -0.2365
B(  1-C , 14-H ) :  -0.1356 B(  1-C , 15-H ) :  -0.1355 B(  2-C ,  6-C ) :   1.4932
B(  2-C ,  8-C ) :   0.2706 B(  2-C , 12-H ) :  -0.2276 B(  2-C , 14-H ) :   1.0249
B(  3-C ,  7-C ) :   1.4936 B(  3-C ,  9-C ) :   0.2704 B(  3-C , 13-H ) :  -0.2274
B(  3-C , 15-H ) :   1.0248 B(  4-C ,  6-C ) :  -0.2522 B(  4-C ,  8-C ) :   0.9799
B(  4-C , 10-C ) :   1.3088 B(  4-C , 16-H ) :  -0.1693 B(  5-C ,  7-C ) :  -0.2524
B(  5-C ,  9-C ) :   0.9796 B(  5-C , 11-C ) :   1.3085 B(  5-C , 17-H ) :  -0.1695
B(  6-C ,  8-C ) :   1.2267 B(  6-C , 12-H ) :   1.2808 B(  7-C ,  9-C ) :   1.2270
B(  7-C , 13-H ) :   1.2805 B(  8-C , 12-H ) :  -0.1923 B(  8-C , 16-H ) :   0.9857
B(  9-C , 13-H ) :  -0.1920 B(  9-C , 17-H ) :   0.9857 B( 10-C , 11-C ) :   1.6475
B( 10-C , 18-H ) :   1.0367 B( 11-C , 19-H ) :   1.0369

MP2 TOTAL ENERGY:     -461.241940240 Eh
FINAL SINGLE POINT ENERGY      -461.241940239535

DIPOLE MOMENT
-------------
                                X             Y             Z
Electronic contribution:      0.00000       0.00000      -0.82645
Nuclear contribution   :      0.00000       0.00000       0.89665
                        -----------------------------------------
Total Dipole Moment    :      0.00000       0.00000       0.07020
                        -----------------------------------------
Magnitude (a.u.)       :      0.07020
Magnitude (Debye)      :      0.17843

Rotational constants in cm-1:     0.050683     0.040936     0.022645
Rotational constants in MHz :  1519.432608  1227.219940   678.891109

                             ****ORCA TERMINATED NORMALLY****
TOTAL RUN TIME: 0 days 3 hours 1 minutes 20 seconds 908 msec
