                         Program Version 5.0.4 -  RELEASE  -
|  1> !ri-mp2 aug-cc-pvqz aug-cc-pvqz/c tightscf
|  2> %pal nprocs 16 end
|  3>
|  4> * xyz 0 1
|  5> S      1.039913   -0.088153   -0.000004
|  6> C     -0.650468    0.025724    0.000041
|  7> C     -1.852794    0.003642   -0.000042
|  8> H      1.294484    1.236611   -0.000009
|  9> H     -2.913523   -0.002355    0.000079
| 10> *
| 11>
| 12>                          ****END OF INPUT****

CARTESIAN COORDINATES (ANGSTROEM)
---------------------------------
  S      1.039913   -0.088153   -0.000004
  C     -0.650468    0.025724    0.000041
  C     -1.852794    0.003642   -0.000042
  H      1.294484    1.236611   -0.000009
  H     -2.913523   -0.002355    0.000079

 Total Charge           Charge          ....    0
 Multiplicity           Mult            ....    1
 Number of Electrons    NEL             ....   30
 Basis Dimension        Dim             ....  336

ORBITAL ENERGIES
----------------

  NO   OCC          E(Eh)            E(eV)
   0   2.0000     -91.997980     -2503.3923
   1   2.0000     -11.263829      -306.5044
   2   2.0000     -11.240745      -305.8762
   3   2.0000      -8.998981      -244.8747
   4   2.0000      -6.680726      -181.7918
   5   2.0000      -6.679678      -181.7633
   6   2.0000      -6.678706      -181.7368
   7   2.0000      -1.082357       -29.4524
   8   2.0000      -0.980178       -26.6720
   9   2.0000      -0.735732       -20.0203
  10   2.0000      -0.645775       -17.5724
  11   2.0000      -0.542439       -14.7605
  12   2.0000      -0.481349       -13.0982
  13   2.0000      -0.405242       -11.0272
  14   2.0000      -0.352362        -9.5883
  15   0.0000       0.025502         0.6939
  16   0.0000       0.032836         0.8935
  17   0.0000       0.055818         1.5189
  18   0.0000       0.069378         1.8879
  19   0.0000       0.070859         1.9282

MULLIKEN ATOMIC CHARGES
-----------------------
   0 S :    0.283654
   1 C :   -0.482740
   2 C :   -0.444127
   3 H :    0.102720
   4 H :    0.540493
Sum of atomic charges:   -0.0000000

LOEWDIN ATOMIC CHARGES
----------------------
   0 S :    1.442716
   1 C :   -0.563920
   2 C :    0.402360
   3 H :   -0.798559
   4 H :   -0.482597

  Mayer bond orders larger than 0.100000
B(  0-S ,  1-C ) :   0.8177 B(  0-S ,  3-H ) :   1.0122 B(  1-C ,  2-C ) :   2.5284
B(  2-C ,  4-H ) :   0.7534

MP2 TOTAL ENERGY:     -474.923825950 Eh
FINAL SINGLE POINT ENERGY      -474.923825949539

DIPOLE MOMENT
-------------
                                X             Y             Z
Electronic contribution:      1.51535      -0.86704      -0.00002
Nuclear contribution   :     -1.60123       1.19959       0.00007
                        -----------------------------------------
Total Dipole Moment    :     -0.08588       0.33255       0.00004
                        -----------------------------------------
Magnitude (a.u.)       :      0.34346
Magnitude (Debye)      :      0.87301

Rotational constants in cm-1:     9.659074     0.184821     0.181351
Rotational constants in MHz : 289571.747643  5540.782751  5436.753716

                             ****ORCA TERMINATED NORMALLY****
TOTAL RUN TIME: 0 days 0 hours 1 minutes 17 seconds 513 msec
