                         Program Version 5.0.4 -  RELEASE  -
|  1> !ri-mp2 aug-cc-pvqz aug-cc-pvqz/c tightscf
|  2> %pal nprocs 16 end
|  3>
|  4> * xyz 0 1
|  5> C      0.000000    0.188237    0.000000
|  6> C      1.066414   -0.856833    0.000000
|  7> O      0.099012    1.365638    0.000000
|  8> F     -1.237794   -0.393573    0.000000
|  9> H      2.044346   -0.386604    0.000000
| 10> H      0.952608   -1.492386    0.878134
| 11> H      0.952608   -1.492386   -0.878134
| 12> *
| 13>
| 14>                          ****END OF INPUT****

CARTESIAN COORDINATES (ANGSTROEM)
---------------------------------
  C      0.000000    0.188237    0.000000
  C      1.066414   -0.856833    0.000000
  O      0.099012    1.365638    0.000000
  F     -1.237794   -0.393573    0.000000
  H      2.044346   -0.386604    0.000000
  H      0.952608   -1.492386    0.878134
  H      0.952608   -1.492386   -0.878134

 Total Charge           Charge          ....    0
 Multiplicity           Mult            ....    1
 Number of Electrons    NEL             ....   32
 Basis Dimension        Dim             ....  458

ORBITAL ENERGIES
----------------

  NO   OCC          E(Eh)            E(eV)
   0   2.0000     -26.322712      -716.2774
   1   2.0000     -20.582361      -560.0745
   2   2.0000     -11.426343      -310.9266
   3   2.0000     -11.267026      -306.5914
   4   2.0000      -1.645701       -44.7818
   5   2.0000      -1.433960       -39.0200
   6   2.0000      -1.051955       -28.6252
   7   2.0000      -0.843674       -22.9575
   8   2.0000      -0.732917       -19.9437
   9   2.0000      -0.720791       -19.6137
  10   2.0000      -0.720026       -19.5929
  11   2.0000      -0.623712       -16.9721
  12   2.0000      -0.610183       -16.6039
  13   2.0000      -0.590903       -16.0793
  14   2.0000      -0.534555       -14.5460
  15   2.0000      -0.493270       -13.4226
  16   0.0000       0.021546         0.5863
  17   0.0000       0.037775         1.0279
  18   0.0000       0.040330         1.0974
  19   0.0000       0.054102         1.4722
  20   0.0000       0.084239         2.2923

MULLIKEN ATOMIC CHARGES
-----------------------
   0 C :    1.110043
   1 C :   -0.801749
   2 O :   -0.600739
   3 F :   -0.578284
   4 H :    0.309743
   5 H :    0.280493
   6 H :    0.280493
Sum of atomic charges:   -0.0000000

LOEWDIN ATOMIC CHARGES
----------------------
   0 C :   -1.248610
   1 C :    0.844361
   2 O :    0.642308
   3 F :    0.701923
   4 H :   -0.321490
   5 H :   -0.309246
   6 H :   -0.309246

  Mayer bond orders larger than 0.100000
B(  0-C ,  1-C ) :   1.0370 B(  0-C ,  2-O ) :   1.7426 B(  0-C ,  3-F ) :   0.5961
B(  1-C ,  4-H ) :   0.9156 B(  1-C ,  5-H ) :   0.9085 B(  1-C ,  6-H ) :   0.9085

MP2 TOTAL ENERGY:     -252.795497800 Eh
FINAL SINGLE POINT ENERGY      -252.795497799593

DIPOLE MOMENT
-------------
                                X             Y             Z
Electronic contribution:     -4.22438       1.81823       0.00000
Nuclear contribution   :      5.01140      -2.86834       0.00000
                        -----------------------------------------
Total Dipole Moment    :      0.78701      -1.05012       0.00000
                        -----------------------------------------
Magnitude (a.u.)       :      1.31230
Magnitude (Debye)      :      3.33561

Rotational constants in cm-1:     0.366903     0.322768     0.177328
Rotational constants in MHz : 10999.470111  9676.348627  5316.148081

                             ****ORCA TERMINATED NORMALLY****
TOTAL RUN TIME: 0 days 0 hours 3 minutes 39 seconds 315 msec
