                         Program Version 5.0.4 -  RELEASE  -
|  1> !ri-mp2 aug-cc-pvqz aug-cc-pvqz/c tightscf
|  2> %pal nprocs 16 end
|  3>
|  4> * xyz 0 1
|  5> N     -0.091593   -0.542859   -0.000002
|  6> N     -1.235025   -0.089021    0.000000
|  7> N     -2.326717    0.196979    0.000000
|  8> C      0.978435    0.373808    0.000000
|  9> C      2.241526   -0.037019    0.000000
| 10> H      0.716580    1.426207    0.000003
| 11> H      2.493945   -1.087536   -0.000002
| 12> H      3.043059    0.684904    0.000002
| 13> *
| 14>
| 15>                          ****END OF INPUT****

CARTESIAN COORDINATES (ANGSTROEM)
---------------------------------
  N     -0.091593   -0.542859   -0.000002
  N     -1.235025   -0.089021    0.000000
  N     -2.326717    0.196979    0.000000
  C      0.978435    0.373808    0.000000
  C      2.241526   -0.037019    0.000000
  H      0.716580    1.426207    0.000003
  H      2.493945   -1.087536   -0.000002
  H      3.043059    0.684904    0.000002

 Total Charge           Charge          ....    0
 Multiplicity           Mult            ....    1
 Number of Electrons    NEL             ....   36
 Basis Dimension        Dim             ....  538

ORBITAL ENERGIES
----------------

  NO   OCC          E(Eh)            E(eV)
   0   2.0000     -15.793698      -429.7684
   1   2.0000     -15.679735      -426.6673
   2   2.0000     -15.621449      -425.0812
   3   2.0000     -11.291662      -307.2618
   4   2.0000     -11.231233      -305.6174
   5   2.0000      -1.520764       -41.3821
   6   2.0000      -1.313647       -35.7462
   7   2.0000      -1.067966       -29.0608
   8   2.0000      -0.871101       -23.7039
   9   2.0000      -0.758376       -20.6365
  10   2.0000      -0.717563       -19.5259
  11   2.0000      -0.702075       -19.1044
  12   2.0000      -0.687568       -18.7097
  13   2.0000      -0.610128       -16.6024
  14   2.0000      -0.564588       -15.3632
  15   2.0000      -0.479675       -13.0526
  16   2.0000      -0.456626       -12.4254
  17   2.0000      -0.335167        -9.1204
  18   0.0000       0.027137         0.7384
  19   0.0000       0.034881         0.9492
  20   0.0000       0.041174         1.1204
  21   0.0000       0.065972         1.7952
  22   0.0000       0.072618         1.9760

MULLIKEN ATOMIC CHARGES
-----------------------
   0 N :   -0.239565
   1 N :    0.237093
   2 N :   -0.252711
   3 C :   -0.305118
   4 C :   -0.700177
   5 H :    0.471574
   6 H :    0.443189
   7 H :    0.345715
Sum of atomic charges:    0.0000000

LOEWDIN ATOMIC CHARGES
----------------------
   0 N :    0.279999
   1 N :   -0.277722
   2 N :    0.366790
   3 C :    0.022305
   4 C :    0.736160
   5 H :   -0.378317
   6 H :   -0.371503
   7 H :   -0.377713

  Mayer bond orders larger than 0.100000
B(  0-N ,  1-N ) :   1.3842 B(  0-N ,  2-N ) :   0.1978 B(  0-N ,  3-C ) :   1.0254
B(  1-N ,  2-N ) :   2.2865 B(  3-C ,  4-C ) :   1.6605 B(  3-C ,  5-H ) :   0.7538
B(  4-C ,  6-H ) :   0.7943 B(  4-C ,  7-H ) :   0.9761

MP2 TOTAL ENERGY:     -241.815247535 Eh
FINAL SINGLE POINT ENERGY      -241.815247534523

DIPOLE MOMENT
-------------
                                X             Y             Z
Electronic contribution:     -5.78698      -0.56936      -0.00000
Nuclear contribution   :      6.10073       0.99949       0.00000
                        -----------------------------------------
Total Dipole Moment    :      0.31375       0.43013       0.00000
                        -----------------------------------------
Magnitude (a.u.)       :      0.53240
Magnitude (Debye)      :      1.35326

Rotational constants in cm-1:     1.656572     0.091258     0.086493
Rotational constants in MHz : 49662.769202  2735.847072  2593.002475

                             ****ORCA TERMINATED NORMALLY****
TOTAL RUN TIME: 0 days 0 hours 4 minutes 47 seconds 796 msec
