                         Program Version 5.0.4 -  RELEASE  -
|  1> !ri-mp2 aug-cc-pvqz aug-cc-pvqz/c tightscf
|  2> %pal nprocs 16 end
|  3>
|  4> * xyz 0 1
|  5> C     -0.074379    0.144688   -0.000004
|  6> C      1.359129   -0.348132   -0.000001
|  7> N     -1.037040   -0.821835    0.000088
|  8> O     -0.350669    1.329673   -0.000014
|  9> H      1.862975    0.053389   -0.878184
| 10> H      1.862897    0.053119    0.878352
| 11> H      1.450574   -1.433310   -0.000159
| 12> H     -2.001439   -0.536727   -0.000165
| 13> H     -0.818878   -1.800341   -0.000316
| 14> *
| 15>
| 16>                          ****END OF INPUT****

CARTESIAN COORDINATES (ANGSTROEM)
---------------------------------
  C     -0.074379    0.144688   -0.000004
  C      1.359129   -0.348132   -0.000001
  N     -1.037040   -0.821835    0.000088
  O     -0.350669    1.329673   -0.000014
  H      1.862975    0.053389   -0.878184
  H      1.862897    0.053119    0.878352
  H      1.450574   -1.433310   -0.000159
  H     -2.001439   -0.536727   -0.000165
  H     -0.818878   -1.800341   -0.000316

 Total Charge           Charge          ....    0
 Multiplicity           Mult            ....    1
 Number of Electrons    NEL             ....   32
 Basis Dimension        Dim             ....  550

ORBITAL ENERGIES
----------------

  NO   OCC          E(Eh)            E(eV)
   0   2.0000     -20.513219      -558.1931
   1   2.0000     -15.585589      -424.1054
   2   2.0000     -11.352943      -308.9293
   3   2.0000     -11.237972      -305.8008
   4   2.0000      -1.379246       -37.5312
   5   2.0000      -1.212100       -32.9829
   6   2.0000      -1.004876       -27.3441
   7   2.0000      -0.801228       -21.8025
   8   2.0000      -0.727713       -19.8021
   9   2.0000      -0.665225       -18.1017
  10   2.0000      -0.615245       -16.7417
  11   2.0000      -0.586987       -15.9727
  12   2.0000      -0.563120       -15.3233
  13   2.0000      -0.525422       -14.2975
  14   2.0000      -0.424733       -11.5576
  15   2.0000      -0.415568       -11.3082
  16   0.0000       0.019122         0.5203
  17   0.0000       0.032096         0.8734
  18   0.0000       0.040441         1.1004
  19   0.0000       0.044255         1.2042
  20   0.0000       0.055625         1.5136

MULLIKEN ATOMIC CHARGES
-----------------------
   0 C :    0.816056
   1 C :   -0.707577
   2 N :   -0.645267
   3 O :   -0.771762
   4 H :    0.258996
   5 H :    0.259017
   6 H :    0.246276
   7 H :    0.222239
   8 H :    0.322022
Sum of atomic charges:    0.0000000

LOEWDIN ATOMIC CHARGES
----------------------
   0 C :   -0.849774
   1 C :    0.879799
   2 N :    1.231189
   3 O :    0.668758
   4 H :   -0.302287
   5 H :   -0.302273
   6 H :   -0.315442
   7 H :   -0.502908
   8 H :   -0.507063

  Mayer bond orders larger than 0.100000
B(  0-C ,  1-C ) :   0.9307 B(  0-C ,  2-N ) :   1.0987 B(  0-C ,  3-O ) :   1.4294
B(  1-C ,  4-H ) :   0.9353 B(  1-C ,  5-H ) :   0.9352 B(  1-C ,  6-H ) :   0.9879
B(  2-N ,  3-O ) :   0.1244 B(  2-N ,  7-H ) :   1.0118 B(  2-N ,  8-H ) :   0.8890

MP2 TOTAL ENERGY:     -208.914212327 Eh
FINAL SINGLE POINT ENERGY      -208.914212327418

DIPOLE MOMENT
-------------
                                X             Y             Z
Electronic contribution:     -2.24240       2.06063       0.00009
Nuclear contribution   :      2.38541      -3.71136      -0.00048
                        -----------------------------------------
Total Dipole Moment    :      0.14301      -1.65073      -0.00039
                        -----------------------------------------
Magnitude (a.u.)       :      1.65691
Magnitude (Debye)      :      4.21154

Rotational constants in cm-1:     0.363404     0.308680     0.172210
Rotational constants in MHz : 10894.575161  9253.995035  5162.722721

                             ****ORCA TERMINATED NORMALLY****
TOTAL RUN TIME: 0 days 0 hours 4 minutes 32 seconds 474 msec
