                         Program Version 5.0.4 -  RELEASE  -
|  1> !ri-mp2 aug-cc-pvqz aug-cc-pvqz/c tightscf
|  2> %pal nprocs 16 end
|  3>
|  4> * xyz 0 1
|  5> C     -0.078977    0.122141    0.000466
|  6> C      1.411558   -0.089220    0.001120
|  7> N     -0.551941    1.306983    0.008721
|  8> N     -0.819020   -1.045938   -0.060148
|  9> H      1.910931    0.874016    0.006173
| 10> H      1.722528   -0.656817    0.881242
| 11> H      1.720667   -0.651513   -0.881909
| 12> H     -1.571784    1.312848    0.003132
| 13> H     -1.803738   -0.993258    0.139354
| 14> H     -0.377366   -1.910114    0.202483
| 15> *
| 16>
| 17>                          ****END OF INPUT****

CARTESIAN COORDINATES (ANGSTROEM)
---------------------------------
  C     -0.078977    0.122141    0.000466
  C      1.411558   -0.089220    0.001120
  N     -0.551941    1.306983    0.008721
  N     -0.819020   -1.045938   -0.060148
  H      1.910931    0.874016    0.006173
  H      1.722528   -0.656817    0.881242
  H      1.720667   -0.651513   -0.881909
  H     -1.571784    1.312848    0.003132
  H     -1.803738   -0.993258    0.139354
  H     -0.377366   -1.910114    0.202483

 Total Charge           Charge          ....    0
 Multiplicity           Mult            ....    1
 Number of Electrons    NEL             ....   32
 Basis Dimension        Dim             ....  596

ORBITAL ENERGIES
----------------

  NO   OCC          E(Eh)            E(eV)
   0   2.0000     -15.575623      -423.8342
   1   2.0000     -15.516042      -422.2130
   2   2.0000     -11.313992      -307.8694
   3   2.0000     -11.226691      -305.4938
   4   2.0000      -1.259682       -34.2777
   5   2.0000      -1.137374       -30.9495
   6   2.0000      -0.988851       -26.9080
   7   2.0000      -0.780028       -21.2257
   8   2.0000      -0.704795       -19.1785
   9   2.0000      -0.691138       -18.8068
  10   2.0000      -0.596941       -16.2436
  11   2.0000      -0.552367       -15.0307
  12   2.0000      -0.547902       -14.9092
  13   2.0000      -0.497324       -13.5329
  14   2.0000      -0.419103       -11.4044
  15   2.0000      -0.368649       -10.0314
  16   0.0000       0.019751         0.5375
  17   0.0000       0.032961         0.8969
  18   0.0000       0.038791         1.0556
  19   0.0000       0.041215         1.1215
  20   0.0000       0.055508         1.5104

MULLIKEN ATOMIC CHARGES
-----------------------
   0 C :    0.446819
   1 C :   -0.699920
   2 N :   -0.719898
   3 N :   -0.670528
   4 H :    0.320082
   5 H :    0.237454
   6 H :    0.256469
   7 H :    0.274765
   8 H :    0.257201
   9 H :    0.297556
Sum of atomic charges:    0.0000000

LOEWDIN ATOMIC CHARGES
----------------------
   0 C :   -0.493878
   1 C :    0.868299
   2 N :    0.968304
   3 N :    1.260266
   4 H :   -0.324625
   5 H :   -0.290873
   6 H :   -0.290301
   7 H :   -0.690422
   8 H :   -0.502962
   9 H :   -0.503807

  Mayer bond orders larger than 0.100000
B(  0-C ,  1-C ) :   0.8349 B(  0-C ,  2-N ) :   1.6821 B(  0-C ,  3-N ) :   1.0685
B(  1-C ,  4-H ) :   0.9454 B(  1-C ,  5-H ) :   0.9610 B(  1-C ,  6-H ) :   0.9515
B(  2-N ,  7-H ) :   0.8672 B(  3-N ,  8-H ) :   0.9515 B(  3-N ,  9-H ) :   0.8977

MP2 TOTAL ENERGY:     -189.021478430 Eh
FINAL SINGLE POINT ENERGY      -189.021478429595

DIPOLE MOMENT
-------------
                                X             Y             Z
Electronic contribution:     -1.81880       0.76572      -0.09615
Nuclear contribution   :      1.64844      -2.09347       0.36232
                        -----------------------------------------
Total Dipole Moment    :     -0.17036      -1.32775       0.26617
                        -----------------------------------------
Magnitude (a.u.)       :      1.36484
Magnitude (Debye)      :      3.46915

Rotational constants in cm-1:     0.342865     0.307209     0.167402
Rotational constants in MHz : 10278.836911  9209.889222  5018.585921

                             ****ORCA TERMINATED NORMALLY****
TOTAL RUN TIME: 0 days 0 hours 7 minutes 14 seconds 877 msec
