                         Program Version 5.0.4 -  RELEASE  -
|  1> !ri-mp2 aug-cc-pvqz aug-cc-pvqz/c tightscf
|  2> %pal nprocs 16 end
|  3>
|  4> * xyz 0 1
|  5> H     -2.372022    1.258779   -0.041328
|  6> O      1.579853    0.982519    0.090040
|  7> H      1.029092    1.754950    0.261797
|  8> C      0.826544   -0.141556    0.027243
|  9> O      1.341664   -1.193160   -0.229770
| 10> C     -0.660281    0.015379    0.360045
| 11> H     -0.675584    0.146310    1.454547
| 12> C     -1.307277    1.254476   -0.272188
| 13> H     -0.900542    2.193255    0.114105
| 14> H     -1.199468    1.234270   -1.355735
| 15> H     -2.167312   -1.374487    0.506707
| 16> H     -0.734896   -1.985047   -0.035084
| 17> N     -1.357902   -1.187528   -0.068252
| 18> *
| 19>
| 20>                          ****END OF INPUT****

CARTESIAN COORDINATES (ANGSTROEM)
---------------------------------
  H     -2.372022    1.258779   -0.041328
  O      1.579853    0.982519    0.090040
  H      1.029092    1.754950    0.261797
  C      0.826544   -0.141556    0.027243
  O      1.341664   -1.193160   -0.229770
  C     -0.660281    0.015379    0.360045
  H     -0.675584    0.146310    1.454547
  C     -1.307277    1.254476   -0.272188
  H     -0.900542    2.193255    0.114105
  H     -1.199468    1.234270   -1.355735
  H     -2.167312   -1.374487    0.506707
  H     -0.734896   -1.985047   -0.035084
  N     -1.357902   -1.187528   -0.068252

 Total Charge           Charge          ....    0
 Multiplicity           Mult            ....    1
 Number of Electrons    NEL             ....   48
 Basis Dimension        Dim             ....  802

ORBITAL ENERGIES
----------------

  NO   OCC          E(Eh)            E(eV)
   0   2.0000     -20.614974      -560.9620
   1   2.0000     -20.547277      -559.1198
   2   2.0000     -15.550043      -423.1382
   3   2.0000     -11.387067      -309.8578
   4   2.0000     -11.294512      -307.3393
   5   2.0000     -11.245063      -305.9937
   6   2.0000      -1.465368       -39.8747
   7   2.0000      -1.370244       -37.2862
   8   2.0000      -1.203622       -32.7522
   9   2.0000      -1.029183       -28.0055
  10   2.0000      -0.907752       -24.7012
  11   2.0000      -0.823840       -22.4178
  12   2.0000      -0.737909       -20.0795
  13   2.0000      -0.686821       -18.6893
  14   2.0000      -0.664310       -18.0768
  15   2.0000      -0.651404       -17.7256
  16   2.0000      -0.615377       -16.7453
  17   2.0000      -0.580711       -15.8019
  18   2.0000      -0.564455       -15.3596
  19   2.0000      -0.550599       -14.9826
  20   2.0000      -0.540530       -14.7086
  21   2.0000      -0.484363       -13.1802
  22   2.0000      -0.451410       -12.2835
  23   2.0000      -0.407181       -11.0799
  24   0.0000       0.017887         0.4867
  25   0.0000       0.029205         0.7947
  26   0.0000       0.032529         0.8852
  27   0.0000       0.039320         1.0700
  28   0.0000       0.051458         1.4002

MULLIKEN ATOMIC CHARGES
-----------------------
   0 H :    0.282679
   1 O :   -0.795274
   2 H :    0.357508
   3 C :    1.126117
   4 O :   -0.803262
   5 C :    0.158951
   6 H :    0.343395
   7 C :   -0.893687
   8 H :    0.238294
   9 H :    0.252162
  10 H :    0.248457
  11 H :    0.252812
  12 N :   -0.768151
Sum of atomic charges:   -0.0000000

LOEWDIN ATOMIC CHARGES
----------------------
   0 H :   -0.278076
   1 O :    1.267848
   2 H :   -0.864447
   3 C :   -0.999390
   4 O :    0.712168
   5 C :   -0.099492
   6 H :   -0.282745
   7 C :    0.918336
   8 H :   -0.290496
   9 H :   -0.269649
  10 H :   -0.492188
  11 H :   -0.592062
  12 N :    1.270193

  Mayer bond orders larger than 0.100000
B(  0-H ,  7-C ) :   0.9397 B(  1-O ,  2-H ) :   0.8522 B(  1-O ,  3-C ) :   0.7435
B(  1-O ,  5-C ) :   0.1114 B(  3-C ,  4-O ) :   1.3727 B(  3-C ,  5-C ) :   1.0478
B(  4-O ,  5-C ) :   0.1434 B(  5-C ,  6-H ) :   0.7685 B(  5-C ,  7-C ) :   0.8809
B(  5-C , 12-N ) :   0.6701 B(  7-C ,  8-H ) :   0.9819 B(  7-C ,  9-H ) :   0.9432
B( 10-H , 12-N ) :   0.9212 B( 11-H , 12-N ) :   0.9429

MP2 TOTAL ENERGY:     -323.292235821 Eh
FINAL SINGLE POINT ENERGY      -323.292235820613

DIPOLE MOMENT
-------------
                                X             Y             Z
Electronic contribution:      5.79544      -2.15243      -0.08365
Nuclear contribution   :     -7.06522       3.25579       0.91308
                        -----------------------------------------
Total Dipole Moment    :     -1.26977       1.10335       0.82943
                        -----------------------------------------
Magnitude (a.u.)       :      1.87554
Magnitude (Debye)      :      4.76725

Rotational constants in cm-1:     0.165599     0.111987     0.071206
Rotational constants in MHz :  4964.527382  3357.275717  2134.704812

                             ****ORCA TERMINATED NORMALLY****
TOTAL RUN TIME: 0 days 0 hours 16 minutes 14 seconds 27 msec
