                         Program Version 5.0.4 -  RELEASE  -
|  1> !ri-mp2 aug-cc-pvqz aug-cc-pvqz/c tightscf
|  2> %pal nprocs 16 end
|  3>
|  4> * xyz 0 1
|  5> C     -0.003357   -1.874982    0.000000
|  6> C     -0.003231   -1.167816    1.197776
|  7> C     -0.003231   -1.167816   -1.197776
|  8> C     -0.003231    0.219824    1.202965
|  9> C     -0.003231    0.219824   -1.202965
| 10> C     -0.002373    0.934694    0.000000
| 11> N     -0.059398    2.328540    0.000000
| 12> H     -0.002994   -2.955765    0.000000
| 13> H     -0.002518   -1.699840    2.140057
| 14> H     -0.002518   -1.699840   -2.140057
| 15> H     -0.008370    0.757854    2.143040
| 16> H     -0.008370    0.757854   -2.143040
| 17> H      0.276236    2.778796   -0.835682
| 18> H      0.276236    2.778796    0.835682
| 19> *
| 20>
| 21>                          ****END OF INPUT****

CARTESIAN COORDINATES (ANGSTROEM)
---------------------------------
  C     -0.003357   -1.874982    0.000000
  C     -0.003231   -1.167816    1.197776
  C     -0.003231   -1.167816   -1.197776
  C     -0.003231    0.219824    1.202965
  C     -0.003231    0.219824   -1.202965
  C     -0.002373    0.934694    0.000000
  N     -0.059398    2.328540    0.000000
  H     -0.002994   -2.955765    0.000000
  H     -0.002518   -1.699840    2.140057
  H     -0.002518   -1.699840   -2.140057
  H     -0.008370    0.757854    2.143040
  H     -0.008370    0.757854   -2.143040
  H      0.276236    2.778796   -0.835682
  H      0.276236    2.778796    0.835682

 Total Charge           Charge          ....    0
 Multiplicity           Mult            ....    1
 Number of Electrons    NEL             ....   50
 Basis Dimension        Dim             ....  882

ORBITAL ENERGIES
----------------

  NO   OCC          E(Eh)            E(eV)
   0   2.0000     -15.563183      -423.4957
   1   2.0000     -11.276863      -306.8591
   2   2.0000     -11.232413      -305.6495
   3   2.0000     -11.232378      -305.6486
   4   2.0000     -11.220926      -305.3369
   5   2.0000     -11.220908      -305.3364
   6   2.0000     -11.216043      -305.2040
   7   2.0000      -1.224622       -33.3236
   8   2.0000      -1.127158       -30.6715
   9   2.0000      -1.011951       -27.5366
  10   2.0000      -0.985919       -26.8282
  11   2.0000      -0.831509       -22.6265
  12   2.0000      -0.813307       -22.1312
  13   2.0000      -0.706523       -19.2255
  14   2.0000      -0.687045       -18.6954
  15   2.0000      -0.656118       -17.8539
  16   2.0000      -0.598615       -16.2891
  17   2.0000      -0.593818       -16.1586
  18   2.0000      -0.581319       -15.8185
  19   2.0000      -0.534918       -14.5559
  20   2.0000      -0.507426       -13.8078
  21   2.0000      -0.488095       -13.2817
  22   2.0000      -0.448545       -12.2055
  23   2.0000      -0.336874        -9.1668
  24   2.0000      -0.294263        -8.0073
  25   0.0000       0.023235         0.6323
  26   0.0000       0.029362         0.7990
  27   0.0000       0.030571         0.8319
  28   0.0000       0.041941         1.1413
  29   0.0000       0.042787         1.1643

MULLIKEN ATOMIC CHARGES
-----------------------
   0 C :   -0.322074
   1 C :   -0.393936
   2 C :   -0.393926
   3 C :   -0.285242
   4 C :   -0.285236
   5 C :    0.544498
   6 N :   -0.822563
   7 H :    0.311860
   8 H :    0.241395
   9 H :    0.241396
  10 H :    0.310790
  11 H :    0.310792
  12 H :    0.271123
  13 H :    0.271124
Sum of atomic charges:   -0.0000000

LOEWDIN ATOMIC CHARGES
----------------------
   0 C :    0.326576
   1 C :    0.323427
   2 C :    0.323427
   3 C :    0.331968
   4 C :    0.331968
   5 C :   -0.249307
   6 N :    1.268497
   7 H :   -0.334833
   8 H :   -0.323738
   9 H :   -0.323738
  10 H :   -0.327009
  11 H :   -0.327009
  12 H :   -0.510114
  13 H :   -0.510114

  Mayer bond orders larger than 0.100000
B(  0-C ,  1-C ) :   1.1958 B(  0-C ,  2-C ) :   1.1958 B(  0-C ,  7-H ) :   1.0103
B(  1-C ,  3-C ) :   1.2939 B(  1-C ,  4-C ) :   0.1003 B(  1-C ,  5-C ) :  -0.1857
B(  1-C ,  8-H ) :   1.1173 B(  2-C ,  3-C ) :   0.1003 B(  2-C ,  4-C ) :   1.2939
B(  2-C ,  5-C ) :  -0.1857 B(  2-C ,  9-H ) :   1.1173 B(  3-C ,  5-C ) :   1.1473
B(  3-C ,  8-H ) :  -0.1210 B(  3-C , 10-H ) :   0.9401 B(  4-C ,  5-C ) :   1.1473
B(  4-C ,  9-H ) :  -0.1210 B(  4-C , 11-H ) :   0.9401 B(  5-C ,  6-N ) :   0.7627
B(  6-N , 12-H ) :   0.9385 B(  6-N , 13-H ) :   0.9385

MP2 TOTAL ENERGY:     -287.096510382 Eh
FINAL SINGLE POINT ENERGY      -287.096510381957

DIPOLE MOMENT
-------------
                                X             Y             Z
Electronic contribution:     -0.15399      -0.30414      -0.00000
Nuclear contribution   :      0.53174       0.73761       0.00000
                        -----------------------------------------
Total Dipole Moment    :      0.37775       0.43346      -0.00000
                        -----------------------------------------
Magnitude (a.u.)       :      0.57497
Magnitude (Debye)      :      1.46145

Rotational constants in cm-1:     0.188719     0.086832     0.059554
Rotational constants in MHz :  5657.646459  2603.171316  1785.382375

                             ****ORCA TERMINATED NORMALLY****
TOTAL RUN TIME: 0 days 0 hours 25 minutes 11 seconds 701 msec
