                         Program Version 5.0.4 -  RELEASE  -
|  1> !ri-mp2 aug-cc-pvqz aug-cc-pvqz/c tightscf
|  2> %pal nprocs 16 end
|  3>
|  4> * xyz 0 1
|  5> N     -0.037940    0.872541    0.000000
|  6> H      0.888780    1.282744    0.000000
|  7> C     -0.037940   -0.397603    0.739990
|  8> C     -0.037940   -0.397603   -0.739990
|  9> H     -0.952512   -0.607514    1.278587
| 10> H      0.868549   -0.702138    1.248293
| 11> H     -0.952512   -0.607514   -1.278587
| 12> H      0.868549   -0.702138   -1.248293
| 13> *
| 14>
| 15>                          ****END OF INPUT****

CARTESIAN COORDINATES (ANGSTROEM)
---------------------------------
  N     -0.037940    0.872541    0.000000
  H      0.888780    1.282744    0.000000
  C     -0.037940   -0.397603    0.739990
  C     -0.037940   -0.397603   -0.739990
  H     -0.952512   -0.607514    1.278587
  H      0.868549   -0.702138    1.248293
  H     -0.952512   -0.607514   -1.278587
  H      0.868549   -0.702138   -1.248293

 Total Charge           Charge          ....    0
 Multiplicity           Mult            ....    1
 Number of Electrons    NEL             ....   24
 Basis Dimension        Dim             ....  470

ORBITAL ENERGIES
----------------

  NO   OCC          E(Eh)            E(eV)
   0   2.0000     -15.556036      -423.3013
   1   2.0000     -11.254183      -306.2419
   2   2.0000     -11.253427      -306.2213
   3   2.0000      -1.256091       -34.1800
   4   2.0000      -0.895981       -24.3809
   5   2.0000      -0.839771       -22.8513
   6   2.0000      -0.698755       -19.0141
   7   2.0000      -0.639233       -17.3944
   8   2.0000      -0.528696       -14.3866
   9   2.0000      -0.479957       -13.0603
  10   2.0000      -0.478484       -13.0202
  11   2.0000      -0.394160       -10.7256
  12   0.0000       0.026322         0.7162
  13   0.0000       0.035955         0.9784
  14   0.0000       0.036832         1.0022
  15   0.0000       0.042571         1.1584
  16   0.0000       0.054367         1.4794

MULLIKEN ATOMIC CHARGES
-----------------------
   0 N :   -0.569525
   1 H :    0.243219
   2 C :   -0.603535
   3 C :   -0.603535
   4 H :    0.413033
   5 H :    0.353655
   6 H :    0.413033
   7 H :    0.353655
Sum of atomic charges:   -0.0000000

LOEWDIN ATOMIC CHARGES
----------------------
   0 N :    0.925497
   1 H :   -0.564336
   2 C :    0.407715
   3 C :    0.407715
   4 H :   -0.299749
   5 H :   -0.288546
   6 H :   -0.299749
   7 H :   -0.288546

  Mayer bond orders larger than 0.100000
B(  0-N ,  1-H ) :   0.9087 B(  0-N ,  2-C ) :   0.9594 B(  0-N ,  3-C ) :   0.9594
B(  2-C ,  3-C ) :   1.1262 B(  2-C ,  4-H ) :   0.8041 B(  2-C ,  5-H ) :   0.8535
B(  3-C ,  6-H ) :   0.8041 B(  3-C ,  7-H ) :   0.8535

MP2 TOTAL ENERGY:     -133.691281978 Eh
FINAL SINGLE POINT ENERGY      -133.691281977928

DIPOLE MOMENT
-------------
                                X             Y             Z
Electronic contribution:     -0.22445       0.91048       0.00000
Nuclear contribution   :      0.75418      -1.39341       0.00000
                        -----------------------------------------
Total Dipole Moment    :      0.52973      -0.48293       0.00000
                        -----------------------------------------
Magnitude (a.u.)       :      0.71682
Magnitude (Debye)      :      1.82202

Rotational constants in cm-1:     0.766035     0.711107     0.449746
Rotational constants in MHz : 22965.145799 21318.460589 13483.035166

                             ****ORCA TERMINATED NORMALLY****
TOTAL RUN TIME: 0 days 0 hours 2 minutes 31 seconds 265 msec
