                         Program Version 5.0.4 -  RELEASE  -
|  1> !ri-mp2 aug-cc-pvqz aug-cc-pvqz/c tightscf
|  2> %pal nprocs 16 end
|  3>
|  4> * xyz 0 1
|  5> C      0.597274   -2.517032    0.000000
|  6> C     -0.727051   -2.095954    0.000000
|  7> C      1.625447   -1.577546    0.000000
|  8> C     -1.024386   -0.738517    0.000000
|  9> C      1.328876   -0.224101    0.000000
| 10> C      0.000000    0.211798    0.000000
| 11> C     -0.267977    1.685966    0.000000
| 12> C     -1.703331    2.168928    0.000000
| 13> O      0.649584    2.482840    0.000000
| 14> H      0.828858   -3.573768    0.000000
| 15> H     -1.527758   -2.822994    0.000000
| 16> H      2.656502   -1.904437    0.000000
| 17> H     -2.058803   -0.426120    0.000000
| 18> H      2.113187    0.519223    0.000000
| 19> H     -2.237541    1.804546    0.879154
| 20> H     -2.237541    1.804546   -0.879154
| 21> H     -1.706692    3.255037    0.000000
| 22> *
| 23>
| 24>                          ****END OF INPUT****

CARTESIAN COORDINATES (ANGSTROEM)
---------------------------------
  C      0.597274   -2.517032    0.000000
  C     -0.727051   -2.095954    0.000000
  C      1.625447   -1.577546    0.000000
  C     -1.024386   -0.738517    0.000000
  C      1.328876   -0.224101    0.000000
  C      0.000000    0.211798    0.000000
  C     -0.267977    1.685966    0.000000
  C     -1.703331    2.168928    0.000000
  O      0.649584    2.482840    0.000000
  H      0.828858   -3.573768    0.000000
  H     -1.527758   -2.822994    0.000000
  H      2.656502   -1.904437    0.000000
  H     -2.058803   -0.426120    0.000000
  H      2.113187    0.519223    0.000000
  H     -2.237541    1.804546    0.879154
  H     -2.237541    1.804546   -0.879154
  H     -1.706692    3.255037    0.000000

 Total Charge           Charge          ....    0
 Multiplicity           Mult            ....    1
 Number of Electrons    NEL             ....   64
 Basis Dimension        Dim             .... 1088

ORBITAL ENERGIES
----------------

  NO   OCC          E(Eh)            E(eV)
   0   2.0000     -20.541112      -558.9521
   1   2.0000     -11.334219      -308.4198
   2   2.0000     -11.253487      -306.2229
   3   2.0000     -11.250892      -306.1523
   4   2.0000     -11.248112      -306.0767
   5   2.0000     -11.245009      -305.9922
   6   2.0000     -11.244542      -305.9796
   7   2.0000     -11.242114      -305.9135
   8   2.0000     -11.233865      -305.6890
   9   2.0000      -1.385444       -37.6999
  10   2.0000      -1.168531       -31.7974
  11   2.0000      -1.053785       -28.6750
  12   2.0000      -1.029856       -28.0238
  13   2.0000      -0.997893       -27.1540
  14   2.0000      -0.865864       -23.5613
  15   2.0000      -0.838212       -22.8089
  16   2.0000      -0.763393       -20.7730
  17   2.0000      -0.712011       -19.3748
  18   2.0000      -0.656711       -17.8700
  19   2.0000      -0.650833       -17.7101
  20   2.0000      -0.628092       -17.0913
  21   2.0000      -0.606012       -16.4904
  22   2.0000      -0.601545       -16.3689
  23   2.0000      -0.599052       -16.3010
  24   2.0000      -0.554679       -15.0936
  25   2.0000      -0.526688       -14.3319
  26   2.0000      -0.523424       -14.2431
  27   2.0000      -0.504113       -13.7176
  28   2.0000      -0.492824       -13.4104
  29   2.0000      -0.419140       -11.4054
  30   2.0000      -0.352035        -9.5793
  31   2.0000      -0.347707        -9.4616
  32   0.0000       0.021109         0.5744
  33   0.0000       0.025487         0.6935
  34   0.0000       0.030995         0.8434
  35   0.0000       0.039308         1.0696
  36   0.0000       0.039815         1.0834

MULLIKEN ATOMIC CHARGES
-----------------------
   0 C :   -0.316502
   1 C :   -0.392744
   2 C :   -0.291415
   3 C :   -0.177496
   4 C :   -0.235728
   5 C :   -0.247145
   6 C :    1.120906
   7 C :   -0.840945
   8 O :   -0.793076
   9 H :    0.306386
  10 H :    0.265432
  11 H :    0.275874
  12 H :    0.322428
  13 H :    0.283093
  14 H :    0.211810
  15 H :    0.211810
  16 H :    0.297314
Sum of atomic charges:    0.0000000

LOEWDIN ATOMIC CHARGES
----------------------
   0 C :    0.346453
   1 C :    0.356550
   2 C :    0.358110
   3 C :    0.325360
   4 C :    0.319295
   5 C :   -0.118179
   6 C :   -0.649906
   7 C :    0.879710
   8 O :    0.739368
   9 H :   -0.318468
  10 H :   -0.322086
  11 H :   -0.321647
  12 H :   -0.345368
  13 H :   -0.343815
  14 H :   -0.293262
  15 H :   -0.293262
  16 H :   -0.318852

  Mayer bond orders larger than 0.100000
B(  0-C ,  1-C ) :   1.2333 B(  0-C ,  2-C ) :   1.1623 B(  0-C ,  9-H ) :   1.0252
B(  1-C ,  3-C ) :   1.0885 B(  1-C ,  4-C ) :   0.1506 B(  1-C ,  5-C ) :  -0.2152
B(  1-C , 10-H ) :   1.1029 B(  1-C , 12-H ) :  -0.1170 B(  2-C ,  3-C ) :   0.1002
B(  2-C ,  4-C ) :   1.3275 B(  2-C ,  5-C ) :  -0.3505 B(  2-C , 11-H ) :   1.0892
B(  3-C ,  5-C ) :   1.0979 B(  3-C ,  6-C ) :  -0.3043 B(  3-C , 10-H ) :  -0.1275
B(  3-C , 12-H ) :   0.9555 B(  4-C ,  5-C ) :   1.0032 B(  4-C ,  6-C ) :  -0.2663
B(  4-C , 11-H ) :  -0.1372 B(  4-C , 13-H ) :   0.9150 B(  5-C ,  6-C ) :   0.8919
B(  5-C ,  8-O ) :   0.5013 B(  5-C , 12-H ) :  -0.1556 B(  6-C ,  7-C ) :   0.9347
B(  6-C ,  8-O ) :   0.8498 B(  7-C , 14-H ) :   0.9875 B(  7-C , 15-H ) :   0.9875
B(  7-C , 16-H ) :   0.9637

MP2 TOTAL ENERGY:     -384.238147407 Eh
FINAL SINGLE POINT ENERGY      -384.238147406531

DIPOLE MOMENT
-------------
                                X             Y             Z
Electronic contribution:      3.32261       0.24348      -0.00000
Nuclear contribution   :     -4.16113      -1.30532       0.00000
                        -----------------------------------------
Total Dipole Moment    :     -0.83852      -1.06185      -0.00000
                        -----------------------------------------
Magnitude (a.u.)       :      1.35301
Magnitude (Debye)      :      3.43908

Rotational constants in cm-1:     0.123782     0.040586     0.030738
Rotational constants in MHz :  3710.901541  1216.744773   921.510418

                             ****ORCA TERMINATED NORMALLY****
TOTAL RUN TIME: 0 days 1 hours 11 minutes 26 seconds 905 msec
