                         Program Version 5.0.4 -  RELEASE  -
|  1> !ri-mp2 aug-cc-pvqz aug-cc-pvqz/c tightscf
|  2> %pal nprocs 16 end
|  3>
|  4> * xyz 0 1
|  5> C      0.000000    0.543632    0.000000
|  6> C      1.484355    0.734756    0.000000
|  7> O     -0.843840    1.368109    0.000000
|  8> Cl    -0.452456   -1.230552    0.000000
|  9> H      1.710473    1.798078    0.000000
| 10> H      1.912935    0.253054    0.877971
| 11> H      1.912935    0.253054   -0.877971
| 12> *
| 13>
| 14>                          ****END OF INPUT****

CARTESIAN COORDINATES (ANGSTROEM)
---------------------------------
  C      0.000000    0.543632    0.000000
  C      1.484355    0.734756    0.000000
  O     -0.843840    1.368109    0.000000
  Cl    -0.452456   -1.230552    0.000000
  H      1.710473    1.798078    0.000000
  H      1.912935    0.253054    0.877971
  H      1.912935    0.253054   -0.877971

 Total Charge           Charge          ....    0
 Multiplicity           Mult            ....    1
 Number of Electrons    NEL             ....   40
 Basis Dimension        Dim             ....  462

ORBITAL ENERGIES
----------------

  NO   OCC          E(Eh)            E(eV)
   0   2.0000    -104.843568     -2852.9385
   1   2.0000     -20.597191      -560.4781
   2   2.0000     -11.414342      -310.6000
   3   2.0000     -11.269237      -306.6515
   4   2.0000     -10.569241      -287.6037
   5   2.0000      -8.036060      -218.6723
   6   2.0000      -8.034541      -218.6310
   7   2.0000      -8.034455      -218.6286
   8   2.0000      -1.455440       -39.6045
   9   2.0000      -1.128081       -30.6966
  10   2.0000      -1.033920       -28.1344
  11   2.0000      -0.778623       -21.1874
  12   2.0000      -0.681820       -18.5533
  13   2.0000      -0.673757       -18.3339
  14   2.0000      -0.646173       -17.5833
  15   2.0000      -0.587559       -15.9883
  16   2.0000      -0.556153       -15.1337
  17   2.0000      -0.467009       -12.7080
  18   2.0000      -0.466617       -12.6973
  19   2.0000      -0.453255       -12.3337
  20   0.0000       0.022414         0.6099
  21   0.0000       0.038284         1.0418
  22   0.0000       0.040555         1.1036
  23   0.0000       0.055292         1.5046
  24   0.0000       0.071095         1.9346

MULLIKEN ATOMIC CHARGES
-----------------------
   0 C :    0.627801
   1 C :   -0.733264
   2 O :   -0.581715
   3 Cl:   -0.184897
   4 H :    0.298842
   5 H :    0.286616
   6 H :    0.286616
Sum of atomic charges:    0.0000000

LOEWDIN ATOMIC CHARGES
----------------------
   0 C :   -1.345612
   1 C :    0.750191
   2 O :    0.594125
   3 Cl:    0.985850
   4 H :   -0.322597
   5 H :   -0.330978
   6 H :   -0.330978

  Mayer bond orders larger than 0.100000
B(  0-C ,  1-C ) :   0.9519 B(  0-C ,  2-O ) :   1.7085 B(  0-C ,  3-Cl) :   0.9257
B(  1-C ,  4-H ) :   0.9123 B(  1-C ,  5-H ) :   0.9193 B(  1-C ,  6-H ) :   0.9193

MP2 TOTAL ENERGY:     -612.759385785 Eh
FINAL SINGLE POINT ENERGY      -612.759385784968

DIPOLE MOMENT
-------------
                                X             Y             Z
Electronic contribution:     -4.67470      -3.85279       0.00000
Nuclear contribution   :      5.90505       3.91056       0.00000
                        -----------------------------------------
Total Dipole Moment    :      1.23035       0.05777       0.00000
                        -----------------------------------------
Magnitude (a.u.)       :      1.23171
Magnitude (Debye)      :      3.13075

Rotational constants in cm-1:     0.338784     0.160316     0.111049
Rotational constants in MHz : 10156.500819  4806.143941  3329.157627

                             ****ORCA TERMINATED NORMALLY****
TOTAL RUN TIME: 0 days 0 hours 3 minutes 57 seconds 409 msec
