                         Program Version 5.0.4 -  RELEASE  -
|  1> !ri-mp2 aug-cc-pvqz aug-cc-pvqz/c tightscf
|  2> %pal nprocs 16 end
|  3>
|  4> * xyz 0 1
|  5> C     -0.146975   -0.745307        0.000000
|  6> C      0.000000    0.717816        0.000000
|  7> C      1.203301    1.287661        0.000000
|  8> O     -1.208534   -1.324424        0.000000
|  9> H      0.808295   -1.308935        0.000000
| 10> H     -0.915368    1.296860        0.000000
| 11> H      1.332889    2.360924        0.000000
| 12> H      2.104499    0.685522        0.000000
| 13> *
| 14>
| 15>                          ****END OF INPUT****

CARTESIAN COORDINATES (ANGSTROEM)
---------------------------------
  C     -0.146975   -0.745307    0.000000
  C      0.000000    0.717816    0.000000
  C      1.203301    1.287661    0.000000
  O     -1.208534   -1.324424    0.000000
  H      0.808295   -1.308935    0.000000
  H     -0.915368    1.296860    0.000000
  H      1.332889    2.360924    0.000000
  H      2.104499    0.685522    0.000000

 Total Charge           Charge          ....    0
 Multiplicity           Mult            ....    1
 Number of Electrons    NEL             ....   30
 Basis Dimension        Dim             ....  504

ORBITAL ENERGIES
----------------

  NO   OCC          E(Eh)            E(eV)
   0   2.0000     -20.557085      -559.3867
   1   2.0000     -11.335414      -308.4523
   2   2.0000     -11.270023      -306.6729
   3   2.0000     -11.255597      -306.2804
   4   2.0000      -1.394090       -37.9351
   5   2.0000      -1.091171       -29.6923
   6   2.0000      -0.888517       -24.1778
   7   2.0000      -0.788668       -21.4607
   8   2.0000      -0.674967       -18.3668
   9   2.0000      -0.669350       -18.2139
  10   2.0000      -0.607995       -16.5444
  11   2.0000      -0.560360       -15.2482
  12   2.0000      -0.545560       -14.8454
  13   2.0000      -0.432692       -11.7741
  14   2.0000      -0.403176       -10.9710
  15   0.0000       0.021465         0.5841
  16   0.0000       0.031637         0.8609
  17   0.0000       0.037945         1.0325
  18   0.0000       0.051523         1.4020
  19   0.0000       0.059380         1.6158

MULLIKEN ATOMIC CHARGES
-----------------------
   0 C :    0.339990
   1 C :   -0.629856
   2 C :   -0.742197
   3 O :   -0.693469
   4 H :    0.449895
   5 H :    0.530338
   6 H :    0.348851
   7 H :    0.396448
Sum of atomic charges:   -0.0000000

LOEWDIN ATOMIC CHARGES
----------------------
   0 C :   -0.318314
   1 C :    0.300874
   2 C :    0.780216
   3 O :    0.678141
   4 H :   -0.381359
   5 H :   -0.364536
   6 H :   -0.339805
   7 H :   -0.355217

  Mayer bond orders larger than 0.100000
B(  0-C ,  1-C ) :   1.0597 B(  0-C ,  3-O ) :   1.5465 B(  0-C ,  4-H ) :   0.7490
B(  1-C ,  2-C ) :   1.7487 B(  1-C ,  3-O ) :   0.1840 B(  1-C ,  5-H ) :   0.6762
B(  2-C ,  6-H ) :   0.9500 B(  2-C ,  7-H ) :   0.8218

MP2 TOTAL ENERGY:     -191.609179852 Eh
FINAL SINGLE POINT ENERGY      -191.609179852361

DIPOLE MOMENT
-------------
                                X             Y             Z
Electronic contribution:     -2.14565      -2.10489      -0.00000
Nuclear contribution   :      3.32769       3.02845       0.00000
                        -----------------------------------------
Total Dipole Moment    :      1.18204       0.92355      -0.00000
                        -----------------------------------------
Magnitude (a.u.)       :      1.50006
Magnitude (Debye)      :      3.81284

Rotational constants in cm-1:     1.611785     0.155631     0.141926
Rotational constants in MHz : 48320.106780  4665.686629  4254.847604

                             ****ORCA TERMINATED NORMALLY****
TOTAL RUN TIME: 0 days 0 hours 4 minutes 40 seconds 784 msec
