                         Program Version 5.0.4 -  RELEASE  -
|  1> !ri-mp2 aug-cc-pvqz aug-cc-pvqz/c tightscf
|  2> %pal nprocs 16 end
|  3>
|  4> * xyz 0 1
|  5> C      0.000000    0.184262   -0.000004
|  6> C      1.287739   -0.611432   -0.001319
|  7> C     -1.287736   -0.611435    0.001318
|  8> O     -0.000003    1.394523    0.000000
|  9> H      1.360865   -1.200218    0.916077
| 10> H      1.300040   -1.319506   -0.832407
| 11> H      2.141095    0.057450   -0.072065
| 12> H     -2.141098    0.057436    0.072061
| 13> H     -1.300032   -1.319486    0.832420
| 14> H     -1.360868   -1.200234   -0.916065
| 15> *
| 16>
| 17>                          ****END OF INPUT****

CARTESIAN COORDINATES (ANGSTROEM)
---------------------------------
  C      0.000000    0.184262   -0.000004
  C      1.287739   -0.611432   -0.001319
  C     -1.287736   -0.611435    0.001318
  O     -0.000003    1.394523    0.000000
  H      1.360865   -1.200218    0.916077
  H      1.300040   -1.319506   -0.832407
  H      2.141095    0.057450   -0.072065
  H     -2.141098    0.057436    0.072061
  H     -1.300032   -1.319486    0.832420
  H     -1.360868   -1.200234   -0.916065

 Total Charge           Charge          ....    0
 Multiplicity           Mult            ....    1
 Number of Electrons    NEL             ....   32
 Basis Dimension        Dim             ....  596

ORBITAL ENERGIES
----------------

  NO   OCC          E(Eh)            E(eV)
   0   2.0000     -20.542798      -558.9980
   1   2.0000     -11.331491      -308.3455
   2   2.0000     -11.234386      -305.7032
   3   2.0000     -11.234364      -305.7026
   4   2.0000      -1.386535       -37.7295
   5   2.0000      -1.042018       -28.3548
   6   2.0000      -0.968189       -26.3458
   7   2.0000      -0.742298       -20.1990
   8   2.0000      -0.646192       -17.5838
   9   2.0000      -0.637438       -17.3456
  10   2.0000      -0.623757       -16.9733
  11   2.0000      -0.563103       -15.3228
  12   2.0000      -0.560411       -15.2496
  13   2.0000      -0.538804       -14.6616
  14   2.0000      -0.489632       -13.3236
  15   2.0000      -0.414172       -11.2702
  16   0.0000       0.022712         0.6180
  17   0.0000       0.032461         0.8833
  18   0.0000       0.035655         0.9702
  19   0.0000       0.044634         1.2146
  20   0.0000       0.055707         1.5159

MULLIKEN ATOMIC CHARGES
-----------------------
   0 C :    0.747004
   1 C :   -0.801552
   2 C :   -0.801550
   3 O :   -0.727024
   4 H :    0.257185
   5 H :    0.247157
   6 H :    0.287219
   7 H :    0.287216
   8 H :    0.247158
   9 H :    0.257187
Sum of atomic charges:    0.0000000

LOEWDIN ATOMIC CHARGES
----------------------
   0 C :   -0.653604
   1 C :    0.881757
   2 C :    0.881758
   3 O :    0.720016
   4 H :   -0.296497
   5 H :   -0.298062
   6 H :   -0.320401
   7 H :   -0.320401
   8 H :   -0.298067
   9 H :   -0.296498

  Mayer bond orders larger than 0.100000
B(  0-C ,  1-C ) :   0.9112 B(  0-C ,  2-C ) :   0.9112 B(  0-C ,  3-O ) :   1.3711
B(  1-C ,  4-H ) :   0.9183 B(  1-C ,  5-H ) :   0.9437 B(  1-C ,  6-H ) :   0.9558
B(  2-C ,  7-H ) :   0.9558 B(  2-C ,  8-H ) :   0.9437 B(  2-C ,  9-H ) :   0.9183

MP2 TOTAL ENERGY:     -192.845116785 Eh
FINAL SINGLE POINT ENERGY      -192.845116784873

DIPOLE MOMENT
-------------
                                X             Y             Z
Electronic contribution:     -0.00000       3.73407      -0.00002
Nuclear contribution   :      0.00000      -5.07294       0.00002
                        -----------------------------------------
Total Dipole Moment    :      0.00000      -1.33887       0.00000
                        -----------------------------------------
Magnitude (a.u.)       :      1.33887
Magnitude (Debye)      :      3.40314

Rotational constants in cm-1:     0.339784     0.284197     0.164095
Rotational constants in MHz : 10186.459018  8519.999419  4919.430938

                             ****ORCA TERMINATED NORMALLY****
TOTAL RUN TIME: 0 days 0 hours 8 minutes 26 seconds 280 msec
