                         Program Version 5.0.4 -  RELEASE  -
|  1> !ri-mp2 aug-cc-pvqz aug-cc-pvqz/c tightscf
|  2> %pal nprocs 16 end
|  3>
|  4> * xyz 0 1
|  5> N     -0.559751    1.671657    0.045915
|  6> C     -0.532972    0.280240   -0.418930
|  7> C     -1.890012   -0.388824   -0.132659
|  8> O     -2.226830   -1.423048   -0.641390
|  9> O     -2.644131    0.266174    0.760645
| 10> H     -2.137138    1.070719    1.003194
| 11> C      0.538406   -0.536571    0.312301
| 12> C      1.953822   -0.103384    0.017412
| 13> O      2.287312    0.951709   -0.465001
| 14> O      2.843745   -1.045709    0.388575
| 15> H     -0.363243    0.188219   -1.494723
| 16> H      0.398061   -0.461864    1.395187
| 17> H      0.431236   -1.589892    0.058200
| 18> H      0.385487    2.025817    0.133560
| 19> H     -1.022701    2.261966   -0.635773
| 20> H      3.730329   -0.698333    0.207579
| 21> *
| 22>
| 23>                          ****END OF INPUT****

CARTESIAN COORDINATES (ANGSTROEM)
---------------------------------
  N     -0.559751    1.671657    0.045915
  C     -0.532972    0.280240   -0.418930
  C     -1.890012   -0.388824   -0.132659
  O     -2.226830   -1.423048   -0.641390
  O     -2.644131    0.266174    0.760645
  H     -2.137138    1.070719    1.003194
  C      0.538406   -0.536571    0.312301
  C      1.953822   -0.103384    0.017412
  O      2.287312    0.951709   -0.465001
  O      2.843745   -1.045709    0.388575
  H     -0.363243    0.188219   -1.494723
  H      0.398061   -0.461864    1.395187
  H      0.431236   -1.589892    0.058200
  H      0.385487    2.025817    0.133560
  H     -1.022701    2.261966   -0.635773
  H      3.730329   -0.698333    0.207579

 Total Charge           Charge          ....    0
 Multiplicity           Mult            ....    1
 Number of Electrons    NEL             ....   70
 Basis Dimension        Dim             .... 1042

ORBITAL ENERGIES
----------------

  NO   OCC          E(Eh)            E(eV)
   0   2.0000     -20.633000      -561.4525
   1   2.0000     -20.603725      -560.6559
   2   2.0000     -20.573726      -559.8396
   3   2.0000     -20.542967      -559.0025
   4   2.0000     -15.579934      -423.9516
   5   2.0000     -11.413540      -310.5782
   6   2.0000     -11.383103      -309.7500
   7   2.0000     -11.304439      -307.6094
   8   2.0000     -11.276427      -306.8472
   9   2.0000      -1.490209       -40.5506
  10   2.0000      -1.460209       -39.7343
  11   2.0000      -1.387790       -37.7637
  12   2.0000      -1.365098       -37.1462
  13   2.0000      -1.227864       -33.4119
  14   2.0000      -1.075925       -29.2774
  15   2.0000      -0.952593       -25.9214
  16   2.0000      -0.840510       -22.8714
  17   2.0000      -0.811876       -22.0923
  18   2.0000      -0.749208       -20.3870
  19   2.0000      -0.730043       -19.8655
  20   2.0000      -0.709640       -19.3103
  21   2.0000      -0.702957       -19.1284
  22   2.0000      -0.678321       -18.4580
  23   2.0000      -0.665558       -18.1108
  24   2.0000      -0.631948       -17.1962
  25   2.0000      -0.626781       -17.0556
  26   2.0000      -0.604759       -16.4563
  27   2.0000      -0.573753       -15.6126
  28   2.0000      -0.557426       -15.1683
  29   2.0000      -0.551507       -15.0073
  30   2.0000      -0.509993       -13.8776
  31   2.0000      -0.486966       -13.2510
  32   2.0000      -0.475430       -12.9371
  33   2.0000      -0.461737       -12.5645
  34   2.0000      -0.431149       -11.7322
  35   0.0000       0.019407         0.5281
  36   0.0000       0.026264         0.7147
  37   0.0000       0.032063         0.8725
  38   0.0000       0.040511         1.1023
  39   0.0000       0.047091         1.2814

MULLIKEN ATOMIC CHARGES
-----------------------
   0 N :   -0.621165
   1 C :    0.132917
   2 C :    1.090490
   3 O :   -0.803260
   4 O :   -0.889574
   5 H :    0.378812
   6 C :   -0.646722
   7 C :    1.213990
   8 O :   -0.824034
   9 O :   -0.736008
  10 H :    0.357297
  11 H :    0.282695
  12 H :    0.300747
  13 H :    0.191602
  14 H :    0.217951
  15 H :    0.354261
Sum of atomic charges:    0.0000000

LOEWDIN ATOMIC CHARGES
----------------------
   0 N :    1.297865
   1 C :   -0.084154
   2 C :   -1.030236
   3 O :    0.683243
   4 O :    1.261091
   5 H :   -0.937910
   6 C :    0.453768
   7 C :   -0.975954
   8 O :    0.749881
   9 O :    1.267224
  10 H :   -0.289003
  11 H :   -0.269539
  12 H :   -0.301888
  13 H :   -0.568161
  14 H :   -0.452877
  15 H :   -0.803348

  Mayer bond orders larger than 0.100000
B(  0-N ,  1-C ) :   0.6900 B(  0-N ,  5-H ) :   0.1299 B(  0-N , 13-H ) :   1.0237
B(  0-N , 14-H ) :   0.9682 B(  1-C ,  2-C ) :   1.1259 B(  1-C ,  3-O ) :   0.1646
B(  1-C ,  6-C ) :   0.8887 B(  1-C ,  7-C ) :  -0.1035 B(  1-C , 10-H ) :   0.7810
B(  2-C ,  3-O ) :   1.3739 B(  2-C ,  4-O ) :   0.7726 B(  3-O ,  4-O ) :   0.1487
B(  4-O ,  5-H ) :   0.7487 B(  6-C ,  7-C ) :   1.1238 B(  6-C ,  8-O ) :   0.1520
B(  6-C ,  9-O ) :   0.1099 B(  6-C , 11-H ) :   0.8438 B(  6-C , 12-H ) :   0.9367
B(  7-C ,  8-O ) :   1.3414 B(  7-C ,  9-O ) :   0.7581 B(  9-O , 15-H ) :   0.9147

MP2 TOTAL ENERGY:     -511.666288817 Eh
FINAL SINGLE POINT ENERGY      -511.666288817462

DIPOLE MOMENT
-------------
                                X             Y             Z
Electronic contribution:     -0.00016      -1.83979      -0.44006
Nuclear contribution   :      1.40534       2.75243       0.65995
                        -----------------------------------------
Total Dipole Moment    :      1.40517       0.91264       0.21988
                        -----------------------------------------
Magnitude (a.u.)       :      1.68990
Magnitude (Debye)      :      4.29539

Rotational constants in cm-1:     0.108416     0.030338     0.025962
Rotational constants in MHz :  3250.216503   909.502705   778.320967

                             ****ORCA TERMINATED NORMALLY****
TOTAL RUN TIME: 0 days 0 hours 41 minutes 47 seconds 592 msec
