                         Program Version 5.0.4 -  RELEASE  -
|  1> !ri-mp2 aug-cc-pvqz aug-cc-pvqz/c tightscf
|  2> %pal nprocs 16 end
|  3>
|  4> * xyz 0 1
|  5> C      0.000000    2.369460    0.740351
|  6> C     -0.343853    1.165080   -0.083876
|  7> O     -0.878029    1.154247   -1.148636
|  8> H     -0.405130    3.260516    0.271345
|  9> H     -0.391201    2.260041    1.751197
| 10> H      1.085006    2.452696    0.818365
| 11> O      0.000000    0.000000    0.602333
| 12> C      0.343853   -1.165080   -0.083876
| 13> C      0.000000   -2.369460    0.740351
| 14> O      0.878029   -1.154247   -1.148636
| 15> H      0.391201   -2.260041    1.751197
| 16> H      0.405130   -3.260516    0.271345
| 17> H     -1.085006   -2.452696    0.818365
| 18> *
| 19>
| 20>                          ****END OF INPUT****

CARTESIAN COORDINATES (ANGSTROEM)
---------------------------------
  C      0.000000    2.369460    0.740351
  C     -0.343853    1.165080   -0.083876
  O     -0.878029    1.154247   -1.148636
  H     -0.405130    3.260516    0.271345
  H     -0.391201    2.260041    1.751197
  H      1.085006    2.452696    0.818365
  O      0.000000    0.000000    0.602333
  C      0.343853   -1.165080   -0.083876
  C      0.000000   -2.369460    0.740351
  O      0.878029   -1.154247   -1.148636
  H      0.391201   -2.260041    1.751197
  H      0.405130   -3.260516    0.271345
  H     -1.085006   -2.452696    0.818365

 Total Charge           Charge          ....    0
 Multiplicity           Mult            ....    1
 Number of Electrons    NEL             ....   54
 Basis Dimension        Dim             ....  836

ORBITAL ENERGIES
----------------

  NO   OCC          E(Eh)            E(eV)
   0   2.0000     -20.621990      -561.1529
   1   2.0000     -20.562710      -559.5398
   2   2.0000     -20.562707      -559.5397
   3   2.0000     -11.399783      -310.2039
   4   2.0000     -11.399765      -310.2034
   5   2.0000     -11.252561      -306.1977
   6   2.0000     -11.252560      -306.1977
   7   2.0000      -1.491842       -40.5951
   8   2.0000      -1.418337       -38.5949
   9   2.0000      -1.370543       -37.2944
  10   2.0000      -1.057001       -28.7625
  11   2.0000      -1.020733       -27.7756
  12   2.0000      -0.874457       -23.7952
  13   2.0000      -0.740881       -20.1604
  14   2.0000      -0.706445       -19.2233
  15   2.0000      -0.703274       -19.1371
  16   2.0000      -0.688171       -18.7261
  17   2.0000      -0.631497       -17.1839
  18   2.0000      -0.626401       -17.0452
  19   2.0000      -0.600841       -16.3497
  20   2.0000      -0.585048       -15.9200
  21   2.0000      -0.581249       -15.8166
  22   2.0000      -0.558273       -15.1914
  23   2.0000      -0.526414       -14.3245
  24   2.0000      -0.485516       -13.2116
  25   2.0000      -0.479645       -13.0518
  26   2.0000      -0.449743       -12.2381
  27   0.0000       0.020736         0.5643
  28   0.0000       0.028382         0.7723
  29   0.0000       0.036145         0.9836
  30   0.0000       0.039376         1.0715
  31   0.0000       0.048668         1.3243

MULLIKEN ATOMIC CHARGES
-----------------------
   0 C :   -0.756921
   1 C :    0.903728
   2 O :   -0.694756
   3 H :    0.306312
   4 H :    0.295950
   5 H :    0.283329
   6 O :   -0.675285
   7 C :    0.903728
   8 C :   -0.756920
   9 O :   -0.694756
  10 H :    0.295950
  11 H :    0.306312
  12 H :    0.283329
Sum of atomic charges:    0.0000000

LOEWDIN ATOMIC CHARGES
----------------------
   0 C :    0.871635
   1 C :   -1.053132
   2 O :    0.706803
   3 H :   -0.318511
   4 H :   -0.304339
   5 H :   -0.297152
   6 O :    0.789395
   7 C :   -1.053132
   8 C :    0.871635
   9 O :    0.706803
  10 H :   -0.304339
  11 H :   -0.318511
  12 H :   -0.297152

  Mayer bond orders larger than 0.100000
B(  0-C ,  1-C ) :   0.9408 B(  0-C ,  3-H ) :   0.9617 B(  0-C ,  4-H ) :   0.9116
B(  0-C ,  5-H ) :   0.9038 B(  1-C ,  2-O ) :   1.4950 B(  1-C ,  6-O ) :   0.9337
B(  6-O ,  7-C ) :   0.9337 B(  7-C ,  8-C ) :   0.9408 B(  7-C ,  9-O ) :   1.4950
B(  8-C , 10-H ) :   0.9116 B(  8-C , 11-H ) :   0.9617 B(  8-C , 12-H ) :   0.9038

MP2 TOTAL ENERGY:     -381.204775745 Eh
FINAL SINGLE POINT ENERGY      -381.204775745195

DIPOLE MOMENT
-------------
                                X             Y             Z
Electronic contribution:      0.00000      -0.00000      -3.88518
Nuclear contribution   :      0.00000       0.00000       5.61781
                        -----------------------------------------
Total Dipole Moment    :      0.00000      -0.00000       1.73263
                        -----------------------------------------
Magnitude (a.u.)       :      1.73263
Magnitude (Debye)      :      4.40400

Rotational constants in cm-1:     0.183397     0.059257     0.051080
Rotational constants in MHz :  5498.097876  1776.476036  1531.343811

                             ****ORCA TERMINATED NORMALLY****
TOTAL RUN TIME: 0 days 0 hours 21 minutes 27 seconds 908 msec
