                         Program Version 5.0.4 -  RELEASE  -
|  1> !ri-mp2 aug-cc-pvqz aug-cc-pvqz/c tightscf
|  2> %pal nprocs 16 end
|  3>
|  4> * xyz 0 1
|  5> C     -1.285321    1.316376    0.000000
|  6> C      0.000000    0.560718    0.000000
|  7> N     -0.003088   -0.706431    0.000000
|  8> O      1.307613   -1.225774    0.000000
|  9> H      1.160285   -2.176767    0.000000
| 10> H     -2.132483    0.633899    0.000000
| 11> H     -1.349609    1.963012    0.878124
| 12> H     -1.349609    1.963012   -0.878124
| 13> H      0.944054    1.105492    0.000000
| 14> *
| 15>
| 16>                          ****END OF INPUT****

CARTESIAN COORDINATES (ANGSTROEM)
---------------------------------
  C     -1.285321    1.316376    0.000000
  C      0.000000    0.560718    0.000000
  N     -0.003088   -0.706431    0.000000
  O      1.307613   -1.225774    0.000000
  H      1.160285   -2.176767    0.000000
  H     -2.132483    0.633899    0.000000
  H     -1.349609    1.963012    0.878124
  H     -1.349609    1.963012   -0.878124
  H      0.944054    1.105492    0.000000

 Total Charge           Charge          ....    0
 Multiplicity           Mult            ....    1
 Number of Electrons    NEL             ....   32
 Basis Dimension        Dim             ....  550

ORBITAL ENERGIES
----------------

  NO   OCC          E(Eh)            E(eV)
   0   2.0000     -20.591195      -560.3149
   1   2.0000     -15.618447      -424.9995
   2   2.0000     -11.275813      -306.8305
   3   2.0000     -11.234602      -305.7091
   4   2.0000      -1.415969       -38.5305
   5   2.0000      -1.165709       -31.7205
   6   2.0000      -0.984679       -26.7945
   7   2.0000      -0.778104       -21.1733
   8   2.0000      -0.714605       -19.4454
   9   2.0000      -0.651483       -17.7278
  10   2.0000      -0.604409       -16.4468
  11   2.0000      -0.566281       -15.4093
  12   2.0000      -0.565328       -15.3833
  13   2.0000      -0.546923       -14.8825
  14   2.0000      -0.440992       -12.0000
  15   2.0000      -0.391108       -10.6426
  16   0.0000       0.026920         0.7325
  17   0.0000       0.035764         0.9732
  18   0.0000       0.037784         1.0281
  19   0.0000       0.041443         1.1277
  20   0.0000       0.055616         1.5134

MULLIKEN ATOMIC CHARGES
-----------------------
   0 C :   -0.631623
   1 C :   -0.180529
   2 N :   -0.175320
   3 O :   -0.579574
   4 H :    0.327622
   5 H :    0.286692
   6 H :    0.230869
   7 H :    0.230869
   8 H :    0.490994
Sum of atomic charges:    0.0000000

LOEWDIN ATOMIC CHARGES
----------------------
   0 C :    0.857679
   1 C :    0.039172
   2 N :    0.290047
   3 O :    0.985839
   4 H :   -0.891503
   5 H :   -0.329848
   6 H :   -0.303436
   7 H :   -0.303436
   8 H :   -0.344512

  Mayer bond orders larger than 0.100000
B(  0-C ,  1-C ) :   0.9592 B(  0-C ,  5-H ) :   0.9176 B(  0-C ,  6-H ) :   0.9582
B(  0-C ,  7-H ) :   0.9582 B(  1-C ,  2-N ) :   1.7714 B(  1-C ,  8-H ) :   0.7142
B(  2-N ,  3-O ) :   0.8202 B(  3-O ,  4-H ) :   0.9486

MP2 TOTAL ENERGY:     -208.826962623 Eh
FINAL SINGLE POINT ENERGY      -208.826962623410

DIPOLE MOMENT
-------------
                                X             Y             Z
Electronic contribution:      2.53027      -3.11119      -0.00000
Nuclear contribution   :     -2.75398       3.52562       0.00000
                        -----------------------------------------
Total Dipole Moment    :     -0.22371       0.41443      -0.00000
                        -----------------------------------------
Magnitude (a.u.)       :      0.47095
Magnitude (Debye)      :      1.19706

Rotational constants in cm-1:     1.555300     0.141119     0.132542
Rotational constants in MHz : 46626.707400  4230.632197  3973.516474

                             ****ORCA TERMINATED NORMALLY****
TOTAL RUN TIME: 0 days 0 hours 4 minutes 0 seconds 690 msec
