                         Program Version 5.0.4 -  RELEASE  -
|  1> !ri-mp2 aug-cc-pvqz aug-cc-pvqz/c tightscf
|  2> %pal nprocs 16 end
|  3>
|  4> * xyz 0 1
|  5> C      0.000000    0.155267    0.000000
|  6> C      1.069204   -0.899341    0.000000
|  7> O      0.178356    1.345599    0.000000
|  8> O     -1.241854   -0.392584    0.000000
|  9> H      0.960614   -1.536194    0.877879
| 10> H      0.960614   -1.536194   -0.877879
| 11> H      2.046305   -0.427881    0.000000
| 12> H     -1.874777    0.340590    0.000000
| 13> *
| 14>
| 15>                          ****END OF INPUT****

CARTESIAN COORDINATES (ANGSTROEM)
---------------------------------
  C      0.000000    0.155267    0.000000
  C      1.069204   -0.899341    0.000000
  O      0.178356    1.345599    0.000000
  O     -1.241854   -0.392584    0.000000
  H      0.960614   -1.536194    0.877879
  H      0.960614   -1.536194   -0.877879
  H      2.046305   -0.427881    0.000000
  H     -1.874777    0.340590    0.000000

 Total Charge           Charge          ....    0
 Multiplicity           Mult            ....    1
 Number of Electrons    NEL             ....   32
 Basis Dimension        Dim             ....  504

ORBITAL ENERGIES
----------------

  NO   OCC          E(Eh)            E(eV)
   0   2.0000     -20.611489      -560.8671
   1   2.0000     -20.549767      -559.1876
   2   2.0000     -11.389321      -309.9192
   3   2.0000     -11.246263      -306.0264
   4   2.0000      -1.465614       -39.8814
   5   2.0000      -1.363256       -37.0961
   6   2.0000      -1.028979       -27.9999
   7   2.0000      -0.824746       -22.4425
   8   2.0000      -0.706993       -19.2383
   9   2.0000      -0.682493       -18.5716
  10   2.0000      -0.651721       -17.7342
  11   2.0000      -0.586220       -15.9518
  12   2.0000      -0.575905       -15.6712
  13   2.0000      -0.562879       -15.3167
  14   2.0000      -0.486344       -13.2341
  15   2.0000      -0.457169       -12.4402
  16   0.0000       0.024371         0.6632
  17   0.0000       0.034737         0.9452
  18   0.0000       0.040390         1.0991
  19   0.0000       0.046009         1.2520
  20   0.0000       0.069897         1.9020

MULLIKEN ATOMIC CHARGES
-----------------------
   0 C :    0.936145
   1 C :   -0.778736
   2 O :   -0.683907
   3 O :   -0.639211
   4 H :    0.274312
   5 H :    0.274312
   6 H :    0.290213
   7 H :    0.326870
Sum of atomic charges:    0.0000000

LOEWDIN ATOMIC CHARGES
----------------------
   0 C :   -1.033095
   1 C :    0.864828
   2 O :    0.685877
   3 O :    1.236692
   4 H :   -0.303319
   5 H :   -0.303319
   6 H :   -0.323953
   7 H :   -0.823712

  Mayer bond orders larger than 0.100000
B(  0-C ,  1-C ) :   0.9732 B(  0-C ,  2-O ) :   1.5706 B(  0-C ,  3-O ) :   0.9190
B(  1-C ,  4-H ) :   0.9171 B(  1-C ,  5-H ) :   0.9171 B(  1-C ,  6-H ) :   0.9662
B(  3-O ,  7-H ) :   0.9116

MP2 TOTAL ENERGY:     -228.787610261 Eh
FINAL SINGLE POINT ENERGY      -228.787610261397

DIPOLE MOMENT
-------------
                                X             Y             Z
Electronic contribution:     -2.15964       2.36913      -0.00000
Nuclear contribution   :      2.07759      -3.14708       0.00000
                        -----------------------------------------
Total Dipole Moment    :     -0.08205      -0.77796      -0.00000
                        -----------------------------------------
Magnitude (a.u.)       :      0.78227
Magnitude (Debye)      :      1.98837

Rotational constants in cm-1:     0.378647     0.315756     0.177820
Rotational constants in MHz : 11351.549955  9466.136063  5330.920137

                             ****ORCA TERMINATED NORMALLY****
TOTAL RUN TIME: 0 days 0 hours 4 minutes 34 seconds 91 msec
