                         Program Version 5.0.4 -  RELEASE  -
|  1> !ri-mp2 aug-cc-pvqz aug-cc-pvqz/c tightscf
|  2> %pal nprocs 16 end
|  3>
|  4> * xyz 0 1
|  5> N      0.090626   -1.183995    0.000000
|  6> C      0.000000    0.161705    0.000000
|  7> C     -0.019053    1.362621    0.000000
|  8> H     -0.239895   -1.640016    0.837356
|  9> H     -0.239895   -1.640016   -0.837356
| 10> H     -0.040274    2.422038    0.000000
| 11> *
| 12>
| 13>                          ****END OF INPUT****

CARTESIAN COORDINATES (ANGSTROEM)
---------------------------------
  N      0.090626   -1.183995    0.000000
  C      0.000000    0.161705    0.000000
  C     -0.019053    1.362621    0.000000
  H     -0.239895   -1.640016    0.837356
  H     -0.239895   -1.640016   -0.837356
  H     -0.040274    2.422038    0.000000

 Total Charge           Charge          ....    0
 Multiplicity           Mult            ....    1
 Number of Electrons    NEL             ....   22
 Basis Dimension        Dim             ....  378

ORBITAL ENERGIES
----------------

  NO   OCC          E(Eh)            E(eV)
   0   2.0000     -15.592596      -424.2961
   1   2.0000     -11.261971      -306.4538
   2   2.0000     -11.209442      -305.0244
   3   2.0000      -1.232030       -33.5252
   4   2.0000      -1.000185       -27.2164
   5   2.0000      -0.758147       -20.6302
   6   2.0000      -0.706813       -19.2334
   7   2.0000      -0.681120       -18.5342
   8   2.0000      -0.527373       -14.3505
   9   2.0000      -0.391201       -10.6451
  10   2.0000      -0.346529        -9.4295
  11   0.0000       0.021455         0.5838
  12   0.0000       0.033257         0.9050
  13   0.0000       0.040641         1.1059
  14   0.0000       0.075713         2.0603
  15   0.0000       0.079119         2.1529

MULLIKEN ATOMIC CHARGES
-----------------------
   0 N :   -0.723938
   1 C :    0.145494
   2 C :   -0.593564
   3 H :    0.337443
   4 H :    0.337443
   5 H :    0.497123
Sum of atomic charges:   -0.0000000

LOEWDIN ATOMIC CHARGES
----------------------
   0 N :    1.154728
   1 C :   -0.116677
   2 C :    0.515951
   3 H :   -0.528828
   4 H :   -0.528828
   5 H :   -0.496345

  Mayer bond orders larger than 0.100000
B(  0-N ,  1-C ) :   1.1322 B(  0-N ,  3-H ) :   0.8617 B(  0-N ,  4-H ) :   0.8617
B(  1-C ,  2-C ) :   2.7613 B(  2-C ,  5-H ) :   0.7921

MP2 TOTAL ENERGY:     -132.466478772 Eh
FINAL SINGLE POINT ENERGY      -132.466478771887

DIPOLE MOMENT
-------------
                                X             Y             Z
Electronic contribution:      0.12286       0.32782       0.00000
Nuclear contribution   :     -0.52288      -0.87052       0.00000
                        -----------------------------------------
Total Dipole Moment    :     -0.40002      -0.54270       0.00000
                        -----------------------------------------
Magnitude (a.u.)       :      0.67420
Magnitude (Debye)      :      1.71367

Rotational constants in cm-1:    10.404997     0.313345     0.306469
Rotational constants in MHz : 311933.977015  9393.835266  9187.714551

                             ****ORCA TERMINATED NORMALLY****
TOTAL RUN TIME: 0 days 0 hours 2 minutes 6 seconds 525 msec
