                         Program Version 5.0.4 -  RELEASE  -
|  1> !ri-mp2 aug-cc-pvqz aug-cc-pvqz/c tightscf
|  2> %pal nprocs 16 end
|  3>
|  4> * xyz 0 1
|  5> N     -0.537636    1.634468   -0.311017
|  6> C     -0.506076    0.174773   -0.439687
|  7> C     -1.882737   -0.418460   -0.080577
|  8> O     -2.175140   -1.564324   -0.298926
|  9> O     -2.703547    0.449095    0.519188
| 10> H     -2.201073    1.295665    0.555522
| 11> C      0.530887   -0.449933    0.513055
| 12> C      1.954459   -0.058137    0.153171
| 13> O      2.308657    1.111421    0.104908
| 14> N      2.806159   -1.080562   -0.108786
| 15> H     -0.288369   -0.160572   -1.457832
| 16> H      0.343314   -0.088713    1.526973
| 17> H      0.392111   -1.529176    0.509676
| 18> H      2.517736   -2.040866   -0.075861
| 19> H      3.761371   -0.865241   -0.340502
| 20> H      0.386763    1.982426   -0.073290
| 21> H     -0.810476    2.070141   -1.183197
| 22> *
| 23>
| 24>                          ****END OF INPUT****

CARTESIAN COORDINATES (ANGSTROEM)
---------------------------------
  N     -0.537636    1.634468   -0.311017
  C     -0.506076    0.174773   -0.439687
  C     -1.882737   -0.418460   -0.080577
  O     -2.175140   -1.564324   -0.298926
  O     -2.703547    0.449095    0.519188
  H     -2.201073    1.295665    0.555522
  C      0.530887   -0.449933    0.513055
  C      1.954459   -0.058137    0.153171
  O      2.308657    1.111421    0.104908
  N      2.806159   -1.080562   -0.108786
  H     -0.288369   -0.160572   -1.457832
  H      0.343314   -0.088713    1.526973
  H      0.392111   -1.529176    0.509676
  H      2.517736   -2.040866   -0.075861
  H      3.761371   -0.865241   -0.340502
  H      0.386763    1.982426   -0.073290
  H     -0.810476    2.070141   -1.183197

 Total Charge           Charge          ....    0
 Multiplicity           Mult            ....    1
 Number of Electrons    NEL             ....   70
 Basis Dimension        Dim             .... 1088

ORBITAL ENERGIES
----------------

  NO   OCC          E(Eh)            E(eV)
   0   2.0000     -20.598268      -560.5074
   1   2.0000     -20.539460      -558.9071
   2   2.0000     -20.538695      -558.8863
   3   2.0000     -15.607117      -424.6912
   4   2.0000     -15.570969      -423.7076
   5   2.0000     -11.378511      -309.6250
   6   2.0000     -11.377096      -309.5865
   7   2.0000     -11.302198      -307.5485
   8   2.0000     -11.268454      -306.6302
   9   2.0000      -1.455740       -39.6127
  10   2.0000      -1.405139       -38.2358
  11   2.0000      -1.360386       -37.0180
  12   2.0000      -1.236212       -33.6390
  13   2.0000      -1.220280       -33.2055
  14   2.0000      -1.058901       -28.8141
  15   2.0000      -0.934721       -25.4350
  16   2.0000      -0.823722       -22.4146
  17   2.0000      -0.807489       -21.9729
  18   2.0000      -0.749622       -20.3982
  19   2.0000      -0.738850       -20.1051
  20   2.0000      -0.705535       -19.1986
  21   2.0000      -0.688996       -18.7485
  22   2.0000      -0.671544       -18.2736
  23   2.0000      -0.635160       -17.2836
  24   2.0000      -0.629971       -17.1424
  25   2.0000      -0.606324       -16.4989
  26   2.0000      -0.598079       -16.2745
  27   2.0000      -0.565062       -15.3761
  28   2.0000      -0.552749       -15.0411
  29   2.0000      -0.531718       -14.4688
  30   2.0000      -0.475702       -12.9445
  31   2.0000      -0.464798       -12.6478
  32   2.0000      -0.452861       -12.3230
  33   2.0000      -0.438581       -11.9344
  34   2.0000      -0.417648       -11.3648
  35   0.0000       0.016065         0.4371
  36   0.0000       0.026969         0.7339
  37   0.0000       0.032469         0.8835
  38   0.0000       0.036977         1.0062
  39   0.0000       0.045929         1.2498

MULLIKEN ATOMIC CHARGES
-----------------------
   0 N :   -0.626746
   1 C :    0.070152
   2 C :    1.105064
   3 O :   -0.808757
   4 O :   -0.903723
   5 H :    0.374483
   6 C :   -0.566365
   7 C :    1.090190
   8 O :   -0.898944
   9 N :   -0.793658
  10 H :    0.403037
  11 H :    0.301118
  12 H :    0.291437
  13 H :    0.334220
  14 H :    0.207761
  15 H :    0.214501
  16 H :    0.206228
Sum of atomic charges:   -0.0000000

LOEWDIN ATOMIC CHARGES
----------------------
   0 N :    1.300683
   1 C :   -0.063311
   2 C :   -1.030078
   3 O :    0.677959
   4 O :    1.257697
   5 H :   -0.946258
   6 C :    0.476570
   7 C :   -0.779510
   8 O :    0.750852
   9 N :    1.262451
  10 H :   -0.283301
  11 H :   -0.268611
  12 H :   -0.314474
  13 H :   -0.490663
  14 H :   -0.488599
  15 H :   -0.613792
  16 H :   -0.447615

  Mayer bond orders larger than 0.100000
B(  0-N ,  1-C ) :   0.7254 B(  0-N ,  5-H ) :   0.1484 B(  0-N , 15-H ) :   1.0295
B(  0-N , 16-H ) :   0.9822 B(  1-C ,  2-C ) :   1.0967 B(  1-C ,  3-O ) :   0.1631
B(  1-C ,  6-C ) :   0.8473 B(  1-C , 10-H ) :   0.7647 B(  2-C ,  3-O ) :   1.3778
B(  2-C ,  4-O ) :   0.7563 B(  3-O ,  4-O ) :   0.1345 B(  4-O ,  5-H ) :   0.7447
B(  6-C ,  7-C ) :   1.0307 B(  6-C ,  8-O ) :   0.1808 B(  6-C , 11-H ) :   0.8542
B(  6-C , 12-H ) :   0.9599 B(  7-C ,  8-O ) :   1.1129 B(  7-C ,  9-N ) :   1.0552
B(  8-O ,  9-N ) :   0.1442 B(  9-N , 13-H ) :   0.8529 B(  9-N , 14-H ) :   1.0643

MP2 TOTAL ENERGY:     -491.797001538 Eh
FINAL SINGLE POINT ENERGY      -491.797001538204

DIPOLE MOMENT
-------------
                                X             Y             Z
Electronic contribution:     -2.52568      -0.74877       0.17513
Nuclear contribution   :      4.05401       0.66355      -0.53320
                        -----------------------------------------
Total Dipole Moment    :      1.52834      -0.08521      -0.35806
                        -----------------------------------------
Magnitude (a.u.)       :      1.57203
Magnitude (Debye)      :      3.99579

Rotational constants in cm-1:     0.106942     0.031567     0.025857
Rotational constants in MHz :  3206.028901   946.361941   775.167348

                             ****ORCA TERMINATED NORMALLY****
TOTAL RUN TIME: 0 days 0 hours 46 minutes 57 seconds 195 msec
