                         Program Version 5.0.4 -  RELEASE  -
|  1> !ri-mp2 aug-cc-pvqz aug-cc-pvqz/c tightscf
|  2> %pal nprocs 16 end
|  3>
|  4> * xyz 0 1
|  5> C      0.000000    0.000000    0.280675
|  6> C      0.000000    0.000000   -1.174129
|  7> N      0.000000    0.000000    1.430070
|  8> H      0.000000    1.022452   -1.549923
|  9> H     -0.885470   -0.511226   -1.549923
| 10> H      0.885470   -0.511226   -1.549923
| 11> *
| 12>
| 13>                          ****END OF INPUT****

CARTESIAN COORDINATES (ANGSTROEM)
---------------------------------
  C      0.000000    0.000000    0.280675
  C      0.000000    0.000000   -1.174129
  N      0.000000    0.000000    1.430070
  H      0.000000    1.022452   -1.549923
  H     -0.885470   -0.511226   -1.549923
  H      0.885470   -0.511226   -1.549923

 Total Charge           Charge          ....    0
 Multiplicity           Mult            ....    1
 Number of Electrons    NEL             ....   22
 Basis Dimension        Dim             ....  378

ORBITAL ENERGIES
----------------

  NO   OCC          E(Eh)            E(eV)
   0   2.0000     -15.567720      -423.6192
   1   2.0000     -11.284445      -307.0654
   2   2.0000     -11.275502      -306.8220
   3   2.0000      -1.223032       -33.2804
   4   2.0000      -1.042457       -28.3667
   5   2.0000      -0.700098       -19.0506
   6   2.0000      -0.631175       -17.1751
   7   2.0000      -0.631175       -17.1751
   8   2.0000      -0.556498       -15.1431
   9   2.0000      -0.463892       -12.6231
  10   2.0000      -0.463892       -12.6231
  11   0.0000       0.018931         0.5151
  12   0.0000       0.037539         1.0215
  13   0.0000       0.037539         1.0215
  14   0.0000       0.052443         1.4271
  15   0.0000       0.086979         2.3668

MULLIKEN ATOMIC CHARGES
-----------------------
   0 C :    0.323319
   1 C :   -0.651689
   2 N :   -0.582982
   3 H :    0.303784
   4 H :    0.303784
   5 H :    0.303784
Sum of atomic charges:    0.0000000

LOEWDIN ATOMIC CHARGES
----------------------
   0 C :   -0.274766
   1 C :    0.840865
   2 N :    0.382257
   3 H :   -0.316119
   4 H :   -0.316118
   5 H :   -0.316118

  Mayer bond orders larger than 0.100000
B(  0-C ,  1-C ) :   0.9711 B(  0-C ,  2-N ) :   2.6472 B(  1-C ,  3-H ) :   0.9025
B(  1-C ,  4-H ) :   0.9025 B(  1-C ,  5-H ) :   0.9025

MP2 TOTAL ENERGY:     -132.533906451 Eh
FINAL SINGLE POINT ENERGY      -132.533906450599

DIPOLE MOMENT
-------------
                                X             Y             Z
Electronic contribution:     -0.00000       0.00000       3.00136
Nuclear contribution   :      0.00000       0.00000      -4.67129
                        -----------------------------------------
Total Dipole Moment    :     -0.00000       0.00000      -1.66993
                        -----------------------------------------
Magnitude (a.u.)       :      1.66993
Magnitude (Debye)      :      4.24462

Rotational constants in cm-1:     5.332477     0.309446     0.309446
Rotational constants in MHz : 159863.629295  9276.960058  9276.959696

                             ****ORCA TERMINATED NORMALLY****
TOTAL RUN TIME: 0 days 0 hours 1 minutes 12 seconds 53 msec
