                         Program Version 5.0.4 -  RELEASE  -
|  1> !ri-mp2 aug-cc-pvqz aug-cc-pvqz/c tightscf
|  2> %pal nprocs 16 end
|  3>
|  4> * xyz 0 1
|  5> C     -0.802490   -0.641917   -0.000049
|  6> C      0.476208    0.129519   -0.000019
|  7> N      1.603597   -0.640957   -0.000091
|  8> O      0.524695    1.347317   -0.000004
|  9> C     -1.976832   -0.024715    0.000041
| 10> H     -0.744777   -1.724573   -0.000141
| 11> H      2.497946   -0.182204    0.000312
| 12> H      1.570738   -1.643448    0.000506
| 13> H     -2.020997    1.056447    0.000120
| 14> H     -2.906961   -0.575387    0.000032
| 15> *
| 16>
| 17>                          ****END OF INPUT****

CARTESIAN COORDINATES (ANGSTROEM)
---------------------------------
  C     -0.802490   -0.641917   -0.000049
  C      0.476208    0.129519   -0.000019
  N      1.603597   -0.640957   -0.000091
  O      0.524695    1.347317   -0.000004
  C     -1.976832   -0.024715    0.000041
  H     -0.744777   -1.724573   -0.000141
  H      2.497946   -0.182204    0.000312
  H      1.570738   -1.643448    0.000506
  H     -2.020997    1.056447    0.000120
  H     -2.906961   -0.575387    0.000032

 Total Charge           Charge          ....    0
 Multiplicity           Mult            ....    1
 Number of Electrons    NEL             ....   38
 Basis Dimension        Dim             ....  630

ORBITAL ENERGIES
----------------

  NO   OCC          E(Eh)            E(eV)
   0   2.0000     -20.513588      -558.2031
   1   2.0000     -15.585883      -424.1134
   2   2.0000     -11.354548      -308.9730
   3   2.0000     -11.251976      -306.1818
   4   2.0000     -11.246105      -306.0221
   5   2.0000      -1.379114       -37.5276
   6   2.0000      -1.213001       -33.0074
   7   2.0000      -1.068707       -29.0810
   8   2.0000      -0.878318       -23.9003
   9   2.0000      -0.771925       -21.0052
  10   2.0000      -0.719789       -19.5865
  11   2.0000      -0.694538       -18.8993
  12   2.0000      -0.616068       -16.7641
  13   2.0000      -0.600542       -16.3416
  14   2.0000      -0.577594       -15.7171
  15   2.0000      -0.541011       -14.7217
  16   2.0000      -0.429766       -11.6945
  17   2.0000      -0.417241       -11.3537
  18   2.0000      -0.391681       -10.6582
  19   0.0000       0.019088         0.5194
  20   0.0000       0.028670         0.7802
  21   0.0000       0.037933         1.0322
  22   0.0000       0.050839         1.3834
  23   0.0000       0.054909         1.4942

MULLIKEN ATOMIC CHARGES
-----------------------
   0 C :   -0.625595
   1 C :    0.995466
   2 N :   -0.673982
   3 O :   -0.771390
   4 C :   -0.611063
   5 H :    0.377139
   6 H :    0.239626
   7 H :    0.304721
   8 H :    0.426641
   9 H :    0.338437
Sum of atomic charges:   -0.0000000

LOEWDIN ATOMIC CHARGES
----------------------
   0 C :    0.301908
   1 C :   -0.899593
   2 N :    1.219333
   3 O :    0.670151
   4 C :    0.783052
   5 H :   -0.363090
   6 H :   -0.500731
   7 H :   -0.510631
   8 H :   -0.360974
   9 H :   -0.339425

  Mayer bond orders larger than 0.100000
B(  0-C ,  1-C ) :   0.9450 B(  0-C ,  3-O ) :   0.1298 B(  0-C ,  4-C ) :   1.6972
B(  0-C ,  5-H ) :   0.8624 B(  1-C ,  2-N ) :   1.1426 B(  1-C ,  3-O ) :   1.3049
B(  1-C ,  4-C ) :  -0.1358 B(  2-N ,  3-O ) :   0.1327 B(  2-N ,  6-H ) :   0.9875
B(  2-N ,  7-H ) :   0.9088 B(  4-C ,  8-H ) :   0.7810 B(  4-C ,  9-H ) :   0.9960

MP2 TOTAL ENERGY:     -246.922743087 Eh
FINAL SINGLE POINT ENERGY      -246.922743086568

DIPOLE MOMENT
-------------
                                X             Y             Z
Electronic contribution:      1.58347       1.54326      -0.00022
Nuclear contribution   :     -1.59279      -3.06404       0.00083
                        -----------------------------------------
Total Dipole Moment    :     -0.00932      -1.52078       0.00061
                        -----------------------------------------
Magnitude (a.u.)       :      1.52081
Magnitude (Debye)      :      3.86559

Rotational constants in cm-1:     0.358857     0.140694     0.101069
Rotational constants in MHz : 10758.275794  4217.885922  3029.960624

                             ****ORCA TERMINATED NORMALLY****
TOTAL RUN TIME: 0 days 0 hours 6 minutes 33 seconds 853 msec
