                         Program Version 5.0.4 -  RELEASE  -
|  1> !ri-mp2 aug-cc-pvqz aug-cc-pvqz/c tightscf
|  2> %pal nprocs 16 end
|  3> %maxcore 3800
|  4>
|  5> * xyz 0 1
|  6> C     0.000000     2.417403    1.181934
|  7> C     0.000000    -2.417403    1.181934
|  8> C     0.000000     1.271044    1.944423
|  9> C     0.000000    -1.271044    1.944423
| 10> C     0.000000     2.386884   -0.235954
| 11> C     0.000000    -2.386884   -0.235954
| 12> C     0.000000     0.000000    1.317592
| 13> C     0.000000     0.000000   -0.091156
| 14> C     0.000000     1.171139   -0.870305
| 15> C     0.000000    -1.171139   -0.870305
| 16> C     0.000000     0.782271   -2.334961
| 17> C     0.000000    -0.782271   -2.334961
| 18> H     0.000000     3.379258    1.678463
| 19> H     0.000000    -3.379258    1.678463
| 20> H     0.000000     1.338083    3.024941
| 21> H     0.000000    -1.338083    3.024941
| 22> H     0.000000     3.317350   -0.789309
| 23> H     0.000000    -3.317350   -0.789309
| 24> H    -0.874591     1.180702   -2.852112
| 25> H     0.874591     1.180702   -2.852112
| 26> H     0.874591    -1.180702   -2.852112
| 27> H    -0.874591    -1.180702   -2.852112
| 28> *
| 29>
| 30>                          ****END OF INPUT****

CARTESIAN COORDINATES (ANGSTROEM)
---------------------------------
  C      0.000000    2.417403    1.181934
  C      0.000000   -2.417403    1.181934
  C      0.000000    1.271044    1.944423
  C      0.000000   -1.271044    1.944423
  C      0.000000    2.386884   -0.235954
  C      0.000000   -2.386884   -0.235954
  C      0.000000    0.000000    1.317592
  C      0.000000    0.000000   -0.091156
  C      0.000000    1.171139   -0.870305
  C      0.000000   -1.171139   -0.870305
  C      0.000000    0.782271   -2.334961
  C      0.000000   -0.782271   -2.334961
  H      0.000000    3.379258    1.678463
  H      0.000000   -3.379258    1.678463
  H      0.000000    1.338083    3.024941
  H      0.000000   -1.338083    3.024941
  H      0.000000    3.317350   -0.789309
  H      0.000000   -3.317350   -0.789309
  H     -0.874591    1.180702   -2.852112
  H      0.874591    1.180702   -2.852112
  H      0.874591   -1.180702   -2.852112
  H     -0.874591   -1.180702   -2.852112

 Total Charge           Charge          ....    0
 Multiplicity           Mult            ....    1
 Number of Electrons    NEL             ....   82
 Basis Dimension        Dim             .... 1420

ORBITAL ENERGIES
----------------

  NO   OCC          E(Eh)            E(eV)
   0   2.0000     -11.238386      -305.8120
   1   2.0000     -11.237767      -305.7952
   2   2.0000     -11.237740      -305.7945
   3   2.0000     -11.234980      -305.7193
   4   2.0000     -11.234496      -305.7062
   5   2.0000     -11.234494      -305.7061
   6   2.0000     -11.234449      -305.7049
   7   2.0000     -11.227753      -305.5227
   8   2.0000     -11.227684      -305.5208
   9   2.0000     -11.226764      -305.4958
  10   2.0000     -11.226764      -305.4958
  11   2.0000     -11.221313      -305.3474
  12   2.0000      -1.191319       -32.4174
  13   2.0000      -1.107170       -30.1276
  14   2.0000      -1.099655       -29.9231
  15   2.0000      -1.006744       -27.3949
  16   2.0000      -0.991277       -26.9740
  17   2.0000      -0.976957       -26.5844
  18   2.0000      -0.883130       -24.0312
  19   2.0000      -0.839079       -22.8325
  20   2.0000      -0.810609       -22.0578
  21   2.0000      -0.782768       -21.3002
  22   2.0000      -0.702300       -19.1106
  23   2.0000      -0.681735       -18.5510
  24   2.0000      -0.661120       -17.9900
  25   2.0000      -0.633399       -17.2357
  26   2.0000      -0.617626       -16.8064
  27   2.0000      -0.598052       -16.2738
  28   2.0000      -0.578480       -15.7412
  29   2.0000      -0.568728       -15.4759
  30   2.0000      -0.551925       -15.0186
  31   2.0000      -0.524481       -14.2719
  32   2.0000      -0.522957       -14.2304
  33   2.0000      -0.500641       -13.6231
  34   2.0000      -0.500246       -13.6124
  35   2.0000      -0.475056       -12.9269
  36   2.0000      -0.470304       -12.7976
  37   2.0000      -0.436373       -11.8743
  38   2.0000      -0.375335       -10.2134
  39   2.0000      -0.317100        -8.6287
  40   2.0000      -0.276838        -7.5332
  41   0.0000       0.025555         0.6954
  42   0.0000       0.026422         0.7190
  43   0.0000       0.027897         0.7591
  44   0.0000       0.036855         1.0029
  45   0.0000       0.037804         1.0287

MULLIKEN ATOMIC CHARGES
-----------------------
   0 C :   -0.430382
   1 C :   -0.430391
   2 C :   -0.549571
   3 C :   -0.550341
   4 C :   -0.617855
   5 C :   -0.618182
   6 C :    0.274952
   7 C :    1.582961
   8 C :    0.106326
   9 C :    0.106958
  10 C :   -0.569241
  11 C :   -0.569113
  12 H :    0.198595
  13 H :    0.198890
  14 H :    0.244106
  15 H :    0.243941
  16 H :    0.301885
  17 H :    0.301812
  18 H :    0.193704
  19 H :    0.193719
  20 H :    0.193603
  21 H :    0.193622
Sum of atomic charges:    0.0000000

LOEWDIN ATOMIC CHARGES
----------------------
   0 C :    0.350789
   1 C :    0.350789
   2 C :    0.369083
   3 C :    0.369083
   4 C :    0.386078
   5 C :    0.386078
   6 C :   -0.085161
   7 C :   -0.154740
   8 C :   -0.039625
   9 C :   -0.039625
  10 C :    0.553490
  11 C :    0.553490
  12 H :   -0.327175
  13 H :   -0.327174
  14 H :   -0.322202
  15 H :   -0.322202
  16 H :   -0.318769
  17 H :   -0.318769
  18 H :   -0.265859
  19 H :   -0.265859
  20 H :   -0.265859
  21 H :   -0.265859

  Mayer bond orders larger than 0.100000
B(  0-C ,  2-C ) :   1.4891 B(  0-C ,  4-C ) :   1.1991 B(  0-C ,  6-C ) :  -0.3378
B(  0-C ,  7-C ) :   0.2353 B(  0-C ,  8-C ) :  -0.3265 B(  0-C , 12-H ) :   1.2603
B(  1-C ,  3-C ) :   1.4903 B(  1-C ,  5-C ) :   1.1993 B(  1-C ,  6-C ) :  -0.3377
B(  1-C ,  7-C ) :   0.2352 B(  1-C ,  9-C ) :  -0.3265 B(  1-C , 13-H ) :   1.2597
B(  2-C ,  3-C ) :  -0.1527 B(  2-C ,  4-C ) :   0.2703 B(  2-C ,  6-C ) :   0.7575
B(  2-C ,  7-C ) :  -0.3218 B(  2-C , 12-H ) :  -0.2438 B(  2-C , 14-H ) :   1.0590
B(  3-C ,  5-C ) :   0.2707 B(  3-C ,  6-C ) :   0.7579 B(  3-C ,  7-C ) :  -0.3221
B(  3-C , 13-H ) :  -0.2433 B(  3-C , 15-H ) :   1.0591 B(  4-C ,  7-C ) :  -0.3303
B(  4-C ,  8-C ) :   0.9625 B(  4-C , 10-C ) :   0.1283 B(  4-C , 12-H ) :  -0.2110
B(  4-C , 16-H ) :   0.9898 B(  5-C ,  7-C ) :  -0.3302 B(  5-C ,  9-C ) :   0.9619
B(  5-C , 11-C ) :   0.1282 B(  5-C , 13-H ) :  -0.2111 B(  5-C , 17-H ) :   0.9899
B(  6-C ,  7-C ) :   0.2846 B(  6-C , 14-H ) :  -0.1605 B(  6-C , 15-H ) :  -0.1604
B(  7-C ,  8-C ) :   0.1417 B(  7-C ,  9-C ) :   0.1420 B(  7-C , 10-C ) :  -0.2811
B(  7-C , 11-C ) :  -0.2811 B(  8-C ,  9-C ) :  -0.1046 B(  8-C , 10-C ) :   0.8817
B(  8-C , 11-C ) :  -0.1005 B(  8-C , 16-H ) :  -0.1331 B(  9-C , 10-C ) :  -0.1007
B(  9-C , 11-C ) :   0.8815 B(  9-C , 17-H ) :  -0.1333 B( 10-C , 11-C ) :   1.0787
B( 10-C , 18-H ) :   1.0412 B( 10-C , 19-H ) :   1.0411 B( 11-C , 20-H ) :   1.0413
B( 11-C , 21-H ) :   1.0413

MP2 TOTAL ENERGY:     -462.457705837 Eh
FINAL SINGLE POINT ENERGY      -462.457705837411

DIPOLE MOMENT
-------------
                                X             Y             Z
Electronic contribution:      0.00000      -0.00000       3.17874
Nuclear contribution   :      0.00000       0.00000      -3.57538
                        -----------------------------------------
Total Dipole Moment    :      0.00000      -0.00000      -0.39664
                        -----------------------------------------
Magnitude (a.u.)       :      0.39664
Magnitude (Debye)      :      1.00819

Rotational constants in cm-1:     0.047218     0.040021     0.021834
Rotational constants in MHz :  1415.566459  1199.805981   654.581381

                             ****ORCA TERMINATED NORMALLY****
TOTAL RUN TIME: 0 days 3 hours 7 minutes 15 seconds 296 msec
