                         Program Version 5.0.4 -  RELEASE  -
|  1> !ri-mp2 aug-cc-pvqz aug-cc-pvqz/c tightscf
|  2> %pal nprocs 16 end
|  3>
|  4> * xyz 0 1
|  5> C     0.000000     1.390589       0.000000
|  6> C     1.204285     0.695294       0.000000
|  7> C    -1.204285     0.695294       0.000000
|  8> C     1.204285    -0.695294       0.000000
|  9> C    -1.204285    -0.695294       0.000000
| 10> C     0.000000    -1.390589       0.000000
| 11> H     0.000000     2.472617       0.000000
| 12> H     0.000000    -2.472617       0.000000
| 13> H    -2.141349     1.236308       0.000000
| 14> H     2.141349    -1.236308       0.000000
| 15> H     2.141349     1.236308       0.000000
| 16> H    -2.141349    -1.236308       0.000000
| 17> *
| 18>
| 19>                          ****END OF INPUT****

CARTESIAN COORDINATES (ANGSTROEM)
---------------------------------
  C      0.000000    1.390589    0.000000
  C      1.204285    0.695294    0.000000
  C     -1.204285    0.695294    0.000000
  C      1.204285   -0.695294    0.000000
  C     -1.204285   -0.695294    0.000000
  C      0.000000   -1.390589    0.000000
  H      0.000000    2.472617    0.000000
  H      0.000000   -2.472617    0.000000
  H     -2.141349    1.236308    0.000000
  H      2.141349   -1.236308    0.000000
  H      2.141349    1.236308    0.000000
  H     -2.141349   -1.236308    0.000000

 Total Charge           Charge          ....    0
 Multiplicity           Mult            ....    1
 Number of Electrons    NEL             ....   42
 Basis Dimension        Dim             ....  756

ORBITAL ENERGIES
----------------

  NO   OCC          E(Eh)            E(eV)
   0   2.0000     -11.234220      -305.6987
   1   2.0000     -11.233633      -305.6827
   2   2.0000     -11.233632      -305.6827
   3   2.0000     -11.232368      -305.6483
   4   2.0000     -11.232368      -305.6483
   5   2.0000     -11.231748      -305.6314
   6   2.0000      -1.151989       -31.3472
   7   2.0000      -1.015440       -27.6315
   8   2.0000      -1.015440       -27.6315
   9   2.0000      -0.824332       -22.4312
  10   2.0000      -0.824331       -22.4312
  11   2.0000      -0.710448       -19.3323
  12   2.0000      -0.642996       -17.4968
  13   2.0000      -0.620489       -16.8844
  14   2.0000      -0.588277       -16.0078
  15   2.0000      -0.588277       -16.0078
  16   2.0000      -0.503899       -13.7118
  17   2.0000      -0.494789       -13.4639
  18   2.0000      -0.494788       -13.4639
  19   2.0000      -0.337499        -9.1838
  20   2.0000      -0.337498        -9.1838
  21   0.0000       0.026482         0.7206
  22   0.0000       0.030433         0.8281
  23   0.0000       0.030433         0.8281
  24   0.0000       0.042495         1.1563
  25   0.0000       0.042495         1.1563

MULLIKEN ATOMIC CHARGES
-----------------------
   0 C :   -0.325516
   1 C :   -0.325509
   2 C :   -0.325498
   3 C :   -0.325512
   4 C :   -0.325514
   5 C :   -0.325502
   6 H :    0.325513
   7 H :    0.325522
   8 H :    0.325513
   9 H :    0.325499
  10 H :    0.325510
  11 H :    0.325495
Sum of atomic charges:    0.0000000

LOEWDIN ATOMIC CHARGES
----------------------
   0 C :    0.326135
   1 C :    0.326134
   2 C :    0.326134
   3 C :    0.326134
   4 C :    0.326134
   5 C :    0.326135
   6 H :   -0.326135
   7 H :   -0.326135
   8 H :   -0.326134
   9 H :   -0.326134
  10 H :   -0.326134
  11 H :   -0.326134

  Mayer bond orders larger than 0.100000
B(  0-C ,  1-C ) :   1.2173 B(  0-C ,  2-C ) :   1.2173 B(  0-C ,  5-C ) :   0.1077
B(  0-C ,  6-H ) :   1.0044 B(  1-C ,  3-C ) :   1.2173 B(  1-C ,  4-C ) :   0.1078
B(  1-C , 10-H ) :   1.0045 B(  2-C ,  3-C ) :   0.1078 B(  2-C ,  4-C ) :   1.2173
B(  2-C ,  8-H ) :   1.0045 B(  3-C ,  5-C ) :   1.2173 B(  3-C ,  9-H ) :   1.0045
B(  4-C ,  5-C ) :   1.2173 B(  4-C , 11-H ) :   1.0045 B(  5-C ,  7-H ) :   1.0044

MP2 TOTAL ENERGY:     -231.809833502 Eh
FINAL SINGLE POINT ENERGY      -231.809833501896

DIPOLE MOMENT
-------------
                                X             Y             Z
Electronic contribution:      0.00000      -0.00000       0.00000
Nuclear contribution   :      0.00000       0.00000       0.00000
                        -----------------------------------------
Total Dipole Moment    :      0.00000      -0.00000       0.00000
                        -----------------------------------------
Magnitude (a.u.)       :      0.00000
Magnitude (Debye)      :      0.00000

Rotational constants in cm-1:     0.191202     0.191202     0.095601
Rotational constants in MHz :  5732.099279  5732.098611  2866.049473

                             ****ORCA TERMINATED NORMALLY****
TOTAL RUN TIME: 0 days 0 hours 17 minutes 5 seconds 800 msec
