                         Program Version 5.0.4 -  RELEASE  -
|  1> !ri-mp2 aug-cc-pvqz aug-cc-pvqz/c tightscf
|  2> %pal nprocs 16 end
|  3> %maxcore 3800
|  4>
|  5> * xyz 0 1
|  6> C     -1.791427   -0.546342   -0.470725
|  7> C     -1.753453    0.902887    0.021944
|  8> C     -0.346099    1.484644   -0.136504
|  9> C      0.713967    0.691652    0.641171
| 10> C      2.060839    0.553545   -0.118966
| 11> C      1.570404   -0.813571   -0.662948
| 12> C      0.552087   -0.854996    0.508236
| 13> C     -0.849517   -1.436058    0.348591
| 14> H     -2.807213   -0.943727   -0.416752
| 15> H     -1.508563   -0.568405   -1.527994
| 16> H     -2.059618    0.940911    1.073243
| 17> H     -2.471421    1.510461   -0.533276
| 18> H     -0.099323    1.483279   -1.202799
| 19> H     -0.319965    2.530882    0.176897
| 20> H      0.774332    1.062996    1.665761
| 21> H      2.903852    0.434272    0.561752
| 22> H      2.304420    1.332097   -0.842353
| 23> H      2.293715   -1.626176   -0.723529
| 24> H      1.084176   -0.713631   -1.633483
| 25> H      1.040476   -1.331839    1.360944
| 26> H     -1.285091   -1.564400    1.345109
| 27> H     -0.790577   -2.437289   -0.088318
| 28> *
| 29>
| 30>                          ****END OF INPUT****

CARTESIAN COORDINATES (ANGSTROEM)
---------------------------------
  C     -1.791427   -0.546342   -0.470725
  C     -1.753453    0.902887    0.021944
  C     -0.346099    1.484644   -0.136504
  C      0.713967    0.691652    0.641171
  C      2.060839    0.553545   -0.118966
  C      1.570404   -0.813571   -0.662948
  C      0.552087   -0.854996    0.508236
  C     -0.849517   -1.436058    0.348591
  H     -2.807213   -0.943727   -0.416752
  H     -1.508563   -0.568405   -1.527994
  H     -2.059618    0.940911    1.073243
  H     -2.471421    1.510461   -0.533276
  H     -0.099323    1.483279   -1.202799
  H     -0.319965    2.530882    0.176897
  H      0.774332    1.062996    1.665761
  H      2.903852    0.434272    0.561752
  H      2.304420    1.332097   -0.842353
  H      2.293715   -1.626176   -0.723529
  H      1.084176   -0.713631   -1.633483
  H      1.040476   -1.331839    1.360944
  H     -1.285091   -1.564400    1.345109
  H     -0.790577   -2.437289   -0.088318

 Total Charge           Charge          ....    0
 Multiplicity           Mult            ....    1
 Number of Electrons    NEL             ....   62
 Basis Dimension        Dim             .... 1284

ORBITAL ENERGIES
----------------

  NO   OCC          E(Eh)            E(eV)
   0   2.0000     -11.215368      -305.1857
   1   2.0000     -11.214830      -305.1710
   2   2.0000     -11.211403      -305.0778
   3   2.0000     -11.210994      -305.0667
   4   2.0000     -11.210667      -305.0577
   5   2.0000     -11.210438      -305.0515
   6   2.0000     -11.210012      -305.0399
   7   2.0000     -11.209665      -305.0305
   8   2.0000      -1.143116       -31.1058
   9   2.0000      -1.057719       -28.7820
  10   2.0000      -1.002469       -27.2786
  11   2.0000      -0.915827       -24.9209
  12   2.0000      -0.868185       -23.6245
  13   2.0000      -0.817332       -22.2407
  14   2.0000      -0.785949       -21.3868
  15   2.0000      -0.703834       -19.1523
  16   2.0000      -0.661711       -18.0061
  17   2.0000      -0.621747       -16.9186
  18   2.0000      -0.607510       -16.5312
  19   2.0000      -0.592671       -16.1274
  20   2.0000      -0.576137       -15.6775
  21   2.0000      -0.534157       -14.5351
  22   2.0000      -0.517140       -14.0721
  23   2.0000      -0.495996       -13.4967
  24   2.0000      -0.493139       -13.4190
  25   2.0000      -0.481126       -13.0921
  26   2.0000      -0.467898       -12.7321
  27   2.0000      -0.445957       -12.1351
  28   2.0000      -0.419772       -11.4226
  29   2.0000      -0.410397       -11.1675
  30   2.0000      -0.399928       -10.8826
  31   0.0000       0.026013         0.7078
  32   0.0000       0.030040         0.8174
  33   0.0000       0.030414         0.8276
  34   0.0000       0.031553         0.8586
  35   0.0000       0.043396         1.1809

MULLIKEN ATOMIC CHARGES
-----------------------
   0 C :   -0.423543
   1 C :   -0.567312
   2 C :   -0.372879
   3 C :    0.028129
   4 C :   -0.782198
   5 C :   -0.660694
   6 C :    0.033745
   7 C :   -0.472319
   8 H :    0.239099
   9 H :    0.158275
  10 H :    0.206970
  11 H :    0.237167
  12 H :    0.205342
  13 H :    0.253898
  14 H :    0.276335
  15 H :    0.219130
  16 H :    0.279204
  17 H :    0.307059
  18 H :    0.216258
  19 H :    0.276939
  20 H :    0.117756
  21 H :    0.223640
Sum of atomic charges:    0.0000000

LOEWDIN ATOMIC CHARGES
----------------------
   0 C :    0.533767
   1 C :    0.542544
   2 C :    0.539840
   3 C :    0.172091
   4 C :    0.565348
   5 C :    0.573529
   6 C :    0.161123
   7 C :    0.562553
   8 H :   -0.261525
   9 H :   -0.268724
  10 H :   -0.258682
  11 H :   -0.260766
  12 H :   -0.285609
  13 H :   -0.254978
  14 H :   -0.239614
  15 H :   -0.260615
  16 H :   -0.253430
  17 H :   -0.245054
  18 H :   -0.269776
  19 H :   -0.262754
  20 H :   -0.270542
  21 H :   -0.258726

  Mayer bond orders larger than 0.100000
B(  0-C ,  1-C ) :   0.8702 B(  0-C ,  7-C ) :   0.8374 B(  0-C ,  8-H ) :   0.9677
B(  0-C ,  9-H ) :   0.9892 B(  1-C ,  2-C ) :   0.9248 B(  1-C , 10-H ) :   0.9633
B(  1-C , 11-H ) :   0.9799 B(  2-C ,  3-C ) :   0.7461 B(  2-C , 12-H ) :   0.9858
B(  2-C , 13-H ) :   0.9323 B(  3-C ,  4-C ) :   0.9206 B(  3-C ,  6-C ) :   0.8633
B(  3-C , 14-H ) :   0.8881 B(  4-C ,  5-C ) :   1.1503 B(  4-C ,  6-C ) :  -0.1616
B(  4-C , 15-H ) :   1.0079 B(  4-C , 16-H ) :   0.9235 B(  5-C ,  6-C ) :   0.8838
B(  5-C , 17-H ) :   0.9053 B(  5-C , 18-H ) :   0.9782 B(  6-C ,  7-C ) :   0.5819
B(  6-C , 19-H ) :   0.9234 B(  7-C , 20-H ) :   1.1160 B(  7-C , 21-H ) :   1.0194

MP2 TOTAL ENERGY:     -312.657639617 Eh
FINAL SINGLE POINT ENERGY      -312.657639616985

DIPOLE MOMENT
-------------
                                X             Y             Z
Electronic contribution:      0.95790      -0.12244       0.87058
Nuclear contribution   :     -0.99408       0.11563      -0.82924
                        -----------------------------------------
Total Dipole Moment    :     -0.03618      -0.00681       0.04134
                        -----------------------------------------
Magnitude (a.u.)       :      0.05536
Magnitude (Debye)      :      0.14071

Rotational constants in cm-1:     0.109144     0.066070     0.049362
Rotational constants in MHz :  3272.065183  1980.720649  1479.829471

                             ****ORCA TERMINATED NORMALLY****
TOTAL RUN TIME: 0 days 1 hours 51 minutes 34 seconds 377 msec
