                         Program Version 5.0.4 -  RELEASE  -
|  1> !ri-mp2 aug-cc-pvqz aug-cc-pvqz/c tightscf
|  2> %pal nprocs 16 end
|  3>
|  4> * xyz 0 1
|  5> C     0.000000     0.666639    1.212835
|  6> C     0.000000    -0.666639    1.212835
|  7> C     0.000000    -1.020958   -0.278406
|  8> C     0.000000     1.020958   -0.278406
|  9> C     1.063233     0.000000   -0.808697
| 10> C    -1.063233     0.000000   -0.808697
| 11> H     0.000000     1.359953    2.038801
| 12> H     0.000000    -1.359953    2.038801
| 13> H     0.000000    -2.068141   -0.567858
| 14> H     0.000000     2.068141   -0.567858
| 15> H     2.041135     0.000000   -0.329854
| 16> H    -2.041135     0.000000   -0.329854
| 17> H    -1.157060     0.000000   -1.895481
| 18> H     1.157060     0.000000   -1.895481
| 19> *
| 20>
| 21>                          ****END OF INPUT****

CARTESIAN COORDINATES (ANGSTROEM)
---------------------------------
  C      0.000000    0.666639    1.212835
  C      0.000000   -0.666639    1.212835
  C      0.000000   -1.020958   -0.278406
  C      0.000000    1.020958   -0.278406
  C      1.063233    0.000000   -0.808697
  C     -1.063233    0.000000   -0.808697
  H      0.000000    1.359953    2.038801
  H      0.000000   -1.359953    2.038801
  H      0.000000   -2.068141   -0.567858
  H      0.000000    2.068141   -0.567858
  H      2.041135    0.000000   -0.329854
  H     -2.041135    0.000000   -0.329854
  H     -1.157060    0.000000   -1.895481
  H      1.157060    0.000000   -1.895481

 Total Charge           Charge          ....    0
 Multiplicity           Mult            ....    1
 Number of Electrons    NEL             ....   44
 Basis Dimension        Dim             ....  848

ORBITAL ENERGIES
----------------

  NO   OCC          E(Eh)            E(eV)
   0   2.0000     -11.234383      -305.7031
   1   2.0000     -11.234356      -305.7024
   2   2.0000     -11.223205      -305.3989
   3   2.0000     -11.223182      -305.3983
   4   2.0000     -11.219760      -305.3052
   5   2.0000     -11.218020      -305.2578
   6   2.0000      -1.191513       -32.4227
   7   2.0000      -0.985661       -26.8212
   8   2.0000      -0.911574       -24.8052
   9   2.0000      -0.893946       -24.3255
  10   2.0000      -0.747065       -20.3287
  11   2.0000      -0.714714       -19.4483
  12   2.0000      -0.693583       -18.8734
  13   2.0000      -0.633542       -17.2396
  14   2.0000      -0.562696       -15.3117
  15   2.0000      -0.558702       -15.2030
  16   2.0000      -0.487623       -13.2689
  17   2.0000      -0.476479       -12.9656
  18   2.0000      -0.468840       -12.7578
  19   2.0000      -0.459727       -12.5098
  20   2.0000      -0.431793       -11.7497
  21   2.0000      -0.327305        -8.9064
  22   0.0000       0.025576         0.6960
  23   0.0000       0.030174         0.8211
  24   0.0000       0.031548         0.8585
  25   0.0000       0.035351         0.9619
  26   0.0000       0.044798         1.2190

MULLIKEN ATOMIC CHARGES
-----------------------
   0 C :   -0.578529
   1 C :   -0.578616
   2 C :   -0.052290
   3 C :   -0.052278
   4 C :   -0.810254
   5 C :   -0.810254
   6 H :    0.413131
   7 H :    0.413050
   8 H :    0.405132
   9 H :    0.405124
  10 H :    0.325413
  11 H :    0.325413
  12 H :    0.297479
  13 H :    0.297479
Sum of atomic charges:    0.0000000

LOEWDIN ATOMIC CHARGES
----------------------
   0 C :    0.384248
   1 C :    0.384248
   2 C :    0.131120
   3 C :    0.131120
   4 C :    0.538261
   5 C :    0.538261
   6 H :   -0.291441
   7 H :   -0.291441
   8 H :   -0.242344
   9 H :   -0.242344
  10 H :   -0.255262
  11 H :   -0.255262
  12 H :   -0.264583
  13 H :   -0.264583

  Mayer bond orders larger than 0.100000
B(  0-C ,  1-C ) :   1.6292 B(  0-C ,  2-C ) :  -0.2214 B(  0-C ,  3-C ) :   0.8275
B(  0-C ,  6-H ) :   0.9184 B(  1-C ,  2-C ) :   0.8274 B(  1-C ,  3-C ) :  -0.2213
B(  1-C ,  7-H ) :   0.9185 B(  2-C ,  3-C ) :  -0.2063 B(  2-C ,  4-C ) :   0.8992
B(  2-C ,  5-C ) :   0.8992 B(  2-C ,  8-H ) :   0.8409 B(  3-C ,  4-C ) :   0.8991
B(  3-C ,  5-C ) :   0.8991 B(  3-C ,  9-H ) :   0.8410 B(  4-C , 10-H ) :   0.8538
B(  4-C , 13-H ) :   0.9065 B(  5-C , 11-H ) :   0.8538 B(  5-C , 12-H ) :   0.9065

MP2 TOTAL ENERGY:     -232.927064016 Eh
FINAL SINGLE POINT ENERGY      -232.927064015501

DIPOLE MOMENT
-------------
                                X             Y             Z
Electronic contribution:      0.00000       0.00000       1.42508
Nuclear contribution   :      0.00000       0.00000      -1.55595
                        -----------------------------------------
Total Dipole Moment    :      0.00000       0.00000      -0.13087
                        -----------------------------------------
Magnitude (a.u.)       :      0.13087
Magnitude (Debye)      :      0.33265

Rotational constants in cm-1:     0.195291     0.156631     0.143544
Rotational constants in MHz :  5854.684100  4695.685850  4303.350513

                             ****ORCA TERMINATED NORMALLY****
TOTAL RUN TIME: 0 days 0 hours 29 minutes 4 seconds 42 msec
