                         Program Version 5.0.4 -  RELEASE  -
|  1> !ri-mp2 aug-cc-pvqz aug-cc-pvqz/c tightscf
|  2> %pal nprocs 16 end
|  3> %maxcore 3800
|  4>
|  5> * xyz 0 1
|  6> C      0.000000    0.000000   -0.741117
|  7> C     -0.402579    1.130241   -1.461501
|  8> C      0.402579   -1.130241   -1.461501
|  9> C      0.403188   -1.130626   -2.850176
| 10> C      0.000000    0.000000   -3.551569
| 11> C     -0.403188    1.130626   -2.850176
| 12> C      0.000000    0.000000    0.741117
| 13> C      0.402579    1.130241    1.461501
| 14> C      0.403188    1.130626    2.850176
| 15> C      0.000000    0.000000    3.551569
| 16> C     -0.403188   -1.130626    2.850176
| 17> C     -0.402579   -1.130241    1.461501
| 18> H     -0.727357   -2.013375    3.385168
| 19> H     -0.727357    2.013375   -3.385168
| 20> H      0.000000    0.000000    4.633120
| 21> H      0.000000    0.000000   -4.633120
| 22> H      0.727357   -2.013375   -3.385168
| 23> H      0.727357    2.013375    3.385168
| 24> H      0.740949    2.008623    0.928761
| 25> H      0.740949   -2.008623   -0.928761
| 26> H     -0.740949   -2.008623    0.928761
| 27> H     -0.740949    2.008623   -0.928761
| 28> *
| 29>
| 30>                          ****END OF INPUT****

CARTESIAN COORDINATES (ANGSTROEM)
---------------------------------
  C      0.000000    0.000000   -0.741117
  C     -0.402579    1.130241   -1.461501
  C      0.402579   -1.130241   -1.461501
  C      0.403188   -1.130626   -2.850176
  C      0.000000    0.000000   -3.551569
  C     -0.403188    1.130626   -2.850176
  C      0.000000    0.000000    0.741117
  C      0.402579    1.130241    1.461501
  C      0.403188    1.130626    2.850176
  C      0.000000    0.000000    3.551569
  C     -0.403188   -1.130626    2.850176
  C     -0.402579   -1.130241    1.461501
  H     -0.727357   -2.013375    3.385168
  H     -0.727357    2.013375   -3.385168
  H      0.000000    0.000000    4.633120
  H      0.000000    0.000000   -4.633120
  H      0.727357   -2.013375   -3.385168
  H      0.727357    2.013375    3.385168
  H      0.740949    2.008623    0.928761
  H      0.740949   -2.008623   -0.928761
  H     -0.740949   -2.008623    0.928761
  H     -0.740949    2.008623   -0.928761

 Total Charge           Charge          ....    0
 Multiplicity           Mult            ....    1
 Number of Electrons    NEL             ....   82
 Basis Dimension        Dim             .... 1420

ORBITAL ENERGIES
----------------

  NO   OCC          E(Eh)            E(eV)
   0   2.0000     -11.245806      -306.0139
   1   2.0000     -11.245057      -305.9936
   2   2.0000     -11.235042      -305.7210
   3   2.0000     -11.235041      -305.7210
   4   2.0000     -11.234750      -305.7131
   5   2.0000     -11.234750      -305.7131
   6   2.0000     -11.233127      -305.6689
   7   2.0000     -11.233126      -305.6689
   8   2.0000     -11.232985      -305.6651
   9   2.0000     -11.232980      -305.6649
  10   2.0000     -11.232430      -305.6500
  11   2.0000     -11.232430      -305.6499
  12   2.0000      -1.171849       -31.8876
  13   2.0000      -1.143951       -31.1285
  14   2.0000      -1.055468       -28.7208
  15   2.0000      -1.021569       -27.7983
  16   2.0000      -1.012944       -27.5636
  17   2.0000      -0.984665       -26.7941
  18   2.0000      -0.853781       -23.2326
  19   2.0000      -0.843927       -22.9644
  20   2.0000      -0.811773       -22.0895
  21   2.0000      -0.792213       -21.5572
  22   2.0000      -0.721514       -19.6334
  23   2.0000      -0.683680       -18.6039
  24   2.0000      -0.655576       -17.8391
  25   2.0000      -0.642084       -17.4720
  26   2.0000      -0.617111       -16.7924
  27   2.0000      -0.608991       -16.5715
  28   2.0000      -0.592760       -16.1298
  29   2.0000      -0.587231       -15.9794
  30   2.0000      -0.583498       -15.8778
  31   2.0000      -0.522365       -14.2143
  32   2.0000      -0.519439       -14.1347
  33   2.0000      -0.504930       -13.7398
  34   2.0000      -0.493432       -13.4270
  35   2.0000      -0.486252       -13.2316
  36   2.0000      -0.483730       -13.1630
  37   2.0000      -0.370452       -10.0805
  38   2.0000      -0.339617        -9.2414
  39   2.0000      -0.339500        -9.2383
  40   2.0000      -0.302767        -8.2387
  41   0.0000       0.024216         0.6589
  42   0.0000       0.026505         0.7212
  43   0.0000       0.027115         0.7378
  44   0.0000       0.034727         0.9450
  45   0.0000       0.036161         0.9840

MULLIKEN ATOMIC CHARGES
-----------------------
   0 C :    0.540214
   1 C :   -0.457622
   2 C :   -0.457506
   3 C :   -0.384950
   4 C :   -0.318592
   5 C :   -0.385016
   6 C :    0.539891
   7 C :   -0.457293
   8 C :   -0.385309
   9 C :   -0.318256
  10 C :   -0.384954
  11 C :   -0.457427
  12 H :    0.228437
  13 H :    0.228411
  14 H :    0.370345
  15 H :    0.370321
  16 H :    0.228423
  17 H :    0.228340
  18 H :    0.318047
  19 H :    0.318197
  20 H :    0.317940
  21 H :    0.318360
Sum of atomic charges:    0.0000000

LOEWDIN ATOMIC CHARGES
----------------------
   0 C :   -0.097305
   1 C :    0.339284
   2 C :    0.339284
   3 C :    0.350636
   4 C :    0.340115
   5 C :    0.350636
   6 C :   -0.097305
   7 C :    0.339284
   8 C :    0.350636
   9 C :    0.340115
  10 C :    0.350636
  11 C :    0.339284
  12 H :   -0.321851
  13 H :   -0.321851
  14 H :   -0.324760
  15 H :   -0.324760
  16 H :   -0.321851
  17 H :   -0.321851
  18 H :   -0.327094
  19 H :   -0.327094
  20 H :   -0.327094
  21 H :   -0.327094

  Mayer bond orders larger than 0.100000
B(  0-C ,  1-C ) :   1.1407 B(  0-C ,  2-C ) :   1.1406 B(  0-C ,  3-C ) :  -0.2697
B(  0-C ,  5-C ) :  -0.2699 B(  0-C ,  6-C ) :   0.7329 B(  0-C ,  7-C ) :  -0.3502
B(  0-C , 11-C ) :  -0.3505 B(  1-C ,  2-C ) :   0.1352 B(  1-C ,  3-C ) :   0.1398
B(  1-C ,  5-C ) :   1.3134 B(  1-C ,  6-C ) :  -0.3501 B(  1-C , 13-H ) :  -0.1256
B(  1-C , 21-H ) :   0.9683 B(  2-C ,  3-C ) :   1.3131 B(  2-C ,  5-C ) :   0.1397
B(  2-C ,  6-C ) :  -0.3502 B(  2-C , 16-H ) :  -0.1257 B(  2-C , 19-H ) :   0.9685
B(  3-C ,  4-C ) :   1.1635 B(  3-C , 16-H ) :   1.1563 B(  4-C ,  5-C ) :   1.1633
B(  4-C , 15-H ) :   0.9665 B(  5-C , 13-H ) :   1.1563 B(  6-C ,  7-C ) :   1.1408
B(  6-C ,  8-C ) :  -0.2697 B(  6-C , 10-C ) :  -0.2696 B(  6-C , 11-C ) :   1.1409
B(  7-C ,  8-C ) :   1.3133 B(  7-C , 10-C ) :   0.1398 B(  7-C , 11-C ) :   0.1349
B(  7-C , 17-H ) :  -0.1256 B(  7-C , 18-H ) :   0.9687 B(  8-C ,  9-C ) :   1.1636
B(  8-C , 11-C ) :   0.1399 B(  8-C , 17-H ) :   1.1563 B(  9-C , 10-C ) :   1.1635
B(  9-C , 14-H ) :   0.9664 B( 10-C , 11-C ) :   1.3132 B( 10-C , 12-H ) :   1.1562
B( 11-C , 12-H ) :  -0.1256 B( 11-C , 20-H ) :   0.9688

MP2 TOTAL ENERGY:     -462.447013534 Eh
FINAL SINGLE POINT ENERGY      -462.447013534411

DIPOLE MOMENT
-------------
                                X             Y             Z
Electronic contribution:      0.00000       0.00000      -0.00000
Nuclear contribution   :      0.00000       0.00000      -0.00000
                        -----------------------------------------
Total Dipole Moment    :      0.00000       0.00000      -0.00000
                        -----------------------------------------
Magnitude (a.u.)       :      0.00000
Magnitude (Debye)      :      0.00000

Rotational constants in cm-1:     0.096140     0.018284     0.015942
Rotational constants in MHz :  2882.217325   548.130110   477.916535

                             ****ORCA TERMINATED NORMALLY****
TOTAL RUN TIME: 0 days 2 hours 31 minutes 2 seconds 200 msec
