                         Program Version 5.0.4 -  RELEASE  -
|  1> !ri-mp2 aug-cc-pvqz aug-cc-pvqz/c tightscf
|  2> %pal nprocs 16 end
|  3>
|  4> * xyz 0 1
|  5> C     -2.731329   -0.188210    0.027569
|  6> H     -2.896131   -0.208886    1.106914
|  7> H     -3.510969    0.433548   -0.413737
|  8> H     -2.869306   -1.205115   -0.346583
|  9> C     -1.343418    0.351342   -0.308883
| 10> H     -1.217269    0.398690   -1.393390
| 11> H     -1.233985    1.372797    0.054840
| 12> C     -0.221272   -0.497474    0.289364
| 13> H     -0.261557   -1.517699   -0.100776
| 14> H     -0.357479   -0.572869    1.373168
| 15> N      2.159806   -0.790578   -0.170020
| 16> H      3.099748   -0.446011   -0.265813
| 17> H      1.999084   -1.780108   -0.196024
| 18> C      1.158613    0.105753    0.066900
| 19> O      1.369207    1.303904    0.115231
| 20> *
| 21>
| 22>                          ****END OF INPUT****

CARTESIAN COORDINATES (ANGSTROEM)
---------------------------------
  C     -2.731329   -0.188210    0.027569
  H     -2.896131   -0.208886    1.106914
  H     -3.510969    0.433548   -0.413737
  H     -2.869306   -1.205115   -0.346583
  C     -1.343418    0.351342   -0.308883
  H     -1.217269    0.398690   -1.393390
  H     -1.233985    1.372797    0.054840
  C     -0.221272   -0.497474    0.289364
  H     -0.261557   -1.517699   -0.100776
  H     -0.357479   -0.572869    1.373168
  N      2.159806   -0.790578   -0.170020
  H      3.099748   -0.446011   -0.265813
  H      1.999084   -1.780108   -0.196024
  C      1.158613    0.105753    0.066900
  O      1.369207    1.303904    0.115231

 Total Charge           Charge          ....    0
 Multiplicity           Mult            ....    1
 Number of Electrons    NEL             ....   48
 Basis Dimension        Dim             ....  894

ORBITAL ENERGIES
----------------

  NO   OCC          E(Eh)            E(eV)
   0   2.0000     -20.512638      -558.1772
   1   2.0000     -15.582734      -424.0277
   2   2.0000     -11.348404      -308.8058
   3   2.0000     -11.238541      -305.8162
   4   2.0000     -11.222820      -305.3885
   5   2.0000     -11.215601      -305.1920
   6   2.0000      -1.377956       -37.4961
   7   2.0000      -1.209678       -32.9170
   8   2.0000      -1.072644       -29.1881
   9   2.0000      -0.963470       -26.2174
  10   2.0000      -0.835930       -22.7468
  11   2.0000      -0.781680       -21.2706
  12   2.0000      -0.722716       -19.6661
  13   2.0000      -0.670952       -18.2575
  14   2.0000      -0.638072       -17.3628
  15   2.0000      -0.601072       -16.3560
  16   2.0000      -0.586810       -15.9679
  17   2.0000      -0.563650       -15.3377
  18   2.0000      -0.527430       -14.3521
  19   2.0000      -0.503955       -13.7133
  20   2.0000      -0.484424       -13.1818
  21   2.0000      -0.477117       -12.9830
  22   2.0000      -0.419742       -11.4218
  23   2.0000      -0.414038       -11.2666
  24   0.0000       0.019023         0.5176
  25   0.0000       0.029243         0.7957
  26   0.0000       0.035689         0.9712
  27   0.0000       0.036985         1.0064
  28   0.0000       0.048469         1.3189

MULLIKEN ATOMIC CHARGES
-----------------------
   0 C :   -0.853335
   1 H :    0.221178
   2 H :    0.259278
   3 H :    0.221914
   4 C :   -0.329352
   5 H :    0.226593
   6 H :    0.243327
   7 C :   -0.325830
   8 H :    0.216502
   9 H :    0.278682
  10 N :   -0.738386
  11 H :    0.206424
  12 H :    0.322435
  13 C :    0.881096
  14 O :   -0.830528
Sum of atomic charges:    0.0000000

LOEWDIN ATOMIC CHARGES
----------------------
   0 C :    0.926943
   1 H :   -0.285288
   2 H :   -0.283371
   3 H :   -0.284842
   4 C :    0.489222
   5 H :   -0.268677
   6 H :   -0.295446
   7 C :    0.462894
   8 H :   -0.299893
   9 H :   -0.277587
  10 N :    1.243169
  11 H :   -0.499243
  12 H :   -0.502251
  13 C :   -0.824258
  14 O :    0.698629

  Mayer bond orders larger than 0.100000
B(  0-C ,  1-H ) :   0.9470 B(  0-C ,  2-H ) :   0.9962 B(  0-C ,  3-H ) :   0.9647
B(  0-C ,  4-C ) :   0.9731 B(  4-C ,  5-H ) :   0.8882 B(  4-C ,  6-H ) :   0.8765
B(  4-C ,  7-C ) :   0.9237 B(  7-C ,  8-H ) :   0.9765 B(  7-C ,  9-H ) :   0.8073
B(  7-C , 13-C ) :   1.0440 B(  7-C , 14-O ) :   0.1458 B( 10-N , 11-H ) :   1.0484
B( 10-N , 12-H ) :   0.8702 B( 10-N , 13-C ) :   1.1310 B( 10-N , 14-O ) :   0.1273
B( 13-C , 14-O ) :   1.2355

MP2 TOTAL ENERGY:     -287.386540937 Eh
FINAL SINGLE POINT ENERGY      -287.386540936535

DIPOLE MOMENT
-------------
                                X             Y             Z
Electronic contribution:      7.37687       2.09019       0.10785
Nuclear contribution   :     -7.46411      -3.63162      -0.18685
                        -----------------------------------------
Total Dipole Moment    :     -0.08724      -1.54143      -0.07900
                        -----------------------------------------
Magnitude (a.u.)       :      1.54592
Magnitude (Debye)      :      3.92941

Rotational constants in cm-1:     0.286145     0.060804     0.052762
Rotational constants in MHz :  8578.396467  1822.843819  1581.776498

                             ****ORCA TERMINATED NORMALLY****
TOTAL RUN TIME: 0 days 0 hours 22 minutes 7 seconds 698 msec
