                         Program Version 5.0.4 -  RELEASE  -
|  1> !ri-mp2 aug-cc-pvqz aug-cc-pvqz/c tightscf
|  2> %pal nprocs 16 end
|  3>
|  4> * xyz 0 1
|  5> C      0.645070   -0.770527   -0.387053
|  6> C     -0.789799   -1.153566   -0.033586
|  7> C      0.710734    0.747733   -0.438274
|  8> C      1.457988   -0.021657    0.630098
|  9> C     -1.464834    0.179434    0.203670
| 10> C     -0.653112    1.204214   -0.052761
| 11> H      1.177895   -1.366546   -1.113656
| 12> H     -1.269345   -1.698798   -0.852718
| 13> H     -0.844021   -1.804885    0.843900
| 14> H      1.275524    1.279992   -1.191271
| 15> H      1.092367    0.049534    1.646341
| 16> H      2.533970   -0.086125    0.538571
| 17> H     -2.482396    0.264631    0.559582
| 18> H     -0.920271    2.248412    0.036679
| 19> *
| 20>
| 21>                          ****END OF INPUT****

CARTESIAN COORDINATES (ANGSTROEM)
---------------------------------
  C      0.645070   -0.770527   -0.387053
  C     -0.789799   -1.153566   -0.033586
  C      0.710734    0.747733   -0.438274
  C      1.457988   -0.021657    0.630098
  C     -1.464834    0.179434    0.203670
  C     -0.653112    1.204214   -0.052761
  H      1.177895   -1.366546   -1.113656
  H     -1.269345   -1.698798   -0.852718
  H     -0.844021   -1.804885    0.843900
  H      1.275524    1.279992   -1.191271
  H      1.092367    0.049534    1.646341
  H      2.533970   -0.086125    0.538571
  H     -2.482396    0.264631    0.559582
  H     -0.920271    2.248412    0.036679

 Total Charge           Charge          ....    0
 Multiplicity           Mult            ....    1
 Number of Electrons    NEL             ....   44
 Basis Dimension        Dim             ....  848

ORBITAL ENERGIES
----------------

  NO   OCC          E(Eh)            E(eV)
   0   2.0000     -11.227088      -305.5046
   1   2.0000     -11.226055      -305.4765
   2   2.0000     -11.223910      -305.4181
   3   2.0000     -11.221766      -305.3598
   4   2.0000     -11.221459      -305.3514
   5   2.0000     -11.218683      -305.2759
   6   2.0000      -1.178409       -32.0661
   7   2.0000      -1.032471       -28.0950
   8   2.0000      -0.956100       -26.0168
   9   2.0000      -0.827436       -22.5157
  10   2.0000      -0.764681       -20.8080
  11   2.0000      -0.727804       -19.8045
  12   2.0000      -0.695682       -18.9305
  13   2.0000      -0.619299       -16.8520
  14   2.0000      -0.574037       -15.6203
  15   2.0000      -0.563184       -15.3250
  16   2.0000      -0.522118       -14.2075
  17   2.0000      -0.509756       -13.8712
  18   2.0000      -0.476088       -12.9550
  19   2.0000      -0.443606       -12.0711
  20   2.0000      -0.399633       -10.8746
  21   2.0000      -0.329274        -8.9600
  22   0.0000       0.026443         0.7196
  23   0.0000       0.031426         0.8551
  24   0.0000       0.032967         0.8971
  25   0.0000       0.035030         0.9532
  26   0.0000       0.046071         1.2536

MULLIKEN ATOMIC CHARGES
-----------------------
   0 C :   -0.260709
   1 C :   -0.527995
   2 C :   -0.320657
   3 C :   -0.722350
   4 C :   -0.458499
   5 C :   -0.547617
   6 H :    0.492506
   7 H :    0.241716
   8 H :    0.199450
   9 H :    0.485488
  10 H :    0.324244
  11 H :    0.289048
  12 H :    0.431087
  13 H :    0.374286
Sum of atomic charges:   -0.0000000

LOEWDIN ATOMIC CHARGES
----------------------
   0 C :    0.154238
   1 C :    0.503436
   2 C :    0.153432
   3 C :    0.604438
   4 C :    0.395204
   5 C :    0.390275
   6 H :   -0.248869
   7 H :   -0.274746
   8 H :   -0.271722
   9 H :   -0.257561
  10 H :   -0.272819
  11 H :   -0.269498
  12 H :   -0.302229
  13 H :   -0.303579

  Mayer bond orders larger than 0.100000
B(  0-C ,  1-C ) :   0.8330 B(  0-C ,  2-C ) :   0.8387 B(  0-C ,  3-C ) :   0.9092
B(  0-C ,  6-H ) :   0.7303 B(  1-C ,  4-C ) :   0.9100 B(  1-C ,  7-H ) :   1.0145
B(  1-C ,  8-H ) :   0.9421 B(  2-C ,  3-C ) :   1.0022 B(  2-C ,  4-C ) :  -0.1049
B(  2-C ,  5-C ) :   0.8801 B(  2-C ,  9-H ) :   0.7598 B(  3-C , 10-H ) :   0.8808
B(  3-C , 11-H ) :   0.9356 B(  4-C ,  5-C ) :   1.6775 B(  4-C , 12-H ) :   0.8341
B(  5-C , 13-H ) :   0.9245

MP2 TOTAL ENERGY:     -232.954591881 Eh
FINAL SINGLE POINT ENERGY      -232.954591881315

DIPOLE MOMENT
-------------
                                X             Y             Z
Electronic contribution:     -0.51072       1.06915      -0.52316
Nuclear contribution   :      0.58135      -1.14861       0.48204
                        -----------------------------------------
Total Dipole Moment    :      0.07063      -0.07946      -0.04112
                        -----------------------------------------
Magnitude (a.u.)       :      0.11399
Magnitude (Debye)      :      0.28973

Rotational constants in cm-1:     0.212335     0.150498     0.106940
Rotational constants in MHz :  6365.657738  4511.820652  3205.969987

                             ****ORCA TERMINATED NORMALLY****
TOTAL RUN TIME: 0 days 0 hours 28 minutes 5 seconds 552 msec
