                         Program Version 5.0.4 -  RELEASE  -
|  1> !ri-mp2 aug-cc-pvqz aug-cc-pvqz/c tightscf
|  2> %pal nprocs 16 end
|  3>
|  4> * xyz 0 1
|  5> C     -1.045329   -0.494601    0.000000
|  6> C      2.460708    1.198934    0.000000
|  7> C      0.000000    0.591852    0.000000
|  8> C      1.432695    0.069636    0.000000
|  9> O     -0.842076   -1.681341    0.000000
| 10> O     -2.300401    0.024009    0.000000
| 11> H      2.354021    1.835295    0.881002
| 12> H      2.354021    1.835295   -0.881002
| 13> H      3.476451    0.802896    0.000000
| 14> H     -0.189161    1.228211    0.869185
| 15> H     -0.189161    1.228211   -0.869185
| 16> H      1.580358   -0.571042   -0.870771
| 17> H      1.580358   -0.571042    0.870771
| 18> H     -2.915516   -0.724098    0.000000
| 19> *
| 20>
| 21>                          ****END OF INPUT****

CARTESIAN COORDINATES (ANGSTROEM)
---------------------------------
  C     -1.045329   -0.494601    0.000000
  C      2.460708    1.198934    0.000000
  C      0.000000    0.591852    0.000000
  C      1.432695    0.069636    0.000000
  O     -0.842076   -1.681341    0.000000
  O     -2.300401    0.024009    0.000000
  H      2.354021    1.835295    0.881002
  H      2.354021    1.835295   -0.881002
  H      3.476451    0.802896    0.000000
  H     -0.189161    1.228211    0.869185
  H     -0.189161    1.228211   -0.869185
  H      1.580358   -0.571042   -0.870771
  H      1.580358   -0.571042    0.870771
  H     -2.915516   -0.724098    0.000000

 Total Charge           Charge          ....    0
 Multiplicity           Mult            ....    1
 Number of Electrons    NEL             ....   48
 Basis Dimension        Dim             ....  848

ORBITAL ENERGIES
----------------

  NO   OCC          E(Eh)            E(eV)
   0   2.0000     -20.608489      -560.7855
   1   2.0000     -20.547456      -559.1247
   2   2.0000     -11.384372      -309.7845
   3   2.0000     -11.246037      -306.0202
   4   2.0000     -11.227883      -305.5262
   5   2.0000     -11.219273      -305.2919
   6   2.0000      -1.462825       -39.8055
   7   2.0000      -1.360711       -37.0268
   8   2.0000      -1.084327       -29.5060
   9   2.0000      -0.979985       -26.6667
  10   2.0000      -0.854420       -23.2500
  11   2.0000      -0.787261       -21.4225
  12   2.0000      -0.703267       -19.1369
  13   2.0000      -0.687532       -18.7087
  14   2.0000      -0.665974       -18.1221
  15   2.0000      -0.613805       -16.7025
  16   2.0000      -0.597929       -16.2705
  17   2.0000      -0.574846       -15.6424
  18   2.0000      -0.545322       -14.8390
  19   2.0000      -0.509633       -13.8678
  20   2.0000      -0.493537       -13.4298
  21   2.0000      -0.485007       -13.1977
  22   2.0000      -0.482181       -13.1208
  23   2.0000      -0.451907       -12.2970
  24   0.0000       0.024831         0.6757
  25   0.0000       0.030195         0.8216
  26   0.0000       0.035787         0.9738
  27   0.0000       0.036969         1.0060
  28   0.0000       0.047623         1.2959

MULLIKEN ATOMIC CHARGES
-----------------------
   0 C :    1.171098
   1 C :   -0.831088
   2 C :   -0.526939
   3 C :   -0.299559
   4 O :   -0.795282
   5 O :   -0.726261
   6 H :    0.225926
   7 H :    0.225926
   8 H :    0.253546
   9 H :    0.251978
  10 H :    0.251978
  11 H :    0.232259
  12 H :    0.232259
  13 H :    0.334161
Sum of atomic charges:    0.0000000

LOEWDIN ATOMIC CHARGES
----------------------
   0 C :   -1.007577
   1 C :    0.927472
   2 C :    0.443930
   3 C :    0.478031
   4 O :    0.715255
   5 O :    1.249963
   6 H :   -0.284166
   7 H :   -0.284166
   8 H :   -0.282891
   9 H :   -0.287774
  10 H :   -0.287774
  11 H :   -0.280167
  12 H :   -0.280167
  13 H :   -0.819968

  Mayer bond orders larger than 0.100000
B(  0-C ,  2-C ) :   1.1558 B(  0-C ,  3-C ) :  -0.1354 B(  0-C ,  4-O ) :   1.3387
B(  0-C ,  5-O ) :   0.7816 B(  1-C ,  3-C ) :   1.0061 B(  1-C ,  6-H ) :   0.9477
B(  1-C ,  7-H ) :   0.9477 B(  1-C ,  8-H ) :   1.0060 B(  2-C ,  3-C ) :   0.9443
B(  2-C ,  4-O ) :   0.1445 B(  2-C ,  5-O ) :   0.1077 B(  2-C ,  9-H ) :   0.8926
B(  2-C , 10-H ) :   0.8926 B(  3-C , 11-H ) :   0.8877 B(  3-C , 12-H ) :   0.8877
B(  5-O , 13-H ) :   0.9256

MP2 TOTAL ENERGY:     -307.259977505 Eh
FINAL SINGLE POINT ENERGY      -307.259977505192

DIPOLE MOMENT
-------------
                                X             Y             Z
Electronic contribution:     -8.18723      -4.44961      -0.00000
Nuclear contribution   :      8.18724       5.15433       0.00000
                        -----------------------------------------
Total Dipole Moment    :      0.00001       0.70471      -0.00000
                        -----------------------------------------
Magnitude (a.u.)       :      0.70471
Magnitude (Debye)      :      1.79124

Rotational constants in cm-1:     0.301441     0.060809     0.052043
Rotational constants in MHz :  9036.966220  1822.996551  1560.220896

                             ****ORCA TERMINATED NORMALLY****
TOTAL RUN TIME: 0 days 0 hours 24 minutes 0 seconds 252 msec
