                         Program Version 5.0.4 -  RELEASE  -
|  1> !ri-mp2 aug-cc-pvqz aug-cc-pvqz/c tightscf
|  2> %pal nprocs 16 end
|  3>
|  4> * xyz 0 1
|  5> C     0.000000     1.843020    0.753782
|  6> C     0.427743     0.611952    0.000000
|  7> C     0.000000     1.843020   -0.753782
|  8> C    -0.427743    -0.611952    0.000000
|  9> C     0.000000    -1.843020    0.753782
| 10> C     0.000000    -1.843020   -0.753782
| 11> H     0.754138     2.423213    1.266843
| 12> H    -0.956630     1.813429    1.257842
| 13> H     1.492677     0.407118    0.000000
| 14> H    -0.956630     1.813429   -1.257842
| 15> H     0.754138     2.423213   -1.266843
| 16> H    -1.492677    -0.407118    0.000000
| 17> H    -0.754138    -2.423213    1.266843
| 18> H     0.956630    -1.813429    1.257842
| 19> H     0.956630    -1.813429   -1.257842
| 20> H    -0.754138    -2.423213   -1.266843
| 21> *
| 22>
| 23>                          ****END OF INPUT****

CARTESIAN COORDINATES (ANGSTROEM)
---------------------------------
  C      0.000000    1.843020    0.753782
  C      0.427743    0.611952    0.000000
  C      0.000000    1.843020   -0.753782
  C     -0.427743   -0.611952    0.000000
  C      0.000000   -1.843020    0.753782
  C      0.000000   -1.843020   -0.753782
  H      0.754138    2.423213    1.266843
  H     -0.956630    1.813429    1.257842
  H      1.492677    0.407118    0.000000
  H     -0.956630    1.813429   -1.257842
  H      0.754138    2.423213   -1.266843
  H     -1.492677   -0.407118    0.000000
  H     -0.754138   -2.423213    1.266843
  H      0.956630   -1.813429    1.257842
  H      0.956630   -1.813429   -1.257842
  H     -0.754138   -2.423213   -1.266843

 Total Charge           Charge          ....    0
 Multiplicity           Mult            ....    1
 Number of Electrons    NEL             ....   46
 Basis Dimension        Dim             ....  940

ORBITAL ENERGIES
----------------

  NO   OCC          E(Eh)            E(eV)
   0   2.0000     -11.228277      -305.5370
   1   2.0000     -11.227589      -305.5182
   2   2.0000     -11.218280      -305.2649
   3   2.0000     -11.218276      -305.2648
   4   2.0000     -11.217634      -305.2474
   5   2.0000     -11.217630      -305.2472
   6   2.0000      -1.158825       -31.5332
   7   2.0000      -1.110450       -30.2169
   8   2.0000      -0.866083       -23.5673
   9   2.0000      -0.824182       -22.4271
  10   2.0000      -0.812539       -22.1103
  11   2.0000      -0.765326       -20.8256
  12   2.0000      -0.667925       -18.1752
  13   2.0000      -0.658943       -17.9308
  14   2.0000      -0.615721       -16.7546
  15   2.0000      -0.572914       -15.5898
  16   2.0000      -0.513373       -13.9696
  17   2.0000      -0.511853       -13.9282
  18   2.0000      -0.486428       -13.2364
  19   2.0000      -0.471271       -12.8239
  20   2.0000      -0.438442       -11.9306
  21   2.0000      -0.398822       -10.8525
  22   2.0000      -0.367810       -10.0086
  23   0.0000       0.027829         0.7573
  24   0.0000       0.030597         0.8326
  25   0.0000       0.032258         0.8778
  26   0.0000       0.032692         0.8896
  27   0.0000       0.046323         1.2605

MULLIKEN ATOMIC CHARGES
-----------------------
   0 C :   -0.697926
   1 C :   -0.409874
   2 C :   -0.697925
   3 C :   -0.409873
   4 C :   -0.697925
   5 C :   -0.697925
   6 H :    0.338874
   7 H :    0.327075
   8 H :    0.473827
   9 H :    0.327075
  10 H :    0.338873
  11 H :    0.473827
  12 H :    0.338869
  13 H :    0.327078
  14 H :    0.327076
  15 H :    0.338874
Sum of atomic charges:    0.0000000

LOEWDIN ATOMIC CHARGES
----------------------
   0 C :    0.605439
   1 C :    0.156786
   2 C :    0.605439
   3 C :    0.156786
   4 C :    0.605439
   5 C :    0.605439
   6 H :   -0.271926
   7 H :   -0.276147
   8 H :   -0.271519
   9 H :   -0.276147
  10 H :   -0.271926
  11 H :   -0.271519
  12 H :   -0.271926
  13 H :   -0.276147
  14 H :   -0.276147
  15 H :   -0.271926

  Mayer bond orders larger than 0.100000
B(  0-C ,  1-C ) :   0.8375 B(  0-C ,  2-C ) :   1.1179 B(  0-C ,  6-H ) :   0.8892
B(  0-C ,  7-H ) :   0.8960 B(  1-C ,  2-C ) :   0.8375 B(  1-C ,  3-C ) :   0.7048
B(  1-C ,  8-H ) :   0.7168 B(  2-C ,  9-H ) :   0.8960 B(  2-C , 10-H ) :   0.8892
B(  3-C ,  4-C ) :   0.8375 B(  3-C ,  5-C ) :   0.8375 B(  3-C , 11-H ) :   0.7168
B(  4-C ,  5-C ) :   1.1179 B(  4-C , 12-H ) :   0.8892 B(  4-C , 13-H ) :   0.8960
B(  5-C , 14-H ) :   0.8960 B(  5-C , 15-H ) :   0.8892

MP2 TOTAL ENERGY:     -234.139030461 Eh
FINAL SINGLE POINT ENERGY      -234.139030460933

DIPOLE MOMENT
-------------
                                X             Y             Z
Electronic contribution:     -0.00000      -0.00000      -0.00000
Nuclear contribution   :     -0.00000       0.00000      -0.00000
                        -----------------------------------------
Total Dipole Moment    :     -0.00000      -0.00000      -0.00000
                        -----------------------------------------
Magnitude (a.u.)       :      0.00000
Magnitude (Debye)      :      0.00000

Rotational constants in cm-1:     0.308189     0.075148     0.067451
Rotational constants in MHz :  9239.280437  2252.867815  2022.127919

                             ****ORCA TERMINATED NORMALLY****
TOTAL RUN TIME: 0 days 0 hours 33 minutes 18 seconds 866 msec
