                         Program Version 5.0.4 -  RELEASE  -
|  1> !ri-mp2 aug-cc-pvqz aug-cc-pvqz/c tightscf
|  2> %pal nprocs 16 end
|  3> %maxcore 3800
|  4>
|  5> * xyz 0 1
|  6> C      0.000000    0.000000    1.295208
|  7> C     -0.017844    1.447195    0.777177
|  8> C     -1.244385   -0.739051    0.777177
|  9> C      0.017844    1.447195   -0.777177
| 10> C      0.000000    0.000000   -1.295208
| 11> C     -1.262230   -0.708144   -0.777177
| 12> C      1.262230   -0.708144    0.777177
| 13> C      1.244385   -0.739051   -0.777177
| 14> H      1.308838   -1.720784    1.182692
| 15> H      0.000000    0.000000   -2.387174
| 16> H     -2.149499   -0.186632   -1.142178
| 17> H      2.149499   -0.186632    1.142178
| 18> H     -1.308838   -1.720784   -1.182692
| 19> H      0.000000    0.000000    2.387174
| 20> H     -2.144662   -0.273094    1.182692
| 21> H      1.236378   -1.768205   -1.142178
| 22> H      0.835824    1.993879    1.182692
| 23> H     -0.835824    1.993879   -1.182692
| 24> H      2.144662   -0.273094   -1.182692
| 25> H     -0.913121    1.954837    1.142178
| 26> H     -1.236378   -1.768205    1.142178
| 27> H      0.913121    1.954837   -1.142178
| 28> *
| 29>
| 30>                          ****END OF INPUT****

CARTESIAN COORDINATES (ANGSTROEM)
---------------------------------
  C      0.000000    0.000000    1.295208
  C     -0.017844    1.447195    0.777177
  C     -1.244385   -0.739051    0.777177
  C      0.017844    1.447195   -0.777177
  C      0.000000    0.000000   -1.295208
  C     -1.262230   -0.708144   -0.777177
  C      1.262230   -0.708144    0.777177
  C      1.244385   -0.739051   -0.777177
  H      1.308838   -1.720784    1.182692
  H      0.000000    0.000000   -2.387174
  H     -2.149499   -0.186632   -1.142178
  H      2.149499   -0.186632    1.142178
  H     -1.308838   -1.720784   -1.182692
  H      0.000000    0.000000    2.387174
  H     -2.144662   -0.273094    1.182692
  H      1.236378   -1.768205   -1.142178
  H      0.835824    1.993879    1.182692
  H     -0.835824    1.993879   -1.182692
  H      2.144662   -0.273094   -1.182692
  H     -0.913121    1.954837    1.142178
  H     -1.236378   -1.768205    1.142178
  H      0.913121    1.954837   -1.142178

 Total Charge           Charge          ....    0
 Multiplicity           Mult            ....    1
 Number of Electrons    NEL             ....   62
 Basis Dimension        Dim             .... 1284

ORBITAL ENERGIES
----------------

  NO   OCC          E(Eh)            E(eV)
   0   2.0000     -11.213738      -305.1413
   1   2.0000     -11.213727      -305.1410
   2   2.0000     -11.208845      -305.0082
   3   2.0000     -11.208845      -305.0082
   4   2.0000     -11.208771      -305.0062
   5   2.0000     -11.208292      -304.9931
   6   2.0000     -11.208292      -304.9931
   7   2.0000     -11.208233      -304.9915
   8   2.0000      -1.140579       -31.0367
   9   2.0000      -1.013860       -27.5885
  10   2.0000      -0.992579       -27.0094
  11   2.0000      -0.992579       -27.0094
  12   2.0000      -0.827417       -22.5152
  13   2.0000      -0.827417       -22.5152
  14   2.0000      -0.797851       -21.7106
  15   2.0000      -0.671996       -18.2859
  16   2.0000      -0.671007       -18.2590
  17   2.0000      -0.637974       -17.3602
  18   2.0000      -0.637974       -17.3601
  19   2.0000      -0.556872       -15.1533
  20   2.0000      -0.527005       -14.3405
  21   2.0000      -0.527005       -14.3405
  22   2.0000      -0.520055       -14.1514
  23   2.0000      -0.512826       -13.9547
  24   2.0000      -0.512826       -13.9547
  25   2.0000      -0.489095       -13.3090
  26   2.0000      -0.489095       -13.3090
  27   2.0000      -0.453907       -12.3514
  28   2.0000      -0.409568       -11.1449
  29   2.0000      -0.406102       -11.0506
  30   2.0000      -0.406101       -11.0506
  31   0.0000       0.025851         0.7034
  32   0.0000       0.030510         0.8302
  33   0.0000       0.033019         0.8985
  34   0.0000       0.033019         0.8985
  35   0.0000       0.044344         1.2066

MULLIKEN ATOMIC CHARGES
-----------------------
   0 C :   -0.042153
   1 C :   -0.432852
   2 C :   -0.432820
   3 C :   -0.432721
   4 C :   -0.042386
   5 C :   -0.433001
   6 C :   -0.432930
   7 C :   -0.432845
   8 H :    0.154970
   9 H :    0.362626
  10 H :    0.171116
  11 H :    0.171088
  12 H :    0.155026
  13 H :    0.362681
  14 H :    0.155094
  15 H :    0.171042
  16 H :    0.154807
  17 H :    0.154944
  18 H :    0.155189
  19 H :    0.171061
  20 H :    0.171053
  21 H :    0.171011
Sum of atomic charges:    0.0000000

LOEWDIN ATOMIC CHARGES
----------------------
   0 C :    0.128606
   1 C :    0.560523
   2 C :    0.560522
   3 C :    0.560523
   4 C :    0.128606
   5 C :    0.560523
   6 C :    0.560523
   7 C :    0.560522
   8 H :   -0.259462
   9 H :   -0.252259
  10 H :   -0.259843
  11 H :   -0.259843
  12 H :   -0.259462
  13 H :   -0.252259
  14 H :   -0.259461
  15 H :   -0.259843
  16 H :   -0.259462
  17 H :   -0.259462
  18 H :   -0.259461
  19 H :   -0.259843
  20 H :   -0.259843
  21 H :   -0.259843

  Mayer bond orders larger than 0.100000
B(  0-C ,  1-C ) :   0.8033 B(  0-C ,  2-C ) :   0.8035 B(  0-C ,  6-C ) :   0.8038
B(  0-C , 13-H ) :   0.7853 B(  1-C ,  3-C ) :   0.7742 B(  1-C , 16-H ) :   1.0833
B(  1-C , 19-H ) :   1.0694 B(  2-C ,  5-C ) :   0.7746 B(  2-C , 14-H ) :   1.0830
B(  2-C , 20-H ) :   1.0694 B(  3-C ,  4-C ) :   0.8034 B(  3-C , 17-H ) :   1.0831
B(  3-C , 21-H ) :   1.0695 B(  4-C ,  5-C ) :   0.8037 B(  4-C ,  7-C ) :   0.8036
B(  4-C ,  9-H ) :   0.7853 B(  5-C , 10-H ) :   1.0693 B(  5-C , 12-H ) :   1.0830
B(  6-C ,  7-C ) :   0.7745 B(  6-C ,  8-H ) :   1.0831 B(  6-C , 11-H ) :   1.0693
B(  7-C , 15-H ) :   1.0694 B(  7-C , 18-H ) :   1.0829

MP2 TOTAL ENERGY:     -312.687511517 Eh
FINAL SINGLE POINT ENERGY      -312.687511517476

DIPOLE MOMENT
-------------
                                X             Y             Z
Electronic contribution:     -0.00000      -0.00000      -0.00000
Nuclear contribution   :      0.00000       0.00000      -0.00000
                        -----------------------------------------
Total Dipole Moment    :     -0.00000       0.00000      -0.00000
                        -----------------------------------------
Magnitude (a.u.)       :      0.00000
Magnitude (Debye)      :      0.00000

Rotational constants in cm-1:     0.081289     0.078279     0.078279
Rotational constants in MHz :  2436.974860  2346.731374  2346.731216

                             ****ORCA TERMINATED NORMALLY****
TOTAL RUN TIME: 0 days 2 hours 2 minutes 19 seconds 727 msec
