                         Program Version 5.0.4 -  RELEASE  -
|  1> !ri-mp2 aug-cc-pvqz aug-cc-pvqz/c tightscf
|  2> %pal nprocs 16 end
|  3>
|  4> * xyz 0 1
|  5> C     0.000000     1.396197   -0.005270
|  6> C     1.209142    -0.698099   -0.005270
|  7> C    -1.209142    -0.698099   -0.005270
|  8> C     1.208834     0.697921   -0.006832
|  9> C    -1.208834     0.697921   -0.006832
| 10> C     0.000000    -1.395841   -0.006832
| 11> N     2.416644     1.395250   -0.064461
| 12> N    -2.416644     1.395250   -0.064461
| 13> N     0.000000    -2.790500   -0.064461
| 14> H     0.000000     2.479119   -0.023214
| 15> H     2.146980    -1.239560   -0.023214
| 16> H    -2.146980    -1.239560   -0.023214
| 17> H     3.222171     0.895252    0.273528
| 18> H     2.386397     2.342856    0.273528
| 19> H    -2.386397     2.342856    0.273528
| 20> H    -3.222171     0.895252    0.273528
| 21> H    -0.835774    -3.238108    0.273528
| 22> H     0.835774    -3.238108    0.273528
| 23> *
| 24>
| 25>                          ****END OF INPUT****

CARTESIAN COORDINATES (ANGSTROEM)
---------------------------------
  C      0.000000    1.396197   -0.005270
  C      1.209142   -0.698099   -0.005270
  C     -1.209142   -0.698099   -0.005270
  C      1.208834    0.697921   -0.006832
  C     -1.208834    0.697921   -0.006832
  C      0.000000   -1.395841   -0.006832
  N      2.416644    1.395250   -0.064461
  N     -2.416644    1.395250   -0.064461
  N      0.000000   -2.790500   -0.064461
  H      0.000000    2.479119   -0.023214
  H      2.146980   -1.239560   -0.023214
  H     -2.146980   -1.239560   -0.023214
  H      3.222171    0.895252    0.273528
  H      2.386397    2.342856    0.273528
  H     -2.386397    2.342856    0.273528
  H     -3.222171    0.895252    0.273528
  H     -0.835774   -3.238108    0.273528
  H      0.835774   -3.238108    0.273528

 Total Charge           Charge          ....    0
 Multiplicity           Mult            ....    1
 Number of Electrons    NEL             ....   66
 Basis Dimension        Dim             .... 1134

ORBITAL ENERGIES
----------------

  NO   OCC          E(Eh)            E(eV)
   0   2.0000     -15.557681      -423.3460
   1   2.0000     -15.557681      -423.3460
   2   2.0000     -15.557681      -423.3460
   3   2.0000     -11.274536      -306.7957
   4   2.0000     -11.274534      -306.7957
   5   2.0000     -11.274533      -306.7957
   6   2.0000     -11.193855      -304.6003
   7   2.0000     -11.193855      -304.6003
   8   2.0000     -11.193820      -304.5993
   9   2.0000      -1.230943       -33.4957
  10   2.0000      -1.208156       -32.8756
  11   2.0000      -1.208156       -32.8756
  12   2.0000      -1.080272       -29.3957
  13   2.0000      -0.971787       -26.4437
  14   2.0000      -0.971787       -26.4437
  15   2.0000      -0.815698       -22.1963
  16   2.0000      -0.815698       -22.1963
  17   2.0000      -0.718545       -19.5526
  18   2.0000      -0.703277       -19.1371
  19   2.0000      -0.659570       -17.9478
  20   2.0000      -0.659570       -17.9478
  21   2.0000      -0.656715       -17.8701
  22   2.0000      -0.601419       -16.3654
  23   2.0000      -0.601419       -16.3654
  24   2.0000      -0.559648       -15.2288
  25   2.0000      -0.549594       -14.9552
  26   2.0000      -0.510252       -13.8847
  27   2.0000      -0.510252       -13.8847
  28   2.0000      -0.483422       -13.1546
  29   2.0000      -0.483421       -13.1546
  30   2.0000      -0.379002       -10.3132
  31   2.0000      -0.283670        -7.7191
  32   2.0000      -0.283670        -7.7190
  33   0.0000       0.022174         0.6034
  34   0.0000       0.027239         0.7412
  35   0.0000       0.027240         0.7412
  36   0.0000       0.040371         1.0985
  37   0.0000       0.040372         1.0986

MULLIKEN ATOMIC CHARGES
-----------------------
   0 C :   -0.518227
   1 C :   -0.518422
   2 C :   -0.518581
   3 C :    0.553981
   4 C :    0.553868
   5 C :    0.553801
   6 N :   -0.816873
   7 N :   -0.816870
   8 N :   -0.816935
   9 H :    0.258562
  10 H :    0.258543
  11 H :    0.258521
  12 H :    0.261451
  13 H :    0.261420
  14 H :    0.261436
  15 H :    0.261444
  16 H :    0.261442
  17 H :    0.261440
Sum of atomic charges:   -0.0000000

LOEWDIN ATOMIC CHARGES
----------------------
   0 C :    0.332077
   1 C :    0.332078
   2 C :    0.332078
   3 C :   -0.252337
   4 C :   -0.252337
   5 C :   -0.252338
   6 N :    1.274970
   7 N :    1.274970
   8 N :    1.274971
   9 H :   -0.334875
  10 H :   -0.334875
  11 H :   -0.334875
  12 H :   -0.509918
  13 H :   -0.509918
  14 H :   -0.509918
  15 H :   -0.509918
  16 H :   -0.509918
  17 H :   -0.509918

  Mayer bond orders larger than 0.100000
B(  0-C ,  3-C ) :   1.2959 B(  0-C ,  4-C ) :   1.2958 B(  0-C ,  9-H ) :   0.9266
B(  1-C ,  3-C ) :   1.2961 B(  1-C ,  5-C ) :   1.2959 B(  1-C , 10-H ) :   0.9265
B(  2-C ,  4-C ) :   1.2962 B(  2-C ,  5-C ) :   1.2958 B(  2-C , 11-H ) :   0.9265
B(  3-C ,  4-C ) :  -0.3580 B(  3-C ,  5-C ) :  -0.3579 B(  3-C ,  6-N ) :   0.8161
B(  4-C ,  5-C ) :  -0.3579 B(  4-C ,  7-N ) :   0.8160 B(  5-C ,  8-N ) :   0.8160
B(  6-N , 12-H ) :   0.9461 B(  6-N , 13-H ) :   0.9462 B(  7-N , 14-H ) :   0.9462
B(  7-N , 15-H ) :   0.9461 B(  8-N , 16-H ) :   0.9461 B(  8-N , 17-H ) :   0.9461

MP2 TOTAL ENERGY:     -397.668409499 Eh
FINAL SINGLE POINT ENERGY      -397.668409498656

DIPOLE MOMENT
-------------
                                X             Y             Z
Electronic contribution:     -0.00000       0.00000      -0.46522
Nuclear contribution   :      0.00000      -0.00000       1.58051
                        -----------------------------------------
Total Dipole Moment    :     -0.00000       0.00000       1.11530
                        -----------------------------------------
Magnitude (a.u.)       :      1.11530
Magnitude (Debye)      :      2.83486

Rotational constants in cm-1:     0.060736     0.060736     0.030435
Rotational constants in MHz :  1820.829574  1820.829510   912.425454

                             ****ORCA TERMINATED NORMALLY****
TOTAL RUN TIME: 0 days 0 hours 53 minutes 43 seconds 32 msec
