                         Program Version 5.0.4 -  RELEASE  -
|  1> !ri-mp2 aug-cc-pvqz aug-cc-pvqz/c tightscf
|  2> %pal nprocs 16 end
|  3> %maxcore 3800
|  4>
|  5> * xyz 0 1
|  6> C      3.111158    0.691977    0.000194
|  7> C      1.909382    1.439432    0.000379
|  8> C      0.753239    0.709064   -0.000071
|  9> C     -0.753239    0.709064    0.000071
| 10> C     -0.753239   -0.709064   -0.000071
| 11> C      0.753239   -0.709064    0.000071
| 12> C      1.909382   -1.439432   -0.000379
| 13> C      3.111158   -0.691977   -0.000194
| 14> C     -1.909382   -1.439432    0.000379
| 15> C     -3.111158   -0.691977    0.000194
| 16> C     -3.111158    0.691977   -0.000194
| 17> C     -1.909382    1.439432   -0.000379
| 18> H      4.056913    1.217403    0.000417
| 19> H      1.930044    2.520654    0.000453
| 20> H      1.930044   -2.520654   -0.000453
| 21> H      4.056913   -1.217403   -0.000417
| 22> H     -1.930044   -2.520654    0.000453
| 23> H     -4.056913   -1.217403    0.000417
| 24> H     -4.056913    1.217403   -0.000417
| 25> H     -1.930044    2.520654   -0.000453
| 26> *
| 27>
| 28>                          ****END OF INPUT****

CARTESIAN COORDINATES (ANGSTROEM)
---------------------------------
  C      3.111158    0.691977    0.000194
  C      1.909382    1.439432    0.000379
  C      0.753239    0.709064   -0.000071
  C     -0.753239    0.709064    0.000071
  C     -0.753239   -0.709064   -0.000071
  C      0.753239   -0.709064    0.000071
  C      1.909382   -1.439432   -0.000379
  C      3.111158   -0.691977   -0.000194
  C     -1.909382   -1.439432    0.000379
  C     -3.111158   -0.691977    0.000194
  C     -3.111158    0.691977   -0.000194
  C     -1.909382    1.439432   -0.000379
  H      4.056913    1.217403    0.000417
  H      1.930044    2.520654    0.000453
  H      1.930044   -2.520654   -0.000453
  H      4.056913   -1.217403   -0.000417
  H     -1.930044   -2.520654    0.000453
  H     -4.056913   -1.217403    0.000417
  H     -4.056913    1.217403   -0.000417
  H     -1.930044    2.520654   -0.000453

 Total Charge           Charge          ....    0
 Multiplicity           Mult            ....    1
 Number of Electrons    NEL             ....   80
 Basis Dimension        Dim             .... 1328

ORBITAL ENERGIES
----------------

  NO   OCC          E(Eh)            E(eV)
   0   2.0000     -11.248873      -306.0974
   1   2.0000     -11.248245      -306.0803
   2   2.0000     -11.247788      -306.0679
   3   2.0000     -11.247156      -306.0507
   4   2.0000     -11.240158      -305.8603
   5   2.0000     -11.240155      -305.8602
   6   2.0000     -11.240106      -305.8588
   7   2.0000     -11.240098      -305.8586
   8   2.0000     -11.238146      -305.8055
   9   2.0000     -11.238146      -305.8055
  10   2.0000     -11.236903      -305.7717
  11   2.0000     -11.236903      -305.7717
  12   2.0000      -1.211323       -32.9618
  13   2.0000      -1.138762       -30.9873
  14   2.0000      -1.078214       -29.3397
  15   2.0000      -1.032551       -28.0971
  16   2.0000      -1.013134       -27.5688
  17   2.0000      -0.960772       -26.1439
  18   2.0000      -0.883116       -24.0308
  19   2.0000      -0.842718       -22.9315
  20   2.0000      -0.782934       -21.3047
  21   2.0000      -0.779284       -21.2054
  22   2.0000      -0.716918       -19.5083
  23   2.0000      -0.656723       -17.8703
  24   2.0000      -0.652632       -17.7590
  25   2.0000      -0.648790       -17.6545
  26   2.0000      -0.623123       -16.9560
  27   2.0000      -0.601019       -16.3545
  28   2.0000      -0.585376       -15.9289
  29   2.0000      -0.562442       -15.3048
  30   2.0000      -0.554772       -15.0961
  31   2.0000      -0.537525       -14.6268
  32   2.0000      -0.485369       -13.2076
  33   2.0000      -0.484749       -13.1907
  34   2.0000      -0.479594       -13.0504
  35   2.0000      -0.479498       -13.0478
  36   2.0000      -0.386895       -10.5280
  37   2.0000      -0.368731       -10.0337
  38   2.0000      -0.332036        -9.0352
  39   2.0000      -0.271745        -7.3945
  40   0.0000       0.025183         0.6853
  41   0.0000       0.026175         0.7123
  42   0.0000       0.026283         0.7152
  43   0.0000       0.035121         0.9557
  44   0.0000       0.036480         0.9927

MULLIKEN ATOMIC CHARGES
-----------------------
   0 C :   -0.367277
   1 C :   -0.340559
   2 C :    0.136933
   3 C :    0.136246
   4 C :    0.135716
   5 C :    0.135833
   6 C :   -0.340150
   7 C :   -0.366797
   8 C :   -0.340213
   9 C :   -0.367124
  10 C :   -0.366842
  11 C :   -0.340486
  12 H :    0.237020
  13 H :    0.334350
  14 H :    0.334164
  15 H :    0.237077
  16 H :    0.334029
  17 H :    0.236908
  18 H :    0.237002
  19 H :    0.334170
Sum of atomic charges:   -0.0000000

LOEWDIN ATOMIC CHARGES
----------------------
   0 C :    0.333292
   1 C :    0.388781
   2 C :   -0.072010
   3 C :   -0.072010
   4 C :   -0.072010
   5 C :   -0.072009
   6 C :    0.388781
   7 C :    0.333292
   8 C :    0.388781
   9 C :    0.333292
  10 C :    0.333292
  11 C :    0.388781
  12 H :   -0.330031
  13 H :   -0.320033
  14 H :   -0.320033
  15 H :   -0.330031
  16 H :   -0.320033
  17 H :   -0.330031
  18 H :   -0.330031
  19 H :   -0.320033

  Mayer bond orders larger than 0.100000
B(  0-C ,  1-C ) :   1.2281 B(  0-C ,  2-C ) :  -0.3279 B(  0-C ,  7-C ) :   1.2527
B(  0-C , 12-H ) :   1.1584 B(  0-C , 15-H ) :  -0.1374 B(  1-C ,  2-C ) :   1.2062
B(  1-C ,  3-C ) :  -0.1295 B(  1-C ,  5-C ) :  -0.2136 B(  1-C ,  6-C ) :   0.1367
B(  1-C , 11-C ) :   0.1417 B(  1-C , 12-H ) :  -0.1227 B(  1-C , 13-H ) :   0.9439
B(  2-C ,  3-C ) :   0.7183 B(  2-C ,  4-C ) :  -0.2507 B(  2-C ,  5-C ) :   1.0126
B(  2-C ,  6-C ) :  -0.2140 B(  2-C , 11-C ) :  -0.1301 B(  2-C , 13-H ) :  -0.1051
B(  3-C ,  4-C ) :   1.0138 B(  3-C ,  5-C ) :  -0.2507 B(  3-C ,  8-C ) :  -0.2147
B(  3-C , 10-C ) :  -0.3275 B(  3-C , 11-C ) :   1.2072 B(  3-C , 19-H ) :  -0.1049
B(  4-C ,  5-C ) :   0.7182 B(  4-C ,  6-C ) :  -0.1292 B(  4-C ,  8-C ) :   1.2058
B(  4-C ,  9-C ) :  -0.3275 B(  4-C , 11-C ) :  -0.2134 B(  4-C , 16-H ) :  -0.1053
B(  5-C ,  6-C ) :   1.2063 B(  5-C ,  7-C ) :  -0.3274 B(  5-C ,  8-C ) :  -0.1284
B(  5-C , 14-H ) :  -0.1053 B(  6-C ,  7-C ) :   1.2279 B(  6-C ,  8-C ) :   0.1413
B(  6-C , 14-H ) :   0.9441 B(  6-C , 15-H ) :  -0.1228 B(  7-C , 12-H ) :  -0.1374
B(  7-C , 15-H ) :   1.1582 B(  8-C ,  9-C ) :   1.2276 B(  8-C , 11-C ) :   0.1364
B(  8-C , 16-H ) :   0.9445 B(  8-C , 17-H ) :  -0.1229 B(  9-C , 10-C ) :   1.2531
B(  9-C , 17-H ) :   1.1585 B(  9-C , 18-H ) :  -0.1373 B( 10-C , 11-C ) :   1.2276
B( 10-C , 17-H ) :  -0.1374 B( 10-C , 18-H ) :   1.1583 B( 11-C , 18-H ) :  -0.1229
B( 11-C , 19-H ) :   0.9441

MP2 TOTAL ENERGY:     -461.179832284 Eh
FINAL SINGLE POINT ENERGY      -461.179832284457

DIPOLE MOMENT
-------------
                                X             Y             Z
Electronic contribution:      0.00000      -0.00000      -0.00000
Nuclear contribution   :     -0.00000       0.00000       0.00000
                        -----------------------------------------
Total Dipole Moment    :      0.00000      -0.00000      -0.00000
                        -----------------------------------------
Magnitude (a.u.)       :      0.00000
Magnitude (Debye)      :      0.00000

Rotational constants in cm-1:     0.094547     0.022512     0.018183
Rotational constants in MHz :  2834.441975   674.894468   545.102838

                             ****ORCA TERMINATED NORMALLY****
TOTAL RUN TIME: 0 days 2 hours 22 minutes 29 seconds 903 msec
