                         Program Version 5.0.4 -  RELEASE  -
|  1> !ri-mp2 aug-cc-pvqz aug-cc-pvqz/c tightscf
|  2> %pal nprocs 16 end
|  3>
|  4> * xyz 0 1
|  5> C    -1.522244     0.801625    0.000000
|  6> H    -1.971604     1.251554    0.886835
|  7> H    -1.971604     1.251554   -0.886835
|  8> C    -1.522244    -0.801625    0.000000
|  9> H    -1.971604    -1.251554   -0.886835
| 10> H    -1.971604    -1.251554    0.886835
| 11> C     1.522244    -0.801625    0.000000
| 12> H     1.971604    -1.251554    0.886835
| 13> H     1.971604    -1.251554   -0.886835
| 14> C     0.000000    -0.656608    0.000000
| 15> C     0.000000     0.656608    0.000000
| 16> C     1.522244     0.801625    0.000000
| 17> H     1.971604     1.251554   -0.886835
| 18> H     1.971604     1.251554    0.886835
| 19> *
| 20>
| 21>                          ****END OF INPUT****

CARTESIAN COORDINATES (ANGSTROEM)
---------------------------------
  C     -1.522244    0.801625    0.000000
  H     -1.971604    1.251554    0.886835
  H     -1.971604    1.251554   -0.886835
  C     -1.522244   -0.801625    0.000000
  H     -1.971604   -1.251554   -0.886835
  H     -1.971604   -1.251554    0.886835
  C      1.522244   -0.801625    0.000000
  H      1.971604   -1.251554    0.886835
  H      1.971604   -1.251554   -0.886835
  C      0.000000   -0.656608    0.000000
  C      0.000000    0.656608    0.000000
  C      1.522244    0.801625    0.000000
  H      1.971604    1.251554   -0.886835
  H      1.971604    1.251554    0.886835

 Total Charge           Charge          ....    0
 Multiplicity           Mult            ....    1
 Number of Electrons    NEL             ....   44
 Basis Dimension        Dim             ....  848

ORBITAL ENERGIES
----------------

  NO   OCC          E(Eh)            E(eV)
   0   2.0000     -11.237266      -305.7816
   1   2.0000     -11.237261      -305.7814
   2   2.0000     -11.236820      -305.7694
   3   2.0000     -11.236804      -305.7690
   4   2.0000     -11.203018      -304.8496
   5   2.0000     -11.201025      -304.7954
   6   2.0000      -1.174057       -31.9477
   7   2.0000      -1.036496       -28.2045
   8   2.0000      -0.882676       -24.0188
   9   2.0000      -0.849004       -23.1026
  10   2.0000      -0.833556       -22.6822
  11   2.0000      -0.652453       -17.7542
  12   2.0000      -0.638097       -17.3635
  13   2.0000      -0.603770       -16.4294
  14   2.0000      -0.600292       -16.3348
  15   2.0000      -0.536531       -14.5997
  16   2.0000      -0.516802       -14.0629
  17   2.0000      -0.504627       -13.7316
  18   2.0000      -0.444989       -12.1088
  19   2.0000      -0.442531       -12.0419
  20   2.0000      -0.412064       -11.2128
  21   2.0000      -0.330899        -9.0042
  22   0.0000       0.028499         0.7755
  23   0.0000       0.031121         0.8469
  24   0.0000       0.034399         0.9360
  25   0.0000       0.035849         0.9755
  26   0.0000       0.043692         1.1889

MULLIKEN ATOMIC CHARGES
-----------------------
   0 C :   -0.555638
   1 H :    0.261202
   2 H :    0.261203
   3 C :   -0.555638
   4 H :    0.261202
   5 H :    0.261202
   6 C :   -0.555638
   7 H :    0.261202
   8 H :    0.261202
   9 C :    0.066467
  10 C :    0.066467
  11 C :   -0.555638
  12 H :    0.261202
  13 H :    0.261202
Sum of atomic charges:   -0.0000000

LOEWDIN ATOMIC CHARGES
----------------------
   0 C :    0.553682
   1 H :   -0.284868
   2 H :   -0.284868
   3 C :    0.553682
   4 H :   -0.284868
   5 H :   -0.284868
   6 C :    0.553682
   7 H :   -0.284868
   8 H :   -0.284868
   9 C :    0.032110
  10 C :    0.032110
  11 C :    0.553682
  12 H :   -0.284868
  13 H :   -0.284868

  Mayer bond orders larger than 0.100000
B(  0-C ,  1-H ) :   0.9494 B(  0-C ,  2-H ) :   0.9494 B(  0-C ,  3-C ) :   1.1237
B(  0-C , 10-C ) :   0.8061 B(  3-C ,  4-H ) :   0.9494 B(  3-C ,  5-H ) :   0.9494
B(  3-C ,  9-C ) :   0.8061 B(  6-C ,  7-H ) :   0.9494 B(  6-C ,  8-H ) :   0.9494
B(  6-C ,  9-C ) :   0.8061 B(  6-C , 11-C ) :   1.1237 B(  9-C , 10-C ) :   1.2746
B( 10-C , 11-C ) :   0.8061 B( 11-C , 12-H ) :   0.9494 B( 11-C , 13-H ) :   0.9494

MP2 TOTAL ENERGY:     -232.866521799 Eh
FINAL SINGLE POINT ENERGY      -232.866521799333

DIPOLE MOMENT
-------------
                                X             Y             Z
Electronic contribution:      0.00000       0.00000       0.00000
Nuclear contribution   :      0.00000       0.00000       0.00000
                        -----------------------------------------
Total Dipole Moment    :      0.00000       0.00000       0.00000
                        -----------------------------------------
Magnitude (a.u.)       :      0.00000
Magnitude (Debye)      :      0.00000

Rotational constants in cm-1:     0.280012     0.113125     0.085774
Rotational constants in MHz :  8394.534287  3391.409129  2571.426051

                             ****ORCA TERMINATED NORMALLY****
TOTAL RUN TIME: 0 days 0 hours 25 minutes 26 seconds 62 msec
