                         Program Version 5.0.4 -  RELEASE  -
|  1> !ri-mp2 aug-cc-pvqz aug-cc-pvqz/c tightscf
|  2> %pal nprocs 16 end
|  3> %maxcore 3800
|  4>
|  5> * xyz 0 1
|  6> C    -2.229408    1.746979    0.000000
|  7> C     2.627632    1.057235    0.000000
|  8> C    -0.398224   -2.804213    0.000000
|  9> C    -1.554337    2.916926    0.000000
| 10> C     3.303300   -0.112368    0.000000
| 11> C    -1.748963   -2.804558    0.000000
| 12> C    -1.230229    0.713698    0.000000
| 13> C     1.233195    0.708561    0.000000
| 14> C    -0.002966   -1.422258    0.000000
| 15> C     0.000000    1.375748    0.000000
| 16> C     1.191433   -0.687874    0.000000
| 17> C    -1.191433   -0.687874    0.000000
| 18> O    -0.195326    2.723963    0.000000
| 19> O     2.456685   -1.192825    0.000000
| 20> O    -2.261359   -1.531139    0.000000
| 21> H    -3.298343    1.627719    0.000000
| 22> H     3.058818    2.042589    0.000000
| 23> H     0.239525   -3.670309    0.000000
| 24> H    -1.873962    3.943054    0.000000
| 25> H     4.351766   -0.348628    0.000000
| 26> H    -2.477803   -3.594426    0.000000
| 27> *
| 28>
| 29>                          ****END OF INPUT****

CARTESIAN COORDINATES (ANGSTROEM)
---------------------------------
  C     -2.229408    1.746979    0.000000
  C      2.627632    1.057235    0.000000
  C     -0.398224   -2.804213    0.000000
  C     -1.554337    2.916926    0.000000
  C      3.303300   -0.112368    0.000000
  C     -1.748963   -2.804558    0.000000
  C     -1.230229    0.713698    0.000000
  C      1.233195    0.708561    0.000000
  C     -0.002966   -1.422258    0.000000
  C      0.000000    1.375748    0.000000
  C      1.191433   -0.687874    0.000000
  C     -1.191433   -0.687874    0.000000
  O     -0.195326    2.723963    0.000000
  O      2.456685   -1.192825    0.000000
  O     -2.261359   -1.531139    0.000000
  H     -3.298343    1.627719    0.000000
  H      3.058818    2.042589    0.000000
  H      0.239525   -3.670309    0.000000
  H     -1.873962    3.943054    0.000000
  H      4.351766   -0.348628    0.000000
  H     -2.477803   -3.594426    0.000000

 Total Charge           Charge          ....    0
 Multiplicity           Mult            ....    1
 Number of Electrons    NEL             ....  102
 Basis Dimension        Dim             .... 1476

ORBITAL ENERGIES
----------------

  NO   OCC          E(Eh)            E(eV)
   0   2.0000     -20.624384      -561.2180
   1   2.0000     -20.624384      -561.2180
   2   2.0000     -20.624384      -561.2180
   3   2.0000     -11.305352      -307.6343
   4   2.0000     -11.305343      -307.6340
   5   2.0000     -11.305343      -307.6340
   6   2.0000     -11.298337      -307.4434
   7   2.0000     -11.298337      -307.4434
   8   2.0000     -11.298337      -307.4434
   9   2.0000     -11.243824      -305.9600
  10   2.0000     -11.243824      -305.9600
  11   2.0000     -11.243786      -305.9590
  12   2.0000     -11.240108      -305.8589
  13   2.0000     -11.240107      -305.8589
  14   2.0000     -11.240106      -305.8588
  15   2.0000      -1.464770       -39.8584
  16   2.0000      -1.460864       -39.7521
  17   2.0000      -1.460863       -39.7521
  18   2.0000      -1.162443       -31.6317
  19   2.0000      -1.100392       -29.9432
  20   2.0000      -1.100392       -29.9432
  21   2.0000      -1.045692       -28.4547
  22   2.0000      -0.996094       -27.1051
  23   2.0000      -0.996094       -27.1051
  24   2.0000      -0.852713       -23.2035
  25   2.0000      -0.848959       -23.1013
  26   2.0000      -0.848959       -23.1013
  27   2.0000      -0.781585       -21.2680
  28   2.0000      -0.781585       -21.2680
  29   2.0000      -0.769272       -20.9329
  30   2.0000      -0.710404       -19.3311
  31   2.0000      -0.685592       -18.6559
  32   2.0000      -0.685592       -18.6559
  33   2.0000      -0.664609       -18.0849
  34   2.0000      -0.637368       -17.3437
  35   2.0000      -0.637368       -17.3437
  36   2.0000      -0.611621       -16.6430
  37   2.0000      -0.607513       -16.5313
  38   2.0000      -0.607513       -16.5313
  39   2.0000      -0.577686       -15.7196
  40   2.0000      -0.577686       -15.7196
  41   2.0000      -0.576919       -15.6988
  42   2.0000      -0.560121       -15.2417
  43   2.0000      -0.523133       -14.2352
  44   2.0000      -0.523133       -14.2352
  45   2.0000      -0.474799       -12.9200
  46   2.0000      -0.421156       -11.4602
  47   2.0000      -0.421156       -11.4602
  48   2.0000      -0.364098        -9.9076
  49   2.0000      -0.288866        -7.8604
  50   2.0000      -0.288866        -7.8604
  51   0.0000       0.024579         0.6688
  52   0.0000       0.025278         0.6878
  53   0.0000       0.025280         0.6879
  54   0.0000       0.036606         0.9961
  55   0.0000       0.036611         0.9962

MULLIKEN ATOMIC CHARGES
-----------------------
   0 C :   -0.591481
   1 C :   -0.590252
   2 C :   -0.590140
   3 C :   -0.416365
   4 C :   -0.416529
   5 C :   -0.416422
   6 C :   -0.742847
   7 C :   -0.742403
   8 C :   -0.743063
   9 C :    1.654006
  10 C :    1.654977
  11 C :    1.657045
  12 O :   -0.785452
  13 O :   -0.785446
  14 O :   -0.785412
  15 H :    0.346487
  16 H :    0.346713
  17 H :    0.347035
  18 H :    0.533526
  19 H :    0.533114
  20 H :    0.532912
Sum of atomic charges:    0.0000000

LOEWDIN ATOMIC CHARGES
----------------------
   0 C :    0.356072
   1 C :    0.356072
   2 C :    0.356071
   3 C :    0.031452
   4 C :    0.031451
   5 C :    0.031451
   6 C :   -0.133438
   7 C :   -0.133439
   8 C :   -0.133439
   9 C :   -0.478562
  10 C :   -0.478561
  11 C :   -0.478561
  12 O :    0.873585
  13 O :    0.873585
  14 O :    0.873585
  15 H :   -0.317643
  16 H :   -0.317643
  17 H :   -0.317642
  18 H :   -0.331465
  19 H :   -0.331465
  20 H :   -0.331466

  Mayer bond orders larger than 0.100000
B(  0-C ,  3-C ) :   1.8711 B(  0-C ,  6-C ) :   0.9972 B(  0-C ,  9-C ) :  -0.3744
B(  0-C , 11-C ) :  -0.4409 B(  0-C , 15-H ) :   0.9927 B(  1-C ,  4-C ) :   1.8705
B(  1-C ,  7-C ) :   0.9963 B(  1-C ,  9-C ) :  -0.4379 B(  1-C , 10-C ) :  -0.3750
B(  1-C , 16-H ) :   0.9924 B(  2-C ,  5-C ) :   1.8706 B(  2-C ,  8-C ) :   0.9976
B(  2-C , 10-C ) :  -0.4377 B(  2-C , 11-C ) :  -0.3741 B(  2-C , 17-H ) :   0.9918
B(  3-C ,  6-C ) :  -0.1484 B(  3-C ,  7-C ) :  -0.1455 B(  3-C ,  9-C ) :  -0.1772
B(  3-C , 11-C ) :   0.1350 B(  3-C , 12-O ) :   1.0408 B(  3-C , 18-H ) :   0.7885
B(  4-C ,  7-C ) :  -0.1477 B(  4-C ,  8-C ) :  -0.1456 B(  4-C ,  9-C ) :   0.1349
B(  4-C , 10-C ) :  -0.1774 B(  4-C , 13-O ) :   1.0402 B(  4-C , 19-H ) :   0.7892
B(  5-C ,  6-C ) :  -0.1453 B(  5-C ,  8-C ) :  -0.1486 B(  5-C , 10-C ) :   0.1347
B(  5-C , 11-C ) :  -0.1778 B(  5-C , 14-O ) :   1.0404 B(  5-C , 20-H ) :   0.7894
B(  6-C ,  7-C ) :  -0.2301 B(  6-C ,  8-C ) :  -0.2313 B(  6-C ,  9-C ) :   1.2900
B(  6-C , 10-C ) :   0.1010 B(  6-C , 11-C ) :   0.7882 B(  6-C , 12-O ) :   0.4555
B(  6-C , 14-O ) :   0.3313 B(  7-C ,  8-C ) :  -0.2295 B(  7-C ,  9-C ) :   0.7910
B(  7-C , 10-C ) :   1.2882 B(  7-C , 11-C ) :   0.1008 B(  7-C , 12-O ) :   0.3317
B(  7-C , 13-O ) :   0.4542 B(  8-C ,  9-C ) :   0.1016 B(  8-C , 10-C ) :   0.7912
B(  8-C , 11-C ) :   1.2873 B(  8-C , 13-O ) :   0.3328 B(  8-C , 14-O ) :   0.4556
B(  9-C , 10-C ) :  -0.3857 B(  9-C , 11-C ) :  -0.3865 B(  9-C , 12-O ) :  -0.2474
B( 10-C , 11-C ) :  -0.3853 B( 10-C , 13-O ) :  -0.2482 B( 11-C , 14-O ) :  -0.2472

MP2 TOTAL ENERGY:     -685.466117355 Eh
FINAL SINGLE POINT ENERGY      -685.466117354810

DIPOLE MOMENT
-------------
                                X             Y             Z
Electronic contribution:     -0.00000       0.00000       0.00000
Nuclear contribution   :      0.00000      -0.00000       0.00000
                        -----------------------------------------
Total Dipole Moment    :     -0.00000       0.00000       0.00000
                        -----------------------------------------
Magnitude (a.u.)       :      0.00000
Magnitude (Debye)      :      0.00000

Rotational constants in cm-1:     0.026334     0.026334     0.013167
Rotational constants in MHz :   789.467552   789.467415   394.733742

                             ****ORCA TERMINATED NORMALLY****
TOTAL RUN TIME: 0 days 3 hours 30 minutes 46 seconds 455 msec
