                         Program Version 5.0.4 -  RELEASE  -
|  1> !ri-mp2 aug-cc-pvqz aug-cc-pvqz/c tightscf
|  2> %pal nprocs 16 end
|  3>
|  4> * xyz 0 1
|  5> C      0.000000    1.439760   -0.621675
|  6> C      0.000000    0.686345   -1.839508
|  7> C      0.000000   -0.686345   -1.839508
|  8> C      0.000000   -1.439760   -0.621675
|  9> C      0.000000   -0.673165    2.041672
| 10> C      0.000000    0.673165    2.041672
| 11> C      0.000000    0.709390    0.520531
| 12> C      0.000000   -0.709390    0.520531
| 13> H      0.000000    2.521064   -0.642939
| 14> H      0.000000    1.216563   -2.782280
| 15> H      0.000000   -1.216563   -2.782280
| 16> H      0.000000   -2.521064   -0.642939
| 17> H      0.000000   -1.421348    2.819103
| 18> H      0.000000    1.421348    2.819103
| 19> *
| 20>
| 21>                          ****END OF INPUT****

CARTESIAN COORDINATES (ANGSTROEM)
---------------------------------
  C      0.000000    1.439760   -0.621675
  C      0.000000    0.686345   -1.839508
  C      0.000000   -0.686345   -1.839508
  C      0.000000   -1.439760   -0.621675
  C      0.000000   -0.673165    2.041672
  C      0.000000    0.673165    2.041672
  C      0.000000    0.709390    0.520531
  C      0.000000   -0.709390    0.520531
  H      0.000000    2.521064   -0.642939
  H      0.000000    1.216563   -2.782280
  H      0.000000   -1.216563   -2.782280
  H      0.000000   -2.521064   -0.642939
  H      0.000000   -1.421348    2.819103
  H      0.000000    1.421348    2.819103

 Total Charge           Charge          ....    0
 Multiplicity           Mult            ....    1
 Number of Electrons    NEL             ....   54
 Basis Dimension        Dim             ....  916

ORBITAL ENERGIES
----------------

  NO   OCC          E(Eh)            E(eV)
   0   2.0000     -11.259146      -306.3769
   1   2.0000     -11.257538      -306.3332
   2   2.0000     -11.242964      -305.9366
   3   2.0000     -11.241893      -305.9075
   4   2.0000     -11.231544      -305.6259
   5   2.0000     -11.231513      -305.6250
   6   2.0000     -11.229260      -305.5637
   7   2.0000     -11.227911      -305.5270
   8   2.0000      -1.197796       -32.5937
   9   2.0000      -1.098814       -29.9003
  10   2.0000      -1.015171       -27.6242
  11   2.0000      -0.949830       -25.8462
  12   2.0000      -0.838744       -22.8234
  13   2.0000      -0.817769       -22.2526
  14   2.0000      -0.754331       -20.5264
  15   2.0000      -0.702962       -19.1286
  16   2.0000      -0.650762       -17.7081
  17   2.0000      -0.622904       -16.9501
  18   2.0000      -0.574399       -15.6302
  19   2.0000      -0.562950       -15.3187
  20   2.0000      -0.553091       -15.0504
  21   2.0000      -0.533784       -14.5250
  22   2.0000      -0.478366       -13.0170
  23   2.0000      -0.471525       -12.8309
  24   2.0000      -0.420828       -11.4513
  25   2.0000      -0.346694        -9.4340
  26   2.0000      -0.275042        -7.4843
  27   0.0000       0.025386         0.6908
  28   0.0000       0.027504         0.7484
  29   0.0000       0.029212         0.7949
  30   0.0000       0.039401         1.0722
  31   0.0000       0.041719         1.1352

MULLIKEN ATOMIC CHARGES
-----------------------
   0 C :   -0.114484
   1 C :   -0.431855
   2 C :   -0.431924
   3 C :   -0.114348
   4 C :   -0.648588
   5 C :   -0.648534
   6 C :    0.050368
   7 C :    0.050299
   8 H :    0.345521
   9 H :    0.244165
  10 H :    0.244179
  11 H :    0.345511
  12 H :    0.554834
  13 H :    0.554855
Sum of atomic charges:    0.0000000

LOEWDIN ATOMIC CHARGES
----------------------
   0 C :    0.369898
   1 C :    0.321893
   2 C :    0.321893
   3 C :    0.369898
   4 C :    0.421222
   5 C :    0.421222
   6 C :   -0.143058
   7 C :   -0.143058
   8 H :   -0.328925
   9 H :   -0.334696
  10 H :   -0.334696
  11 H :   -0.328925
  12 H :   -0.306336
  13 H :   -0.306336

  Mayer bond orders larger than 0.100000
B(  0-C ,  1-C ) :   1.1306 B(  0-C ,  6-C ) :   1.2318 B(  0-C ,  7-C ) :  -0.1303
B(  0-C ,  8-H ) :   0.9600 B(  1-C ,  2-C ) :   1.3572 B(  1-C ,  6-C ) :  -0.1518
B(  1-C ,  9-H ) :   1.1251 B(  1-C , 10-H ) :  -0.1153 B(  2-C ,  3-C ) :   1.1306
B(  2-C ,  7-C ) :  -0.1517 B(  2-C ,  9-H ) :  -0.1153 B(  2-C , 10-H ) :   1.1251
B(  3-C ,  6-C ) :  -0.1304 B(  3-C ,  7-C ) :   1.2318 B(  3-C , 11-H ) :   0.9600
B(  4-C ,  5-C ) :   1.9663 B(  4-C ,  6-C ) :  -0.2792 B(  4-C ,  7-C ) :   1.1523
B(  4-C , 12-H ) :   0.6690 B(  5-C ,  6-C ) :   1.1523 B(  5-C ,  7-C ) :  -0.2793
B(  5-C , 13-H ) :   0.6690 B(  6-C ,  7-C ) :   0.6496 B(  6-C ,  8-H ) :  -0.1149
B(  7-C , 11-H ) :  -0.1149

MP2 TOTAL ENERGY:     -307.785778988 Eh
FINAL SINGLE POINT ENERGY      -307.785778988370

DIPOLE MOMENT
-------------
                                X             Y             Z
Electronic contribution:      0.00000       0.00000       1.55065
Nuclear contribution   :      0.00000      -0.00000      -1.20369
                        -----------------------------------------
Total Dipole Moment    :      0.00000       0.00000       0.34696
                        -----------------------------------------
Magnitude (a.u.)       :      0.34696
Magnitude (Debye)      :      0.88190

Rotational constants in cm-1:     0.162162     0.073403     0.050530
Rotational constants in MHz :  4861.499657  2200.563360  1514.860175

                             ****ORCA TERMINATED NORMALLY****
TOTAL RUN TIME: 0 days 0 hours 38 minutes 47 seconds 385 msec
