                         Program Version 5.0.4 -  RELEASE  -
|  1> !ri-mp2 aug-cc-pvqz aug-cc-pvqz/c tightscf
|  2> %pal nprocs 16 end
|  3>
|  4> * xyz 0 1
|  5> O     -0.115324    2.385771   -0.820827
|  6> O      0.115324   -2.385771   -0.820827
|  7> C      0.379356    0.637546    0.860073
|  8> C     -0.379356   -0.637546    0.860073
|  9> C      0.115324    1.569774   -0.030466
| 10> C     -0.115324   -1.569774   -0.030466
| 11> H      1.150733    0.853280    1.588973
| 12> H     -1.150733   -0.853280    1.588973
| 13> *
| 14>
| 15>                          ****END OF INPUT****

CARTESIAN COORDINATES (ANGSTROEM)
---------------------------------
  O     -0.115324    2.385771   -0.820827
  O      0.115324   -2.385771   -0.820827
  C      0.379356    0.637546    0.860073
  C     -0.379356   -0.637546    0.860073
  C      0.115324    1.569774   -0.030466
  C     -0.115324   -1.569774   -0.030466
  H      1.150733    0.853280    1.588973
  H     -1.150733   -0.853280    1.588973

 Total Charge           Charge          ....    0
 Multiplicity           Mult            ....    1
 Number of Electrons    NEL             ....   42
 Basis Dimension        Dim             ....  572

ORBITAL ENERGIES
----------------

  NO   OCC          E(Eh)            E(eV)
   0   2.0000     -20.637055      -561.5628
   1   2.0000     -20.637055      -561.5628
   2   2.0000     -11.390736      -309.9577
   3   2.0000     -11.390736      -309.9577
   4   2.0000     -11.264571      -306.5246
   5   2.0000     -11.263887      -306.5059
   6   2.0000      -1.484898       -40.4061
   7   2.0000      -1.484396       -40.3925
   8   2.0000      -1.125090       -30.6153
   9   2.0000      -1.012880       -27.5619
  10   2.0000      -0.784468       -21.3464
  11   2.0000      -0.755199       -20.5500
  12   2.0000      -0.709568       -19.3083
  13   2.0000      -0.684961       -18.6387
  14   2.0000      -0.677490       -18.4355
  15   2.0000      -0.650172       -17.6921
  16   2.0000      -0.648752       -17.6534
  17   2.0000      -0.600664       -16.3449
  18   2.0000      -0.563591       -15.3361
  19   2.0000      -0.390555       -10.6276
  20   2.0000      -0.357675        -9.7328
  21   0.0000       0.020743         0.5644
  22   0.0000       0.031394         0.8543
  23   0.0000       0.046237         1.2582
  24   0.0000       0.048828         1.3287
  25   0.0000       0.074542         2.0284

MULLIKEN ATOMIC CHARGES
-----------------------
   0 O :   -0.630277
   1 O :   -0.630277
   2 C :   -0.592544
   3 C :   -0.592544
   4 C :    0.778120
   5 C :    0.778120
   6 H :    0.444701
   7 H :    0.444701
Sum of atomic charges:   -0.0000000

LOEWDIN ATOMIC CHARGES
----------------------
   0 O :    0.643752
   1 O :    0.643752
   2 C :    0.194146
   3 C :    0.194146
   4 C :   -0.440111
   5 C :   -0.440111
   6 H :   -0.397787
   7 H :   -0.397787

  Mayer bond orders larger than 0.100000
B(  0-O ,  2-C ) :   0.1732 B(  0-O ,  4-C ) :   1.6682 B(  1-O ,  3-C ) :   0.1732
B(  1-O ,  5-C ) :   1.6682 B(  2-C ,  3-C ) :   0.9710 B(  2-C ,  4-C ) :   1.8953
B(  2-C ,  6-H ) :   0.7528 B(  3-C ,  5-C ) :   1.8953 B(  3-C ,  7-H ) :   0.7528

MP2 TOTAL ENERGY:     -303.564055242 Eh
FINAL SINGLE POINT ENERGY      -303.564055242032

DIPOLE MOMENT
-------------
                                X             Y             Z
Electronic contribution:      0.00000       0.00000      -2.14556
Nuclear contribution   :      0.00000       0.00000       3.02996
                        -----------------------------------------
Total Dipole Moment    :      0.00000       0.00000       0.88440
                        -----------------------------------------
Magnitude (a.u.)       :      0.88440
Magnitude (Debye)      :      2.24795

Rotational constants in cm-1:     0.329587     0.064980     0.056775
Rotational constants in MHz :  9880.780873  1948.053999  1702.056797

                             ****ORCA TERMINATED NORMALLY****
TOTAL RUN TIME: 0 days 0 hours 6 minutes 32 seconds 910 msec
