                         Program Version 5.0.4 -  RELEASE  -
|  1> !ri-mp2 aug-cc-pvqz aug-cc-pvqz/c tightscf
|  2> %pal nprocs 16 end
|  3> %maxcore 3800
|  4>
|  5> * xyz 0 1
|  6> C      0.322882   -1.211271    0.752902
|  7> C      0.322882   -1.211271   -0.752902
|  8> C     -0.466950   -2.251492    0.000000
|  9> C     -0.345255   -0.092908    1.527147
| 10> C     -0.345255   -0.092908   -1.527147
| 11> C      0.322882    1.274175    1.311568
| 12> C      0.322882    1.274175   -1.311568
| 13> C     -0.056876    1.976267    0.000000
| 14> H      1.240243   -1.564633   -1.210344
| 15> H     -0.116933   -3.274616    0.000000
| 16> H     -1.545089   -2.152272    0.000000
| 17> H     -1.402559   -0.021790    1.258165
| 18> H     -0.326225   -0.345142    2.590759
| 19> H     -0.326225   -0.345142   -2.590759
| 20> H     -1.402559   -0.021790   -1.258165
| 21> H      0.048720    1.937680    2.136366
| 22> H      1.410002    1.155998    1.365948
| 23> H      1.410002    1.155998   -1.365948
| 24> H      0.048720    1.937680   -2.136366
| 25> H     -1.139984    2.143490    0.000000
| 26> H      0.398488    2.970578    0.000000
| 27> H      1.240243   -1.564633    1.210344
| 28> *
| 29>
| 30>                          ****END OF INPUT****

CARTESIAN COORDINATES (ANGSTROEM)
---------------------------------
  C      0.322882   -1.211271    0.752902
  C      0.322882   -1.211271   -0.752902
  C     -0.466950   -2.251492    0.000000
  C     -0.345255   -0.092908    1.527147
  C     -0.345255   -0.092908   -1.527147
  C      0.322882    1.274175    1.311568
  C      0.322882    1.274175   -1.311568
  C     -0.056876    1.976267    0.000000
  H      1.240243   -1.564633   -1.210344
  H     -0.116933   -3.274616    0.000000
  H     -1.545089   -2.152272    0.000000
  H     -1.402559   -0.021790    1.258165
  H     -0.326225   -0.345142    2.590759
  H     -0.326225   -0.345142   -2.590759
  H     -1.402559   -0.021790   -1.258165
  H      0.048720    1.937680    2.136366
  H      1.410002    1.155998    1.365948
  H      1.410002    1.155998   -1.365948
  H      0.048720    1.937680   -2.136366
  H     -1.139984    2.143490    0.000000
  H      0.398488    2.970578    0.000000
  H      1.240243   -1.564633    1.210344

 Total Charge           Charge          ....    0
 Multiplicity           Mult            ....    1
 Number of Electrons    NEL             ....   62
 Basis Dimension        Dim             .... 1284

ORBITAL ENERGIES
----------------

  NO   OCC          E(Eh)            E(eV)
   0   2.0000     -11.218543      -305.2721
   1   2.0000     -11.217808      -305.2521
   2   2.0000     -11.214089      -305.1509
   3   2.0000     -11.214019      -305.1490
   4   2.0000     -11.213997      -305.1484
   5   2.0000     -11.212228      -305.1002
   6   2.0000     -11.211607      -305.0833
   7   2.0000     -11.211318      -305.0755
   8   2.0000      -1.150889       -31.3173
   9   2.0000      -1.065068       -28.9820
  10   2.0000      -1.023396       -27.8480
  11   2.0000      -0.924930       -25.1686
  12   2.0000      -0.870086       -23.6762
  13   2.0000      -0.801103       -21.7991
  14   2.0000      -0.768184       -20.9033
  15   2.0000      -0.729208       -19.8428
  16   2.0000      -0.668885       -18.2013
  17   2.0000      -0.632674       -17.2159
  18   2.0000      -0.615808       -16.7570
  19   2.0000      -0.583506       -15.8780
  20   2.0000      -0.559807       -15.2331
  21   2.0000      -0.556740       -15.1497
  22   2.0000      -0.517043       -14.0695
  23   2.0000      -0.510317       -13.8864
  24   2.0000      -0.504430       -13.7262
  25   2.0000      -0.465155       -12.6575
  26   2.0000      -0.460507       -12.5310
  27   2.0000      -0.456197       -12.4137
  28   2.0000      -0.446576       -12.1520
  29   2.0000      -0.393190       -10.6992
  30   2.0000      -0.379963       -10.3393
  31   0.0000       0.026434         0.7193
  32   0.0000       0.029579         0.8049
  33   0.0000       0.029951         0.8150
  34   0.0000       0.031897         0.8680
  35   0.0000       0.042736         1.1629

MULLIKEN ATOMIC CHARGES
-----------------------
   0 C :   -0.145381
   1 C :   -0.145308
   2 C :   -0.897427
   3 C :   -0.407733
   4 C :   -0.407637
   5 C :   -0.464488
   6 C :   -0.464501
   7 C :   -0.419620
   8 H :    0.323149
   9 H :    0.366405
  10 H :    0.198705
  11 H :    0.181760
  12 H :    0.286687
  13 H :    0.286676
  14 H :    0.181703
  15 H :    0.206298
  16 H :    0.200751
  17 H :    0.200713
  18 H :    0.206365
  19 H :    0.183459
  20 H :    0.206234
  21 H :    0.323189
Sum of atomic charges:   -0.0000000

LOEWDIN ATOMIC CHARGES
----------------------
   0 C :    0.188568
   1 C :    0.188568
   2 C :    0.636556
   3 C :    0.549261
   4 C :    0.549262
   5 C :    0.551271
   6 C :    0.551271
   7 C :    0.543676
   8 H :   -0.256039
   9 H :   -0.262641
  10 H :   -0.275009
  11 H :   -0.283868
  12 H :   -0.263580
  13 H :   -0.263580
  14 H :   -0.283868
  15 H :   -0.270332
  16 H :   -0.264875
  17 H :   -0.264875
  18 H :   -0.270332
  19 H :   -0.273122
  20 H :   -0.270272
  21 H :   -0.256039

  Mayer bond orders larger than 0.100000
B(  0-C ,  1-C ) :   0.5118 B(  0-C ,  2-C ) :   0.9801 B(  0-C ,  3-C ) :   0.8125
B(  0-C , 21-H ) :   0.8972 B(  1-C ,  2-C ) :   0.9800 B(  1-C ,  4-C ) :   0.8124
B(  1-C ,  8-H ) :   0.8973 B(  2-C ,  9-H ) :   0.9345 B(  2-C , 10-H ) :   0.9890
B(  3-C ,  5-C ) :   0.9255 B(  3-C , 11-H ) :   0.9923 B(  3-C , 12-H ) :   0.9100
B(  4-C ,  6-C ) :   0.9255 B(  4-C , 13-H ) :   0.9100 B(  4-C , 14-H ) :   0.9923
B(  5-C ,  7-C ) :   0.8195 B(  5-C , 15-H ) :   1.0182 B(  5-C , 16-H ) :   0.9347
B(  6-C ,  7-C ) :   0.8195 B(  6-C , 17-H ) :   0.9347 B(  6-C , 18-H ) :   1.0181
B(  7-C , 19-H ) :   0.9928 B(  7-C , 20-H ) :   0.9864

MP2 TOTAL ENERGY:     -312.652481956 Eh
FINAL SINGLE POINT ENERGY      -312.652481955514

DIPOLE MOMENT
-------------
                                X             Y             Z
Electronic contribution:      0.52745      -2.06974       0.00000
Nuclear contribution   :     -0.48938       2.12531      -0.00000
                        -----------------------------------------
Total Dipole Moment    :      0.03806       0.05556       0.00000
                        -----------------------------------------
Magnitude (a.u.)       :      0.06735
Magnitude (Debye)      :      0.17119

Rotational constants in cm-1:     0.100211     0.066798     0.045395
Rotational constants in MHz :  3004.259896  2002.538777  1360.913889

                             ****ORCA TERMINATED NORMALLY****
TOTAL RUN TIME: 0 days 2 hours 9 minutes 54 seconds 573 msec
