                         Program Version 5.0.4 -  RELEASE  -
|  1> !ri-mp2 aug-cc-pvqz aug-cc-pvqz/c tightscf
|  2> %pal nprocs 16 end
|  3>
|  4> * xyz 0 1
|  5> C     1.306673     0.778578   -0.253085
|  6> C     1.306673    -0.778578   -0.253085
|  7> C     0.000000    -0.786260    0.577788
|  8> C     0.000000     0.786260    0.577788
|  9> C    -1.306673     0.778578   -0.253085
| 10> C    -1.306673    -0.778578   -0.253085
| 11> H     1.235314     1.258625   -1.230081
| 12> H     2.159674     1.206785    0.272012
| 13> H     2.159674    -1.206785    0.272012
| 14> H     1.235314    -1.258625   -1.230081
| 15> H     0.000000    -1.384950    1.486430
| 16> H     0.000000     1.384950    1.486430
| 17> H    -2.159674     1.206785    0.272012
| 18> H    -1.235314     1.258625   -1.230081
| 19> H    -1.235314    -1.258625   -1.230081
| 20> H    -2.159674    -1.206785    0.272012
| 21> *
| 22>
| 23>                          ****END OF INPUT****

CARTESIAN COORDINATES (ANGSTROEM)
---------------------------------
  C      1.306673    0.778578   -0.253085
  C      1.306673   -0.778578   -0.253085
  C      0.000000   -0.786260    0.577788
  C      0.000000    0.786260    0.577788
  C     -1.306673    0.778578   -0.253085
  C     -1.306673   -0.778578   -0.253085
  H      1.235314    1.258625   -1.230081
  H      2.159674    1.206785    0.272012
  H      2.159674   -1.206785    0.272012
  H      1.235314   -1.258625   -1.230081
  H      0.000000   -1.384950    1.486430
  H      0.000000    1.384950    1.486430
  H     -2.159674    1.206785    0.272012
  H     -1.235314    1.258625   -1.230081
  H     -1.235314   -1.258625   -1.230081
  H     -2.159674   -1.206785    0.272012

 Total Charge           Charge          ....    0
 Multiplicity           Mult            ....    1
 Number of Electrons    NEL             ....   46
 Basis Dimension        Dim             ....  940

ORBITAL ENERGIES
----------------

  NO   OCC          E(Eh)            E(eV)
   0   2.0000     -11.216342      -305.2122
   1   2.0000     -11.215839      -305.1985
   2   2.0000     -11.212813      -305.1161
   3   2.0000     -11.212758      -305.1147
   4   2.0000     -11.212278      -305.1016
   5   2.0000     -11.212222      -305.1001
   6   2.0000      -1.154155       -31.4061
   7   2.0000      -1.006237       -27.3811
   8   2.0000      -0.919229       -25.0135
   9   2.0000      -0.842718       -22.9315
  10   2.0000      -0.813665       -22.1410
  11   2.0000      -0.692843       -18.8532
  12   2.0000      -0.673903       -18.3378
  13   2.0000      -0.615722       -16.7546
  14   2.0000      -0.606820       -16.5124
  15   2.0000      -0.564618       -15.3640
  16   2.0000      -0.533527       -14.5180
  17   2.0000      -0.489754       -13.3269
  18   2.0000      -0.476273       -12.9600
  19   2.0000      -0.453344       -12.3361
  20   2.0000      -0.431582       -11.7439
  21   2.0000      -0.403128       -10.9697
  22   2.0000      -0.390172       -10.6171
  23   0.0000       0.026796         0.7292
  24   0.0000       0.032353         0.8804
  25   0.0000       0.033547         0.9129
  26   0.0000       0.034515         0.9392
  27   0.0000       0.045122         1.2278

MULLIKEN ATOMIC CHARGES
-----------------------
   0 C :   -0.664659
   1 C :   -0.664659
   2 C :   -0.227239
   3 C :   -0.227239
   4 C :   -0.664641
   5 C :   -0.664641
   6 H :    0.237991
   7 H :    0.288789
   8 H :    0.288789
   9 H :    0.237991
  10 H :    0.502990
  11 H :    0.502990
  12 H :    0.288773
  13 H :    0.237996
  14 H :    0.237996
  15 H :    0.288773
Sum of atomic charges:    0.0000000

LOEWDIN ATOMIC CHARGES
----------------------
   0 C :    0.564305
   1 C :    0.564305
   2 C :    0.177427
   3 C :    0.177427
   4 C :    0.564305
   5 C :    0.564305
   6 H :   -0.266253
   7 H :   -0.267527
   8 H :   -0.267527
   9 H :   -0.266253
  10 H :   -0.238477
  11 H :   -0.238477
  12 H :   -0.267527
  13 H :   -0.266253
  14 H :   -0.266253
  15 H :   -0.267527

  Mayer bond orders larger than 0.100000
B(  0-C ,  1-C ) :   1.0839 B(  0-C ,  3-C ) :   0.9445 B(  0-C ,  6-H ) :   0.9368
B(  0-C ,  7-H ) :   0.9359 B(  1-C ,  2-C ) :   0.9445 B(  1-C ,  8-H ) :   0.9359
B(  1-C ,  9-H ) :   0.9368 B(  2-C ,  3-C ) :   0.9238 B(  2-C ,  5-C ) :   0.9445
B(  2-C , 10-H ) :   0.7548 B(  3-C ,  4-C ) :   0.9445 B(  3-C , 11-H ) :   0.7548
B(  4-C ,  5-C ) :   1.0839 B(  4-C , 12-H ) :   0.9359 B(  4-C , 13-H ) :   0.9367
B(  5-C , 14-H ) :   0.9367 B(  5-C , 15-H ) :   0.9359

MP2 TOTAL ENERGY:     -234.140128305 Eh
FINAL SINGLE POINT ENERGY      -234.140128305154

DIPOLE MOMENT
-------------
                                X             Y             Z
Electronic contribution:      0.00000       0.00000       0.96539
Nuclear contribution   :      0.00000      -0.00000      -0.90383
                        -----------------------------------------
Total Dipole Moment    :      0.00000       0.00000       0.06156
                        -----------------------------------------
Magnitude (a.u.)       :      0.06156
Magnitude (Debye)      :      0.15646

Rotational constants in cm-1:     0.205477     0.130750     0.100890
Rotational constants in MHz :  6160.055033  3919.789220  3024.613607

                             ****ORCA TERMINATED NORMALLY****
TOTAL RUN TIME: 0 days 0 hours 38 minutes 5 seconds 835 msec
