                         Program Version 5.0.4 -  RELEASE  -
|  1> !ri-mp2 aug-cc-pvqz aug-cc-pvqz/c tightscf
|  2> %pal nprocs 16 end
|  3>
|  4> * xyz 0 1
|  5> C      2.784969   -0.371669   -0.128185
|  6> C      1.353327   -0.290285    0.397998
|  7> C      0.523956    0.782957   -0.309707
|  8> C     -0.898001    0.948281    0.219480
|  9> S     -1.902817   -0.567172   -0.109965
| 10> H      3.355821   -1.140150    0.394167
| 11> H      3.309752    0.577267    0.001618
| 12> H      2.800602   -0.614167   -1.192643
| 13> H      1.367691   -0.079826    1.471581
| 14> H      0.869424   -1.263165    0.287020
| 15> H      0.488279    0.573674   -1.382567
| 16> H      1.026483    1.749510   -0.202216
| 17> H     -0.887504    1.133147    1.293120
| 18> H     -1.385788    1.786314   -0.273539
| 19> H     -3.085182   -0.063565    0.285377
| 20> *
| 21>
| 22>                          ****END OF INPUT****

CARTESIAN COORDINATES (ANGSTROEM)
---------------------------------
  C      2.784969   -0.371669   -0.128185
  C      1.353327   -0.290285    0.397998
  C      0.523956    0.782957   -0.309707
  C     -0.898001    0.948281    0.219480
  S     -1.902817   -0.567172   -0.109965
  H      3.355821   -1.140150    0.394167
  H      3.309752    0.577267    0.001618
  H      2.800602   -0.614167   -1.192643
  H      1.367691   -0.079826    1.471581
  H      0.869424   -1.263165    0.287020
  H      0.488279    0.573674   -1.382567
  H      1.026483    1.749510   -0.202216
  H     -0.887504    1.133147    1.293120
  H     -1.385788    1.786314   -0.273539
  H     -3.085182   -0.063565    0.285377

 Total Charge           Charge          ....    0
 Multiplicity           Mult            ....    1
 Number of Electrons    NEL             ....   50
 Basis Dimension        Dim             ....  864

ORBITAL ENERGIES
----------------

  NO   OCC          E(Eh)            E(eV)
   0   2.0000     -91.945347     -2501.9601
   1   2.0000     -11.259261      -306.3801
   2   2.0000     -11.228535      -305.5440
   3   2.0000     -11.220105      -305.3146
   4   2.0000     -11.212712      -305.1134
   5   2.0000      -8.947580      -243.4760
   6   2.0000      -6.629172      -180.3890
   7   2.0000      -6.628261      -180.3642
   8   2.0000      -6.627345      -180.3392
   9   2.0000      -1.091686       -29.7063
  10   2.0000      -1.018940       -27.7268
  11   2.0000      -0.932139       -25.3648
  12   2.0000      -0.845221       -22.9996
  13   2.0000      -0.785350       -21.3705
  14   2.0000      -0.647426       -17.6174
  15   2.0000      -0.614447       -16.7200
  16   2.0000      -0.595176       -16.1956
  17   2.0000      -0.571769       -15.5586
  18   2.0000      -0.528184       -14.3726
  19   2.0000      -0.514704       -14.0058
  20   2.0000      -0.485209       -13.2032
  21   2.0000      -0.477584       -12.9957
  22   2.0000      -0.470245       -12.7960
  23   2.0000      -0.437946       -11.9171
  24   2.0000      -0.352761        -9.5991
  25   0.0000       0.025890         0.7045
  26   0.0000       0.030130         0.8199
  27   0.0000       0.034581         0.9410
  28   0.0000       0.036970         1.0060
  29   0.0000       0.047555         1.2940

MULLIKEN ATOMIC CHARGES
-----------------------
   0 C :   -0.848281
   1 C :   -0.330358
   2 C :   -0.323457
   3 C :   -0.484216
   4 S :   -0.215192
   5 H :    0.257158
   6 H :    0.228416
   7 H :    0.227817
   8 H :    0.225510
   9 H :    0.265446
  10 H :    0.260749
  11 H :    0.264005
  12 H :    0.212831
  13 H :    0.254881
  14 H :    0.004693
Sum of atomic charges:    0.0000000

LOEWDIN ATOMIC CHARGES
----------------------
   0 C :    0.926371
   1 C :    0.471217
   2 C :    0.402694
   3 C :    0.135839
   4 S :    1.576153
   5 H :   -0.283490
   6 H :   -0.285302
   7 H :   -0.283812
   8 H :   -0.274851
   9 H :   -0.308278
  10 H :   -0.292839
  11 H :   -0.279372
  12 H :   -0.356282
  13 H :   -0.360032
  14 H :   -0.788017

  Mayer bond orders larger than 0.100000
B(  0-C ,  1-C ) :   0.9495 B(  0-C ,  5-H ) :   1.0112 B(  0-C ,  6-H ) :   0.9536
B(  0-C ,  7-H ) :   0.9520 B(  1-C ,  2-C ) :   0.8715 B(  1-C ,  8-H ) :   0.9032
B(  1-C ,  9-H ) :   0.8769 B(  2-C ,  3-C ) :   0.9816 B(  2-C ,  4-S ) :  -0.1076
B(  2-C , 10-H ) :   0.8677 B(  2-C , 11-H ) :   0.8534 B(  3-C ,  4-S ) :   0.9170
B(  3-C , 12-H ) :   0.9339 B(  3-C , 13-H ) :   0.9638 B(  4-S , 14-H ) :   1.0742

MP2 TOTAL ENERGY:     -555.867063931 Eh
FINAL SINGLE POINT ENERGY      -555.867063931490

DIPOLE MOMENT
-------------
                                X             Y             Z
Electronic contribution:     -8.05960      -2.16974      -0.50861
Nuclear contribution   :      8.24488       2.78694       0.71358
                        -----------------------------------------
Total Dipole Moment    :      0.18528       0.61720       0.20497
                        -----------------------------------------
Magnitude (a.u.)       :      0.67622
Magnitude (Debye)      :      1.71882

Rotational constants in cm-1:     0.310060     0.055798     0.050659
Rotational constants in MHz :  9295.369299  1672.775156  1518.704158

                             ****ORCA TERMINATED NORMALLY****
TOTAL RUN TIME: 0 days 0 hours 25 minutes 26 seconds 57 msec
