                         Program Version 5.0.4 -  RELEASE  -
|  1> !ri-mp2 aug-cc-pvqz aug-cc-pvqz/c tightscf
|  2> %pal nprocs 16 end
|  3>
|  4> * xyz 0 1
|  5> C      0.000000    0.000000    1.438198
|  6> C      0.000000    0.000000   -1.438198
|  7> O      0.000000    0.000000    2.656988
|  8> O      0.000000    0.000000   -2.656988
|  9> C      0.000000    1.265716    0.667837
| 10> C      0.000000   -1.265716    0.667837
| 11> C      0.000000   -1.265716   -0.667837
| 12> C      0.000000    1.265716   -0.667837
| 13> H      0.000000    2.176019    1.252736
| 14> H      0.000000   -2.176019    1.252736
| 15> H      0.000000   -2.176019   -1.252736
| 16> H      0.000000    2.176019   -1.252736
| 17> *
| 18>
| 19>                          ****END OF INPUT****

CARTESIAN COORDINATES (ANGSTROEM)
---------------------------------
  C      0.000000    0.000000    1.438198
  C      0.000000    0.000000   -1.438198
  O      0.000000    0.000000    2.656988
  O      0.000000    0.000000   -2.656988
  C      0.000000    1.265716    0.667837
  C      0.000000   -1.265716    0.667837
  C      0.000000   -1.265716   -0.667837
  C      0.000000    1.265716   -0.667837
  H      0.000000    2.176019    1.252736
  H      0.000000   -2.176019    1.252736
  H      0.000000   -2.176019   -1.252736
  H      0.000000    2.176019   -1.252736

 Total Charge           Charge          ....    0
 Multiplicity           Mult            ....    1
 Number of Electrons    NEL             ....   56
 Basis Dimension        Dim             ....  824

ORBITAL ENERGIES
----------------

  NO   OCC          E(Eh)            E(eV)
   0   2.0000     -20.577943      -559.9543
   1   2.0000     -20.577942      -559.9543
   2   2.0000     -11.361423      -309.1600
   3   2.0000     -11.361416      -309.1598
   4   2.0000     -11.282872      -307.0226
   5   2.0000     -11.282842      -307.0217
   6   2.0000     -11.281154      -306.9758
   7   2.0000     -11.281137      -306.9753
   8   2.0000      -1.415378       -38.5144
   9   2.0000      -1.412878       -38.4464
  10   2.0000      -1.162537       -31.6343
  11   2.0000      -1.079074       -29.3631
  12   2.0000      -0.966647       -26.3038
  13   2.0000      -0.876085       -23.8395
  14   2.0000      -0.832859       -22.6632
  15   2.0000      -0.719428       -19.5766
  16   2.0000      -0.716008       -19.4836
  17   2.0000      -0.691196       -18.8084
  18   2.0000      -0.644146       -17.5281
  19   2.0000      -0.631317       -17.1790
  20   2.0000      -0.607622       -16.5342
  21   2.0000      -0.598197       -16.2778
  22   2.0000      -0.586900       -15.9704
  23   2.0000      -0.556513       -15.1435
  24   2.0000      -0.466572       -12.6961
  25   2.0000      -0.443949       -12.0805
  26   2.0000      -0.418404       -11.3854
  27   2.0000      -0.413627       -11.2554
  28   0.0000       0.001480         0.0403
  29   0.0000       0.022700         0.6177
  30   0.0000       0.025808         0.7023
  31   0.0000       0.035461         0.9649
  32   0.0000       0.042770         1.1638

MULLIKEN ATOMIC CHARGES
-----------------------
   0 C :    0.970972
   1 C :    0.970972
   2 O :   -0.735534
   3 O :   -0.735534
   4 C :   -0.449971
   5 C :   -0.449971
   6 C :   -0.449971
   7 C :   -0.449971
   8 H :    0.332252
   9 H :    0.332252
  10 H :    0.332252
  11 H :    0.332252
Sum of atomic charges:   -0.0000000

LOEWDIN ATOMIC CHARGES
----------------------
   0 C :   -0.708796
   1 C :   -0.708796
   2 O :    0.719925
   3 O :    0.719925
   4 C :    0.329944
   5 C :    0.329944
   6 C :    0.329944
   7 C :    0.329944
   8 H :   -0.335508
   9 H :   -0.335508
  10 H :   -0.335508
  11 H :   -0.335508

  Mayer bond orders larger than 0.100000
B(  0-C ,  1-C ) :   0.1315 B(  0-C ,  2-O ) :   0.7781 B(  0-C ,  4-C ) :   1.0565
B(  0-C ,  5-C ) :   1.0565 B(  0-C ,  6-C ) :  -0.1195 B(  0-C ,  7-C ) :  -0.1195
B(  1-C ,  3-O ) :   0.7781 B(  1-C ,  4-C ) :  -0.1195 B(  1-C ,  5-C ) :  -0.1195
B(  1-C ,  6-C ) :   1.0565 B(  1-C ,  7-C ) :   1.0565 B(  2-O ,  4-C ) :   0.2973
B(  2-O ,  5-C ) :   0.2973 B(  3-O ,  6-C ) :   0.2973 B(  3-O ,  7-C ) :   0.2973
B(  4-C ,  7-C ) :   1.4437 B(  4-C ,  8-H ) :   0.9301 B(  5-C ,  6-C ) :   1.4437
B(  5-C ,  9-H ) :   0.9301 B(  6-C , 10-H ) :   0.9301 B(  7-C , 11-H ) :   0.9301

MP2 TOTAL ENERGY:     -380.869975099 Eh
FINAL SINGLE POINT ENERGY      -380.869975099442

DIPOLE MOMENT
-------------
                                X             Y             Z
Electronic contribution:      0.00000      -0.00000       0.00000
Nuclear contribution   :      0.00000       0.00000       0.00000
                        -----------------------------------------
Total Dipole Moment    :      0.00000      -0.00000       0.00000
                        -----------------------------------------
Magnitude (a.u.)       :      0.00000
Magnitude (Debye)      :      0.00000

Rotational constants in cm-1:     0.175491     0.055574     0.042208
Rotational constants in MHz :  5261.080204  1666.073907  1265.360682

                             ****ORCA TERMINATED NORMALLY****
TOTAL RUN TIME: 0 days 0 hours 27 minutes 57 seconds 141 msec
