                         Program Version 5.0.4 -  RELEASE  -
|  1> !ri-mp2 aug-cc-pvqz aug-cc-pvqz/c tightscf
|  2> %pal nprocs 16 end
|  3>
|  4> * xyz 0 1
|  5> C     -2.571902    0.046888    0.020768
|  6> C     -1.848389    1.223950   -0.131564
|  7> C     -1.902431   -1.166543    0.145550
|  8> C     -0.459401    1.189827   -0.147202
|  9> C     -0.515903   -1.202319    0.120287
| 10> C      0.218670   -0.023721   -0.016122
| 11> C      1.715052   -0.135921   -0.035243
| 12> N      2.416666    1.006941    0.237137
| 13> O      2.280280   -1.184451   -0.295323
| 14> H     -3.653148    0.074322    0.035323
| 15> H     -2.364586    2.167480   -0.245942
| 16> H     -2.462548   -2.084753    0.259361
| 17> H      0.086801    2.111464   -0.297061
| 18> H      0.020859   -2.136416    0.202736
| 19> H      1.984571    1.789885    0.692283
| 20> H      3.414974    0.912074    0.317082
| 21> *
| 22>
| 23>                          ****END OF INPUT****

CARTESIAN COORDINATES (ANGSTROEM)
---------------------------------
  C     -2.571902    0.046888    0.020768
  C     -1.848389    1.223950   -0.131564
  C     -1.902431   -1.166543    0.145550
  C     -0.459401    1.189827   -0.147202
  C     -0.515903   -1.202319    0.120287
  C      0.218670   -0.023721   -0.016122
  C      1.715052   -0.135921   -0.035243
  N      2.416666    1.006941    0.237137
  O      2.280280   -1.184451   -0.295323
  H     -3.653148    0.074322    0.035323
  H     -2.364586    2.167480   -0.245942
  H     -2.462548   -2.084753    0.259361
  H      0.086801    2.111464   -0.297061
  H      0.020859   -2.136416    0.202736
  H      1.984571    1.789885    0.692283
  H      3.414974    0.912074    0.317082

 Total Charge           Charge          ....    0
 Multiplicity           Mult            ....    1
 Number of Electrons    NEL             ....   64
 Basis Dimension        Dim             .... 1042

ORBITAL ENERGIES
----------------

  NO   OCC          E(Eh)            E(eV)
   0   2.0000     -20.518416      -558.3345
   1   2.0000     -15.583923      -424.0601
   2   2.0000     -11.356779      -309.0337
   3   2.0000     -11.254601      -306.2533
   4   2.0000     -11.252434      -306.1943
   5   2.0000     -11.249881      -306.1248
   6   2.0000     -11.245795      -306.0136
   7   2.0000     -11.245246      -305.9987
   8   2.0000     -11.242783      -305.9317
   9   2.0000      -1.383342       -37.6426
  10   2.0000      -1.213977       -33.0340
  11   2.0000      -1.167179       -31.7605
  12   2.0000      -1.041503       -28.3407
  13   2.0000      -1.029943       -28.0262
  14   2.0000      -0.880445       -23.9581
  15   2.0000      -0.841851       -22.9079
  16   2.0000      -0.792574       -21.5670
  17   2.0000      -0.748505       -20.3679
  18   2.0000      -0.699025       -19.0214
  19   2.0000      -0.673912       -18.3381
  20   2.0000      -0.641279       -17.4501
  21   2.0000      -0.621777       -16.9194
  22   2.0000      -0.603430       -16.4202
  23   2.0000      -0.597047       -16.2465
  24   2.0000      -0.578150       -15.7323
  25   2.0000      -0.524566       -14.2742
  26   2.0000      -0.510559       -13.8930
  27   2.0000      -0.506329       -13.7779
  28   2.0000      -0.434062       -11.8114
  29   2.0000      -0.418148       -11.3784
  30   2.0000      -0.352885        -9.6025
  31   2.0000      -0.348683        -9.4882
  32   0.0000       0.019232         0.5233
  33   0.0000       0.025148         0.6843
  34   0.0000       0.030715         0.8358
  35   0.0000       0.040059         1.0901
  36   0.0000       0.045416         1.2358

MULLIKEN ATOMIC CHARGES
-----------------------
   0 C :   -0.325243
   1 C :   -0.455721
   2 C :   -0.431462
   3 C :    0.001022
   4 C :   -0.085688
   5 C :   -0.378062
   6 C :    1.273473
   7 N :   -0.750806
   8 O :   -0.835240
   9 H :    0.313741
  10 H :    0.262338
  11 H :    0.255147
  12 H :    0.285636
  13 H :    0.345528
  14 H :    0.341545
  15 H :    0.183792
Sum of atomic charges:    0.0000000

LOEWDIN ATOMIC CHARGES
----------------------
   0 C :    0.345476
   1 C :    0.352983
   2 C :    0.357471
   3 C :    0.330107
   4 C :    0.320931
   5 C :   -0.126340
   6 C :   -0.851035
   7 N :    1.235751
   8 O :    0.697233
   9 H :   -0.319242
  10 H :   -0.322074
  11 H :   -0.321038
  12 H :   -0.336034
  13 H :   -0.338657
  14 H :   -0.525937
  15 H :   -0.499595

  Mayer bond orders larger than 0.100000
B(  0-C ,  1-C ) :   1.2379 B(  0-C ,  2-C ) :   1.1988 B(  0-C ,  9-H ) :   1.0156
B(  1-C ,  3-C ) :   1.1714 B(  1-C ,  4-C ) :   0.1450 B(  1-C ,  5-C ) :  -0.1935
B(  1-C , 10-H ) :   1.0979 B(  1-C , 12-H ) :  -0.1020 B(  2-C ,  3-C ) :   0.1022
B(  2-C ,  4-C ) :   1.2629 B(  2-C ,  5-C ) :  -0.2271 B(  2-C , 11-H ) :   1.1090
B(  3-C ,  5-C ) :   1.1243 B(  3-C ,  6-C ) :  -0.3053 B(  3-C , 10-H ) :  -0.1078
B(  3-C , 12-H ) :   0.9353 B(  4-C ,  5-C ) :   1.1499 B(  4-C ,  6-C ) :  -0.3318
B(  4-C , 11-H ) :  -0.1208 B(  4-C , 13-H ) :   0.8850 B(  5-C ,  6-C ) :   1.1658
B(  5-C ,  8-O ) :   0.3615 B(  5-C , 12-H ) :  -0.1010 B(  6-C ,  7-N ) :   1.0706
B(  6-C ,  8-O ) :   1.0684 B(  7-N ,  8-O ) :   0.1380 B(  7-N , 14-H ) :   0.8409
B(  7-N , 15-H ) :   1.0642

MP2 TOTAL ENERGY:     -400.305322489 Eh
FINAL SINGLE POINT ENERGY      -400.305322488722

DIPOLE MOMENT
-------------
                                X             Y             Z
Electronic contribution:      2.16102      -1.52074      -0.41783
Nuclear contribution   :     -2.90021       2.79935       0.95305
                        -----------------------------------------
Total Dipole Moment    :     -0.73918       1.27861       0.53522
                        -----------------------------------------
Magnitude (a.u.)       :      1.57089
Magnitude (Debye)      :      3.99289

Rotational constants in cm-1:     0.128088     0.040569     0.031259
Rotational constants in MHz :  3839.973529  1216.221507   937.118121

                             ****ORCA TERMINATED NORMALLY****
TOTAL RUN TIME: 0 days 0 hours 47 minutes 41 seconds 977 msec
