                         Program Version 5.0.4 -  RELEASE  -
|  1> !ri-mp2 aug-cc-pvqz aug-cc-pvqz/c tightscf
|  2> %pal nprocs 16 end
|  3>
|  4> * xyz 0 1
|  5> C     -0.266056    1.055248    0.669094
|  6> C     -0.266056    1.055248   -0.669094
|  7> C     -0.266056   -0.460196    0.760307
|  8> C     -0.266056   -0.460196   -0.760307
|  9> C      0.922329   -1.012414    0.000000
| 10> H     -0.135836    1.824369    1.417771
| 11> H     -0.135836    1.824369   -1.417771
| 12> H     -0.878809   -1.079524    1.397279
| 13> H     -0.878809   -1.079524   -1.397279
| 14> H      1.855860   -0.463241    0.000000
| 15> H      1.024808   -2.092588    0.000000
| 16> *
| 17>
| 18>                          ****END OF INPUT****

CARTESIAN COORDINATES (ANGSTROEM)
---------------------------------
  C     -0.266056    1.055248    0.669094
  C     -0.266056    1.055248   -0.669094
  C     -0.266056   -0.460196    0.760307
  C     -0.266056   -0.460196   -0.760307
  C      0.922329   -1.012414    0.000000
  H     -0.135836    1.824369    1.417771
  H     -0.135836    1.824369   -1.417771
  H     -0.878809   -1.079524    1.397279
  H     -0.878809   -1.079524   -1.397279
  H      1.855860   -0.463241    0.000000
  H      1.024808   -2.092588    0.000000

 Total Charge           Charge          ....    0
 Multiplicity           Mult            ....    1
 Number of Electrons    NEL             ....   36
 Basis Dimension        Dim             ....  676

ORBITAL ENERGIES
----------------

  NO   OCC          E(Eh)            E(eV)
   0   2.0000     -11.236718      -305.7666
   1   2.0000     -11.233350      -305.6750
   2   2.0000     -11.232717      -305.6578
   3   2.0000     -11.232262      -305.6454
   4   2.0000     -11.230635      -305.6011
   5   2.0000      -1.203882       -32.7593
   6   2.0000      -0.992895       -27.0180
   7   2.0000      -0.853004       -23.2114
   8   2.0000      -0.807941       -21.9852
   9   2.0000      -0.702072       -19.1044
  10   2.0000      -0.696046       -18.9404
  11   2.0000      -0.613327       -16.6895
  12   2.0000      -0.600050       -16.3282
  13   2.0000      -0.509797       -13.8723
  14   2.0000      -0.478516       -13.0211
  15   2.0000      -0.429992       -11.7007
  16   2.0000      -0.429909       -11.6984
  17   2.0000      -0.321528        -8.7492
  18   0.0000       0.027284         0.7424
  19   0.0000       0.032166         0.8753
  20   0.0000       0.032656         0.8886
  21   0.0000       0.037162         1.0112
  22   0.0000       0.047159         1.2833

MULLIKEN ATOMIC CHARGES
-----------------------
   0 C :   -0.548375
   1 C :   -0.548375
   2 C :   -0.505036
   3 C :   -0.505036
   4 C :   -0.698238
   5 H :    0.538420
   6 H :    0.538420
   7 H :    0.509008
   8 H :    0.509008
   9 H :    0.336781
  10 H :    0.373422
Sum of atomic charges:    0.0000000

LOEWDIN ATOMIC CHARGES
----------------------
   0 C :    0.398867
   1 C :    0.398867
   2 C :    0.141908
   3 C :    0.141908
   4 C :    0.588376
   5 H :   -0.298507
   6 H :   -0.298507
   7 H :   -0.259139
   8 H :   -0.259139
   9 H :   -0.279476
  10 H :   -0.275158

  Mayer bond orders larger than 0.100000
B(  0-C ,  1-C ) :   1.9235 B(  0-C ,  2-C ) :   1.0612 B(  0-C ,  3-C ) :  -0.1009
B(  0-C ,  5-H ) :   0.6427 B(  1-C ,  2-C ) :  -0.1009 B(  1-C ,  3-C ) :   1.0612
B(  1-C ,  6-H ) :   0.6427 B(  2-C ,  3-C ) :   0.9590 B(  2-C ,  4-C ) :   1.0319
B(  2-C ,  7-H ) :   0.6549 B(  3-C ,  4-C ) :   1.0319 B(  3-C ,  8-H ) :   0.6549
B(  4-C ,  9-H ) :   0.8832 B(  4-C , 10-H ) :   0.8154

MP2 TOTAL ENERGY:     -193.658418484 Eh
FINAL SINGLE POINT ENERGY      -193.658418484012

DIPOLE MOMENT
-------------
                                X             Y             Z
Electronic contribution:     -0.79572       0.94332       0.00000
Nuclear contribution   :      0.87079      -1.09045       0.00000
                        -----------------------------------------
Total Dipole Moment    :      0.07508      -0.14714       0.00000
                        -----------------------------------------
Magnitude (a.u.)       :      0.16519
Magnitude (Debye)      :      0.41987

Rotational constants in cm-1:     0.365449     0.217370     0.174361
Rotational constants in MHz : 10955.896496  6516.578012  5227.217693

                             ****ORCA TERMINATED NORMALLY****
TOTAL RUN TIME: 0 days 0 hours 12 minutes 25 seconds 667 msec
