                         Program Version 5.0.4 -  RELEASE  -
|  1> !ri-mp2 aug-cc-pvqz aug-cc-pvqz/c tightscf
|  2> %pal nprocs 16 end
|  3>
|  4> * xyz 0 1
|  5> C     -0.252798    0.723681    0.616235
|  6> C      0.252798    1.571360   -0.551646
|  7> C      0.252798   -0.723681    0.616235
|  8> C     -0.252798   -1.571360   -0.551646
|  9> H     -0.104388    2.599202   -0.473491
| 10> H      0.083428   -1.182319   -1.513402
| 11> H     -1.344623   -1.601548   -0.570383
| 12> H     -0.083428    1.182319   -1.513402
| 13> H      0.104388   -2.599202   -0.473491
| 14> H      1.344623    1.601548   -0.570383
| 15> H     -1.347442    0.719895    0.615666
| 16> H      0.047102    1.198634    1.554079
| 17> H      1.347442   -0.719895    0.615666
| 18> H     -0.047102   -1.198634    1.554079
| 19> *
| 20>
| 21>                          ****END OF INPUT****

CARTESIAN COORDINATES (ANGSTROEM)
---------------------------------
  C     -0.252798    0.723681    0.616235
  C      0.252798    1.571360   -0.551646
  C      0.252798   -0.723681    0.616235
  C     -0.252798   -1.571360   -0.551646
  H     -0.104388    2.599202   -0.473491
  H      0.083428   -1.182319   -1.513402
  H     -1.344623   -1.601548   -0.570383
  H     -0.083428    1.182319   -1.513402
  H      0.104388   -2.599202   -0.473491
  H      1.344623    1.601548   -0.570383
  H     -1.347442    0.719895    0.615666
  H      0.047102    1.198634    1.554079
  H      1.347442   -0.719895    0.615666
  H     -0.047102   -1.198634    1.554079

 Total Charge           Charge          ....    0
 Multiplicity           Mult            ....    1
 Number of Electrons    NEL             ....   34
 Basis Dimension        Dim             ....  780

ORBITAL ENERGIES
----------------

  NO   OCC          E(Eh)            E(eV)
   0   2.0000     -11.214060      -305.1501
   1   2.0000     -11.213459      -305.1337
   2   2.0000     -11.207129      -304.9615
   3   2.0000     -11.207129      -304.9615
   4   2.0000      -1.067838       -29.0574
   5   2.0000      -0.975277       -26.5386
   6   2.0000      -0.872598       -23.7446
   7   2.0000      -0.776091       -21.1185
   8   2.0000      -0.621870       -16.9219
   9   2.0000      -0.618219       -16.8226
  10   2.0000      -0.573391       -15.6028
  11   2.0000      -0.533247       -14.5104
  12   2.0000      -0.530587       -14.4380
  13   2.0000      -0.503421       -13.6988
  14   2.0000      -0.462287       -12.5795
  15   2.0000      -0.458057       -12.4644
  16   2.0000      -0.456673       -12.4267
  17   0.0000       0.028275         0.7694
  18   0.0000       0.033157         0.9023
  19   0.0000       0.034842         0.9481
  20   0.0000       0.036045         0.9808
  21   0.0000       0.051244         1.3944

MULLIKEN ATOMIC CHARGES
-----------------------
   0 C :   -0.362330
   1 C :   -0.858083
   2 C :   -0.362330
   3 C :   -0.858083
   4 H :    0.302039
   5 H :    0.234132
   6 H :    0.212147
   7 H :    0.234132
   8 H :    0.302039
   9 H :    0.212147
  10 H :    0.212918
  11 H :    0.259177
  12 H :    0.212918
  13 H :    0.259177
Sum of atomic charges:   -0.0000000

LOEWDIN ATOMIC CHARGES
----------------------
   0 C :    0.502722
   1 C :    0.918689
   2 C :    0.502722
   3 C :    0.918689
   4 H :   -0.283592
   5 H :   -0.297793
   6 H :   -0.282152
   7 H :   -0.297793
   8 H :   -0.283592
   9 H :   -0.282152
  10 H :   -0.278555
  11 H :   -0.279319
  12 H :   -0.278555
  13 H :   -0.279319

  Mayer bond orders larger than 0.100000
B(  0-C ,  1-C ) :   0.9420 B(  0-C ,  2-C ) :   0.9103 B(  0-C , 10-H ) :   0.9094
B(  0-C , 11-H ) :   0.8875 B(  1-C ,  4-H ) :   0.9501 B(  1-C ,  7-H ) :   0.9561
B(  1-C ,  9-H ) :   0.9596 B(  2-C ,  3-C ) :   0.9420 B(  2-C , 12-H ) :   0.9094
B(  2-C , 13-H ) :   0.8875 B(  3-C ,  5-H ) :   0.9561 B(  3-C ,  6-H ) :   0.9596
B(  3-C ,  8-H ) :   0.9501

MP2 TOTAL ENERGY:     -158.131028083 Eh
FINAL SINGLE POINT ENERGY      -158.131028082853

DIPOLE MOMENT
-------------
                                X             Y             Z
Electronic contribution:      0.00000       0.00000       0.88827
Nuclear contribution   :      0.00000      -0.00000      -0.85148
                        -----------------------------------------
Total Dipole Moment    :      0.00000       0.00000       0.03680
                        -----------------------------------------
Magnitude (a.u.)       :      0.03680
Magnitude (Debye)      :      0.09353

Rotational constants in cm-1:     0.447713     0.156290     0.134036
Rotational constants in MHz : 13422.112160  4685.460288  4018.290901

                             ****ORCA TERMINATED NORMALLY****
TOTAL RUN TIME: 0 days 0 hours 17 minutes 51 seconds 936 msec
