                         Program Version 5.0.4 -  RELEASE  -
|  1> !ri-mp2 aug-cc-pvqz aug-cc-pvqz/c tightscf
|  2> %pal nprocs 16 end
|  3>
|  4> * xyz 0 1
|  5> C      2.419842   -0.781506        0.000000
|  6> C      2.384977    0.620139        0.000000
|  7> C      1.250934   -1.517608        0.000000
|  8> C      1.179130    1.298960        0.000000
|  9> C     -1.312092   -1.405181        0.000000
| 10> C     -2.275718   -0.456495        0.000000
| 11> C      0.014337   -0.856085        0.000000
| 12> C      0.000000    0.556152        0.000000
| 13> S     -1.639275    1.165435        0.000000
| 14> H      3.374674   -1.289610        0.000000
| 15> H      3.311216    1.178597        0.000000
| 16> H      1.282913   -2.599422        0.000000
| 17> H      1.154241    2.380060        0.000000
| 18> H     -1.519954   -2.465202        0.000000
| 19> H     -3.343153   -0.601646        0.000000
| 20> *
| 21>
| 22>                          ****END OF INPUT****

CARTESIAN COORDINATES (ANGSTROEM)
---------------------------------
  C      2.419842   -0.781506    0.000000
  C      2.384977    0.620139    0.000000
  C      1.250934   -1.517608    0.000000
  C      1.179130    1.298960    0.000000
  C     -1.312092   -1.405181    0.000000
  C     -2.275718   -0.456495    0.000000
  C      0.014337   -0.856085    0.000000
  C      0.000000    0.556152    0.000000
  S     -1.639275    1.165435    0.000000
  H      3.374674   -1.289610    0.000000
  H      3.311216    1.178597    0.000000
  H      1.282913   -2.599422    0.000000
  H      1.154241    2.380060    0.000000
  H     -1.519954   -2.465202    0.000000
  H     -3.343153   -0.601646    0.000000

 Total Charge           Charge          ....    0
 Multiplicity           Mult            ....    1
 Number of Electrons    NEL             ....   70
 Basis Dimension        Dim             .... 1000

ORBITAL ENERGIES
----------------

  NO   OCC          E(Eh)            E(eV)
   0   2.0000     -91.978091     -2502.8511
   1   2.0000     -11.268754      -306.6384
   2   2.0000     -11.268720      -306.6375
   3   2.0000     -11.246536      -306.0338
   4   2.0000     -11.243284      -305.9453
   5   2.0000     -11.241235      -305.8896
   6   2.0000     -11.240400      -305.8668
   7   2.0000     -11.238226      -305.8077
   8   2.0000     -11.235680      -305.7384
   9   2.0000      -8.979763      -244.3518
  10   2.0000      -6.661138      -181.2588
  11   2.0000      -6.660596      -181.2440
  12   2.0000      -6.659803      -181.2225
  13   2.0000      -1.192324       -32.4448
  14   2.0000      -1.114658       -30.3314
  15   2.0000      -1.042480       -28.3673
  16   2.0000      -0.990143       -26.9432
  17   2.0000      -0.959747       -26.1161
  18   2.0000      -0.841679       -22.9032
  19   2.0000      -0.799745       -21.7622
  20   2.0000      -0.773788       -21.0558
  21   2.0000      -0.688365       -18.7314
  22   2.0000      -0.661596       -18.0030
  23   2.0000      -0.641019       -17.4430
  24   2.0000      -0.598947       -16.2982
  25   2.0000      -0.596575       -16.2336
  26   2.0000      -0.550086       -14.9686
  27   2.0000      -0.545346       -14.8396
  28   2.0000      -0.513598       -13.9757
  29   2.0000      -0.501680       -13.6514
  30   2.0000      -0.467033       -12.7086
  31   2.0000      -0.458509       -12.4767
  32   2.0000      -0.389628       -10.6023
  33   2.0000      -0.318526        -8.6675
  34   2.0000      -0.300407        -8.1745
  35   0.0000       0.025287         0.6881
  36   0.0000       0.026285         0.7153
  37   0.0000       0.030245         0.8230
  38   0.0000       0.038707         1.0533
  39   0.0000       0.042666         1.1610

MULLIKEN ATOMIC CHARGES
-----------------------
   0 C :   -0.324855
   1 C :   -0.326864
   2 C :   -0.411989
   3 C :   -0.341250
   4 C :   -0.340589
   5 C :   -0.712960
   6 C :    0.463265
   7 C :    0.043217
   8 S :    0.024426
   9 H :    0.281315
  10 H :    0.256120
  11 H :    0.265732
  12 H :    0.380525
  13 H :    0.305290
  14 H :    0.438617
Sum of atomic charges:    0.0000000

LOEWDIN ATOMIC CHARGES
----------------------
   0 C :    0.336980
   1 C :    0.330212
   2 C :    0.349783
   3 C :    0.269029
   4 C :    0.232925
   5 C :   -0.051487
   6 C :   -0.254472
   7 C :   -0.543229
   8 S :    1.365884
   9 H :   -0.327745
  10 H :   -0.327191
  11 H :   -0.318658
  12 H :   -0.335599
  13 H :   -0.322267
  14 H :   -0.404165

  Mayer bond orders larger than 0.100000
B(  0-C ,  1-C ) :   1.1171 B(  0-C ,  2-C ) :   1.3087 B(  0-C ,  6-C ) :  -0.1877
B(  0-C ,  9-H ) :   1.0801 B(  0-C , 10-H ) :  -0.1034 B(  1-C ,  3-C ) :   1.2934
B(  1-C ,  7-C ) :  -0.1903 B(  1-C , 10-H ) :   1.1005 B(  2-C ,  3-C ) :   0.1033
B(  2-C ,  4-C ) :  -0.1023 B(  2-C ,  6-C ) :   0.9331 B(  2-C ,  9-H ) :  -0.1380
B(  2-C , 11-H ) :   1.0270 B(  3-C ,  7-C ) :   1.0527 B(  3-C ,  8-S ) :  -0.1074
B(  3-C , 10-H ) :  -0.1281 B(  3-C , 12-H ) :   0.8835 B(  4-C ,  5-C ) :   1.6071
B(  4-C ,  6-C ) :   0.8322 B(  4-C ,  7-C ) :  -0.2375 B(  4-C , 13-H ) :   1.0067
B(  5-C ,  6-C ) :  -0.1637 B(  5-C ,  7-C ) :  -0.2682 B(  5-C ,  8-S ) :   1.2188
B(  5-C , 14-H ) :   0.8502 B(  6-C ,  7-C ) :   0.8069 B(  6-C , 11-H ) :  -0.1420
B(  7-C ,  8-S ) :   0.8691

MP2 TOTAL ENERGY:     -705.640486787 Eh
FINAL SINGLE POINT ENERGY      -705.640486787182

DIPOLE MOMENT
-------------
                                X             Y             Z
Electronic contribution:     -4.13806       3.01717       0.00000
Nuclear contribution   :      4.22280      -3.36332       0.00000
                        -----------------------------------------
Total Dipole Moment    :      0.08474      -0.34615       0.00000
                        -----------------------------------------
Magnitude (a.u.)       :      0.35637
Magnitude (Debye)      :      0.90581

Rotational constants in cm-1:     0.105510     0.043608     0.030855
Rotational constants in MHz :  3163.105964  1307.346647   925.024004

                             ****ORCA TERMINATED NORMALLY****
TOTAL RUN TIME: 0 days 1 hours 7 minutes 24 seconds 287 msec
