                         Program Version 5.0.4 -  RELEASE  -
|  1> !ri-mp2 aug-cc-pvqz aug-cc-pvqz/c tightscf
|  2> %pal nprocs 16 end
|  3>
|  4> * xyz 0 1
|  5> C      2.295875   -0.194875    0.152817
|  6> C      1.760211    1.086177    0.147384
|  7> C      1.459304   -1.293258   -0.029852
|  8> C      0.392585    1.267430   -0.038587
|  9> C      0.097012   -1.108725   -0.219163
| 10> C     -0.452614    0.175941   -0.226405
| 11> C     -1.935484    0.370754   -0.429766
| 12> O     -2.736278   -0.345146    0.513236
| 13> H      3.357833   -0.339687    0.298826
| 14> H      2.403036    1.944269    0.291616
| 15> H      1.872130   -2.293318   -0.028077
| 16> H     -0.021144    2.268461   -0.038507
| 17> H     -0.552474   -1.963339   -0.357038
| 18> H     -2.174626    1.438864   -0.408291
| 19> H     -2.241931   -0.013856   -1.403463
| 20> H     -2.453932   -0.100885    1.400478
| 21> *
| 22>
| 23>                          ****END OF INPUT****

CARTESIAN COORDINATES (ANGSTROEM)
---------------------------------
  C      2.295875   -0.194875    0.152817
  C      1.760211    1.086177    0.147384
  C      1.459304   -1.293258   -0.029852
  C      0.392585    1.267430   -0.038587
  C      0.097012   -1.108725   -0.219163
  C     -0.452614    0.175941   -0.226405
  C     -1.935484    0.370754   -0.429766
  O     -2.736278   -0.345146    0.513236
  H      3.357833   -0.339687    0.298826
  H      2.403036    1.944269    0.291616
  H      1.872130   -2.293318   -0.028077
  H     -0.021144    2.268461   -0.038507
  H     -0.552474   -1.963339   -0.357038
  H     -2.174626    1.438864   -0.408291
  H     -2.241931   -0.013856   -1.403463
  H     -2.453932   -0.100885    1.400478

 Total Charge           Charge          ....    0
 Multiplicity           Mult            ....    1
 Number of Electrons    NEL             ....   58
 Basis Dimension        Dim             .... 1008

ORBITAL ENERGIES
----------------

  NO   OCC          E(Eh)            E(eV)
   0   2.0000     -20.557641      -559.4018
   1   2.0000     -11.282684      -307.0174
   2   2.0000     -11.241195      -305.8885
   3   2.0000     -11.238012      -305.8019
   4   2.0000     -11.237249      -305.7811
   5   2.0000     -11.236690      -305.7659
   6   2.0000     -11.235670      -305.7381
   7   2.0000     -11.234119      -305.6959
   8   2.0000      -1.359244       -36.9869
   9   2.0000      -1.158966       -31.5371
  10   2.0000      -1.041862       -28.3505
  11   2.0000      -1.019403       -27.7394
  12   2.0000      -0.922937       -25.1144
  13   2.0000      -0.832916       -22.6648
  14   2.0000      -0.807738       -21.9797
  15   2.0000      -0.712905       -19.3991
  16   2.0000      -0.682272       -18.5656
  17   2.0000      -0.649465       -17.6728
  18   2.0000      -0.622484       -16.9387
  19   2.0000      -0.607490       -16.5306
  20   2.0000      -0.595977       -16.2174
  21   2.0000      -0.588407       -16.0114
  22   2.0000      -0.535395       -14.5688
  23   2.0000      -0.506372       -13.7791
  24   2.0000      -0.499205       -13.5840
  25   2.0000      -0.483100       -13.1458
  26   2.0000      -0.453201       -12.3322
  27   2.0000      -0.342085        -9.3086
  28   2.0000      -0.336238        -9.1495
  29   0.0000       0.024214         0.6589
  30   0.0000       0.028448         0.7741
  31   0.0000       0.031146         0.8475
  32   0.0000       0.039296         1.0693
  33   0.0000       0.041917         1.1406

MULLIKEN ATOMIC CHARGES
-----------------------
   0 C :   -0.355708
   1 C :   -0.328053
   2 C :   -0.295666
   3 C :   -0.512453
   4 C :   -0.343931
   5 C :    0.254941
   6 C :    0.159119
   7 O :   -0.864140
   8 H :    0.314266
   9 H :    0.250933
  10 H :    0.252294
  11 H :    0.271022
  12 H :    0.369587
  13 H :    0.187407
  14 H :    0.292113
  15 H :    0.348271
Sum of atomic charges:    0.0000000

LOEWDIN ATOMIC CHARGES
----------------------
   0 C :    0.335892
   1 C :    0.342651
   2 C :    0.344880
   3 C :    0.338605
   4 C :    0.337763
   5 C :   -0.092729
   6 C :    0.168878
   7 O :    1.266059
   8 H :   -0.324820
   9 H :   -0.323646
  10 H :   -0.323027
  11 H :   -0.323530
  12 H :   -0.315395
  13 H :   -0.323216
  14 H :   -0.317080
  15 H :   -0.791283

  Mayer bond orders larger than 0.100000
B(  0-C ,  1-C ) :   1.1796 B(  0-C ,  2-C ) :   1.1411 B(  0-C ,  8-H ) :   1.0226
B(  0-C ,  9-H ) :  -0.1009 B(  1-C ,  3-C ) :   1.3823 B(  1-C ,  4-C ) :   0.1351
B(  1-C ,  5-C ) :  -0.3630 B(  1-C ,  9-H ) :   1.1151 B(  2-C ,  3-C ) :   0.1575
B(  2-C ,  4-C ) :   1.3417 B(  2-C ,  5-C ) :  -0.2568 B(  2-C , 10-H ) :   1.0963
B(  3-C ,  5-C ) :   0.9421 B(  3-C ,  6-C ) :  -0.1044 B(  3-C ,  9-H ) :  -0.1162
B(  3-C , 11-H ) :   0.9884 B(  4-C ,  5-C ) :   1.0263 B(  4-C ,  6-C ) :  -0.1105
B(  4-C , 10-H ) :  -0.1073 B(  4-C , 12-H ) :   0.8958 B(  5-C ,  6-C ) :   0.8447
B(  5-C , 13-H ) :  -0.1308 B(  6-C ,  7-O ) :   0.5914 B(  6-C , 13-H ) :   1.0781
B(  6-C , 14-H ) :   0.8696 B(  7-O , 15-H ) :   0.8751

MP2 TOTAL ENERGY:     -346.193219653 Eh
FINAL SINGLE POINT ENERGY      -346.193219652839

DIPOLE MOMENT
-------------
                                X             Y             Z
Electronic contribution:      0.38591      -0.56397       0.35875
Nuclear contribution   :      0.14682       0.94188      -0.23809
                        -----------------------------------------
Total Dipole Moment    :      0.53273       0.37791       0.12066
                        -----------------------------------------
Magnitude (a.u.)       :      0.66421
Magnitude (Debye)      :      1.68829

Rotational constants in cm-1:     0.159517     0.048877     0.039632
Rotational constants in MHz :  4782.193647  1465.305170  1188.140529

                             ****ORCA TERMINATED NORMALLY****
TOTAL RUN TIME: 0 days 0 hours 49 minutes 25 seconds 819 msec
