                         Program Version 5.0.4 -  RELEASE  -
|  1> !ri-mp2 aug-cc-pvqz aug-cc-pvqz/c tightscf
|  2> %pal nprocs 16 end
|  3>
|  4> * xyz 0 1
|  5> C     -0.275084   -0.023840    0.000001
|  6> C     -1.476686    0.011199   -0.000006
|  7> C      1.173929   -0.141273    0.000002
|  8> C     -2.928915    0.034761    0.000001
|  9> N      1.835717    1.050955    0.000032
| 10> O      1.744529   -1.217101   -0.000005
| 11> H     -3.308404    0.552873    0.882157
| 12> H     -3.334521   -0.977755   -0.000225
| 13> H     -3.308412    0.553273   -0.881917
| 14> H      2.841046    1.040814   -0.000076
| 15> H      1.344570    1.925831   -0.000104
| 16> *
| 17>
| 18>                          ****END OF INPUT****

CARTESIAN COORDINATES (ANGSTROEM)
---------------------------------
  C     -0.275084   -0.023840    0.000001
  C     -1.476686    0.011199   -0.000006
  C      1.173929   -0.141273    0.000002
  C     -2.928915    0.034761    0.000001
  N      1.835717    1.050955    0.000032
  O      1.744529   -1.217101   -0.000005
  H     -3.308404    0.552873    0.882157
  H     -3.334521   -0.977755   -0.000225
  H     -3.308412    0.553273   -0.881917
  H      2.841046    1.040814   -0.000076
  H      1.344570    1.925831   -0.000104

 Total Charge           Charge          ....    0
 Multiplicity           Mult            ....    1
 Number of Electrons    NEL             ....   44
 Basis Dimension        Dim             ....  710

ORBITAL ENERGIES
----------------

  NO   OCC          E(Eh)            E(eV)
   0   2.0000     -20.524942      -558.5121
   1   2.0000     -15.590239      -424.2320
   2   2.0000     -11.376889      -309.5809
   3   2.0000     -11.262904      -306.4792
   4   2.0000     -11.259741      -306.3931
   5   2.0000     -11.235810      -305.7419
   6   2.0000      -1.388834       -37.7921
   7   2.0000      -1.219824       -33.1931
   8   2.0000      -1.081772       -29.4365
   9   2.0000      -0.990651       -26.9570
  10   2.0000      -0.872621       -23.7452
  11   2.0000      -0.759281       -20.6611
  12   2.0000      -0.697424       -18.9779
  13   2.0000      -0.651838       -17.7374
  14   2.0000      -0.617060       -16.7910
  15   2.0000      -0.609206       -16.5773
  16   2.0000      -0.606898       -16.5145
  17   2.0000      -0.583763       -15.8850
  18   2.0000      -0.453260       -12.3338
  19   2.0000      -0.420717       -11.4483
  20   2.0000      -0.400058       -10.8861
  21   2.0000      -0.399937       -10.8828
  22   0.0000       0.018969         0.5162
  23   0.0000       0.026251         0.7143
  24   0.0000       0.038592         1.0501
  25   0.0000       0.039794         1.0829
  26   0.0000       0.049789         1.3548

MULLIKEN ATOMIC CHARGES
-----------------------
   0 C :   -0.265224
   1 C :   -0.051935
   2 C :    1.025664
   3 C :   -0.536968
   4 N :   -0.641985
   5 O :   -0.757877
   6 H :    0.235499
   7 H :    0.227815
   8 H :    0.235498
   9 H :    0.213393
  10 H :    0.316120
Sum of atomic charges:   -0.0000000

LOEWDIN ATOMIC CHARGES
----------------------
   0 C :    0.069789
   1 C :    0.152527
   2 C :   -0.966942
   3 C :    0.849792
   4 N :    1.199393
   5 O :    0.645575
   6 H :   -0.314747
   7 H :   -0.313299
   8 H :   -0.314747
   9 H :   -0.501087
  10 H :   -0.506256

  Mayer bond orders larger than 0.100000
B(  0-C ,  1-C ) :   3.0244 B(  0-C ,  2-C ) :   1.0664 B(  0-C ,  4-N ) :  -0.1425
B(  0-C ,  5-O ) :   0.1817 B(  1-C ,  3-C ) :   0.6159 B(  1-C ,  7-H ) :  -0.1031
B(  2-C ,  4-N ) :   1.1504 B(  2-C ,  5-O ) :   1.2292 B(  3-C ,  6-H ) :   0.9969
B(  3-C ,  7-H ) :   1.0223 B(  3-C ,  8-H ) :   0.9969 B(  4-N ,  5-O ) :   0.1680
B(  4-N ,  9-H ) :   1.0192 B(  4-N , 10-H ) :   0.9028

MP2 TOTAL ENERGY:     -284.922854386 Eh
FINAL SINGLE POINT ENERGY      -284.922854385922

DIPOLE MOMENT
-------------
                                X             Y             Z
Electronic contribution:      4.71704      -1.51433       0.00003
Nuclear contribution   :     -5.69610       3.06515      -0.00016
                        -----------------------------------------
Total Dipole Moment    :     -0.97906       1.55082      -0.00014
                        -----------------------------------------
Magnitude (a.u.)       :      1.83402
Magnitude (Debye)      :      4.66170

Rotational constants in cm-1:     0.357153     0.058718     0.050905
Rotational constants in MHz : 10707.170596  1760.335423  1526.107154

                             ****ORCA TERMINATED NORMALLY****
TOTAL RUN TIME: 0 days 0 hours 9 minutes 51 seconds 302 msec
