                         Program Version 5.0.4 -  RELEASE  -
|  1> !ri-mp2 aug-cc-pvqz aug-cc-pvqz/c tightscf
|  2> %pal nprocs 16 end
|  3>
|  4> * xyz 0 1
|  5> H     -1.102142   -2.369592    0.000000
|  6> H     -1.825210   -0.706722    0.000000
|  7> C     -0.167576    1.451617    0.000000
|  8> H     -1.252508    1.558566    0.000000
|  9> H      0.244759    2.460062    0.000000
| 10> C      0.285460    0.631379    1.227651
| 11> H     -0.356020    0.801607    2.094810
| 12> H      1.301459    0.910417    1.518369
| 13> C      0.285460    0.631379   -1.227651
| 14> H      1.301459    0.910417   -1.518369
| 15> H     -0.356020    0.801607   -2.094810
| 16> C     -0.922260   -1.303615    0.000000
| 17> C      0.285460   -0.812956    0.755445
| 18> H      0.866098   -1.537728    1.309572
| 19> C      0.285460   -0.812956   -0.755445
| 20> H      0.866098   -1.537728   -1.309572
| 21> *
| 22>
| 23>                          ****END OF INPUT****

CARTESIAN COORDINATES (ANGSTROEM)
---------------------------------
  H     -1.102142   -2.369592    0.000000
  H     -1.825210   -0.706722    0.000000
  C     -0.167576    1.451617    0.000000
  H     -1.252508    1.558566    0.000000
  H      0.244759    2.460062    0.000000
  C      0.285460    0.631379    1.227651
  H     -0.356020    0.801607    2.094810
  H      1.301459    0.910417    1.518369
  C      0.285460    0.631379   -1.227651
  H      1.301459    0.910417   -1.518369
  H     -0.356020    0.801607   -2.094810
  C     -0.922260   -1.303615    0.000000
  C      0.285460   -0.812956    0.755445
  H      0.866098   -1.537728    1.309572
  C      0.285460   -0.812956   -0.755445
  H      0.866098   -1.537728   -1.309572

 Total Charge           Charge          ....    0
 Multiplicity           Mult            ....    1
 Number of Electrons    NEL             ....   46
 Basis Dimension        Dim             ....  940

ORBITAL ENERGIES
----------------

  NO   OCC          E(Eh)            E(eV)
   0   2.0000     -11.219537      -305.2991
   1   2.0000     -11.218815      -305.2795
   2   2.0000     -11.215057      -305.1772
   3   2.0000     -11.214941      -305.1741
   4   2.0000     -11.214661      -305.1664
   5   2.0000     -11.213536      -305.1358
   6   2.0000      -1.167358       -31.7654
   7   2.0000      -1.021191       -27.7880
   8   2.0000      -0.956092       -26.0166
   9   2.0000      -0.843079       -22.9413
  10   2.0000      -0.758049       -20.6276
  11   2.0000      -0.746214       -20.3055
  12   2.0000      -0.683989       -18.6123
  13   2.0000      -0.625822       -17.0295
  14   2.0000      -0.590532       -16.0692
  15   2.0000      -0.560053       -15.2398
  16   2.0000      -0.546886       -14.8815
  17   2.0000      -0.492647       -13.4056
  18   2.0000      -0.474180       -12.9031
  19   2.0000      -0.469437       -12.7740
  20   2.0000      -0.462338       -12.5809
  21   2.0000      -0.399652       -10.8751
  22   2.0000      -0.385408       -10.4875
  23   0.0000       0.026756         0.7281
  24   0.0000       0.031999         0.8707
  25   0.0000       0.033030         0.8988
  26   0.0000       0.033539         0.9126
  27   0.0000       0.048536         1.3207

MULLIKEN ATOMIC CHARGES
-----------------------
   0 H :    0.325344
   1 H :    0.268914
   2 C :   -0.401326
   3 H :    0.186574
   4 H :    0.320111
   5 C :   -0.595418
   6 H :    0.269591
   7 H :    0.212887
   8 C :   -0.595418
   9 H :    0.212887
  10 H :    0.269591
  11 C :   -0.795742
  12 C :   -0.284375
  13 H :    0.445377
  14 C :   -0.284375
  15 H :    0.445377
Sum of atomic charges:   -0.0000000

LOEWDIN ATOMIC CHARGES
----------------------
   0 H :   -0.268267
   1 H :   -0.276627
   2 C :    0.529278
   3 H :   -0.276706
   4 H :   -0.257779
   5 C :    0.546752
   6 H :   -0.258256
   7 H :   -0.266962
   8 C :    0.546752
   9 H :   -0.266962
  10 H :   -0.258256
  11 C :    0.615986
  12 C :    0.192391
  13 H :   -0.246868
  14 C :    0.192391
  15 H :   -0.246868

  Mayer bond orders larger than 0.100000
B(  0-H , 11-C ) :   0.9439 B(  1-H , 11-C ) :   0.9345 B(  2-C ,  3-H ) :   0.9536
B(  2-C ,  4-H ) :   0.8757 B(  2-C ,  5-C ) :   0.9565 B(  2-C ,  8-C ) :   0.9565
B(  5-C ,  6-H ) :   0.9249 B(  5-C ,  7-H ) :   1.0065 B(  5-C , 12-C ) :   0.7440
B(  8-C ,  9-H ) :   1.0065 B(  8-C , 10-H ) :   0.9249 B(  8-C , 14-C ) :   0.7440
B( 11-C , 12-C ) :   0.9788 B( 11-C , 14-C ) :   0.9788 B( 12-C , 13-H ) :   0.7628
B( 12-C , 14-C ) :   0.9035 B( 14-C , 15-H ) :   0.7628

MP2 TOTAL ENERGY:     -234.178622698 Eh
FINAL SINGLE POINT ENERGY      -234.178622698136

DIPOLE MOMENT
-------------
                                X             Y             Z
Electronic contribution:      0.39728      -1.33138      -0.00000
Nuclear contribution   :     -0.32815       1.35762       0.00000
                        -----------------------------------------
Total Dipole Moment    :      0.06913       0.02624      -0.00000
                        -----------------------------------------
Magnitude (a.u.)       :      0.07394
Magnitude (Debye)      :      0.18794

Rotational constants in cm-1:     0.185897     0.141100     0.103726
Rotational constants in MHz :  5573.039996  4230.078504  3109.633443

                             ****ORCA TERMINATED NORMALLY****
TOTAL RUN TIME: 0 days 0 hours 40 minutes 25 seconds 500 msec
