                         Program Version 5.0.4 -  RELEASE  -
|  1> !ri-mp2 aug-cc-pvqz aug-cc-pvqz/c tightscf
|  2> %pal nprocs 16 end
|  3>
|  4> * xyz 0 1
|  5> C      0.000000    1.455634   -0.133697
|  6> C      0.000000    0.700529    1.053581
|  7> C      0.000000   -0.700529    1.053581
|  8> C      0.000000   -1.455634   -0.133697
|  9> C      0.000000   -0.620534   -1.230930
| 10> C      0.000000    0.620534   -1.230930
| 11> H      0.000000    2.535415   -0.135167
| 12> H      0.000000    1.224463    2.001444
| 13> H      0.000000   -1.224463    2.001444
| 14> H      0.000000   -2.535415   -0.135167
| 15> *
| 16>
| 17>                          ****END OF INPUT****

CARTESIAN COORDINATES (ANGSTROEM)
---------------------------------
  C      0.000000    1.455634   -0.133697
  C      0.000000    0.700529    1.053581
  C      0.000000   -0.700529    1.053581
  C      0.000000   -1.455634   -0.133697
  C      0.000000   -0.620534   -1.230930
  C      0.000000    0.620534   -1.230930
  H      0.000000    2.535415   -0.135167
  H      0.000000    1.224463    2.001444
  H      0.000000   -1.224463    2.001444
  H      0.000000   -2.535415   -0.135167

 Total Charge           Charge          ....    0
 Multiplicity           Mult            ....    1
 Number of Electrons    NEL             ....   40
 Basis Dimension        Dim             ....  664

ORBITAL ENERGIES
----------------

  NO   OCC          E(Eh)            E(eV)
   0   2.0000     -11.273929      -306.7792
   1   2.0000     -11.273917      -306.7789
   2   2.0000     -11.252971      -306.2089
   3   2.0000     -11.251787      -306.1767
   4   2.0000     -11.249368      -306.1109
   5   2.0000     -11.246238      -306.0257
   6   2.0000      -1.178376       -32.0652
   7   2.0000      -1.032412       -28.0934
   8   2.0000      -1.018516       -27.7152
   9   2.0000      -0.850984       -23.1565
  10   2.0000      -0.796676       -21.6787
  11   2.0000      -0.695496       -18.9254
  12   2.0000      -0.647733       -17.6257
  13   2.0000      -0.637146       -17.3376
  14   2.0000      -0.555033       -15.1032
  15   2.0000      -0.550628       -14.9834
  16   2.0000      -0.531617       -14.4660
  17   2.0000      -0.376657       -10.2493
  18   2.0000      -0.357846        -9.7375
  19   2.0000      -0.355499        -9.6736
  20   0.0000       0.024543         0.6679
  21   0.0000       0.028196         0.7672
  22   0.0000       0.034139         0.9290
  23   0.0000       0.041223         1.1217
  24   0.0000       0.057859         1.5744

MULLIKEN ATOMIC CHARGES
-----------------------
   0 C :   -0.243390
   1 C :   -0.335196
   2 C :   -0.335196
   3 C :   -0.243390
   4 C :   -0.264038
   5 C :   -0.264038
   6 H :    0.551434
   7 H :    0.291189
   8 H :    0.291189
   9 H :    0.551434
Sum of atomic charges:    0.0000000

LOEWDIN ATOMIC CHARGES
----------------------
   0 C :    0.256860
   1 C :    0.291626
   2 C :    0.291626
   3 C :    0.256860
   4 C :    0.121797
   5 C :    0.121797
   6 H :   -0.342636
   7 H :   -0.327647
   8 H :   -0.327647
   9 H :   -0.342636

  Mayer bond orders larger than 0.100000
B(  0-C ,  1-C ) :   1.3065 B(  0-C ,  5-C ) :   1.2874 B(  0-C ,  6-H ) :   0.6858
B(  1-C ,  2-C ) :   1.1664 B(  1-C ,  4-C ) :   0.1566 B(  1-C ,  7-H ) :   1.0194
B(  1-C ,  8-H ) :  -0.1039 B(  2-C ,  3-C ) :   1.3065 B(  2-C ,  5-C ) :   0.1566
B(  2-C ,  7-H ) :  -0.1039 B(  2-C ,  8-H ) :   1.0194 B(  3-C ,  4-C ) :   1.2874
B(  3-C ,  9-H ) :   0.6858 B(  4-C ,  5-C ) :   2.5778

MP2 TOTAL ENERGY:     -230.490436677 Eh
FINAL SINGLE POINT ENERGY      -230.490436676776

DIPOLE MOMENT
-------------
                                X             Y             Z
Electronic contribution:     -0.00000       0.00000      -2.96563
Nuclear contribution   :      0.00000       0.00000       3.68473
                        -----------------------------------------
Total Dipole Moment    :     -0.00000       0.00000       0.71909
                        -----------------------------------------
Magnitude (a.u.)       :      0.71909
Magnitude (Debye)      :      1.82779

Rotational constants in cm-1:     0.236022     0.191738     0.105794
Rotational constants in MHz :  7075.753978  5748.163081  3171.619685

                             ****ORCA TERMINATED NORMALLY****
TOTAL RUN TIME: 0 days 0 hours 13 minutes 31 seconds 188 msec
