                         Program Version 5.0.4 -  RELEASE  -
|  1> !ri-mp2 aug-cc-pvqz aug-cc-pvqz/c tightscf
|  2> %pal nprocs 16 end
|  3>
|  4> * xyz 0 1
|  5> H      2.844792   -0.788170    0.777220
|  6> H      3.404575    0.345604   -0.245141
|  7> N      2.637944   -0.294370   -0.082906
|  8> H      1.280732    1.064160    0.901267
|  9> H      1.287489    1.091764   -0.849294
| 10> C      1.367895    0.430365    0.012626
| 11> H      0.282574   -1.185743   -0.904827
| 12> H      0.265487   -1.235933    0.844398
| 13> C      0.206748   -0.556935   -0.013182
| 14> O     -1.337293    1.297083    0.023560
| 15> C     -1.152003    0.113743    0.002622
| 16> H     -1.923395   -1.652577   -0.039753
| 17> O     -2.218170   -0.734777   -0.013051
| 18> *
| 19>
| 20>                          ****END OF INPUT****

CARTESIAN COORDINATES (ANGSTROEM)
---------------------------------
  H      2.844792   -0.788170    0.777220
  H      3.404575    0.345604   -0.245141
  N      2.637944   -0.294370   -0.082906
  H      1.280732    1.064160    0.901267
  H      1.287489    1.091764   -0.849294
  C      1.367895    0.430365    0.012626
  H      0.282574   -1.185743   -0.904827
  H      0.265487   -1.235933    0.844398
  C      0.206748   -0.556935   -0.013182
  O     -1.337293    1.297083    0.023560
  C     -1.152003    0.113743    0.002622
  H     -1.923395   -1.652577   -0.039753
  O     -2.218170   -0.734777   -0.013051

 Total Charge           Charge          ....    0
 Multiplicity           Mult            ....    1
 Number of Electrons    NEL             ....   48
 Basis Dimension        Dim             ....  802

ORBITAL ENERGIES
----------------

  NO   OCC          E(Eh)            E(eV)
   0   2.0000     -20.610382      -560.8370
   1   2.0000     -20.544451      -559.0429
   2   2.0000     -15.552229      -423.1977
   3   2.0000     -11.385591      -309.8177
   4   2.0000     -11.263646      -306.4994
   5   2.0000     -11.256901      -306.3159
   6   2.0000      -1.459002       -39.7015
   7   2.0000      -1.365216       -37.1494
   8   2.0000      -1.193321       -32.4719
   9   2.0000      -1.045425       -28.4475
  10   2.0000      -0.880462       -23.9586
  11   2.0000      -0.819330       -22.2951
  12   2.0000      -0.728975       -19.8364
  13   2.0000      -0.685775       -18.6609
  14   2.0000      -0.664188       -18.0735
  15   2.0000      -0.644277       -17.5317
  16   2.0000      -0.623006       -16.9529
  17   2.0000      -0.597399       -16.2560
  18   2.0000      -0.563347       -15.3294
  19   2.0000      -0.534837       -14.5537
  20   2.0000      -0.511307       -13.9134
  21   2.0000      -0.482564       -13.1312
  22   2.0000      -0.452855       -12.3228
  23   2.0000      -0.405750       -11.0410
  24   0.0000       0.018307         0.4981
  25   0.0000       0.026314         0.7160
  26   0.0000       0.034152         0.9293
  27   0.0000       0.041056         1.1172
  28   0.0000       0.050266         1.3678

MULLIKEN ATOMIC CHARGES
-----------------------
   0 H :    0.265405
   1 H :    0.208674
   2 N :   -0.753701
   3 H :    0.267927
   4 H :    0.284527
   5 C :   -0.134610
   6 H :    0.263346
   7 H :    0.245319
   8 C :   -0.650505
   9 O :   -0.778016
  10 C :    1.195576
  11 H :    0.371129
  12 O :   -0.785070
Sum of atomic charges:   -0.0000000

LOEWDIN ATOMIC CHARGES
----------------------
   0 H :   -0.509826
   1 H :   -0.507979
   2 N :    1.285131
   3 H :   -0.276673
   4 H :   -0.297091
   5 C :    0.327401
   6 H :   -0.286325
   7 H :   -0.283924
   8 C :    0.442588
   9 O :    0.687476
  10 C :   -1.006074
  11 H :   -0.817768
  12 O :    1.243065

  Mayer bond orders larger than 0.100000
B(  0-H ,  2-N ) :   0.8864 B(  1-H ,  2-N ) :   0.9811 B(  2-N ,  5-C ) :   0.9489
B(  3-H ,  5-C ) :   0.8730 B(  4-H ,  5-C ) :   0.8700 B(  5-C ,  8-C ) :   1.0121
B(  6-H ,  8-C ) :   0.8617 B(  7-H ,  8-C ) :   0.8836 B(  8-C ,  9-O ) :   0.1396
B(  8-C , 10-C ) :   1.1395 B(  9-O , 10-C ) :   1.4401 B( 10-C , 12-O ) :   0.6864
B( 11-H , 12-O ) :   0.8368

MP2 TOTAL ENERGY:     -323.290686427 Eh
FINAL SINGLE POINT ENERGY      -323.290686426654

DIPOLE MOMENT
-------------
                                X             Y             Z
Electronic contribution:     -6.41868       1.17941      -0.14079
Nuclear contribution   :      7.48921      -2.38159       0.48927
                        -----------------------------------------
Total Dipole Moment    :      1.07053      -1.20218       0.34848
                        -----------------------------------------
Magnitude (a.u.)       :      1.64704
Magnitude (Debye)      :      4.18643

Rotational constants in cm-1:     0.304285     0.061500     0.052386
Rotational constants in MHz :  9122.234882  1843.737930  1570.494781

                             ****ORCA TERMINATED NORMALLY****
TOTAL RUN TIME: 0 days 0 hours 14 minutes 43 seconds 717 msec
