                         Program Version 5.0.4 -  RELEASE  -
|  1> !ri-mp2 aug-cc-pvqz aug-cc-pvqz/c tightscf
|  2> %pal nprocs 16 end
|  3>
|  4> * xyz 0 1
|  5> C      0.307786   -2.544530        0.000000
|  6> C      1.429809   -1.720826        0.000000
|  7> C     -0.966751   -1.987681        0.000000
|  8> C      1.277760   -0.342753        0.000000
|  9> C     -1.123948   -0.608404        0.000000
| 10> C      0.000000    0.220374        0.000000
| 11> C     -0.110623    1.700856        0.000000
| 12> O      0.823931    2.465863        0.000000
| 13> O     -1.394622    2.140425        0.000000
| 14> H      0.427051   -3.619739        0.000000
| 15> H      2.420556   -2.154119        0.000000
| 16> H     -1.837930   -2.628373        0.000000
| 17> H      2.135639    0.314086        0.000000
| 18> H     -2.111190   -0.171656        0.000000
| 19> H     -1.352794    3.107284        0.000000
| 20> *
| 21>
| 22>                          ****END OF INPUT****

CARTESIAN COORDINATES (ANGSTROEM)
---------------------------------
  C      0.307786   -2.544530    0.000000
  C      1.429809   -1.720826    0.000000
  C     -0.966751   -1.987681    0.000000
  C      1.277760   -0.342753    0.000000
  C     -1.123948   -0.608404    0.000000
  C      0.000000    0.220374    0.000000
  C     -0.110623    1.700856    0.000000
  O      0.823931    2.465863    0.000000
  O     -1.394622    2.140425    0.000000
  H      0.427051   -3.619739    0.000000
  H      2.420556   -2.154119    0.000000
  H     -1.837930   -2.628373    0.000000
  H      2.135639    0.314086    0.000000
  H     -2.111190   -0.171656    0.000000
  H     -1.352794    3.107284    0.000000

 Total Charge           Charge          ....    0
 Multiplicity           Mult            ....    1
 Number of Electrons    NEL             ....   64
 Basis Dimension        Dim             ....  996

ORBITAL ENERGIES
----------------

  NO   OCC          E(Eh)            E(eV)
   0   2.0000     -20.611199      -560.8592
   1   2.0000     -20.546011      -559.0854
   2   2.0000     -11.390075      -309.9397
   3   2.0000     -11.256127      -306.2948
   4   2.0000     -11.254668      -306.2551
   5   2.0000     -11.254547      -306.2518
   6   2.0000     -11.251868      -306.1789
   7   2.0000     -11.245706      -306.0112
   8   2.0000     -11.244976      -305.9914
   9   2.0000      -1.465325       -39.8735
  10   2.0000      -1.360904       -37.0321
  11   2.0000      -1.172998       -31.9189
  12   2.0000      -1.051532       -28.6136
  13   2.0000      -1.032863       -28.1056
  14   2.0000      -0.901048       -24.5188
  15   2.0000      -0.845952       -23.0195
  16   2.0000      -0.804339       -21.8872
  17   2.0000      -0.733982       -19.9727
  18   2.0000      -0.706318       -19.2199
  19   2.0000      -0.677882       -18.4461
  20   2.0000      -0.641916       -17.4674
  21   2.0000      -0.635366       -17.2892
  22   2.0000      -0.629219       -17.1219
  23   2.0000      -0.605955       -16.4889
  24   2.0000      -0.588060       -16.0019
  25   2.0000      -0.528908       -14.3923
  26   2.0000      -0.521055       -14.1786
  27   2.0000      -0.508697       -13.8424
  28   2.0000      -0.486632       -13.2419
  29   2.0000      -0.458285       -12.4706
  30   2.0000      -0.356840        -9.7101
  31   2.0000      -0.351843        -9.5741
  32   0.0000       0.022471         0.6115
  33   0.0000       0.027620         0.7516
  34   0.0000       0.030619         0.8332
  35   0.0000       0.040357         1.0982
  36   0.0000       0.046174         1.2564

MULLIKEN ATOMIC CHARGES
-----------------------
   0 C :   -0.309749
   1 C :   -0.351465
   2 C :   -0.389546
   3 C :   -0.061517
   4 C :   -0.174643
   5 C :   -0.649333
   6 C :    1.543685
   7 O :   -0.789851
   8 O :   -0.653564
   9 H :    0.309832
  10 H :    0.274739
  11 H :    0.265929
  12 H :    0.329976
  13 H :    0.341650
  14 H :    0.313857
Sum of atomic charges:    0.0000000

LOEWDIN ATOMIC CHARGES
----------------------
   0 C :    0.347088
   1 C :    0.357436
   2 C :    0.354240
   3 C :    0.316198
   4 C :    0.325000
   5 C :   -0.154517
   6 C :   -1.041047
   7 O :    0.706065
   8 O :    1.244231
   9 H :   -0.317309
  10 H :   -0.322042
  11 H :   -0.322742
  12 H :   -0.336431
  13 H :   -0.342056
  14 H :   -0.814113

  Mayer bond orders larger than 0.100000
B(  0-C ,  1-C ) :   1.1843 B(  0-C ,  2-C ) :   1.2111 B(  0-C ,  5-C ) :   0.1059
B(  0-C ,  9-H ) :   1.0102 B(  1-C ,  3-C ) :   1.2978 B(  1-C ,  4-C ) :   0.1209
B(  1-C ,  5-C ) :  -0.2990 B(  1-C , 10-H ) :   1.0848 B(  2-C ,  3-C ) :   0.1215
B(  2-C ,  4-C ) :   1.2439 B(  2-C ,  5-C ) :  -0.2727 B(  2-C , 11-H ) :   1.1047
B(  3-C ,  5-C ) :   1.0899 B(  3-C ,  6-C ) :  -0.3439 B(  3-C ,  7-O ) :  -0.1251
B(  3-C , 10-H ) :  -0.1173 B(  3-C , 12-H ) :   0.8681 B(  4-C ,  5-C ) :   1.1194
B(  4-C ,  6-C ) :  -0.2814 B(  4-C , 11-H ) :  -0.1262 B(  4-C , 13-H ) :   0.8824
B(  5-C ,  6-C ) :   1.2387 B(  5-C ,  7-O ) :   0.4529 B(  5-C ,  8-O ) :   0.1760
B(  6-C ,  7-O ) :   1.1422 B(  6-C ,  8-O ) :   0.7430 B(  8-O , 14-H ) :   0.9307

MP2 TOTAL ENERGY:     -420.178973507 Eh
FINAL SINGLE POINT ENERGY      -420.178973506765

DIPOLE MOMENT
-------------
                                X             Y             Z
Electronic contribution:     -0.18528       4.21276      -0.00000
Nuclear contribution   :     -0.32250      -4.99978       0.00000
                        -----------------------------------------
Total Dipole Moment    :     -0.50778      -0.78702      -0.00000
                        -----------------------------------------
Magnitude (a.u.)       :      0.93661
Magnitude (Debye)      :      2.38067

Rotational constants in cm-1:     0.129986     0.040954     0.031142
Rotational constants in MHz :  3896.878269  1227.770858   933.619738

                             ****ORCA TERMINATED NORMALLY****
TOTAL RUN TIME: 0 days 0 hours 54 minutes 8 seconds 476 msec
