                         Program Version 5.0.4 -  RELEASE  -
|  1> !ri-mp2 aug-cc-pvqz aug-cc-pvqz/c tightscf
|  2> %pal nprocs 16 end
|  3>
|  4> * xyz 0 1
|  5> C      0.007083   -2.289118        0.000000
|  6> C      1.204721   -1.583554        0.000000
|  7> C     -1.194960   -1.590256        0.000000
|  8> C      1.206584   -0.194173        0.000000
|  9> C     -1.203315   -0.201715        0.000000
| 10> C      0.000000    0.505241        0.000000
| 11> S     -0.086475    2.284006        0.000000
| 12> H      0.010418   -3.370141        0.000000
| 13> H      2.147471   -2.114249        0.000000
| 14> H     -2.134602   -2.126238        0.000000
| 15> H      2.146513    0.340962        0.000000
| 16> H     -2.144219    0.332370        0.000000
| 17> H      1.237336    2.514654        0.000000
| 18> *
| 19>
| 20>                          ****END OF INPUT****

CARTESIAN COORDINATES (ANGSTROEM)
---------------------------------
  C      0.007083   -2.289118    0.000000
  C      1.204721   -1.583554    0.000000
  C     -1.194960   -1.590256    0.000000
  C      1.206584   -0.194173    0.000000
  C     -1.203315   -0.201715    0.000000
  C      0.000000    0.505241    0.000000
  S     -0.086475    2.284006    0.000000
  H      0.010418   -3.370141    0.000000
  H      2.147471   -2.114249    0.000000
  H     -2.134602   -2.126238    0.000000
  H      2.146513    0.340962    0.000000
  H     -2.144219    0.332370    0.000000
  H      1.237336    2.514654    0.000000

 Total Charge           Charge          ....    0
 Multiplicity           Mult            ....    1
 Number of Electrons    NEL             ....   58
 Basis Dimension        Dim             ....  840

ORBITAL ENERGIES
----------------

  NO   OCC          E(Eh)            E(eV)
   0   2.0000     -91.966531     -2502.5365
   1   2.0000     -11.278595      -306.9062
   2   2.0000     -11.243312      -305.9461
   3   2.0000     -11.242692      -305.9292
   4   2.0000     -11.241885      -305.9072
   5   2.0000     -11.240407      -305.8670
   6   2.0000     -11.235754      -305.7404
   7   2.0000      -8.968791      -244.0532
   8   2.0000      -6.650432      -180.9675
   9   2.0000      -6.649472      -180.9413
  10   2.0000      -6.648549      -180.9162
  11   2.0000      -1.167768       -31.7766
  12   2.0000      -1.058129       -28.7931
  13   2.0000      -1.025572       -27.9072
  14   2.0000      -0.949444       -25.8357
  15   2.0000      -0.838766       -22.8240
  16   2.0000      -0.810465       -22.0539
  17   2.0000      -0.704921       -19.1819
  18   2.0000      -0.647327       -17.6147
  19   2.0000      -0.636972       -17.3329
  20   2.0000      -0.597662       -16.2632
  21   2.0000      -0.579613       -15.7721
  22   2.0000      -0.525873       -14.3097
  23   2.0000      -0.525584       -14.3019
  24   2.0000      -0.503754       -13.7078
  25   2.0000      -0.469004       -12.7623
  26   2.0000      -0.417260       -11.3542
  27   2.0000      -0.347656        -9.4602
  28   2.0000      -0.309629        -8.4254
  29   0.0000       0.024818         0.6753
  30   0.0000       0.028423         0.7734
  31   0.0000       0.031513         0.8575
  32   0.0000       0.042053         1.1443
  33   0.0000       0.044822         1.2197

MULLIKEN ATOMIC CHARGES
-----------------------
   0 C :   -0.234925
   1 C :   -0.319181
   2 C :   -0.321154
   3 C :   -0.262353
   4 C :   -0.138178
   5 C :   -0.098526
   6 S :   -0.185494
   7 H :    0.324786
   8 H :    0.274467
   9 H :    0.265862
  10 H :    0.307086
  11 H :    0.383657
  12 H :    0.003953
Sum of atomic charges:   -0.0000000

LOEWDIN ATOMIC CHARGES
----------------------
   0 C :    0.332997
   1 C :    0.328010
   2 C :    0.326088
   3 C :    0.232133
   4 C :    0.209456
   5 C :   -0.561317
   6 S :    1.600827
   7 H :   -0.327059
   8 H :   -0.322675
   9 H :   -0.322706
  10 H :   -0.356678
  11 H :   -0.351050
  12 H :   -0.788026

  Mayer bond orders larger than 0.100000
B(  0-C ,  1-C ) :   1.1611 B(  0-C ,  2-C ) :   1.1461 B(  0-C ,  7-H ) :   0.9893
B(  1-C ,  2-C ) :  -0.1051 B(  1-C ,  3-C ) :   1.3055 B(  1-C ,  4-C ) :   0.1195
B(  1-C ,  5-C ) :  -0.1601 B(  1-C ,  8-H ) :   1.0689 B(  2-C ,  3-C ) :   0.1332
B(  2-C ,  4-C ) :   1.2759 B(  2-C ,  5-C ) :  -0.1171 B(  2-C ,  9-H ) :   1.0788
B(  3-C ,  5-C ) :   1.0453 B(  3-C ,  6-S ) :  -0.1238 B(  3-C ,  8-H ) :  -0.1091
B(  3-C , 10-H ) :   0.9430 B(  4-C ,  5-C ) :   1.1136 B(  4-C ,  6-S ) :  -0.2176
B(  4-C ,  9-H ) :  -0.1066 B(  4-C , 11-H ) :   0.8866 B(  5-C ,  6-S ) :   0.8220
B(  5-C , 12-H ) :  -0.1423 B(  6-S , 12-H ) :   1.1357

MP2 TOTAL ENERGY:     -629.549985295 Eh
FINAL SINGLE POINT ENERGY      -629.549985295322

DIPOLE MOMENT
-------------
                                X             Y             Z
Electronic contribution:     -0.93717       4.04585      -0.00000
Nuclear contribution   :      1.25128      -4.44231       0.00000
                        -----------------------------------------
Total Dipole Moment    :      0.31411      -0.39646      -0.00000
                        -----------------------------------------
Magnitude (a.u.)       :      0.50581
Magnitude (Debye)      :      1.28567

Rotational constants in cm-1:     0.187929     0.052407     0.040979
Rotational constants in MHz :  5633.971695  1571.119497  1228.526127

                             ****ORCA TERMINATED NORMALLY****
TOTAL RUN TIME: 0 days 0 hours 30 minutes 59 seconds 642 msec
