                         Program Version 5.0.4 -  RELEASE  -
|  1> !ri-mp2 aug-cc-pvqz aug-cc-pvqz/c tightscf
|  2> %pal nprocs 16 end
|  3>
|  4> * xyz 0 1
|  5> C     -1.498796    0.606364    0.000000
|  6> C      2.286416   -0.364870    0.000000
|  7> C      0.000000    0.740162    0.000000
|  8> C      0.773358   -0.572830    0.000000
|  9> O     -2.103883   -0.435720    0.000000
| 10> H     -2.049279    1.570818    0.000000
| 11> H      2.612258    0.192076    0.881024
| 12> H      2.813086   -1.319587    0.000000
| 13> H      2.612258    0.192076   -0.881024
| 14> H      0.262254    1.359651    0.867455
| 15> H      0.262254    1.359651   -0.867455
| 16> H      0.476183   -1.160935    0.870082
| 17> H      0.476183   -1.160935   -0.870082
| 18> *
| 19>
| 20>                          ****END OF INPUT****

CARTESIAN COORDINATES (ANGSTROEM)
---------------------------------
  C     -1.498796    0.606364    0.000000
  C      2.286416   -0.364870    0.000000
  C      0.000000    0.740162    0.000000
  C      0.773358   -0.572830    0.000000
  O     -2.103883   -0.435720    0.000000
  H     -2.049279    1.570818    0.000000
  H      2.612258    0.192076    0.881024
  H      2.813086   -1.319587    0.000000
  H      2.612258    0.192076   -0.881024
  H      0.262254    1.359651    0.867455
  H      0.262254    1.359651   -0.867455
  H      0.476183   -1.160935    0.870082
  H      0.476183   -1.160935   -0.870082

 Total Charge           Charge          ....    0
 Multiplicity           Mult            ....    1
 Number of Electrons    NEL             ....   40
 Basis Dimension        Dim             ....  768

ORBITAL ENERGIES
----------------

  NO   OCC          E(Eh)            E(eV)
   0   2.0000     -20.554693      -559.3216
   1   2.0000     -11.330470      -308.3178
   2   2.0000     -11.241925      -305.9083
   3   2.0000     -11.226593      -305.4911
   4   2.0000     -11.218937      -305.2828
   5   2.0000      -1.394323       -37.9415
   6   2.0000      -1.080917       -29.4133
   7   2.0000      -0.977420       -26.5970
   8   2.0000      -0.848840       -23.0981
   9   2.0000      -0.769673       -20.9439
  10   2.0000      -0.674789       -18.3619
  11   2.0000      -0.648879       -17.6569
  12   2.0000      -0.635202       -17.2847
  13   2.0000      -0.570352       -15.5201
  14   2.0000      -0.569582       -15.4991
  15   2.0000      -0.515267       -14.0211
  16   2.0000      -0.506165       -13.7734
  17   2.0000      -0.491636       -13.3781
  18   2.0000      -0.480149       -13.0655
  19   2.0000      -0.419201       -11.4070
  20   0.0000       0.023528         0.6402
  21   0.0000       0.029507         0.8029
  22   0.0000       0.034333         0.9343
  23   0.0000       0.038593         1.0502
  24   0.0000       0.049632         1.3506

MULLIKEN ATOMIC CHARGES
-----------------------
   0 C :    0.282265
   1 C :   -0.816841
   2 C :   -0.420692
   3 C :   -0.274789
   4 O :   -0.748504
   5 H :    0.334689
   6 H :    0.226151
   7 H :    0.254686
   8 H :    0.226151
   9 H :    0.234376
  10 H :    0.234376
  11 H :    0.234066
  12 H :    0.234066
Sum of atomic charges:    0.0000000

LOEWDIN ATOMIC CHARGES
----------------------
   0 C :   -0.233820
   1 C :    0.924539
   2 C :    0.458199
   3 C :    0.473359
   4 O :    0.716357
   5 H :   -0.342497
   6 H :   -0.285459
   7 H :   -0.283652
   8 H :   -0.285459
   9 H :   -0.289805
  10 H :   -0.289805
  11 H :   -0.280979
  12 H :   -0.280979

  Mayer bond orders larger than 0.100000
B(  0-C ,  2-C ) :   0.9228 B(  0-C ,  3-C ) :  -0.1230 B(  0-C ,  4-O ) :   1.4944
B(  0-C ,  5-H ) :   0.9315 B(  1-C ,  3-C ) :   0.9767 B(  1-C ,  6-H ) :   0.9439
B(  1-C ,  7-H ) :   1.0090 B(  1-C ,  8-H ) :   0.9439 B(  2-C ,  3-C ) :   0.8687
B(  2-C ,  4-O ) :   0.1469 B(  2-C ,  5-H ) :  -0.1113 B(  2-C ,  9-H ) :   0.9092
B(  2-C , 10-H ) :   0.9092 B(  3-C , 11-H ) :   0.8861 B(  3-C , 12-H ) :   0.8861

MP2 TOTAL ENERGY:     -232.070375839 Eh
FINAL SINGLE POINT ENERGY      -232.070375838602

DIPOLE MOMENT
-------------
                                X             Y             Z
Electronic contribution:     -6.92327      -0.19042       0.00000
Nuclear contribution   :      7.74288       1.06885       0.00000
                        -----------------------------------------
Total Dipole Moment    :      0.81961       0.87844       0.00000
                        -----------------------------------------
Magnitude (a.u.)       :      1.20142
Magnitude (Debye)      :      3.05377

Rotational constants in cm-1:     0.511563     0.084220     0.075292
Rotational constants in MHz : 15336.287146  2524.866719  2257.186240

                             ****ORCA TERMINATED NORMALLY****
TOTAL RUN TIME: 0 days 0 hours 20 minutes 33 seconds 100 msec
