                         Program Version 5.0.4 -  RELEASE  -
|  1> !ri-mp2 aug-cc-pvqz aug-cc-pvqz/c tightscf
|  2> %pal nprocs 16 end
|  3>
|  4> * xyz 0 1
|  5> C      2.202488    0.116111   -0.000012
|  6> C      3.288179   -0.927156    0.000005
|  7> C     -3.962455   -0.357641   -0.000017
|  8> C     -2.678902    0.470725    0.000022
|  9> C     -1.415543   -0.392205   -0.000009
| 10> C     -0.151969    0.444179    0.000021
| 11> O      2.380920    1.308789   -0.000020
| 12> O      0.980632   -0.454908    0.000000
| 13> H      3.191841   -1.565826   -0.877925
| 14> H      3.192067   -1.565518    0.878188
| 15> H      4.258416   -0.440768   -0.000192
| 16> H     -4.016737   -1.000104   -0.880951
| 17> H     -4.016742   -1.000179    0.880862
| 18> H     -4.846288    0.281106    0.000008
| 19> H     -2.669921    1.127959   -0.874214
| 20> H     -2.669927    1.127886    0.874314
| 21> H     -1.412843   -1.045046    0.876714
| 22> H     -1.412842   -1.044982   -0.876781
| 23> H     -0.090109    1.085203   -0.880362
| 24> H     -0.090117    1.085149    0.880444
| 25> *
| 26>
| 27>                          ****END OF INPUT****

CARTESIAN COORDINATES (ANGSTROEM)
---------------------------------
  C      2.202488    0.116111   -0.000012
  C      3.288179   -0.927156    0.000005
  C     -3.962455   -0.357641   -0.000017
  C     -2.678902    0.470725    0.000022
  C     -1.415543   -0.392205   -0.000009
  C     -0.151969    0.444179    0.000021
  O      2.380920    1.308789   -0.000020
  O      0.980632   -0.454908    0.000000
  H      3.191841   -1.565826   -0.877925
  H      3.192067   -1.565518    0.878188
  H      4.258416   -0.440768   -0.000192
  H     -4.016737   -1.000104   -0.880951
  H     -4.016742   -1.000179    0.880862
  H     -4.846288    0.281106    0.000008
  H     -2.669921    1.127959   -0.874214
  H     -2.669927    1.127886    0.874314
  H     -1.412843   -1.045046    0.876714
  H     -1.412842   -1.044982   -0.876781
  H     -0.090109    1.085203   -0.880362
  H     -0.090117    1.085149    0.880444

 Total Charge           Charge          ....    0
 Multiplicity           Mult            ....    1
 Number of Electrons    NEL             ....   64
 Basis Dimension        Dim             .... 1192

ORBITAL ENERGIES
----------------

  NO   OCC          E(Eh)            E(eV)
   0   2.0000     -20.594677      -560.4097
   1   2.0000     -20.538007      -558.8676
   2   2.0000     -11.375797      -309.5512
   3   2.0000     -11.283568      -307.0415
   4   2.0000     -11.237226      -305.7805
   5   2.0000     -11.226366      -305.4850
   6   2.0000     -11.225022      -305.4484
   7   2.0000     -11.216345      -305.2123
   8   2.0000      -1.453664       -39.5562
   9   2.0000      -1.354107       -36.8471
  10   2.0000      -1.086009       -29.5518
  11   2.0000      -1.027826       -27.9686
  12   2.0000      -0.979645       -26.6575
  13   2.0000      -0.876689       -23.8559
  14   2.0000      -0.805727       -21.9250
  15   2.0000      -0.774191       -21.0668
  16   2.0000      -0.687209       -18.6999
  17   2.0000      -0.686764       -18.6878
  18   2.0000      -0.666115       -18.1259
  19   2.0000      -0.635810       -17.3013
  20   2.0000      -0.593987       -16.1632
  21   2.0000      -0.592571       -16.1247
  22   2.0000      -0.570214       -15.5163
  23   2.0000      -0.561619       -15.2824
  24   2.0000      -0.543645       -14.7933
  25   2.0000      -0.521334       -14.1862
  26   2.0000      -0.505099       -13.7445
  27   2.0000      -0.485212       -13.2033
  28   2.0000      -0.483136       -13.1468
  29   2.0000      -0.475904       -12.9500
  30   2.0000      -0.456896       -12.4328
  31   2.0000      -0.443784       -12.0760
  32   0.0000       0.024346         0.6625
  33   0.0000       0.026798         0.7292
  34   0.0000       0.033364         0.9079
  35   0.0000       0.034943         0.9509
  36   0.0000       0.041842         1.1386

MULLIKEN ATOMIC CHARGES
-----------------------
   0 C :    0.858465
   1 C :   -0.748808
   2 C :   -0.899040
   3 C :   -0.444546
   4 C :   -0.439674
   5 C :    0.067590
   6 O :   -0.750685
   7 O :   -0.753309
   8 H :    0.290084
   9 H :    0.290078
  10 H :    0.311629
  11 H :    0.224660
  12 H :    0.224697
  13 H :    0.256269
  14 H :    0.234012
  15 H :    0.234071
  16 H :    0.264258
  17 H :    0.264095
  18 H :    0.258101
  19 H :    0.258052
Sum of atomic charges:   -0.0000000

LOEWDIN ATOMIC CHARGES
----------------------
   0 C :   -1.064797
   1 C :    0.870046
   2 C :    0.928224
   3 C :    0.503393
   4 C :    0.494929
   5 C :    0.166918
   6 O :    0.707106
   7 O :    0.863384
   8 H :   -0.301982
   9 H :   -0.301973
  10 H :   -0.324336
  11 H :   -0.284416
  12 H :   -0.284416
  13 H :   -0.283449
  14 H :   -0.272223
  15 H :   -0.272222
  16 H :   -0.273704
  17 H :   -0.273702
  18 H :   -0.298393
  19 H :   -0.298388

  Mayer bond orders larger than 0.100000
B(  0-C ,  1-C ) :   0.8928 B(  0-C ,  6-O ) :   1.3589 B(  0-C ,  7-O ) :   1.0618
B(  1-C ,  8-H ) :   0.9182 B(  1-C ,  9-H ) :   0.9182 B(  1-C , 10-H ) :   0.9717
B(  2-C ,  3-C ) :   1.0317 B(  2-C , 11-H ) :   0.9567 B(  2-C , 12-H ) :   0.9566
B(  2-C , 13-H ) :   1.0253 B(  3-C ,  4-C ) :   0.9477 B(  3-C , 13-H ) :  -0.1015
B(  3-C , 14-H ) :   0.8771 B(  3-C , 15-H ) :   0.8771 B(  4-C ,  5-C ) :   1.1911
B(  4-C ,  7-O ) :   0.1322 B(  4-C , 16-H ) :   0.8419 B(  4-C , 17-H ) :   0.8419
B(  5-C ,  6-O ) :   0.2004 B(  5-C ,  7-O ) :   0.5917 B(  5-C , 18-H ) :   0.8710
B(  5-C , 19-H ) :   0.8710

MP2 TOTAL ENERGY:     -385.718502662 Eh
FINAL SINGLE POINT ENERGY      -385.718502661989

DIPOLE MOMENT
-------------
                                X             Y             Z
Electronic contribution:     10.43377       2.27183      -0.00008
Nuclear contribution   :    -10.89615      -3.04389       0.00011
                        -----------------------------------------
Total Dipole Moment    :     -0.46237      -0.77206       0.00003
                        -----------------------------------------
Magnitude (a.u.)       :      0.89992
Magnitude (Debye)      :      2.28742

Rotational constants in cm-1:     0.235481     0.023620     0.021900
Rotational constants in MHz :  7059.546847   708.112316   656.555372

                             ****ORCA TERMINATED NORMALLY****
TOTAL RUN TIME: 0 days 1 hours 10 minutes 7 seconds 729 msec
