                         Program Version 5.0.4 -  RELEASE  -
|  1> !ri-mp2 aug-cc-pvqz aug-cc-pvqz/c tightscf
|  2> %pal nprocs 16 end
|  3>
|  4> * xyz 0 1
|  5> C      1.454366    0.512277    0.000000
|  6> C     -2.231561   -0.577773    0.000000
|  7> C      0.000000    0.631202    0.000000
|  8> C     -0.713585   -0.731881    0.000000
|  9> N      2.598842    0.398853    0.000000
| 10> H     -2.575965   -0.034286    0.881826
| 11> H     -2.575965   -0.034286   -0.881826
| 12> H     -2.719763   -1.552135    0.000000
| 13> H     -0.295422    1.212550    0.876647
| 14> H     -0.295422    1.212550   -0.876647
| 15> H     -0.392342   -1.299658    0.874523
| 16> H     -0.392342   -1.299658   -0.874523
| 17> *
| 18>
| 19>                          ****END OF INPUT****

CARTESIAN COORDINATES (ANGSTROEM)
---------------------------------
  C      1.454366    0.512277    0.000000
  C     -2.231561   -0.577773    0.000000
  C      0.000000    0.631202    0.000000
  C     -0.713585   -0.731881    0.000000
  N      2.598842    0.398853    0.000000
  H     -2.575965   -0.034286    0.881826
  H     -2.575965   -0.034286   -0.881826
  H     -2.719763   -1.552135    0.000000
  H     -0.295422    1.212550    0.876647
  H     -0.295422    1.212550   -0.876647
  H     -0.392342   -1.299658    0.874523
  H     -0.392342   -1.299658   -0.874523

 Total Charge           Charge          ....    0
 Multiplicity           Mult            ....    1
 Number of Electrons    NEL             ....   38
 Basis Dimension        Dim             ....  722

ORBITAL ENERGIES
----------------

  NO   OCC          E(Eh)            E(eV)
   0   2.0000     -15.563347      -423.5002
   1   2.0000     -11.280790      -306.9659
   2   2.0000     -11.268741      -306.6380
   3   2.0000     -11.251763      -306.1760
   4   2.0000     -11.234264      -305.6999
   5   2.0000      -1.219112       -33.1737
   6   2.0000      -1.101127       -29.9632
   7   2.0000      -0.988230       -26.8911
   8   2.0000      -0.847959       -23.0741
   9   2.0000      -0.703511       -19.1435
  10   2.0000      -0.671891       -18.2831
  11   2.0000      -0.604859       -16.4591
  12   2.0000      -0.585364       -15.9286
  13   2.0000      -0.562896       -15.3172
  14   2.0000      -0.531914       -14.4741
  15   2.0000      -0.519438       -14.1346
  16   2.0000      -0.507341       -13.8054
  17   2.0000      -0.457051       -12.4370
  18   2.0000      -0.453867       -12.3504
  19   0.0000       0.020198         0.5496
  20   0.0000       0.030142         0.8202
  21   0.0000       0.031780         0.8648
  22   0.0000       0.037808         1.0288
  23   0.0000       0.051053         1.3892

MULLIKEN ATOMIC CHARGES
-----------------------
   0 C :    0.402083
   1 C :   -0.798808
   2 C :   -0.419549
   3 C :   -0.321779
   4 N :   -0.666294
   5 H :    0.231442
   6 H :    0.231442
   7 H :    0.272487
   8 H :    0.281786
   9 H :    0.281786
  10 H :    0.252701
  11 H :    0.252701
Sum of atomic charges:    0.0000000

LOEWDIN ATOMIC CHARGES
----------------------
   0 C :   -0.259077
   1 C :    0.929864
   2 C :    0.423160
   3 C :    0.492561
   4 N :    0.408107
   5 H :   -0.282176
   6 H :   -0.282176
   7 H :   -0.280609
   8 H :   -0.300342
   9 H :   -0.300342
  10 H :   -0.274485
  11 H :   -0.274485

  Mayer bond orders larger than 0.100000
B(  0-C ,  2-C ) :   1.1818 B(  0-C ,  3-C ) :  -0.1311 B(  0-C ,  4-N ) :   2.5215
B(  1-C ,  3-C ) :   0.9891 B(  1-C ,  5-H ) :   0.9432 B(  1-C ,  6-H ) :   0.9432
B(  1-C ,  7-H ) :   0.9729 B(  2-C ,  3-C ) :   0.9315 B(  2-C ,  8-H ) :   0.8752
B(  2-C ,  9-H ) :   0.8752 B(  3-C , 10-H ) :   0.8676 B(  3-C , 11-H ) :   0.8676

MP2 TOTAL ENERGY:     -211.006224125 Eh
FINAL SINGLE POINT ENERGY      -211.006224124865

DIPOLE MOMENT
-------------
                                X             Y             Z
Electronic contribution:      7.76281       1.86162       0.00000
Nuclear contribution   :     -9.53385      -1.85120       0.00000
                        -----------------------------------------
Total Dipole Moment    :     -1.77104       0.01042       0.00000
                        -----------------------------------------
Magnitude (a.u.)       :      1.77107
Magnitude (Debye)      :      4.50170

Rotational constants in cm-1:     0.803269     0.075347     0.071612
Rotational constants in MHz : 24081.403932  2258.842702  2146.874022

                             ****ORCA TERMINATED NORMALLY****
TOTAL RUN TIME: 0 days 0 hours 11 minutes 23 seconds 387 msec
