                         Program Version 5.0.4 -  RELEASE  -
|  1> !ri-mp2 aug-cc-pvqz aug-cc-pvqz/c tightscf
|  2> %pal nprocs 16 end
|  3> %maxcore 3800
|  4>
|  5> * xyz 0 1
|  6> C    -2.260008    1.718793    0.000000
|  7> C     2.618522    1.097828    0.000000
|  8> C    -0.358514   -2.816621    0.000000
|  9> C    -1.636395    2.936436    0.000000
| 10> C     3.361226   -0.051059    0.000000
| 11> C    -1.724831   -2.885378    0.000000
| 12> C    -1.235698    0.719678    0.000000
| 13> C     1.241108    0.710307    0.000000
| 14> C    -0.005410   -1.429985    0.000000
| 15> C     0.000000    1.392828    0.000000
| 16> C     1.206225   -0.696414    0.000000
| 17> C    -1.206225   -0.696414    0.000000
| 18> N    -0.273028    2.739129    0.000000
| 19> N     2.508669   -1.133115    0.000000
| 20> N    -2.235641   -1.606014    0.000000
| 21> H    -3.326106    1.566758    0.000000
| 22> H     3.019905    2.097113    0.000000
| 23> H     0.306200   -3.663871    0.000000
| 24> H    -2.050289    3.929412    0.000000
| 25> H     4.428115   -0.189104    0.000000
| 26> H    -2.377826   -3.740308    0.000000
| 27> H     0.415105    3.468383    0.000000
| 28> H     2.796155   -2.093683    0.000000
| 29> H    -3.211260   -1.374700    0.000000
| 30> *
| 31>
| 32>                          ****END OF INPUT****

CARTESIAN COORDINATES (ANGSTROEM)
---------------------------------
  C     -2.260008    1.718793    0.000000
  C      2.618522    1.097828    0.000000
  C     -0.358514   -2.816621    0.000000
  C     -1.636395    2.936436    0.000000
  C      3.361226   -0.051059    0.000000
  C     -1.724831   -2.885378    0.000000
  C     -1.235698    0.719678    0.000000
  C      1.241108    0.710307    0.000000
  C     -0.005410   -1.429985    0.000000
  C      0.000000    1.392828    0.000000
  C      1.206225   -0.696414    0.000000
  C     -1.206225   -0.696414    0.000000
  N     -0.273028    2.739129    0.000000
  N      2.508669   -1.133115    0.000000
  N     -2.235641   -1.606014    0.000000
  H     -3.326106    1.566758    0.000000
  H      3.019905    2.097113    0.000000
  H      0.306200   -3.663871    0.000000
  H     -2.050289    3.929412    0.000000
  H      4.428115   -0.189104    0.000000
  H     -2.377826   -3.740308    0.000000
  H      0.415105    3.468383    0.000000
  H      2.796155   -2.093683    0.000000
  H     -3.211260   -1.374700    0.000000

 Total Charge           Charge          ....    0
 Multiplicity           Mult            ....    1
 Number of Electrons    NEL             ....  102
 Basis Dimension        Dim             .... 1614

ORBITAL ENERGIES
----------------

  NO   OCC          E(Eh)            E(eV)
   0   2.0000     -15.595466      -424.3742
   1   2.0000     -15.595466      -424.3742
   2   2.0000     -15.595466      -424.3742
   3   2.0000     -11.257747      -306.3389
   4   2.0000     -11.257738      -306.3386
   5   2.0000     -11.257738      -306.3386
   6   2.0000     -11.255150      -306.2682
   7   2.0000     -11.255150      -306.2682
   8   2.0000     -11.255150      -306.2682
   9   2.0000     -11.213053      -305.1227
  10   2.0000     -11.213053      -305.1227
  11   2.0000     -11.213021      -305.1218
  12   2.0000     -11.211686      -305.0855
  13   2.0000     -11.211686      -305.0855
  14   2.0000     -11.211677      -305.0852
  15   2.0000      -1.297576       -35.3088
  16   2.0000      -1.283793       -34.9338
  17   2.0000      -1.283793       -34.9338
  18   2.0000      -1.098811       -29.9002
  19   2.0000      -1.053577       -28.6693
  20   2.0000      -1.053577       -28.6693
  21   2.0000      -1.004654       -27.3380
  22   2.0000      -0.957659       -26.0592
  23   2.0000      -0.957659       -26.0592
  24   2.0000      -0.817811       -22.2538
  25   2.0000      -0.817810       -22.2538
  26   2.0000      -0.812325       -22.1045
  27   2.0000      -0.780070       -21.2268
  28   2.0000      -0.772872       -21.0309
  29   2.0000      -0.772872       -21.0309
  30   2.0000      -0.677538       -18.4367
  31   2.0000      -0.670776       -18.2527
  32   2.0000      -0.670776       -18.2527
  33   2.0000      -0.600619       -16.3437
  34   2.0000      -0.594187       -16.1687
  35   2.0000      -0.588072       -16.0023
  36   2.0000      -0.588072       -16.0023
  37   2.0000      -0.577787       -15.7224
  38   2.0000      -0.566471       -15.4145
  39   2.0000      -0.566471       -15.4145
  40   2.0000      -0.559136       -15.2149
  41   2.0000      -0.559136       -15.2149
  42   2.0000      -0.543688       -14.7945
  43   2.0000      -0.498418       -13.5626
  44   2.0000      -0.498418       -13.5626
  45   2.0000      -0.405151       -11.0247
  46   2.0000      -0.374527       -10.1914
  47   2.0000      -0.374527       -10.1914
  48   2.0000      -0.319628        -8.6975
  49   2.0000      -0.248753        -6.7689
  50   2.0000      -0.248753        -6.7689
  51   0.0000       0.022877         0.6225
  52   0.0000       0.023746         0.6461
  53   0.0000       0.023752         0.6463
  54   0.0000       0.033919         0.9230
  55   0.0000       0.033924         0.9231

MULLIKEN ATOMIC CHARGES
-----------------------
   0 C :   -0.192001
   1 C :   -0.191630
   2 C :   -0.192013
   3 C :   -0.660124
   4 C :   -0.660003
   5 C :   -0.659962
   6 C :   -0.442488
   7 C :   -0.443042
   8 C :   -0.443317
   9 C :    1.207523
  10 C :    1.207846
  11 C :    1.207326
  12 N :   -0.704919
  13 N :   -0.705971
  14 N :   -0.705431
  15 H :    0.316962
  16 H :    0.316827
  17 H :    0.316985
  18 H :    0.358645
  19 H :    0.358357
  20 H :    0.358327
  21 H :    0.117200
  22 H :    0.117470
  23 H :    0.117432
Sum of atomic charges:    0.0000000

LOEWDIN ATOMIC CHARGES
----------------------
   0 C :    0.353569
   1 C :    0.353570
   2 C :    0.353570
   3 C :    0.227760
   4 C :    0.227760
   5 C :    0.227760
   6 C :   -0.100617
   7 C :   -0.100617
   8 C :   -0.100616
   9 C :   -0.242437
  10 C :   -0.242438
  11 C :   -0.242437
  12 N :    0.839724
  13 N :    0.839723
  14 N :    0.839724
  15 H :   -0.324903
  16 H :   -0.324904
  17 H :   -0.324904
  18 H :   -0.306815
  19 H :   -0.306816
  20 H :   -0.306816
  21 H :   -0.446280
  22 H :   -0.446280
  23 H :   -0.446280

  Mayer bond orders larger than 0.100000
B(  0-C ,  3-C ) :   1.5410 B(  0-C ,  6-C ) :   1.0604 B(  0-C ,  9-C ) :  -0.4754
B(  0-C , 10-C ) :  -0.1656 B(  0-C , 12-N ) :  -0.1857 B(  0-C , 14-N ) :  -0.1151
B(  0-C , 15-H ) :   1.0277 B(  1-C ,  4-C ) :   1.5409 B(  1-C ,  7-C ) :   1.0604
B(  1-C , 10-C ) :  -0.4788 B(  1-C , 11-C ) :  -0.1649 B(  1-C , 12-N ) :  -0.1149
B(  1-C , 13-N ) :  -0.1852 B(  1-C , 16-H ) :   1.0280 B(  2-C ,  5-C ) :   1.5409
B(  2-C ,  8-C ) :   1.0599 B(  2-C ,  9-C ) :  -0.1672 B(  2-C , 11-C ) :  -0.4789
B(  2-C , 13-N ) :  -0.1151 B(  2-C , 14-N ) :  -0.1854 B(  2-C , 17-H ) :   1.0279
B(  3-C ,  6-C ) :   0.3720 B(  3-C ,  7-C ) :  -0.2931 B(  3-C ,  9-C ) :  -0.5837
B(  3-C , 11-C ) :   0.1954 B(  3-C , 12-N ) :   1.2594 B(  3-C , 15-H ) :  -0.1363
B(  3-C , 18-H ) :   1.0111 B(  4-C ,  7-C ) :   0.3719 B(  4-C ,  8-C ) :  -0.2919
B(  4-C ,  9-C ) :   0.1958 B(  4-C , 10-C ) :  -0.5837 B(  4-C , 13-N ) :   1.2595
B(  4-C , 16-H ) :  -0.1366 B(  4-C , 19-H ) :   1.0115 B(  5-C ,  6-C ) :  -0.2920
B(  5-C ,  8-C ) :   0.3707 B(  5-C , 10-C ) :   0.1942 B(  5-C , 11-C ) :  -0.5830
B(  5-C , 14-N ) :   1.2590 B(  5-C , 17-H ) :  -0.1364 B(  5-C , 20-H ) :   1.0116
B(  6-C ,  9-C ) :   0.7779 B(  6-C , 10-C ) :   0.1958 B(  6-C , 11-C ) :   1.0869
B(  6-C , 12-N ) :   0.4372 B(  6-C , 14-N ) :  -0.2174 B(  6-C , 15-H ) :  -0.1457
B(  7-C ,  9-C ) :   1.0880 B(  7-C , 10-C ) :   0.7782 B(  7-C , 11-C ) :   0.1956
B(  7-C , 12-N ) :  -0.2177 B(  7-C , 13-N ) :   0.4370 B(  7-C , 16-H ) :  -0.1456
B(  8-C ,  9-C ) :   0.1960 B(  8-C , 10-C ) :   1.0869 B(  8-C , 11-C ) :   0.7814
B(  8-C , 13-N ) :  -0.2160 B(  8-C , 14-N ) :   0.4379 B(  8-C , 17-H ) :  -0.1457
B(  9-C , 10-C ) :  -0.5487 B(  9-C , 11-C ) :  -0.5495 B(  9-C , 12-N ) :   0.1792
B(  9-C , 21-H ) :  -0.2149 B( 10-C , 11-C ) :  -0.5472 B( 10-C , 13-N ) :   0.1775
B( 10-C , 22-H ) :  -0.2149 B( 11-C , 14-N ) :   0.1791 B( 11-C , 23-H ) :  -0.2149
B( 12-N , 21-H ) :   1.2325 B( 13-N , 22-H ) :   1.2324 B( 14-N , 23-H ) :   1.2324

MP2 TOTAL ENERGY:     -625.916039049 Eh
FINAL SINGLE POINT ENERGY      -625.916039048534

DIPOLE MOMENT
-------------
                                X             Y             Z
Electronic contribution:      0.00000      -0.00000       0.00000
Nuclear contribution   :     -0.00000       0.00000       0.00000
                        -----------------------------------------
Total Dipole Moment    :     -0.00000      -0.00000       0.00000
                        -----------------------------------------
Magnitude (a.u.)       :      0.00000
Magnitude (Debye)      :      0.00000

Rotational constants in cm-1:     0.025998     0.025998     0.012999
Rotational constants in MHz :   779.390853   779.390774   389.695407

                             ****ORCA TERMINATED NORMALLY****
TOTAL RUN TIME: 0 days 3 hours 19 minutes 20 seconds 907 msec
