                         Program Version 5.0.4 -  RELEASE  -
|  1> !ri-mp2 aug-cc-pvqz aug-cc-pvqz/c tightscf
|  2> %pal nprocs 16 end
|  3>
|  4> * xyz 0 1
|  5> C      0.571069   -2.149970        0.000000
|  6> C      1.611083   -1.227341        0.000000
|  7> C     -0.754728   -1.717051        0.000000
|  8> C      1.324206    0.131604        0.000000
|  9> C     -1.041517   -0.362317        0.000000
| 10> C      0.000000    0.570512        0.000000
| 11> C     -0.284070    2.020789        0.000000
| 12> O     -1.388905    2.512174        0.000000
| 13> H      0.790975   -3.209245        0.000000
| 14> H      2.637810   -1.566777        0.000000
| 15> H     -1.558218   -2.441065        0.000000
| 16> H      2.126678    0.859329        0.000000
| 17> H     -2.060939   -0.001955        0.000000
| 18> H      0.618676    2.664963        0.000000
| 19> *
| 20>
| 21>                          ****END OF INPUT****

CARTESIAN COORDINATES (ANGSTROEM)
---------------------------------
  C      0.571069   -2.149970    0.000000
  C      1.611083   -1.227341    0.000000
  C     -0.754728   -1.717051    0.000000
  C      1.324206    0.131604    0.000000
  C     -1.041517   -0.362317    0.000000
  C      0.000000    0.570512    0.000000
  C     -0.284070    2.020789    0.000000
  O     -1.388905    2.512174    0.000000
  H      0.790975   -3.209245    0.000000
  H      2.637810   -1.566777    0.000000
  H     -1.558218   -2.441065    0.000000
  H      2.126678    0.859329    0.000000
  H     -2.060939   -0.001955    0.000000
  H      0.618676    2.664963    0.000000

 Total Charge           Charge          ....    0
 Multiplicity           Mult            ....    1
 Number of Electrons    NEL             ....   56
 Basis Dimension        Dim             ....  916

ORBITAL ENERGIES
----------------

  NO   OCC          E(Eh)            E(eV)
   0   2.0000     -20.553414      -559.2868
   1   2.0000     -11.334120      -308.4171
   2   2.0000     -11.259847      -306.3960
   3   2.0000     -11.257304      -306.3268
   4   2.0000     -11.253245      -306.2164
   5   2.0000     -11.251422      -306.1668
   6   2.0000     -11.249968      -306.1272
   7   2.0000     -11.248365      -306.0836
   8   2.0000      -1.392165       -37.8827
   9   2.0000      -1.175085       -31.9757
  10   2.0000      -1.052470       -28.6392
  11   2.0000      -1.036013       -28.1914
  12   2.0000      -0.895451       -24.3665
  13   2.0000      -0.848394       -23.0860
  14   2.0000      -0.793765       -21.5995
  15   2.0000      -0.722318       -19.6553
  16   2.0000      -0.680590       -18.5198
  17   2.0000      -0.655598       -17.8397
  18   2.0000      -0.622455       -16.9379
  19   2.0000      -0.617268       -16.7967
  20   2.0000      -0.606612       -16.5068
  21   2.0000      -0.556826       -15.1520
  22   2.0000      -0.532134       -14.4801
  23   2.0000      -0.511223       -13.9111
  24   2.0000      -0.504761       -13.7352
  25   2.0000      -0.429502       -11.6873
  26   2.0000      -0.357415        -9.7258
  27   2.0000      -0.353940        -9.6312
  28   0.0000       0.020800         0.5660
  29   0.0000       0.026170         0.7121
  30   0.0000       0.031815         0.8657
  31   0.0000       0.040966         1.1148
  32   0.0000       0.045997         1.2516

MULLIKEN ATOMIC CHARGES
-----------------------
   0 C :   -0.330347
   1 C :   -0.348558
   2 C :   -0.405539
   3 C :   -0.201987
   4 C :   -0.024723
   5 C :   -0.179417
   6 C :    0.426476
   7 O :   -0.772501
   8 H :    0.300804
   9 H :    0.286153
  10 H :    0.288264
  11 H :    0.316594
  12 H :    0.349973
  13 H :    0.294808
Sum of atomic charges:   -0.0000000

LOEWDIN ATOMIC CHARGES
----------------------
   0 C :    0.346611
   1 C :    0.352499
   2 C :    0.356360
   3 C :    0.317196
   4 C :    0.321716
   5 C :   -0.140569
   6 C :   -0.277967
   7 O :    0.703977
   8 H :   -0.317914
   9 H :   -0.322474
  10 H :   -0.321511
  11 H :   -0.323268
  12 H :   -0.327649
  13 H :   -0.367007

  Mayer bond orders larger than 0.100000
B(  0-C ,  1-C ) :   1.2117 B(  0-C ,  2-C ) :   1.1587 B(  0-C ,  8-H ) :   1.0196
B(  0-C ,  9-H ) :  -0.1055 B(  1-C ,  3-C ) :   1.2469 B(  1-C ,  4-C ) :   0.1285
B(  1-C ,  5-C ) :  -0.2852 B(  1-C ,  9-H ) :   1.0755 B(  2-C ,  4-C ) :   1.2831
B(  2-C ,  5-C ) :  -0.1953 B(  2-C , 10-H ) :   1.0664 B(  3-C ,  5-C ) :   0.9393
B(  3-C ,  6-C ) :  -0.2541 B(  3-C ,  9-H ) :  -0.1169 B(  3-C , 11-H ) :   0.9351
B(  4-C ,  5-C ) :   1.0505 B(  4-C ,  6-C ) :  -0.2146 B(  4-C , 10-H ) :  -0.1108
B(  4-C , 12-H ) :   0.8536 B(  5-C ,  6-C ) :   1.0266 B(  5-C ,  7-O ) :   0.2563
B(  5-C , 13-H ) :  -0.2402 B(  6-C ,  7-O ) :   1.3139 B(  6-C , 13-H ) :   1.0381

MP2 TOTAL ENERGY:     -344.992315825 Eh
FINAL SINGLE POINT ENERGY      -344.992315824571

DIPOLE MOMENT
-------------
                                X             Y             Z
Electronic contribution:     -1.46769       2.58644       0.00000
Nuclear contribution   :      2.51037      -3.62236       0.00000
                        -----------------------------------------
Total Dipole Moment    :      1.04267      -1.03592       0.00000
                        -----------------------------------------
Magnitude (a.u.)       :      1.46979
Magnitude (Debye)      :      3.73592

Rotational constants in cm-1:     0.176044     0.052234     0.040282
Rotational constants in MHz :  5277.666222  1565.928994  1207.618261

                             ****ORCA TERMINATED NORMALLY****
TOTAL RUN TIME: 0 days 0 hours 41 minutes 19 seconds 996 msec
