                         Program Version 5.0.4 -  RELEASE  -
|  1> !ri-mp2 aug-cc-pvqz aug-cc-pvqz/c tightscf
|  2> %pal nprocs 16 end
|  3>
|  4> * xyz 0 1
|  5> O      3.189684   -0.076657   -0.064099
|  6> O     -3.189684    0.076659   -0.064103
|  7> C      0.681541   -0.006531   -0.008790
|  8> C     -0.681541    0.006524   -0.008791
|  9> C      1.886110   -0.000033    0.003758
| 10> C     -1.886111    0.000032    0.003757
| 11> H      3.604742    0.550174    0.542991
| 12> H     -3.604744   -0.550143    0.543017
| 13> *
| 14>
| 15>                          ****END OF INPUT****

CARTESIAN COORDINATES (ANGSTROEM)
---------------------------------
  O      3.189684   -0.076657   -0.064099
  O     -3.189684    0.076659   -0.064103
  C      0.681541   -0.006531   -0.008790
  C     -0.681541    0.006524   -0.008791
  C      1.886110   -0.000033    0.003758
  C     -1.886111    0.000032    0.003757
  H      3.604742    0.550174    0.542991
  H     -3.604744   -0.550143    0.543017

 Total Charge           Charge          ....    0
 Multiplicity           Mult            ....    1
 Number of Electrons    NEL             ....   42
 Basis Dimension        Dim             ....  572

ORBITAL ENERGIES
----------------

  NO   OCC          E(Eh)            E(eV)
   0   2.0000     -20.641114      -561.6733
   1   2.0000     -20.641113      -561.6733
   2   2.0000     -11.303585      -307.5862
   3   2.0000     -11.303577      -307.5860
   4   2.0000     -11.241750      -305.9036
   5   2.0000     -11.240498      -305.8695
   6   2.0000      -1.454849       -39.5884
   7   2.0000      -1.454793       -39.5869
   8   2.0000      -1.075023       -29.2529
   9   2.0000      -1.006458       -27.3871
  10   2.0000      -0.855779       -23.2869
  11   2.0000      -0.818238       -22.2654
  12   2.0000      -0.768748       -20.9187
  13   2.0000      -0.674610       -18.3571
  14   2.0000      -0.671938       -18.2844
  15   2.0000      -0.628378       -17.0990
  16   2.0000      -0.628180       -17.0936
  17   2.0000      -0.463966       -12.6252
  18   2.0000      -0.463503       -12.6126
  19   2.0000      -0.336281        -9.1507
  20   2.0000      -0.335485        -9.1290
  21   0.0000       0.019305         0.5253
  22   0.0000       0.022623         0.6156
  23   0.0000       0.060542         1.6474
  24   0.0000       0.063858         1.7377
  25   0.0000       0.069015         1.8780

MULLIKEN ATOMIC CHARGES
-----------------------
   0 O :   -0.856066
   1 O :   -0.856066
   2 C :   -0.686886
   3 C :   -0.686881
   4 C :    1.179656
   5 C :    1.179663
   6 H :    0.363290
   7 H :    0.363290
Sum of atomic charges:    0.0000000

LOEWDIN ATOMIC CHARGES
----------------------
   0 O :    1.169687
   1 O :    1.169686
   2 C :   -0.096101
   3 C :   -0.096100
   4 C :   -0.281462
   5 C :   -0.281463
   6 H :   -0.792124
   7 H :   -0.792123

  Mayer bond orders larger than 0.100000
B(  0-O ,  2-C ) :   0.6852 B(  0-O ,  4-C ) :   0.1975 B(  0-O ,  6-H ) :   0.8869
B(  1-O ,  3-C ) :   0.6851 B(  1-O ,  5-C ) :   0.1975 B(  1-O ,  7-H ) :   0.8869
B(  2-C ,  3-C ) :   0.8494 B(  2-C ,  4-C ) :   3.0800 B(  2-C ,  5-C ) :  -0.5703
B(  3-C ,  4-C ) :  -0.5703 B(  3-C ,  5-C ) :   3.0800 B(  4-C ,  5-C ) :   0.1598

MP2 TOTAL ENERGY:     -303.478126774 Eh
FINAL SINGLE POINT ENERGY      -303.478126774098

DIPOLE MOMENT
-------------
                                X             Y             Z
Electronic contribution:     -0.00000      -0.00001      -0.19919
Nuclear contribution   :     -0.00000       0.00003       1.04199
                        -----------------------------------------
Total Dipole Moment    :     -0.00000       0.00002       0.84280
                        -----------------------------------------
Magnitude (a.u.)       :      0.84280
Magnitude (Debye)      :      2.14224

Rotational constants in cm-1:    11.400909     0.037536     0.037531
Rotational constants in MHz : 341790.640996  1125.292412  1125.165354

                             ****ORCA TERMINATED NORMALLY****
TOTAL RUN TIME: 0 days 0 hours 5 minutes 34 seconds 480 msec
