                         Program Version 5.0.4 -  RELEASE  -
|  1> !ri-mp2 aug-cc-pvqz aug-cc-pvqz/c tightscf
|  2> %pal nprocs 16 end
|  3> %maxcore 3800
|  4>
|  5> * xyz 0 1
|  6> C      0.680345   -3.295333    0.000000
|  7> C      0.681769   -2.594527    1.200390
|  8> C      0.681769   -2.594527   -1.200390
|  9> C      0.681769   -1.204878    1.197095
| 10> C      0.681769   -1.204878   -1.197095
| 11> C      0.679166   -0.487390    0.000000
| 12> C     -2.241322    3.689088    0.000000
| 13> C      0.640208    1.021053    0.000000
| 14> C     -0.822953    3.121120    0.000000
| 15> C     -0.786838    1.592902    0.000000
| 16> H      0.683708   -4.377103    0.000000
| 17> H      0.687861   -3.130232    2.140693
| 18> H      0.687861   -3.130232   -2.140693
| 19> H      0.689431   -0.667833    2.138051
| 20> H      0.689431   -0.667833   -2.138051
| 21> H     -2.797599    3.361340    0.880573
| 22> H     -2.797599    3.361340   -0.880573
| 23> H     -2.234070    4.779958    0.000000
| 24> H      1.173513    1.399551    0.875815
| 25> H      1.173513    1.399551   -0.875815
| 26> H     -0.280474    3.494116    0.873994
| 27> H     -0.280474    3.494116   -0.873994
| 28> H     -1.324598    1.213739    0.873915
| 29> H     -1.324598    1.213739   -0.873915
| 30> *
| 31>
| 32>                          ****END OF INPUT****

CARTESIAN COORDINATES (ANGSTROEM)
---------------------------------
  C      0.680345   -3.295333    0.000000
  C      0.681769   -2.594527    1.200390
  C      0.681769   -2.594527   -1.200390
  C      0.681769   -1.204878    1.197095
  C      0.681769   -1.204878   -1.197095
  C      0.679166   -0.487390    0.000000
  C     -2.241322    3.689088    0.000000
  C      0.640208    1.021053    0.000000
  C     -0.822953    3.121120    0.000000
  C     -0.786838    1.592902    0.000000
  H      0.683708   -4.377103    0.000000
  H      0.687861   -3.130232    2.140693
  H      0.687861   -3.130232   -2.140693
  H      0.689431   -0.667833    2.138051
  H      0.689431   -0.667833   -2.138051
  H     -2.797599    3.361340    0.880573
  H     -2.797599    3.361340   -0.880573
  H     -2.234070    4.779958    0.000000
  H      1.173513    1.399551    0.875815
  H      1.173513    1.399551   -0.875815
  H     -0.280474    3.494116    0.873994
  H     -0.280474    3.494116   -0.873994
  H     -1.324598    1.213739    0.873915
  H     -1.324598    1.213739   -0.873915

 Total Charge           Charge          ....    0
 Multiplicity           Mult            ....    1
 Number of Electrons    NEL             ....   74
 Basis Dimension        Dim             .... 1444

ORBITAL ENERGIES
----------------

  NO   OCC          E(Eh)            E(eV)
   0   2.0000     -11.235334      -305.7290
   1   2.0000     -11.229967      -305.5829
   2   2.0000     -11.229783      -305.5779
   3   2.0000     -11.226051      -305.4764
   4   2.0000     -11.225593      -305.4639
   5   2.0000     -11.225482      -305.4609
   6   2.0000     -11.223561      -305.4086
   7   2.0000     -11.217772      -305.2511
   8   2.0000     -11.217150      -305.2342
   9   2.0000     -11.210343      -305.0490
  10   2.0000      -1.153685       -31.3934
  11   2.0000      -1.081437       -29.4274
  12   2.0000      -1.032330       -28.0911
  13   2.0000      -1.010850       -27.5066
  14   2.0000      -0.963530       -26.2190
  15   2.0000      -0.873797       -23.7772
  16   2.0000      -0.824203       -22.4277
  17   2.0000      -0.801509       -21.8102
  18   2.0000      -0.784894       -21.3581
  19   2.0000      -0.692415       -18.8416
  20   2.0000      -0.651538       -17.7292
  21   2.0000      -0.631761       -17.1911
  22   2.0000      -0.620132       -16.8747
  23   2.0000      -0.589960       -16.0536
  24   2.0000      -0.582602       -15.8534
  25   2.0000      -0.576847       -15.6968
  26   2.0000      -0.560944       -15.2641
  27   2.0000      -0.532307       -14.4848
  28   2.0000      -0.513032       -13.9603
  29   2.0000      -0.502169       -13.6647
  30   2.0000      -0.488509       -13.2930
  31   2.0000      -0.481762       -13.1094
  32   2.0000      -0.470623       -12.8063
  33   2.0000      -0.464795       -12.6477
  34   2.0000      -0.456604       -12.4248
  35   2.0000      -0.333959        -9.0875
  36   2.0000      -0.323211        -8.7950
  37   0.0000       0.024929         0.6784
  38   0.0000       0.027640         0.7521
  39   0.0000       0.028883         0.7859
  40   0.0000       0.033571         0.9135
  41   0.0000       0.037728         1.0266

MULLIKEN ATOMIC CHARGES
-----------------------
   0 C :   -0.314858
   1 C :   -0.293977
   2 C :   -0.294089
   3 C :   -0.619737
   4 C :   -0.619597
   5 C :    0.485818
   6 C :   -0.912006
   7 C :   -0.355808
   8 C :   -0.436483
   9 C :   -0.144845
  10 H :    0.334765
  11 H :    0.246499
  12 H :    0.246524
  13 H :    0.252957
  14 H :    0.252929
  15 H :    0.223919
  16 H :    0.223916
  17 H :    0.281130
  18 H :    0.244680
  19 H :    0.244296
  20 H :    0.231083
  21 H :    0.231029
  22 H :    0.245796
  23 H :    0.246057
Sum of atomic charges:    0.0000000

LOEWDIN ATOMIC CHARGES
----------------------
   0 C :    0.333742
   1 C :    0.342859
   2 C :    0.342858
   3 C :    0.348531
   4 C :    0.348531
   5 C :   -0.070443
   6 C :    0.928332
   7 C :    0.500505
   8 C :    0.511119
   9 C :    0.517783
  10 H :   -0.327033
  11 H :   -0.323246
  12 H :   -0.323246
  13 H :   -0.314818
  14 H :   -0.314818
  15 H :   -0.284792
  16 H :   -0.284792
  17 H :   -0.284470
  18 H :   -0.284084
  19 H :   -0.284084
  20 H :   -0.272653
  21 H :   -0.272653
  22 H :   -0.266563
  23 H :   -0.266563

  Mayer bond orders larger than 0.100000
B(  0-C ,  1-C ) :   1.1266 B(  0-C ,  2-C ) :   1.1268 B(  0-C , 10-H ) :   0.9948
B(  0-C , 11-H ) :  -0.1028 B(  0-C , 12-H ) :  -0.1028 B(  1-C ,  3-C ) :   1.3766
B(  1-C ,  4-C ) :   0.1524 B(  1-C ,  5-C ) :  -0.3356 B(  1-C , 11-H ) :   1.1363
B(  2-C ,  3-C ) :   0.1523 B(  2-C ,  4-C ) :   1.3764 B(  2-C ,  5-C ) :  -0.3357
B(  2-C , 12-H ) :   1.1363 B(  3-C ,  5-C ) :   0.9876 B(  3-C ,  7-C ) :  -0.2009
B(  3-C , 11-H ) :  -0.1414 B(  3-C , 13-H ) :   0.9992 B(  4-C ,  5-C ) :   0.9878
B(  4-C ,  7-C ) :  -0.2009 B(  4-C , 12-H ) :  -0.1414 B(  4-C , 14-H ) :   0.9992
B(  5-C ,  7-C ) :   0.9356 B(  6-C ,  8-C ) :   1.0150 B(  6-C ,  9-C ) :  -0.1248
B(  6-C , 15-H ) :   0.9578 B(  6-C , 16-H ) :   0.9578 B(  6-C , 17-H ) :   1.0086
B(  7-C ,  9-C ) :   0.9275 B(  7-C , 18-H ) :   0.9156 B(  7-C , 19-H ) :   0.9157
B(  8-C ,  9-C ) :   0.8570 B(  8-C , 20-H ) :   0.8856 B(  8-C , 21-H ) :   0.8856
B(  9-C , 22-H ) :   0.8631 B(  9-C , 23-H ) :   0.8631

MP2 TOTAL ENERGY:     -388.760737876 Eh
FINAL SINGLE POINT ENERGY      -388.760737876360

DIPOLE MOMENT
-------------
                                X             Y             Z
Electronic contribution:      5.40237     -11.97235       0.00000
Nuclear contribution   :     -5.44024      12.16031       0.00000
                        -----------------------------------------
Total Dipole Moment    :     -0.03788       0.18795       0.00000
                        -----------------------------------------
Magnitude (a.u.)       :      0.19173
Magnitude (Debye)      :      0.48734

Rotational constants in cm-1:     0.122995     0.018457     0.017494
Rotational constants in MHz :  3687.284163   553.330675   524.445951

                             ****ORCA TERMINATED NORMALLY****
TOTAL RUN TIME: 0 days 2 hours 30 minutes 8 seconds 895 msec
