                         Program Version 5.0.4 -  RELEASE  -
|  1> !ri-mp2 aug-cc-pvqz aug-cc-pvqz/c tightscf
|  2> %pal nprocs 16 end
|  3>
|  4> * xyz 0 1
|  5> O     -1.034291   -0.277068    0.000000
|  6> C      0.000000    0.628638    0.000000
|  7> O     -0.070941    1.813015    0.000000
|  8> C      1.084794   -0.444247    0.000000
|  9> H      1.709429   -0.440463    0.889880
| 10> H      1.709429   -0.440463   -0.889880
| 11> C     -0.101764   -1.414106    0.000000
| 12> H     -0.237589   -2.014177   -0.895897
| 13> H     -0.237589   -2.014177    0.895897
| 14> *
| 15>
| 16>                          ****END OF INPUT****

CARTESIAN COORDINATES (ANGSTROEM)
---------------------------------
  O     -1.034291   -0.277068    0.000000
  C      0.000000    0.628638    0.000000
  O     -0.070941    1.813015    0.000000
  C      1.084794   -0.444247    0.000000
  H      1.709429   -0.440463    0.889880
  H      1.709429   -0.440463   -0.889880
  C     -0.101764   -1.414106    0.000000
  H     -0.237589   -2.014177   -0.895897
  H     -0.237589   -2.014177    0.895897

 Total Charge           Charge          ....    0
 Multiplicity           Mult            ....    1
 Number of Electrons    NEL             ....   38
 Basis Dimension        Dim             ....  584

ORBITAL ENERGIES
----------------

  NO   OCC          E(Eh)            E(eV)
   0   2.0000     -20.604524      -560.6776
   1   2.0000     -20.555851      -559.3531
   2   2.0000     -11.388336      -309.8924
   3   2.0000     -11.315580      -307.9126
   4   2.0000     -11.268710      -306.6372
   5   2.0000      -1.466886       -39.9160
   6   2.0000      -1.383620       -37.6502
   7   2.0000      -1.058546       -28.8045
   8   2.0000      -0.923422       -25.1276
   9   2.0000      -0.760780       -20.7019
  10   2.0000      -0.713790       -19.4232
  11   2.0000      -0.701921       -19.1002
  12   2.0000      -0.681763       -18.5517
  13   2.0000      -0.577509       -15.7148
  14   2.0000      -0.573374       -15.6023
  15   2.0000      -0.567875       -15.4527
  16   2.0000      -0.525185       -14.2910
  17   2.0000      -0.466134       -12.6841
  18   2.0000      -0.449165       -12.2224
  19   0.0000       0.019714         0.5364
  20   0.0000       0.031473         0.8564
  21   0.0000       0.032519         0.8849
  22   0.0000       0.050642         1.3780
  23   0.0000       0.051067         1.3896

MULLIKEN ATOMIC CHARGES
-----------------------
   0 O :   -0.713324
   1 C :    1.039961
   2 O :   -0.712973
   3 C :   -0.743133
   4 H :    0.319704
   5 H :    0.319704
   6 C :   -0.151575
   7 H :    0.320818
   8 H :    0.320818
Sum of atomic charges:   -0.0000000

LOEWDIN ATOMIC CHARGES
----------------------
   0 O :    0.833019
   1 C :   -1.062746
   2 O :    0.643272
   3 C :    0.511227
   4 H :   -0.280418
   5 H :   -0.280418
   6 C :    0.215265
   7 H :   -0.289600
   8 H :   -0.289600

  Mayer bond orders larger than 0.100000
B(  0-O ,  1-C ) :   0.9495 B(  0-O ,  2-O ) :   0.1105 B(  0-O ,  3-C ) :   0.1257
B(  0-O ,  6-C ) :   0.6525 B(  1-C ,  2-O ) :   1.5599 B(  1-C ,  3-C ) :   1.0516
B(  1-C ,  6-C ) :  -0.1265 B(  2-O ,  3-C ) :   0.1039 B(  3-C ,  4-H ) :   0.8450
B(  3-C ,  5-H ) :   0.8450 B(  3-C ,  6-C ) :   1.1195 B(  6-C ,  7-H ) :   0.8693
B(  6-C ,  8-H ) :   0.8693

MP2 TOTAL ENERGY:     -266.782517406 Eh
FINAL SINGLE POINT ENERGY      -266.782517405891

DIPOLE MOMENT
-------------
                                X             Y             Z
Electronic contribution:     -1.95597       3.18702      -0.00000
Nuclear contribution   :      2.89798      -4.83787       0.00000
                        -----------------------------------------
Total Dipole Moment    :      0.94201      -1.65085      -0.00000
                        -----------------------------------------
Magnitude (a.u.)       :      1.90071
Magnitude (Debye)      :      4.83123

Rotational constants in cm-1:     0.416316     0.174738     0.129141
Rotational constants in MHz : 12480.851450  5238.513616  3871.538350

                             ****ORCA TERMINATED NORMALLY****
TOTAL RUN TIME: 0 days 0 hours 8 minutes 31 seconds 18 msec
