                         Program Version 5.0.4 -  RELEASE  -
|  1> !ri-mp2 aug-cc-pvqz aug-cc-pvqz/c tightscf
|  2> %pal nprocs 16 end
|  3>
|  4> * xyz 0 1
|  5> H    -0.140619    0.678735    2.076979
|  6> H     1.129568    1.686573    1.231058
|  7> C     0.276344    1.019981    1.138037
|  8> H    -0.140619    0.678735   -2.076979
|  9> H     1.129568    1.686573   -1.231058
| 10> C     0.276344    1.019981   -1.138037
| 11> C     0.276344    0.034656    0.000000
| 12> H    -1.743752    1.161245    0.000000
| 13> C    -0.668943    1.198926    0.000000
| 14> N    -0.181839   -2.488939    0.000000
| 15> C     0.013033   -1.351758    0.000000
| 16> *
| 17>
| 18>                          ****END OF INPUT****

CARTESIAN COORDINATES (ANGSTROEM)
---------------------------------
  H     -0.140619    0.678735    2.076979
  H      1.129568    1.686573    1.231058
  C      0.276344    1.019981    1.138037
  H     -0.140619    0.678735   -2.076979
  H      1.129568    1.686573   -1.231058
  C      0.276344    1.019981   -1.138037
  C      0.276344    0.034656    0.000000
  H     -1.743752    1.161245    0.000000
  C     -0.668943    1.198926    0.000000
  N     -0.181839   -2.488939    0.000000
  C      0.013033   -1.351758    0.000000

 Total Charge           Charge          ....    0
 Multiplicity           Mult            ....    1
 Number of Electrons    NEL             ....   42
 Basis Dimension        Dim             ....  710

ORBITAL ENERGIES
----------------

  NO   OCC          E(Eh)            E(eV)
   0   2.0000     -15.565310      -423.5536
   1   2.0000     -11.292791      -307.2925
   2   2.0000     -11.281174      -306.9764
   3   2.0000     -11.277678      -306.8812
   4   2.0000     -11.277564      -306.8781
   5   2.0000     -11.275961      -306.8345
   6   2.0000      -1.265525       -34.4367
   7   2.0000      -1.211157       -32.9573
   8   2.0000      -0.970521       -26.4092
   9   2.0000      -0.911708       -24.8088
  10   2.0000      -0.825019       -22.4499
  11   2.0000      -0.748264       -20.3613
  12   2.0000      -0.637488       -17.3469
  13   2.0000      -0.632270       -17.2049
  14   2.0000      -0.564243       -15.3538
  15   2.0000      -0.554935       -15.1005
  16   2.0000      -0.522311       -14.2128
  17   2.0000      -0.516254       -14.0480
  18   2.0000      -0.497014       -13.5245
  19   2.0000      -0.438043       -11.9198
  20   2.0000      -0.375197       -10.2096
  21   0.0000       0.020915         0.5691
  22   0.0000       0.029731         0.8090
  23   0.0000       0.029821         0.8115
  24   0.0000       0.041831         1.1383
  25   0.0000       0.050697         1.3795

MULLIKEN ATOMIC CHARGES
-----------------------
   0 H :    0.383133
   1 H :    0.331368
   2 C :   -0.640418
   3 H :    0.383133
   4 H :    0.331368
   5 C :   -0.640418
   6 C :   -0.156835
   7 H :    0.502891
   8 C :   -0.440684
   9 N :   -0.764455
  10 C :    0.710920
Sum of atomic charges:   -0.0000000

LOEWDIN ATOMIC CHARGES
----------------------
   0 H :   -0.264010
   1 H :   -0.268209
   2 C :    0.593017
   3 H :   -0.264010
   4 H :   -0.268209
   5 C :    0.593017
   6 C :   -0.307120
   7 H :   -0.237450
   8 C :    0.275275
   9 N :    0.402971
  10 C :   -0.255271

  Mayer bond orders larger than 0.100000
B(  0-H ,  2-C ) :   0.7930 B(  1-H ,  2-C ) :   0.9133 B(  2-C ,  6-C ) :   0.8539
B(  2-C ,  8-C ) :   1.0647 B(  3-H ,  5-C ) :   0.7930 B(  4-H ,  5-C ) :   0.9133
B(  5-C ,  6-C ) :   0.8539 B(  5-C ,  8-C ) :   1.0647 B(  6-C ,  8-C ) :   0.6910
B(  6-C ,  9-N ) :   0.1027 B(  6-C , 10-C ) :   1.2382 B(  7-H ,  8-C ) :   0.6757
B(  9-N , 10-C ) :   2.3549

MP2 TOTAL ENERGY:     -247.763829142 Eh
FINAL SINGLE POINT ENERGY      -247.763829142397

DIPOLE MOMENT
-------------
                                X             Y             Z
Electronic contribution:     -0.24865      -4.09970      -0.00000
Nuclear contribution   :      0.23242       5.86069       0.00000
                        -----------------------------------------
Total Dipole Moment    :     -0.01623       1.76099      -0.00000
                        -----------------------------------------
Magnitude (a.u.)       :      1.76107
Magnitude (Debye)      :      4.47628

Rotational constants in cm-1:     0.295953     0.097529     0.083613
Rotational constants in MHz :  8872.442664  2923.835547  2506.661098

                             ****ORCA TERMINATED NORMALLY****
TOTAL RUN TIME: 0 days 0 hours 12 minutes 44 seconds 315 msec
