                         Program Version 5.0.4 -  RELEASE  -
|  1> !ri-mp2 aug-cc-pvqz aug-cc-pvqz/c tightscf
|  2> %pal nprocs 16 end
|  3>
|  4> * xyz 0 1
|  5> F     3.940309   -0.700508    0.000001
|  6> O     0.078593   -0.377057    0.000001
|  7> O     2.113751    0.544697    0.000000
|  8> O     0.337726    1.902359   -0.000003
|  9> C     0.818126    0.821984    0.000000
| 10> C    -1.226279   -0.291508    0.000001
| 11> C     2.589453   -0.807507    0.000001
| 12> C    -2.427483   -0.308785    0.000000
| 13> C    -3.790073   -0.312892    0.000000
| 14> C    -4.994397   -0.317938    0.000000
| 15> H     2.268129   -1.318104    0.905799
| 16> H     2.268129   -1.318107   -0.905795
| 17> H    -6.055687   -0.319329    0.000000
| 18> *
| 19>
| 20>                          ****END OF INPUT****

CARTESIAN COORDINATES (ANGSTROEM)
---------------------------------
  F      3.940309   -0.700508    0.000001
  O      0.078593   -0.377057    0.000001
  O      2.113751    0.544697    0.000000
  O      0.337726    1.902359   -0.000003
  C      0.818126    0.821984    0.000000
  C     -1.226279   -0.291508    0.000001
  C      2.589453   -0.807507    0.000001
  C     -2.427483   -0.308785    0.000000
  C     -3.790073   -0.312892    0.000000
  C     -4.994397   -0.317938    0.000000
  H      2.268129   -1.318104    0.905799
  H      2.268129   -1.318107   -0.905795
  H     -6.055687   -0.319329    0.000000

 Total Charge           Charge          ....    0
 Multiplicity           Mult            ....    1
 Number of Electrons    NEL             ....   72
 Basis Dimension        Dim             ....  938

ORBITAL ENERGIES
----------------

  NO   OCC          E(Eh)            E(eV)
   0   2.0000     -26.328984      -716.4481
   1   2.0000     -20.693940      -563.1107
   2   2.0000     -20.658937      -562.1583
   3   2.0000     -20.590238      -560.2889
   4   2.0000     -11.486130      -312.5535
   5   2.0000     -11.417909      -310.6971
   6   2.0000     -11.333751      -308.4071
   7   2.0000     -11.271053      -306.7010
   8   2.0000     -11.266333      -306.5725
   9   2.0000     -11.255542      -306.2789
  10   2.0000      -1.654725       -45.0274
  11   2.0000      -1.563871       -42.5551
  12   2.0000      -1.469344       -39.9829
  13   2.0000      -1.427778       -38.8518
  14   2.0000      -1.101856       -29.9830
  15   2.0000      -1.037194       -28.2235
  16   2.0000      -1.016474       -27.6597
  17   2.0000      -0.939132       -25.5551
  18   2.0000      -0.841954       -22.9107
  19   2.0000      -0.825341       -22.4587
  20   2.0000      -0.789251       -21.4766
  21   2.0000      -0.776011       -21.1163
  22   2.0000      -0.736487       -20.0408
  23   2.0000      -0.728016       -19.8103
  24   2.0000      -0.717386       -19.5211
  25   2.0000      -0.695195       -18.9172
  26   2.0000      -0.661966       -18.0130
  27   2.0000      -0.644623       -17.5411
  28   2.0000      -0.607090       -16.5198
  29   2.0000      -0.584164       -15.8959
  30   2.0000      -0.526243       -14.3198
  31   2.0000      -0.509703       -13.8697
  32   2.0000      -0.495164       -13.4741
  33   2.0000      -0.490368       -13.3436
  34   2.0000      -0.374107       -10.1800
  35   2.0000      -0.365468        -9.9449
  36   0.0000       0.020073         0.5462
  37   0.0000       0.025490         0.6936
  38   0.0000       0.033967         0.9243
  39   0.0000       0.048987         1.3330
  40   0.0000       0.051590         1.4038

MULLIKEN ATOMIC CHARGES
-----------------------
   0 F :   -0.662045
   1 O :   -0.792238
   2 O :   -0.751558
   3 O :   -0.613863
   4 C :    1.296415
   5 C :    0.996183
   6 C :    0.465759
   7 C :    0.051054
   8 C :    0.208923
   9 C :   -1.002499
  10 H :    0.304545
  11 H :    0.304545
  12 H :    0.194778
Sum of atomic charges:    0.0000000

LOEWDIN ATOMIC CHARGES
----------------------
   0 F :    0.797346
   1 O :    0.725045
   2 O :    0.780505
   3 O :    0.669716
   4 C :   -1.450424
   5 C :   -0.342331
   6 C :   -0.402838
   7 C :   -0.056368
   8 C :   -0.078675
   9 C :    0.537237
  10 H :   -0.362354
  11 H :   -0.362354
  12 H :   -0.454507

  Mayer bond orders larger than 0.100000
B(  0-F ,  6-C ) :   0.5003 B(  1-O ,  4-C ) :   0.9258 B(  1-O ,  5-C ) :   0.5122
B(  1-O ,  7-C ) :   0.7381 B(  2-O ,  4-C ) :   0.9709 B(  2-O ,  6-C ) :   0.8104
B(  3-O ,  4-C ) :   1.6485 B(  5-C ,  7-C ) :   2.4315 B(  5-C ,  8-C ) :  -0.3302
B(  5-C ,  9-C ) :  -0.1102 B(  5-C , 12-H ) :  -0.1934 B(  6-C , 10-H ) :   0.8596
B(  6-C , 11-H ) :   0.8596 B(  7-C ,  8-C ) :   0.4397 B(  7-C , 12-H ) :  -0.2082
B(  8-C ,  9-C ) :   2.0948 B(  8-C , 12-H ) :  -0.1977 B(  9-C , 12-H ) :   1.6648

MP2 TOTAL ENERGY:     -555.074910196 Eh
FINAL SINGLE POINT ENERGY      -555.074910196238

DIPOLE MOMENT
-------------
                                X             Y             Z
Electronic contribution:      4.90155       0.87274       0.00000
Nuclear contribution   :     -5.11150      -2.12332       0.00000
                        -----------------------------------------
Total Dipole Moment    :     -0.20995      -1.25058       0.00000
                        -----------------------------------------
Magnitude (a.u.)       :      1.26808
Magnitude (Debye)      :      3.22320

Rotational constants in cm-1:     0.168626     0.015803     0.014490
Rotational constants in MHz :  5055.289341   473.773188   434.408372

                             ****ORCA TERMINATED NORMALLY****
TOTAL RUN TIME: 0 days 0 hours 32 minutes 47 seconds 433 msec
