                         Program Version 5.0.4 -  RELEASE  -
|  1> !ri-mp2 aug-cc-pvqz aug-cc-pvqz/c tightscf
|  2> %pal nprocs 16 end
|  3>
|  4> * xyz 0 1
|  5> C      0.000000    0.000000    0.631617
|  6> C      0.000000    0.000000   -0.631617
|  7> C      0.000000    0.000000    1.943149
|  8> C      0.000000    0.000000   -1.943149
|  9> H      0.000000    0.924533    2.508102
| 10> H      0.000000   -0.924533    2.508102
| 11> H      0.000000    0.924533   -2.508102
| 12> H      0.000000   -0.924533   -2.508102
| 13> *
| 14>
| 15>                          ****END OF INPUT****

CARTESIAN COORDINATES (ANGSTROEM)
---------------------------------
  C      0.000000    0.000000    0.631617
  C      0.000000    0.000000   -0.631617
  C      0.000000    0.000000    1.943149
  C      0.000000    0.000000   -1.943149
  H      0.000000    0.924533    2.508102
  H      0.000000   -0.924533    2.508102
  H      0.000000    0.924533   -2.508102
  H      0.000000   -0.924533   -2.508102

 Total Charge           Charge          ....    0
 Multiplicity           Mult            ....    1
 Number of Electrons    NEL             ....   28
 Basis Dimension        Dim             ....  504

ORBITAL ENERGIES
----------------

  NO   OCC          E(Eh)            E(eV)
   0   2.0000     -11.257073      -306.3205
   1   2.0000     -11.254814      -306.2591
   2   2.0000     -11.252670      -306.2007
   3   2.0000     -11.252408      -306.1936
   4   2.0000      -1.093964       -29.7683
   5   2.0000      -1.016042       -27.6479
   6   2.0000      -0.896655       -24.3992
   7   2.0000      -0.691908       -18.8278
   8   2.0000      -0.652320       -17.7505
   9   2.0000      -0.626774       -17.0554
  10   2.0000      -0.604847       -16.4587
  11   2.0000      -0.477622       -12.9967
  12   2.0000      -0.375638       -10.2216
  13   2.0000      -0.336242        -9.1496
  14   0.0000       0.026335         0.7166
  15   0.0000       0.031361         0.8534
  16   0.0000       0.037258         1.0138
  17   0.0000       0.046513         1.2657
  18   0.0000       0.054948         1.4952

MULLIKEN ATOMIC CHARGES
-----------------------
   0 C :   -0.249115
   1 C :   -0.249115
   2 C :   -0.414907
   3 C :   -0.414907
   4 H :    0.332011
   5 H :    0.332011
   6 H :    0.332011
   7 H :    0.332011
Sum of atomic charges:    0.0000000

LOEWDIN ATOMIC CHARGES
----------------------
   0 C :    0.086137
   1 C :    0.086137
   2 C :    0.691313
   3 C :    0.691313
   4 H :   -0.388725
   5 H :   -0.388725
   6 H :   -0.388725
   7 H :   -0.388725

  Mayer bond orders larger than 0.100000
B(  0-C ,  1-C ) :   2.3632 B(  0-C ,  2-C ) :   1.5607 B(  1-C ,  3-C ) :   1.5607
B(  2-C ,  3-C ) :   0.1279 B(  2-C ,  4-H ) :   0.9362 B(  2-C ,  5-H ) :   0.9362
B(  3-C ,  6-H ) :   0.9362 B(  3-C ,  7-H ) :   0.9362

MP2 TOTAL ENERGY:     -154.422078840 Eh
FINAL SINGLE POINT ENERGY      -154.422078839986

DIPOLE MOMENT
-------------
                                X             Y             Z
Electronic contribution:     -0.00000       0.00000      -0.00000
Nuclear contribution   :      0.00000       0.00000       0.00000
                        -----------------------------------------
Total Dipole Moment    :     -0.00000       0.00000      -0.00000
                        -----------------------------------------
Magnitude (a.u.)       :      0.00000
Magnitude (Debye)      :      0.00000

Rotational constants in cm-1:     4.891382     0.134164     0.130582
Rotational constants in MHz : 146639.930398  4022.124664  3914.748677

                             ****ORCA TERMINATED NORMALLY****
TOTAL RUN TIME: 0 days 0 hours 4 minutes 7 seconds 258 msec
