                         Program Version 5.0.4 -  RELEASE  -
|  1> !ri-mp2 aug-cc-pvqz aug-cc-pvqz/c tightscf
|  2> %pal nprocs 16 end
|  3>
|  4> * xyz 0 1
|  5> C      1.747263   -1.406167        0.000000
|  6> C      2.223038   -0.087275        0.000000
|  7> C      0.389336   -1.682725        0.000000
|  8> C      1.351487    0.993360        0.000000
|  9> C     -1.940990   -0.463643        0.000000
| 10> C     -2.180642    0.864075        0.000000
| 11> C     -0.508089   -0.610981        0.000000
| 12> C      0.000000    0.695937        0.000000
| 13> O     -1.024824    1.601092        0.000000
| 14> H      2.457684   -2.221739        0.000000
| 15> H      3.289485    0.091942        0.000000
| 16> H      0.033887   -2.704379        0.000000
| 17> H      1.703212    2.015004        0.000000
| 18> H     -2.683681   -1.242643        0.000000
| 19> H     -3.090416    1.437594        0.000000
| 20> *
| 21>
| 22>                          ****END OF INPUT****

CARTESIAN COORDINATES (ANGSTROEM)
---------------------------------
  C      1.747263   -1.406167    0.000000
  C      2.223038   -0.087275    0.000000
  C      0.389336   -1.682725    0.000000
  C      1.351487    0.993360    0.000000
  C     -1.940990   -0.463643    0.000000
  C     -2.180642    0.864075    0.000000
  C     -0.508089   -0.610981    0.000000
  C      0.000000    0.695937    0.000000
  O     -1.024824    1.601092    0.000000
  H      2.457684   -2.221739    0.000000
  H      3.289485    0.091942    0.000000
  H      0.033887   -2.704379    0.000000
  H      1.703212    2.015004    0.000000
  H     -2.683681   -1.242643    0.000000
  H     -3.090416    1.437594    0.000000

 Total Charge           Charge          ....    0
 Multiplicity           Mult            ....    1
 Number of Electrons    NEL             ....   62
 Basis Dimension        Dim             ....  996

ORBITAL ENERGIES
----------------

  NO   OCC          E(Eh)            E(eV)
   0   2.0000     -20.618368      -561.0543
   1   2.0000     -11.300245      -307.4953
   2   2.0000     -11.292707      -307.2902
   3   2.0000     -11.240931      -305.8813
   4   2.0000     -11.239747      -305.8491
   5   2.0000     -11.238377      -305.8118
   6   2.0000     -11.237090      -305.7768
   7   2.0000     -11.235583      -305.7358
   8   2.0000     -11.231467      -305.6238
   9   2.0000      -1.456973       -39.6463
  10   2.0000      -1.156531       -31.4708
  11   2.0000      -1.084326       -29.5060
  12   2.0000      -1.017985       -27.7008
  13   2.0000      -0.994222       -27.0542
  14   2.0000      -0.858364       -23.3573
  15   2.0000      -0.817953       -22.2576
  16   2.0000      -0.801755       -21.8169
  17   2.0000      -0.717373       -19.5207
  18   2.0000      -0.680188       -18.5089
  19   2.0000      -0.663203       -18.0467
  20   2.0000      -0.642591       -17.4858
  21   2.0000      -0.613337       -16.6897
  22   2.0000      -0.596755       -16.2385
  23   2.0000      -0.575758       -15.6672
  24   2.0000      -0.560300       -15.2465
  25   2.0000      -0.522916       -14.2293
  26   2.0000      -0.494318       -13.4511
  27   2.0000      -0.493354       -13.4248
  28   2.0000      -0.410502       -11.1703
  29   2.0000      -0.328125        -8.9287
  30   2.0000      -0.303875        -8.2689
  31   0.0000       0.025012         0.6806
  32   0.0000       0.027058         0.7363
  33   0.0000       0.029152         0.7933
  34   0.0000       0.039091         1.0637
  35   0.0000       0.041785         1.1370

MULLIKEN ATOMIC CHARGES
-----------------------
   0 C :   -0.406352
   1 C :   -0.315388
   2 C :   -0.335427
   3 C :   -0.486039
   4 C :   -0.537816
   5 C :   -0.370877
   6 C :    0.013486
   7 C :    1.058295
   8 O :   -0.737046
   9 H :    0.235024
  10 H :    0.257510
  11 H :    0.278109
  12 H :    0.373228
  13 H :    0.432144
  14 H :    0.541149
Sum of atomic charges:    0.0000000

LOEWDIN ATOMIC CHARGES
----------------------
   0 C :    0.331612
   1 C :    0.328728
   2 C :    0.360374
   3 C :    0.364721
   4 C :    0.351256
   5 C :    0.025060
   6 C :   -0.170266
   7 C :   -0.511273
   8 O :    0.869659
   9 H :   -0.331651
  10 H :   -0.328457
  11 H :   -0.318286
  12 H :   -0.319777
  13 H :   -0.321682
  14 H :   -0.330017

  Mayer bond orders larger than 0.100000
B(  0-C ,  1-C ) :   1.1432 B(  0-C ,  2-C ) :   1.2893 B(  0-C ,  6-C ) :  -0.1722
B(  0-C ,  9-H ) :   1.1278 B(  0-C , 10-H ) :  -0.1147 B(  1-C ,  3-C ) :   1.4035
B(  1-C ,  7-C ) :  -0.3558 B(  1-C , 10-H ) :   1.1028 B(  2-C ,  3-C ) :   0.1084
B(  2-C ,  4-C ) :  -0.1485 B(  2-C ,  6-C ) :   1.0166 B(  2-C ,  9-H ) :  -0.1327
B(  2-C , 11-H ) :   1.0261 B(  3-C ,  6-C ) :  -0.1898 B(  3-C ,  7-C ) :   1.0379
B(  3-C , 10-H ) :  -0.1076 B(  3-C , 12-H ) :   0.8784 B(  4-C ,  5-C ) :   1.8626
B(  4-C ,  6-C ) :   0.9180 B(  4-C ,  7-C ) :  -0.3831 B(  4-C , 13-H ) :   0.8472
B(  5-C ,  6-C ) :  -0.2146 B(  5-C ,  8-O ) :   0.9179 B(  5-C , 14-H ) :   0.7720
B(  6-C ,  7-C ) :   1.1558 B(  6-C ,  8-O ) :   0.2293 B(  6-C , 11-H ) :  -0.1522
B(  7-C ,  8-O ) :   0.3284

MP2 TOTAL ENERGY:     -383.029256977 Eh
FINAL SINGLE POINT ENERGY      -383.029256976645

DIPOLE MOMENT
-------------
                                X             Y             Z
Electronic contribution:     -1.88041       2.28822       0.00000
Nuclear contribution   :      1.66972      -2.56170       0.00000
                        -----------------------------------------
Total Dipole Moment    :     -0.21069      -0.27348       0.00000
                        -----------------------------------------
Magnitude (a.u.)       :      0.34523
Magnitude (Debye)      :      0.87751

Rotational constants in cm-1:     0.131649     0.055565     0.039073
Rotational constants in MHz :  3946.752312  1665.787532  1171.386035

                             ****ORCA TERMINATED NORMALLY****
TOTAL RUN TIME: 0 days 0 hours 54 minutes 36 seconds 48 msec
