                         Program Version 5.0.4 -  RELEASE  -
|  1> !ri-mp2 aug-cc-pvqz aug-cc-pvqz/c tightscf
|  2> %pal nprocs 16 end
|  3> %maxcore 3800
|  4>
|  5> * xyz 0 1
|  6> C     -1.220553    0.008291    0.000000
|  7> C      0.018065    0.941134    0.000000
|  8> C      0.207716    1.430365    1.426632
|  9> C      0.207716    1.430365   -1.426632
| 10> C     -0.475923   -1.306583    0.000000
| 11> C      0.207716    0.053150    2.219513
| 12> C      0.207716    0.053150   -2.219513
| 13> C      0.362254   -1.260477   -1.348939
| 14> C      0.362254   -1.260477    1.348939
| 15> H     -1.853935    0.149273    0.874293
| 16> H     -1.853935    0.149273   -0.874293
| 17> H      0.882835    0.286335    0.000000
| 18> H      1.158855    1.951425    1.555610
| 19> H     -0.583800    2.082415    1.802671
| 20> H     -0.583800    2.082415   -1.802671
| 21> H      1.158855    1.951425   -1.555610
| 22> H     -1.113964   -2.193709    0.000000
| 23> H      1.006641    0.053850    2.962556
| 24> H     -0.719568   -0.025384    2.786768
| 25> H     -0.719568   -0.025384   -2.786768
| 26> H      1.006641    0.053850   -2.962556
| 27> H      1.419007   -1.432023   -1.131265
| 28> H      0.057484   -2.092626   -1.986451
| 29> H      0.057484   -2.092626    1.986451
| 30> H      1.419007   -1.432023    1.131265
| 31> *
| 32>
| 33>                          ****END OF INPUT****

CARTESIAN COORDINATES (ANGSTROEM)
---------------------------------
  C     -1.220553    0.008291    0.000000
  C      0.018065    0.941134    0.000000
  C      0.207716    1.430365    1.426632
  C      0.207716    1.430365   -1.426632
  C     -0.475923   -1.306583    0.000000
  C      0.207716    0.053150    2.219513
  C      0.207716    0.053150   -2.219513
  C      0.362254   -1.260477   -1.348939
  C      0.362254   -1.260477    1.348939
  H     -1.853935    0.149273    0.874293
  H     -1.853935    0.149273   -0.874293
  H      0.882835    0.286335    0.000000
  H      1.158855    1.951425    1.555610
  H     -0.583800    2.082415    1.802671
  H     -0.583800    2.082415   -1.802671
  H      1.158855    1.951425   -1.555610
  H     -1.113964   -2.193709    0.000000
  H      1.006641    0.053850    2.962556
  H     -0.719568   -0.025384    2.786768
  H     -0.719568   -0.025384   -2.786768
  H      1.006641    0.053850   -2.962556
  H      1.419007   -1.432023   -1.131265
  H      0.057484   -2.092626   -1.986451
  H      0.057484   -2.092626    1.986451
  H      1.419007   -1.432023    1.131265

 Total Charge           Charge          ....    0
 Multiplicity           Mult            ....    1
 Number of Electrons    NEL             ....   70
 Basis Dimension        Dim             .... 1456

ORBITAL ENERGIES
----------------

  NO   OCC          E(Eh)            E(eV)
   0   2.0000     -11.222675      -305.3845
   1   2.0000     -11.218090      -305.2598
   2   2.0000     -11.218089      -305.2597
   3   2.0000     -11.217234      -305.2365
   4   2.0000     -11.217206      -305.2357
   5   2.0000     -11.216980      -305.2295
   6   2.0000     -11.216980      -305.2295
   7   2.0000     -11.205905      -304.9282
   8   2.0000     -11.199205      -304.7459
   9   2.0000      -1.145178       -31.1619
  10   2.0000      -1.038992       -28.2724
  11   2.0000      -1.013566       -27.5805
  12   2.0000      -0.960104       -26.1258
  13   2.0000      -0.913375       -24.8542
  14   2.0000      -0.852161       -23.1885
  15   2.0000      -0.786205       -21.3937
  16   2.0000      -0.784437       -21.3456
  17   2.0000      -0.718232       -19.5441
  18   2.0000      -0.652681       -17.7604
  19   2.0000      -0.634350       -17.2615
  20   2.0000      -0.612704       -16.6725
  21   2.0000      -0.604838       -16.4585
  22   2.0000      -0.558940       -15.2095
  23   2.0000      -0.539734       -14.6869
  24   2.0000      -0.527241       -14.3470
  25   2.0000      -0.509528       -13.8650
  26   2.0000      -0.503158       -13.6916
  27   2.0000      -0.486489       -13.2380
  28   2.0000      -0.481839       -13.1115
  29   2.0000      -0.467480       -12.7208
  30   2.0000      -0.461267       -12.5517
  31   2.0000      -0.449337       -12.2271
  32   2.0000      -0.416220       -11.3259
  33   2.0000      -0.408636       -11.1195
  34   2.0000      -0.387446       -10.5429
  35   0.0000       0.024825         0.6755
  36   0.0000       0.029470         0.8019
  37   0.0000       0.029562         0.8044
  38   0.0000       0.032250         0.8776
  39   0.0000       0.043402         1.1810

MULLIKEN ATOMIC CHARGES
-----------------------
   0 C :   -0.556691
   1 C :    0.937162
   2 C :   -0.854457
   3 C :   -0.854431
   4 C :    0.037375
   5 C :   -0.526426
   6 C :   -0.526402
   7 C :   -0.609766
   8 C :   -0.609783
   9 H :    0.276243
  10 H :    0.276236
  11 H :    0.189147
  12 H :    0.140783
  13 H :    0.214026
  14 H :    0.214011
  15 H :    0.140826
  16 H :    0.392393
  17 H :    0.267637
  18 H :    0.183982
  19 H :    0.183949
  20 H :    0.267643
  21 H :    0.166583
  22 H :    0.241658
  23 H :    0.241699
  24 H :    0.166600
Sum of atomic charges:    0.0000000

LOEWDIN ATOMIC CHARGES
----------------------
   0 C :    0.527487
   1 C :    0.116111
   2 C :    0.635029
   3 C :    0.635029
   4 C :    0.239686
   5 C :    0.592471
   6 C :    0.592471
   7 C :    0.604674
   8 C :    0.604674
   9 H :   -0.272674
  10 H :   -0.272674
  11 H :   -0.585268
  12 H :   -0.254151
  13 H :   -0.256836
  14 H :   -0.256836
  15 H :   -0.254151
  16 H :   -0.248245
  17 H :   -0.262694
  18 H :   -0.278945
  19 H :   -0.278945
  20 H :   -0.262694
  21 H :   -0.267171
  22 H :   -0.264590
  23 H :   -0.264590
  24 H :   -0.267171

  Mayer bond orders larger than 0.100000
B(  0-C ,  1-C ) :   0.6063 B(  0-C ,  4-C ) :   0.9620 B(  0-C ,  9-H ) :   0.9596
B(  0-C , 10-H ) :   0.9597 B(  1-C ,  2-C ) :   0.1924 B(  1-C ,  3-C ) :   0.1925
B(  1-C ,  5-C ) :  -0.2102 B(  1-C ,  6-C ) :  -0.2102 B(  1-C , 11-H ) :   0.9353
B(  1-C , 12-H ) :  -0.1645 B(  1-C , 13-H ) :  -0.1474 B(  1-C , 14-H ) :  -0.1474
B(  1-C , 15-H ) :  -0.1645 B(  2-C ,  5-C ) :   1.1587 B(  2-C , 12-H ) :   1.1703
B(  2-C , 13-H ) :   1.1026 B(  3-C ,  6-C ) :   1.1587 B(  3-C , 14-H ) :   1.1026
B(  3-C , 15-H ) :   1.1703 B(  4-C ,  7-C ) :   0.8571 B(  4-C ,  8-C ) :   0.8571
B(  4-C , 16-H ) :   0.7969 B(  5-C ,  8-C ) :   0.8707 B(  5-C , 17-H ) :   0.9494
B(  5-C , 18-H ) :   1.0159 B(  6-C ,  7-C ) :   0.8707 B(  6-C , 19-H ) :   1.0159
B(  6-C , 20-H ) :   0.9494 B(  7-C , 21-H ) :   1.0801 B(  7-C , 22-H ) :   0.9805
B(  8-C , 23-H ) :   0.9805 B(  8-C , 24-H ) :   1.0801

MP2 TOTAL ENERGY:     -351.849560725 Eh
FINAL SINGLE POINT ENERGY      -351.849560724873

DIPOLE MOMENT
-------------
                                X             Y             Z
Electronic contribution:     -0.74610       0.49949      -0.00000
Nuclear contribution   :      0.78125      -0.56460       0.00000
                        -----------------------------------------
Total Dipole Moment    :      0.03516      -0.06511      -0.00000
                        -----------------------------------------
Magnitude (a.u.)       :      0.07400
Magnitude (Debye)      :      0.18808

Rotational constants in cm-1:     0.085035     0.053859     0.040057
Rotational constants in MHz :  2549.299993  1614.654851  1200.879065

                             ****ORCA TERMINATED NORMALLY****
TOTAL RUN TIME: 0 days 2 hours 54 minutes 25 seconds 472 msec
