                         Program Version 5.0.4 -  RELEASE  -
|  1> !ri-mp2 aug-cc-pvqz aug-cc-pvqz/c tightscf
|  2> %pal nprocs 16 end
|  3>
|  4> * xyz 0 1
|  5> C      0.000000    0.000000    2.038408
|  6> C      0.000000    0.000000   -2.171450
|  7> C      0.000000    1.205362   -1.477349
|  8> C      0.000000   -1.205362   -1.477349
|  9> C      0.000000    1.211491   -0.090773
| 10> C      0.000000   -1.211491   -0.090773
| 11> C      0.000000    0.000000    0.608724
| 12> N      0.000000    0.000000    3.190989
| 13> H      0.000000    0.000000   -3.252992
| 14> H      0.000000    2.142437   -2.016824
| 15> H      0.000000   -2.142437   -2.016824
| 16> H      0.000000    2.143254    0.456544
| 17> H      0.000000   -2.143254    0.456544
| 18> *
| 19>
| 20>                          ****END OF INPUT****

CARTESIAN COORDINATES (ANGSTROEM)
---------------------------------
  C      0.000000    0.000000    2.038408
  C      0.000000    0.000000   -2.171450
  C      0.000000    1.205362   -1.477349
  C      0.000000   -1.205362   -1.477349
  C      0.000000    1.211491   -0.090773
  C      0.000000   -1.211491   -0.090773
  C      0.000000    0.000000    0.608724
  N      0.000000    0.000000    3.190989
  H      0.000000    0.000000   -3.252992
  H      0.000000    2.142437   -2.016824
  H      0.000000   -2.142437   -2.016824
  H      0.000000    2.143254    0.456544
  H      0.000000   -2.143254    0.456544

 Total Charge           Charge          ....    0
 Multiplicity           Mult            ....    1
 Number of Electrons    NEL             ....   54
 Basis Dimension        Dim             ....  870

ORBITAL ENERGIES
----------------

  NO   OCC          E(Eh)            E(eV)
   0   2.0000     -15.570732      -423.7012
   1   2.0000     -11.289563      -307.2046
   2   2.0000     -11.275077      -306.8104
   3   2.0000     -11.270493      -306.6857
   4   2.0000     -11.270441      -306.6843
   5   2.0000     -11.265631      -306.5534
   6   2.0000     -11.260157      -306.4045
   7   2.0000     -11.260008      -306.4004
   8   2.0000      -1.226925       -33.3863
   9   2.0000      -1.184650       -32.2360
  10   2.0000      -1.064137       -28.9566
  11   2.0000      -1.048845       -28.5405
  12   2.0000      -0.889101       -24.1937
  13   2.0000      -0.860149       -23.4058
  14   2.0000      -0.767323       -20.8799
  15   2.0000      -0.700695       -19.0669
  16   2.0000      -0.662981       -18.0406
  17   2.0000      -0.638031       -17.3617
  18   2.0000      -0.619603       -16.8603
  19   2.0000      -0.566062       -15.4033
  20   2.0000      -0.556161       -15.1339
  21   2.0000      -0.536412       -14.5965
  22   2.0000      -0.530925       -14.4472
  23   2.0000      -0.484065       -13.1721
  24   2.0000      -0.469209       -12.7678
  25   2.0000      -0.367598       -10.0029
  26   2.0000      -0.359635        -9.7862
  27   0.0000       0.018127         0.4933
  28   0.0000       0.025318         0.6889
  29   0.0000       0.031463         0.8562
  30   0.0000       0.042521         1.1571
  31   0.0000       0.046767         1.2726

MULLIKEN ATOMIC CHARGES
-----------------------
   0 C :    0.531818
   1 C :   -0.327347
   2 C :   -0.401115
   3 C :   -0.401108
   4 C :   -0.118021
   5 C :   -0.118020
   6 C :   -0.028423
   7 N :   -0.801310
   8 H :    0.326572
   9 H :    0.277492
  10 H :    0.277492
  11 H :    0.390984
  12 H :    0.390987
Sum of atomic charges:    0.0000000

LOEWDIN ATOMIC CHARGES
----------------------
   0 C :   -0.319925
   1 C :    0.350575
   2 C :    0.353506
   3 C :    0.353506
   4 C :    0.319785
   5 C :    0.319785
   6 C :   -0.207799
   7 N :    0.413589
   8 H :   -0.316209
   9 H :   -0.319350
  10 H :   -0.319350
  11 H :   -0.314056
  12 H :   -0.314056

  Mayer bond orders larger than 0.100000
B(  0-C ,  4-C ) :  -0.3737 B(  0-C ,  5-C ) :  -0.3738 B(  0-C ,  6-C ) :   1.4035
B(  0-C ,  7-N ) :   2.3498 B(  1-C ,  2-C ) :   1.2117 B(  1-C ,  3-C ) :   1.2117
B(  1-C ,  6-C ) :   0.1433 B(  1-C ,  8-H ) :   0.9868 B(  2-C ,  4-C ) :   1.2787
B(  2-C ,  5-C ) :   0.1279 B(  2-C ,  6-C ) :  -0.2463 B(  2-C ,  9-H ) :   1.0862
B(  3-C ,  4-C ) :   0.1279 B(  3-C ,  5-C ) :   1.2787 B(  3-C ,  6-C ) :  -0.2463
B(  3-C , 10-H ) :   1.0862 B(  4-C ,  6-C ) :   1.0851 B(  4-C ,  9-H ) :  -0.1069
B(  4-C , 11-H ) :   0.8560 B(  5-C ,  6-C ) :   1.0850 B(  5-C , 10-H ) :  -0.1069
B(  5-C , 12-H ) :   0.8561

MP2 TOTAL ENERGY:     -323.923026950 Eh
FINAL SINGLE POINT ENERGY      -323.923026949877

DIPOLE MOMENT
-------------
                                X             Y             Z
Electronic contribution:     -0.00000       0.00000       4.28220
Nuclear contribution   :      0.00000       0.00000      -6.24957
                        -----------------------------------------
Total Dipole Moment    :     -0.00000       0.00000      -1.96736
                        -----------------------------------------
Magnitude (a.u.)       :      1.96736
Magnitude (Debye)      :      5.00064

Rotational constants in cm-1:     0.190110     0.051847     0.040737
Rotational constants in MHz :  5699.365942  1554.322711  1221.261946

                             ****ORCA TERMINATED NORMALLY****
TOTAL RUN TIME: 0 days 0 hours 25 minutes 58 seconds 541 msec
