                         Program Version 5.0.4 -  RELEASE  -
|  1> !ri-mp2 aug-cc-pvqz aug-cc-pvqz/c tightscf
|  2> %pal nprocs 16 end
|  3>
|  4> * xyz 0 1
|  5> C     -0.244446   -0.536702    0.764733
|  6> C     -0.244446   -0.536702   -0.764733
|  7> C     -0.244446    0.993902    0.781471
|  8> C     -0.244446    0.993902   -0.781471
|  9> C      0.939024   -1.048468    0.000000
| 10> H     -0.797183   -1.171910    1.441963
| 11> H     -0.797183   -1.171910   -1.441963
| 12> H      0.607058    1.464190    1.277074
| 13> H      0.607058    1.464190   -1.277074
| 14> H     -1.160667    1.417563    1.188390
| 15> H     -1.160667    1.417563   -1.188390
| 16> H      1.871038   -0.492128    0.000000
| 17> H      1.063120   -2.123147    0.000000
| 18> *
| 19>
| 20>                          ****END OF INPUT****

CARTESIAN COORDINATES (ANGSTROEM)
---------------------------------
  C     -0.244446   -0.536702    0.764733
  C     -0.244446   -0.536702   -0.764733
  C     -0.244446    0.993902    0.781471
  C     -0.244446    0.993902   -0.781471
  C      0.939024   -1.048468    0.000000
  H     -0.797183   -1.171910    1.441963
  H     -0.797183   -1.171910   -1.441963
  H      0.607058    1.464190    1.277074
  H      0.607058    1.464190   -1.277074
  H     -1.160667    1.417563    1.188390
  H     -1.160667    1.417563   -1.188390
  H      1.871038   -0.492128    0.000000
  H      1.063120   -2.123147    0.000000

 Total Charge           Charge          ....    0
 Multiplicity           Mult            ....    1
 Number of Electrons    NEL             ....   38
 Basis Dimension        Dim             ....  768

ORBITAL ENERGIES
----------------

  NO   OCC          E(Eh)            E(eV)
   0   2.0000     -11.225514      -305.4618
   1   2.0000     -11.224856      -305.4439
   2   2.0000     -11.220006      -305.3119
   3   2.0000     -11.219914      -305.3094
   4   2.0000     -11.219406      -305.2956
   5   2.0000      -1.183362       -32.2009
   6   2.0000      -0.979607       -26.6565
   7   2.0000      -0.887270       -24.1439
   8   2.0000      -0.796766       -21.6811
   9   2.0000      -0.726573       -19.7711
  10   2.0000      -0.685883       -18.6638
  11   2.0000      -0.609987       -16.5986
  12   2.0000      -0.595891       -16.2150
  13   2.0000      -0.532023       -14.4771
  14   2.0000      -0.521063       -14.1788
  15   2.0000      -0.464403       -12.6370
  16   2.0000      -0.459610       -12.5066
  17   2.0000      -0.403838       -10.9890
  18   2.0000      -0.372047       -10.1239
  19   0.0000       0.026918         0.7325
  20   0.0000       0.033456         0.9104
  21   0.0000       0.033496         0.9115
  22   0.0000       0.034736         0.9452
  23   0.0000       0.049298         1.3415

MULLIKEN ATOMIC CHARGES
-----------------------
   0 C :   -0.427508
   1 C :   -0.427509
   2 C :   -0.622581
   3 C :   -0.622581
   4 C :   -0.723313
   5 H :    0.527096
   6 H :    0.527096
   7 H :    0.297351
   8 H :    0.297351
   9 H :    0.292833
  10 H :    0.292833
  11 H :    0.279104
  12 H :    0.309828
Sum of atomic charges:   -0.0000000

LOEWDIN ATOMIC CHARGES
----------------------
   0 C :    0.209341
   1 C :    0.209341
   2 C :    0.546681
   3 C :    0.546681
   4 C :    0.582966
   5 H :   -0.243478
   6 H :   -0.243478
   7 H :   -0.259453
   8 H :   -0.259453
   9 H :   -0.272452
  10 H :   -0.272452
  11 H :   -0.267601
  12 H :   -0.276645

  Mayer bond orders larger than 0.100000
B(  0-C ,  1-C ) :   0.8751 B(  0-C ,  2-C ) :   0.9774 B(  0-C ,  4-C ) :   0.9931
B(  0-C ,  5-H ) :   0.6698 B(  1-C ,  3-C ) :   0.9774 B(  1-C ,  4-C ) :   0.9931
B(  1-C ,  6-H ) :   0.6698 B(  2-C ,  3-C ) :   1.0966 B(  2-C ,  7-H ) :   0.8589
B(  2-C ,  9-H ) :   0.9123 B(  3-C ,  8-H ) :   0.8589 B(  3-C , 10-H ) :   0.9123
B(  4-C , 11-H ) :   0.9186 B(  4-C , 12-H ) :   0.9076

MP2 TOTAL ENERGY:     -194.902918703 Eh
FINAL SINGLE POINT ENERGY      -194.902918703486

DIPOLE MOMENT
-------------
                                X             Y             Z
Electronic contribution:     -0.33698      -0.86848       0.00000
Nuclear contribution   :      0.24366       0.84276       0.00000
                        -----------------------------------------
Total Dipole Moment    :     -0.09332      -0.02572       0.00000
                        -----------------------------------------
Magnitude (a.u.)       :      0.09679
Magnitude (Debye)      :      0.24603

Rotational constants in cm-1:     0.306317     0.203983     0.159486
Rotational constants in MHz :  9183.148758  6115.264763  4781.267908

                             ****ORCA TERMINATED NORMALLY****
TOTAL RUN TIME: 0 days 0 hours 18 minutes 46 seconds 938 msec
