                         Program Version 5.0.4 -  RELEASE  -
|  1> !ri-mp2 aug-cc-pvqz aug-cc-pvqz/c tightscf
|  2> %pal nprocs 16 end
|  3>
|  4> * xyz 0 1
|  5> C    -0.742813     0.000000   -0.317669
|  6> C     0.742813     0.000000   -0.317669
|  7> C     0.000000     1.134528    0.312889
|  8> C     0.000000    -1.134528    0.312889
|  9> H     0.000000    -1.232016    1.397188
| 10> H     0.000000     1.232016    1.397188
| 11> H     0.000000    -2.078551   -0.219647
| 12> H     0.000000     2.078551   -0.219647
| 13> H    -1.425483     0.000000   -1.148859
| 14> H     1.425483     0.000000   -1.148859
| 15> *
| 16>
| 17>                          ****END OF INPUT****

CARTESIAN COORDINATES (ANGSTROEM)
---------------------------------
  C     -0.742813    0.000000   -0.317669
  C      0.742813    0.000000   -0.317669
  C      0.000000    1.134528    0.312889
  C      0.000000   -1.134528    0.312889
  H      0.000000   -1.232016    1.397188
  H      0.000000    1.232016    1.397188
  H      0.000000   -2.078551   -0.219647
  H      0.000000    2.078551   -0.219647
  H     -1.425483    0.000000   -1.148859
  H      1.425483    0.000000   -1.148859

 Total Charge           Charge          ....    0
 Multiplicity           Mult            ....    1
 Number of Electrons    NEL             ....   30
 Basis Dimension        Dim             ....  596

ORBITAL ENERGIES
----------------

  NO   OCC          E(Eh)            E(eV)
   0   2.0000     -11.237800      -305.7961
   1   2.0000     -11.237664      -305.7924
   2   2.0000     -11.234578      -305.7084
   3   2.0000     -11.233963      -305.6917
   4   2.0000      -1.214720       -33.0542
   5   2.0000      -0.929321       -25.2881
   6   2.0000      -0.786001       -21.3882
   7   2.0000      -0.785292       -21.3689
   8   2.0000      -0.693584       -18.8734
   9   2.0000      -0.589427       -16.0391
  10   2.0000      -0.582076       -15.8391
  11   2.0000      -0.514731       -14.0066
  12   2.0000      -0.458782       -12.4841
  13   2.0000      -0.434410       -11.8209
  14   2.0000      -0.355050        -9.6614
  15   0.0000       0.026934         0.7329
  16   0.0000       0.033581         0.9138
  17   0.0000       0.036262         0.9867
  18   0.0000       0.037300         1.0150
  19   0.0000       0.050553         1.3756

MULLIKEN ATOMIC CHARGES
-----------------------
   0 C :   -0.521088
   1 C :   -0.521088
   2 C :   -0.627343
   3 C :   -0.627343
   4 H :    0.313368
   5 H :    0.313368
   6 H :    0.386050
   7 H :    0.386050
   8 H :    0.449014
   9 H :    0.449014
Sum of atomic charges:   -0.0000000

LOEWDIN ATOMIC CHARGES
----------------------
   0 C :    0.247284
   1 C :    0.247284
   2 C :    0.571684
   3 C :    0.571684
   4 H :   -0.282619
   5 H :   -0.282619
   6 H :   -0.279859
   7 H :   -0.279859
   8 H :   -0.256490
   9 H :   -0.256490

  Mayer bond orders larger than 0.100000
B(  0-C ,  1-C ) :   0.8248 B(  0-C ,  2-C ) :   1.0415 B(  0-C ,  3-C ) :   1.0415
B(  0-C ,  8-H ) :   0.7355 B(  1-C ,  2-C ) :   1.0415 B(  1-C ,  3-C ) :   1.0415
B(  1-C ,  9-H ) :   0.7355 B(  2-C ,  5-H ) :   0.8875 B(  2-C ,  7-H ) :   0.7970
B(  3-C ,  4-H ) :   0.8875 B(  3-C ,  6-H ) :   0.7970

MP2 TOTAL ENERGY:     -155.648978351 Eh
FINAL SINGLE POINT ENERGY      -155.648978350754

DIPOLE MOMENT
-------------
                                X             Y             Z
Electronic contribution:      0.00000      -0.00000      -0.33113
Nuclear contribution   :      0.00000       0.00000       0.05975
                        -----------------------------------------
Total Dipole Moment    :      0.00000      -0.00000      -0.27138
                        -----------------------------------------
Magnitude (a.u.)       :      0.27138
Magnitude (Debye)      :      0.68980

Rotational constants in cm-1:     0.584916     0.311260     0.280769
Rotational constants in MHz : 17535.339368  9331.341366  8417.231477

                             ****ORCA TERMINATED NORMALLY****
TOTAL RUN TIME: 0 days 0 hours 7 minutes 31 seconds 622 msec
