                         Program Version 5.0.4 -  RELEASE  -
|  1> !ri-mp2 aug-cc-pvqz aug-cc-pvqz/c tightscf
|  2> %pal nprocs 16 end
|  3>
|  4> * xyz 0 1
|  5> O      0.000000    0.000000    1.316315
|  6> C      0.000000    0.000000    0.145081
|  7> F      0.000000    1.065268   -0.633389
|  8> F      0.000000   -1.065268   -0.633389
|  9> *
| 10>
| 11>                          ****END OF INPUT****

CARTESIAN COORDINATES (ANGSTROEM)
---------------------------------
  O      0.000000    0.000000    1.316315
  C      0.000000    0.000000    0.145081
  F      0.000000    1.065268   -0.633389
  F      0.000000   -1.065268   -0.633389

 Total Charge           Charge          ....    0
 Multiplicity           Mult            ....    1
 Number of Electrons    NEL             ....   32
 Basis Dimension        Dim             ....  320

ORBITAL ENERGIES
----------------

  NO   OCC          E(Eh)            E(eV)
   0   2.0000     -26.388254      -718.0609
   1   2.0000     -26.388225      -718.0601
   2   2.0000     -20.620347      -561.1082
   3   2.0000     -11.534198      -313.8615
   4   2.0000      -1.756342       -47.7925
   5   2.0000      -1.681289       -45.7502
   6   2.0000      -1.479800       -40.2674
   7   2.0000      -0.954702       -25.9788
   8   2.0000      -0.862036       -23.4572
   9   2.0000      -0.814518       -22.1642
  10   2.0000      -0.804022       -21.8785
  11   2.0000      -0.725767       -19.7491
  12   2.0000      -0.706328       -19.2202
  13   2.0000      -0.704061       -19.1585
  14   2.0000      -0.578976       -15.7547
  15   2.0000      -0.560236       -15.2448
  16   0.0000       0.048897         1.3306
  17   0.0000       0.063047         1.7156
  18   0.0000       0.067966         1.8495
  19   0.0000       0.069018         1.8781
  20   0.0000       0.140713         3.8290

MULLIKEN ATOMIC CHARGES
-----------------------
   0 O :   -0.447678
   1 C :    1.301935
   2 F :   -0.427128
   3 F :   -0.427128
Sum of atomic charges:    0.0000000

LOEWDIN ATOMIC CHARGES
----------------------
   0 O :    0.550937
   1 C :   -1.945223
   2 F :    0.697143
   3 F :    0.697143

  Mayer bond orders larger than 0.100000
B(  0-O ,  1-C ) :   1.9402 B(  1-C ,  2-F ) :   0.8323 B(  1-C ,  3-F ) :   0.8323

MP2 TOTAL ENERGY:     -312.723923351 Eh
FINAL SINGLE POINT ENERGY      -312.723923351322

DIPOLE MOMENT
-------------
                                X             Y             Z
Electronic contribution:     -0.00000       0.00000      -1.60777
Nuclear contribution   :      0.00000       0.00000       1.15798
                        -----------------------------------------
Total Dipole Moment    :     -0.00000       0.00000      -0.44979
                        -----------------------------------------
Magnitude (a.u.)       :      0.44979
Magnitude (Debye)      :      1.14328

Rotational constants in cm-1:     0.390968     0.390285     0.195313
Rotational constants in MHz : 11720.927035 11700.457856  5855.341751

                             ****ORCA TERMINATED NORMALLY****
TOTAL RUN TIME: 0 days 0 hours 1 minutes 9 seconds 66 msec
