                         Program Version 5.0.4 -  RELEASE  -
|  1> !ri-mp2 aug-cc-pvqz aug-cc-pvqz/c tightscf
|  2> %pal nprocs 16 end
|  3>
|  4> * xyz 0 1
|  5> C     0.000000     0.000000    0.861410
|  6> C     0.000000     0.643280   -0.499979
|  7> C     0.000000    -0.643280   -0.499979
|  8> H     0.000000     1.571117   -1.041246
|  9> H     0.000000    -1.571117   -1.041246
| 10> H     0.910708     0.000000    1.456887
| 11> H    -0.910708     0.000000    1.456887
| 12> *
| 13>
| 14>                          ****END OF INPUT****

CARTESIAN COORDINATES (ANGSTROEM)
---------------------------------
  C      0.000000    0.000000    0.861410
  C      0.000000    0.643280   -0.499979
  C      0.000000   -0.643280   -0.499979
  H      0.000000    1.571117   -1.041246
  H      0.000000   -1.571117   -1.041246
  H      0.910708    0.000000    1.456887
  H     -0.910708    0.000000    1.456887

 Total Charge           Charge          ....    0
 Multiplicity           Mult            ....    1
 Number of Electrons    NEL             ....   22
 Basis Dimension        Dim             ....  424

ORBITAL ENERGIES
----------------

  NO   OCC          E(Eh)            E(eV)
   0   2.0000     -11.242650      -305.9281
   1   2.0000     -11.240345      -305.8653
   2   2.0000     -11.237059      -305.7759
   3   2.0000      -1.158334       -31.5199
   4   2.0000      -0.825028       -22.4502
   5   2.0000      -0.766979       -20.8706
   6   2.0000      -0.681695       -18.5499
   7   2.0000      -0.596791       -16.2395
   8   2.0000      -0.494714       -13.4619
   9   2.0000      -0.420254       -11.4357
  10   2.0000      -0.359332        -9.7779
  11   0.0000       0.028157         0.7662
  12   0.0000       0.031944         0.8692
  13   0.0000       0.037197         1.0122
  14   0.0000       0.041884         1.1397
  15   0.0000       0.078300         2.1306

MULLIKEN ATOMIC CHARGES
-----------------------
   0 C :   -0.528106
   1 C :   -0.556838
   2 C :   -0.556838
   3 H :    0.485477
   4 H :    0.485477
   5 H :    0.335414
   6 H :    0.335414
Sum of atomic charges:   -0.0000000

LOEWDIN ATOMIC CHARGES
----------------------
   0 C :    0.493081
   1 C :    0.411081
   2 C :    0.411081
   3 H :   -0.322577
   4 H :   -0.322577
   5 H :   -0.335045
   6 H :   -0.335045

  Mayer bond orders larger than 0.100000
B(  0-C ,  1-C ) :   0.9771 B(  0-C ,  2-C ) :   0.9771 B(  0-C ,  5-H ) :   0.8349
B(  0-C ,  6-H ) :   0.8349 B(  1-C ,  2-C ) :   1.6930 B(  1-C ,  3-H ) :   0.7293
B(  2-C ,  4-H ) :   0.7293

MP2 TOTAL ENERGY:     -116.392776940 Eh
FINAL SINGLE POINT ENERGY      -116.392776939511

DIPOLE MOMENT
-------------
                                X             Y             Z
Electronic contribution:     -0.00000      -0.00000      -1.05038
Nuclear contribution   :      0.00000       0.00000       0.85727
                        -----------------------------------------
Total Dipole Moment    :     -0.00000      -0.00000      -0.19311
                        -----------------------------------------
Magnitude (a.u.)       :      0.19311
Magnitude (Debye)      :      0.49084

Rotational constants in cm-1:     1.016201     0.731757     0.464628
Rotational constants in MHz : 30464.947943 21937.511045 13929.200353

                             ****ORCA TERMINATED NORMALLY****
TOTAL RUN TIME: 0 days 0 hours 2 minutes 32 seconds 615 msec
