                         Program Version 5.0.4 -  RELEASE  -
|  1> !ri-mp2 aug-cc-pvqz aug-cc-pvqz/c tightscf
|  2> %pal nprocs 16 end
|  3>
|  4> * xyz 0 1
|  5> C      1.289018    1.047846        0.000000
|  6> C      0.000000    0.763426        0.000000
|  7> Cl    -0.623753   -0.866823        0.000000
|  8> H      1.603767    2.082310        0.000000
|  9> H      2.051033    0.282196        0.000000
| 10> H     -0.785113    1.503855        0.000000
| 11> *
| 12>
| 13>                          ****END OF INPUT****

CARTESIAN COORDINATES (ANGSTROEM)
---------------------------------
  C      1.289018    1.047846    0.000000
  C      0.000000    0.763426    0.000000
  Cl    -0.623753   -0.866823    0.000000
  H      1.603767    2.082310    0.000000
  H      2.051033    0.282196    0.000000
  H     -0.785113    1.503855    0.000000

 Total Charge           Charge          ....    0
 Multiplicity           Mult            ....    1
 Number of Electrons    NEL             ....   32
 Basis Dimension        Dim             ....  382

ORBITAL ENERGIES
----------------

  NO   OCC          E(Eh)            E(eV)
   0   2.0000    -104.840065     -2852.8432
   1   2.0000     -11.302582      -307.5589
   2   2.0000     -11.246862      -306.0427
   3   2.0000     -10.565288      -287.4961
   4   2.0000      -8.032409      -218.5730
   5   2.0000      -8.030676      -218.5258
   6   2.0000      -8.030672      -218.5257
   7   2.0000      -1.154638       -31.4193
   8   2.0000      -1.018029       -27.7020
   9   2.0000      -0.794483       -21.6190
  10   2.0000      -0.663656       -18.0590
  11   2.0000      -0.617589       -16.8054
  12   2.0000      -0.528755       -14.3882
  13   2.0000      -0.510236       -13.8842
  14   2.0000      -0.454668       -12.3721
  15   2.0000      -0.375148       -10.2083
  16   0.0000       0.026668         0.7257
  17   0.0000       0.035305         0.9607
  18   0.0000       0.041952         1.1416
  19   0.0000       0.067162         1.8276
  20   0.0000       0.072397         1.9700

MULLIKEN ATOMIC CHARGES
-----------------------
   0 C :   -0.751469
   1 C :   -0.437296
   2 Cl:   -0.155322
   3 H :    0.362807
   4 H :    0.463459
   5 H :    0.517820
Sum of atomic charges:   -0.0000000

LOEWDIN ATOMIC CHARGES
----------------------
   0 C :    0.616260
   1 C :   -0.430561
   2 Cl:    1.078064
   3 H :   -0.381635
   4 H :   -0.397332
   5 H :   -0.484796

  Mayer bond orders larger than 0.100000
B(  0-C ,  1-C ) :   1.8572 B(  0-C ,  3-H ) :   0.8813 B(  0-C ,  4-H ) :   0.7925
B(  1-C ,  2-Cl) :   0.9292 B(  1-C ,  5-H ) :   0.6756

MP2 TOTAL ENERGY:     -537.570492048 Eh
FINAL SINGLE POINT ENERGY      -537.570492048288

DIPOLE MOMENT
-------------
                                X             Y             Z
Electronic contribution:     -3.32196      -4.30877      -0.00000
Nuclear contribution   :      3.61756       4.91226       0.00000
                        -----------------------------------------
Total Dipole Moment    :      0.29559       0.60349      -0.00000
                        -----------------------------------------
Magnitude (a.u.)       :      0.67199
Magnitude (Debye)      :      1.70807

Rotational constants in cm-1:     1.931031     0.197404     0.179096
Rotational constants in MHz : 57890.841622  5918.027423  5369.153119

                             ****ORCA TERMINATED NORMALLY****
TOTAL RUN TIME: 0 days 0 hours 1 minutes 57 seconds 86 msec
