                         Program Version 5.0.4 -  RELEASE  -
|  1> !ri-mp2 aug-cc-pvqz aug-cc-pvqz/c tightscf
|  2> %pal nprocs 16 end
|  3>
|  4> * xyz 0 1
|  5> C      0.000000    0.000000   -0.043798
|  6> C      0.000000    0.000000    1.304624
|  7> C      0.000000    0.659873    2.562756
|  8> C      0.000000   -0.659873    2.562756
|  9> C      0.000000    1.167314   -0.908995
| 10> C      0.000000   -1.167314   -0.908995
| 11> C      0.000000    0.725289   -2.197208
| 12> C      0.000000   -0.725289   -2.197208
| 13> H      0.000000    1.574226    3.129175
| 14> H      0.000000   -1.574226    3.129175
| 15> H      0.000000    2.191202   -0.569441
| 16> H      0.000000   -2.191202   -0.569441
| 17> H      0.000000    1.344285   -3.081535
| 18> H      0.000000   -1.344285   -3.081535
| 19> *
| 20>
| 21>                          ****END OF INPUT****

CARTESIAN COORDINATES (ANGSTROEM)
---------------------------------
  C      0.000000    0.000000   -0.043798
  C      0.000000    0.000000    1.304624
  C      0.000000    0.659873    2.562756
  C      0.000000   -0.659873    2.562756
  C      0.000000    1.167314   -0.908995
  C      0.000000   -1.167314   -0.908995
  C      0.000000    0.725289   -2.197208
  C      0.000000   -0.725289   -2.197208
  H      0.000000    1.574226    3.129175
  H      0.000000   -1.574226    3.129175
  H      0.000000    2.191202   -0.569441
  H      0.000000   -2.191202   -0.569441
  H      0.000000    1.344285   -3.081535
  H      0.000000   -1.344285   -3.081535

 Total Charge           Charge          ....    0
 Multiplicity           Mult            ....    1
 Number of Electrons    NEL             ....   54
 Basis Dimension        Dim             ....  916

ORBITAL ENERGIES
----------------

  NO   OCC          E(Eh)            E(eV)
   0   2.0000     -11.307152      -307.6832
   1   2.0000     -11.305037      -307.6257
   2   2.0000     -11.304706      -307.6167
   3   2.0000     -11.205935      -304.9290
   4   2.0000     -11.200187      -304.7726
   5   2.0000     -11.200101      -304.7702
   6   2.0000     -11.194596      -304.6204
   7   2.0000     -11.193710      -304.5963
   8   2.0000      -1.245759       -33.8988
   9   2.0000      -1.131822       -30.7984
  10   2.0000      -0.972519       -26.4636
  11   2.0000      -0.937403       -25.5080
  12   2.0000      -0.828380       -22.5414
  13   2.0000      -0.812853       -22.1189
  14   2.0000      -0.759855       -20.6767
  15   2.0000      -0.712193       -19.3798
  16   2.0000      -0.688902       -18.7460
  17   2.0000      -0.599140       -16.3034
  18   2.0000      -0.548100       -14.9146
  19   2.0000      -0.546273       -14.8649
  20   2.0000      -0.533257       -14.5107
  21   2.0000      -0.528506       -14.3814
  22   2.0000      -0.495213       -13.4754
  23   2.0000      -0.461817       -12.5667
  24   2.0000      -0.456201       -12.4139
  25   2.0000      -0.282789        -7.6951
  26   2.0000      -0.276179        -7.5152
  27   0.0000       0.015946         0.4339
  28   0.0000       0.023637         0.6432
  29   0.0000       0.035366         0.9624
  30   0.0000       0.041044         1.1169
  31   0.0000       0.043396         1.1809

MULLIKEN ATOMIC CHARGES
-----------------------
   0 C :    0.626611
   1 C :    0.014339
   2 C :   -0.515672
   3 C :   -0.515682
   4 C :   -0.526816
   5 C :   -0.526840
   6 C :   -0.450691
   7 C :   -0.450687
   8 H :    0.545444
   9 H :    0.545441
  10 H :    0.317268
  11 H :    0.317245
  12 H :    0.310011
  13 H :    0.310029
Sum of atomic charges:    0.0000000

LOEWDIN ATOMIC CHARGES
----------------------
   0 C :   -0.197625
   1 C :   -0.056458
   2 C :    0.477481
   3 C :    0.477481
   4 C :    0.286013
   5 C :    0.286013
   6 C :    0.305348
   7 C :    0.305348
   8 H :   -0.291112
   9 H :   -0.291112
  10 H :   -0.320214
  11 H :   -0.320214
  12 H :   -0.330475
  13 H :   -0.330475

  Mayer bond orders larger than 0.100000
B(  0-C ,  1-C ) :   1.3104 B(  0-C ,  2-C ) :  -0.2921 B(  0-C ,  3-C ) :  -0.2921
B(  0-C ,  4-C ) :   0.6518 B(  0-C ,  5-C ) :   0.6518 B(  0-C ,  6-C ) :  -0.4000
B(  0-C ,  7-C ) :  -0.4000 B(  1-C ,  2-C ) :   1.0670 B(  1-C ,  3-C ) :   1.0670
B(  1-C ,  4-C ) :  -0.1175 B(  1-C ,  5-C ) :  -0.1175 B(  2-C ,  3-C ) :   1.7169
B(  2-C ,  8-H ) :   0.6989 B(  3-C ,  9-H ) :   0.6989 B(  4-C ,  6-C ) :   1.5833
B(  4-C , 10-H ) :   0.9747 B(  5-C ,  7-C ) :   1.5833 B(  5-C , 11-H ) :   0.9747
B(  6-C ,  7-C ) :   1.0945 B(  6-C , 12-H ) :   1.0542 B(  7-C , 13-H ) :   1.0542

MP2 TOTAL ENERGY:     -307.739241115 Eh
FINAL SINGLE POINT ENERGY      -307.739241114837

DIPOLE MOMENT
-------------
                                X             Y             Z
Electronic contribution:     -0.00000      -0.00000       3.08143
Nuclear contribution   :      0.00000       0.00000      -1.03624
                        -----------------------------------------
Total Dipole Moment    :     -0.00000      -0.00000       2.04518
                        -----------------------------------------
Magnitude (a.u.)       :      2.04518
Magnitude (Debye)      :      5.19844

Rotational constants in cm-1:     0.227351     0.047677     0.039412
Rotational constants in MHz :  6815.803137  1429.308294  1181.534542

                             ****ORCA TERMINATED NORMALLY****
TOTAL RUN TIME: 0 days 0 hours 39 minutes 45 seconds 198 msec
