                         Program Version 5.0.4 -  RELEASE  -
|  1> !ri-mp2 aug-cc-pvqz aug-cc-pvqz/c tightscf
|  2> %pal nprocs 16 end
|  3>
|  4> * xyz 0 1
|  5> C     -1.267259    0.731652    0.227515
|  6> C      0.000000    1.463304   -0.227515
|  7> C     -1.267259   -0.731652   -0.227515
|  8> C      0.000000   -1.463304    0.227515
|  9> C      1.267259   -0.731652   -0.227515
| 10> C      1.267259    0.731652    0.227515
| 11> H      2.155238    1.244327   -0.149267
| 12> H     -2.155238    1.244327   -0.149267
| 13> H      0.000000    2.488655    0.149267
| 14> H      2.155238   -1.244327    0.149267
| 15> H      1.329045   -0.767324   -1.320511
| 16> H     -1.329045   -0.767324   -1.320511
| 17> H      0.000000    1.534649   -1.320511
| 18> H      0.000000   -2.488655   -0.149267
| 19> H      0.000000   -1.534649    1.320511
| 20> H     -2.155238   -1.244327    0.149267
| 21> H     -1.329045    0.767324    1.320511
| 22> H      1.329045    0.767324    1.320511
| 23> *
| 24>
| 25>                          ****END OF INPUT****

CARTESIAN COORDINATES (ANGSTROEM)
---------------------------------
  C     -1.267259    0.731652    0.227515
  C      0.000000    1.463304   -0.227515
  C     -1.267259   -0.731652   -0.227515
  C      0.000000   -1.463304    0.227515
  C      1.267259   -0.731652   -0.227515
  C      1.267259    0.731652    0.227515
  H      2.155238    1.244327   -0.149267
  H     -2.155238    1.244327   -0.149267
  H      0.000000    2.488655    0.149267
  H      2.155238   -1.244327    0.149267
  H      1.329045   -0.767324   -1.320511
  H     -1.329045   -0.767324   -1.320511
  H      0.000000    1.534649   -1.320511
  H      0.000000   -2.488655   -0.149267
  H      0.000000   -1.534649    1.320511
  H     -2.155238   -1.244327    0.149267
  H     -1.329045    0.767324    1.320511
  H      1.329045    0.767324    1.320511

 Total Charge           Charge          ....    0
 Multiplicity           Mult            ....    1
 Number of Electrons    NEL             ....   48
 Basis Dimension        Dim             .... 1032

ORBITAL ENERGIES
----------------

  NO   OCC          E(Eh)            E(eV)
   0   2.0000     -11.210940      -305.0652
   1   2.0000     -11.210655      -305.0574
   2   2.0000     -11.210655      -305.0574
   3   2.0000     -11.210045      -305.0408
   4   2.0000     -11.210045      -305.0408
   5   2.0000     -11.209731      -305.0323
   6   2.0000      -1.108708       -30.1695
   7   2.0000      -0.997699       -27.1488
   8   2.0000      -0.997699       -27.1488
   9   2.0000      -0.825510       -22.4633
  10   2.0000      -0.825510       -22.4633
  11   2.0000      -0.747237       -20.3334
  12   2.0000      -0.644983       -17.5509
  13   2.0000      -0.605123       -16.4662
  14   2.0000      -0.593341       -16.1456
  15   2.0000      -0.593340       -16.1456
  16   2.0000      -0.522501       -14.2180
  17   2.0000      -0.522501       -14.2180
  18   2.0000      -0.511010       -13.9053
  19   2.0000      -0.478340       -13.0163
  20   2.0000      -0.478340       -13.0163
  21   2.0000      -0.447440       -12.1755
  22   2.0000      -0.424747       -11.5579
  23   2.0000      -0.424746       -11.5579
  24   0.0000       0.027784         0.7560
  25   0.0000       0.031405         0.8546
  26   0.0000       0.031405         0.8546
  27   0.0000       0.033730         0.9178
  28   0.0000       0.047525         1.2932

MULLIKEN ATOMIC CHARGES
-----------------------
   0 C :   -0.393166
   1 C :   -0.393265
   2 C :   -0.393173
   3 C :   -0.393265
   4 C :   -0.393166
   5 C :   -0.393172
   6 H :    0.242701
   7 H :    0.242700
   8 H :    0.242707
   9 H :    0.242699
  10 H :    0.150468
  11 H :    0.150460
  12 H :    0.150570
  13 H :    0.242707
  14 H :    0.150570
  15 H :    0.242700
  16 H :    0.150466
  17 H :    0.150461
Sum of atomic charges:    0.0000000

LOEWDIN ATOMIC CHARGES
----------------------
   0 C :    0.529762
   1 C :    0.529762
   2 C :    0.529762
   3 C :    0.529762
   4 C :    0.529762
   5 C :    0.529762
   6 H :   -0.262890
   7 H :   -0.262890
   8 H :   -0.262888
   9 H :   -0.262890
  10 H :   -0.266873
  11 H :   -0.266873
  12 H :   -0.266873
  13 H :   -0.262888
  14 H :   -0.266873
  15 H :   -0.262890
  16 H :   -0.266873
  17 H :   -0.266873

  Mayer bond orders larger than 0.100000
B(  0-C ,  1-C ) :   0.8852 B(  0-C ,  2-C ) :   0.8852 B(  0-C ,  7-H ) :   0.9608
B(  0-C , 16-H ) :   0.9838 B(  1-C ,  5-C ) :   0.8852 B(  1-C ,  8-H ) :   0.9608
B(  1-C , 12-H ) :   0.9838 B(  2-C ,  3-C ) :   0.8852 B(  2-C , 11-H ) :   0.9838
B(  2-C , 15-H ) :   0.9608 B(  3-C ,  4-C ) :   0.8852 B(  3-C , 13-H ) :   0.9608
B(  3-C , 14-H ) :   0.9838 B(  4-C ,  5-C ) :   0.8852 B(  4-C ,  9-H ) :   0.9608
B(  4-C , 10-H ) :   0.9838 B(  5-C ,  6-H ) :   0.9608 B(  5-C , 17-H ) :   0.9838

MP2 TOTAL ENERGY:     -235.414004872 Eh
FINAL SINGLE POINT ENERGY      -235.414004872461

DIPOLE MOMENT
-------------
                                X             Y             Z
Electronic contribution:      0.00000       0.00000      -0.00000
Nuclear contribution   :      0.00000       0.00000       0.00000
                        -----------------------------------------
Total Dipole Moment    :      0.00000       0.00000      -0.00000
                        -----------------------------------------
Magnitude (a.u.)       :      0.00000
Magnitude (Debye)      :      0.00000

Rotational constants in cm-1:     0.143569     0.143569     0.081828
Rotational constants in MHz :  4304.102418  4304.099905  2453.136105

                             ****ORCA TERMINATED NORMALLY****
TOTAL RUN TIME: 0 days 0 hours 52 minutes 27 seconds 995 msec
