                         Program Version 5.0.4 -  RELEASE  -
|  1> !ri-mp2 aug-cc-pvqz aug-cc-pvqz/c tightscf
|  2> %pal nprocs 16 end
|  3>
|  4> * xyz 0 1
|  5> N     -1.278679    0.891680    0.000794
|  6> C     -1.183279   -0.527836   -0.000005
|  7> O     -2.212368   -1.174968    0.000543
|  8> N      0.081477   -1.045063    0.000860
|  9> C      1.129520   -0.251037   -0.001356
| 10> N      2.350160   -0.839822   -0.016923
| 11> C      1.044869    1.182278   -0.000701
| 12> C     -0.202442    1.706311    0.000829
| 13> H     -2.216305    1.259538    0.001831
| 14> H      2.393103   -1.842117    0.040782
| 15> H      3.193278   -0.305790    0.070447
| 16> H      1.919772    1.812089   -0.004556
| 17> H     -0.393620    2.770157    0.001442
| 18> *
| 19>
| 20>                          ****END OF INPUT****

CARTESIAN COORDINATES (ANGSTROEM)
---------------------------------
  N     -1.278679    0.891680    0.000794
  C     -1.183279   -0.527836   -0.000005
  O     -2.212368   -1.174968    0.000543
  N      0.081477   -1.045063    0.000860
  C      1.129520   -0.251037   -0.001356
  N      2.350160   -0.839822   -0.016923
  C      1.044869    1.182278   -0.000701
  C     -0.202442    1.706311    0.000829
  H     -2.216305    1.259538    0.001831
  H      2.393103   -1.842117    0.040782
  H      3.193278   -0.305790    0.070447
  H      1.919772    1.812089   -0.004556
  H     -0.393620    2.770157    0.001442

 Total Charge           Charge          ....    0
 Multiplicity           Mult            ....    1
 Number of Electrons    NEL             ....   58
 Basis Dimension        Dim             ....  870

ORBITAL ENERGIES
----------------

  NO   OCC          E(Eh)            E(eV)
   0   2.0000     -20.498903      -557.8035
   1   2.0000     -15.618135      -424.9911
   2   2.0000     -15.594651      -424.3520
   3   2.0000     -15.536587      -422.7720
   4   2.0000     -11.367493      -309.3252
   5   2.0000     -11.352796      -308.9253
   6   2.0000     -11.328045      -308.2518
   7   2.0000     -11.243269      -305.9449
   8   2.0000      -1.386387       -37.7255
   9   2.0000      -1.300369       -35.3848
  10   2.0000      -1.264864       -34.4187
  11   2.0000      -1.173490       -31.9323
  12   2.0000      -1.066264       -29.0145
  13   2.0000      -0.903132       -24.5755
  14   2.0000      -0.879699       -23.9378
  15   2.0000      -0.765116       -20.8199
  16   2.0000      -0.762533       -20.7496
  17   2.0000      -0.722581       -19.6624
  18   2.0000      -0.682732       -18.5781
  19   2.0000      -0.628078       -17.0909
  20   2.0000      -0.626613       -17.0510
  21   2.0000      -0.610552       -16.6140
  22   2.0000      -0.594928       -16.1888
  23   2.0000      -0.539194       -14.6722
  24   2.0000      -0.492962       -13.4142
  25   2.0000      -0.443581       -12.0705
  26   2.0000      -0.418986       -11.4012
  27   2.0000      -0.386108       -10.5065
  28   2.0000      -0.344110        -9.3637
  29   0.0000       0.013311         0.3622
  30   0.0000       0.020471         0.5570
  31   0.0000       0.032711         0.8901
  32   0.0000       0.046073         1.2537
  33   0.0000       0.053060         1.4438

MULLIKEN ATOMIC CHARGES
-----------------------
   0 N :   -0.558200
   1 C :    1.081894
   2 O :   -0.833155
   3 N :   -0.720440
   4 C :    0.824963
   5 N :   -0.751767
   6 C :   -0.354983
   7 C :   -0.080553
   8 H :    0.090785
   9 H :    0.294666
  10 H :    0.262917
  11 H :    0.317314
  12 H :    0.426557
Sum of atomic charges:    0.0000000

LOEWDIN ATOMIC CHARGES
----------------------
   0 N :    0.790166
   1 C :   -1.130946
   2 O :    0.624118
   3 N :    0.544025
   4 C :   -0.535812
   5 N :    1.257367
   6 C :    0.351124
   7 C :    0.216584
   8 H :   -0.502093
   9 H :   -0.492630
  10 H :   -0.486970
  11 H :   -0.342689
  12 H :   -0.292246

  Mayer bond orders larger than 0.100000
B(  0-N ,  1-C ) :   1.0653 B(  0-N ,  2-O ) :   0.1475 B(  0-N ,  7-C ) :   0.9931
B(  0-N ,  8-H ) :   1.1625 B(  1-C ,  2-O ) :   1.2749 B(  1-C ,  3-N ) :   1.2943
B(  3-N ,  4-C ) :   1.3367 B(  4-C ,  5-N ) :   1.0265 B(  4-C ,  6-C ) :   1.0046
B(  4-C ,  7-C ) :  -0.2353 B(  5-N ,  9-H ) :   0.9270 B(  5-N , 10-H ) :   0.9633
B(  6-C ,  7-C ) :   1.4125 B(  6-C , 11-H ) :   0.9533 B(  6-C , 12-H ) :  -0.1066
B(  7-C , 11-H ) :  -0.1244 B(  7-C , 12-H ) :   0.9387

MP2 TOTAL ENERGY:     -394.353826453 Eh
FINAL SINGLE POINT ENERGY      -394.353826452540

DIPOLE MOMENT
-------------
                                X             Y             Z
Electronic contribution:     -2.91944      -1.44508      -0.02310
Nuclear contribution   :      4.77279       3.59766       0.10771
                        -----------------------------------------
Total Dipole Moment    :      1.85335       2.15258       0.08461
                        -----------------------------------------
Magnitude (a.u.)       :      2.84177
Magnitude (Debye)      :      7.22320

Rotational constants in cm-1:     0.129622     0.067607     0.044435
Rotational constants in MHz :  3885.974705  2026.804172  1332.120386

                             ****ORCA TERMINATED NORMALLY****
TOTAL RUN TIME: 0 days 0 hours 24 minutes 39 seconds 166 msec
