                         Program Version 5.0.4 -  RELEASE  -
|  1> !ri-mp2 aug-cc-pvqz aug-cc-pvqz/c tightscf
|  2> %pal nprocs 16 end
|  3>
|  4> * xyz 0 1
|  5> C     -0.252782   -1.416887    0.679421
|  6> C     -0.252782   -1.416887   -0.679421
|  7> C      0.246301   -0.359998    1.524391
|  8> C      0.246301   -0.359998   -1.524391
|  9> C      0.246301    0.949673    1.219657
| 10> C      0.246301    0.949673   -1.219657
| 11> C     -0.452117    1.486050    0.000000
| 12> H     -0.530553   -2.340484    1.174711
| 13> H     -0.530553   -2.340484   -1.174711
| 14> H      0.673266   -0.666831    2.473189
| 15> H      0.673266   -0.666831   -2.473189
| 16> H      0.749061    1.649053    1.876836
| 17> H      0.749061    1.649053   -1.876836
| 18> H     -1.495770    1.152463    0.000000
| 19> H     -0.452905    2.574307    0.000000
| 20> *
| 21>
| 22>                          ****END OF INPUT****

CARTESIAN COORDINATES (ANGSTROEM)
---------------------------------
  C     -0.252782   -1.416887    0.679421
  C     -0.252782   -1.416887   -0.679421
  C      0.246301   -0.359998    1.524391
  C      0.246301   -0.359998   -1.524391
  C      0.246301    0.949673    1.219657
  C      0.246301    0.949673   -1.219657
  C     -0.452117    1.486050    0.000000
  H     -0.530553   -2.340484    1.174711
  H     -0.530553   -2.340484   -1.174711
  H      0.673266   -0.666831    2.473189
  H      0.673266   -0.666831   -2.473189
  H      0.749061    1.649053    1.876836
  H      0.749061    1.649053   -1.876836
  H     -1.495770    1.152463    0.000000
  H     -0.452905    2.574307    0.000000

 Total Charge           Charge          ....    0
 Multiplicity           Mult            ....    1
 Number of Electrons    NEL             ....   50
 Basis Dimension        Dim             ....  928

ORBITAL ENERGIES
----------------

  NO   OCC          E(Eh)            E(eV)
   0   2.0000     -11.236137      -305.7508
   1   2.0000     -11.236094      -305.7497
   2   2.0000     -11.234471      -305.7055
   3   2.0000     -11.232984      -305.6650
   4   2.0000     -11.229944      -305.5823
   5   2.0000     -11.225045      -305.4490
   6   2.0000     -11.225044      -305.4490
   7   2.0000      -1.134039       -30.8588
   8   2.0000      -1.040980       -28.3265
   9   2.0000      -1.037660       -28.2362
  10   2.0000      -0.903499       -24.5855
  11   2.0000      -0.857838       -23.3430
  12   2.0000      -0.735225       -20.0065
  13   2.0000      -0.695323       -18.9207
  14   2.0000      -0.689816       -18.7708
  15   2.0000      -0.617713       -16.8088
  16   2.0000      -0.615742       -16.7552
  17   2.0000      -0.588432       -16.0121
  18   2.0000      -0.530239       -14.4285
  19   2.0000      -0.527027       -14.3411
  20   2.0000      -0.504055       -13.7160
  21   2.0000      -0.485942       -13.2232
  22   2.0000      -0.437668       -11.9096
  23   2.0000      -0.352242        -9.5850
  24   2.0000      -0.303207        -8.2507
  25   0.0000       0.026025         0.7082
  26   0.0000       0.029437         0.8010
  27   0.0000       0.031244         0.8502
  28   0.0000       0.037996         1.0339
  29   0.0000       0.042261         1.1500

MULLIKEN ATOMIC CHARGES
-----------------------
   0 C :   -0.411253
   1 C :   -0.411254
   2 C :   -0.370261
   3 C :   -0.370261
   4 C :   -0.464316
   5 C :   -0.464316
   6 C :   -0.210413
   7 H :    0.362537
   8 H :    0.362536
   9 H :    0.345841
  10 H :    0.345840
  11 H :    0.398099
  12 H :    0.398099
  13 H :    0.197626
  14 H :    0.291497
Sum of atomic charges:   -0.0000000

LOEWDIN ATOMIC CHARGES
----------------------
   0 C :    0.341705
   1 C :    0.341705
   2 C :    0.339546
   3 C :    0.339546
   4 C :    0.376598
   5 C :    0.376598
   6 C :    0.459258
   7 H :   -0.339588
   8 H :   -0.339588
   9 H :   -0.339337
  10 H :   -0.339337
  11 H :   -0.311455
  12 H :   -0.311455
  13 H :   -0.294865
  14 H :   -0.299331

  Mayer bond orders larger than 0.100000
B(  0-C ,  1-C ) :   1.6506 B(  0-C ,  2-C ) :   0.9630 B(  0-C ,  7-H ) :   0.9178
B(  1-C ,  3-C ) :   0.9630 B(  1-C ,  8-H ) :   0.9178 B(  2-C ,  4-C ) :   1.6245
B(  2-C ,  9-H ) :   0.9209 B(  3-C ,  5-C ) :   1.6245 B(  3-C , 10-H ) :   0.9209
B(  4-C ,  6-C ) :   0.9144 B(  4-C , 11-H ) :   0.8850 B(  5-C ,  6-C ) :   0.9144
B(  5-C , 12-H ) :   0.8850 B(  6-C , 13-H ) :   0.9240 B(  6-C , 14-H ) :   0.9571

MP2 TOTAL ENERGY:     -270.992828158 Eh
FINAL SINGLE POINT ENERGY      -270.992828158088

DIPOLE MOMENT
-------------
                                X             Y             Z
Electronic contribution:      0.21006      -0.87883      -0.00000
Nuclear contribution   :     -0.16829       1.02957       0.00000
                        -----------------------------------------
Total Dipole Moment    :      0.04178       0.15075      -0.00000
                        -----------------------------------------
Magnitude (a.u.)       :      0.15643
Magnitude (Debye)      :      0.39761

Rotational constants in cm-1:     0.123410     0.123105     0.067415
Rotational constants in MHz :  3699.724860  3690.591503  2021.061337

                             ****ORCA TERMINATED NORMALLY****
TOTAL RUN TIME: 0 days 0 hours 40 minutes 8 seconds 377 msec
