                         Program Version 5.0.4 -  RELEASE  -
|  1> !ri-mp2 aug-cc-pvqz aug-cc-pvqz/c tightscf
|  2> %pal nprocs 16 end
|  3>
|  4> * xyz 0 1
|  5> C      0.000000    0.000000    0.101922
|  6> O      0.000000    0.000000    1.305118
|  7> O      0.000000    1.088420   -0.679394
|  8> O      0.000000   -1.088420   -0.679394
|  9> H      0.000000    1.854503   -0.091082
| 10> H      0.000000   -1.854503   -0.091082
| 11> *
| 12>
| 13>                          ****END OF INPUT****

CARTESIAN COORDINATES (ANGSTROEM)
---------------------------------
  C      0.000000    0.000000    0.101922
  O      0.000000    0.000000    1.305118
  O      0.000000    1.088420   -0.679394
  O      0.000000   -1.088420   -0.679394
  H      0.000000    1.854503   -0.091082
  H      0.000000   -1.854503   -0.091082

 Total Charge           Charge          ....    0
 Multiplicity           Mult            ....    1
 Number of Electrons    NEL             ....   32
 Basis Dimension        Dim             ....  412

ORBITAL ENERGIES
----------------

  NO   OCC          E(Eh)            E(eV)
   0   2.0000     -20.631356      -561.4077
   1   2.0000     -20.631332      -561.4071
   2   2.0000     -20.559169      -559.4434
   3   2.0000     -11.451079      -311.5997
   4   2.0000      -1.524626       -41.4872
   5   2.0000      -1.417111       -38.5615
   6   2.0000      -1.381034       -37.5798
   7   2.0000      -0.906804       -24.6754
   8   2.0000      -0.750723       -20.4282
   9   2.0000      -0.735040       -20.0015
  10   2.0000      -0.691486       -18.8163
  11   2.0000      -0.673794       -18.3349
  12   2.0000      -0.614171       -16.7124
  13   2.0000      -0.558521       -15.1981
  14   2.0000      -0.497053       -13.5255
  15   2.0000      -0.488546       -13.2940
  16   0.0000       0.024169         0.6577
  17   0.0000       0.032263         0.8779
  18   0.0000       0.065500         1.7823
  19   0.0000       0.071562         1.9473
  20   0.0000       0.096000         2.6123

MULLIKEN ATOMIC CHARGES
-----------------------
   0 C :    1.130040
   1 O :   -0.631814
   2 O :   -0.579484
   3 O :   -0.579484
   4 H :    0.330371
   5 H :    0.330371
Sum of atomic charges:   -0.0000000

LOEWDIN ATOMIC CHARGES
----------------------
   0 C :   -1.425321
   1 O :    0.651474
   2 O :    1.213095
   3 O :    1.213095
   4 H :   -0.826171
   5 H :   -0.826171

  Mayer bond orders larger than 0.100000
B(  0-C ,  1-O ) :   1.6895 B(  0-C ,  2-O ) :   1.0321 B(  0-C ,  3-O ) :   1.0321
B(  2-O ,  4-H ) :   0.8985 B(  3-O ,  5-H ) :   0.8985

MP2 TOTAL ENERGY:     -264.716987842 Eh
FINAL SINGLE POINT ENERGY      -264.716987842126

DIPOLE MOMENT
-------------
                                X             Y             Z
Electronic contribution:      0.00000      -0.00000       0.04026
Nuclear contribution   :      0.00000       0.00000      -0.17733
                        -----------------------------------------
Total Dipole Moment    :      0.00000      -0.00000      -0.13707
                        -----------------------------------------
Magnitude (a.u.)       :      0.13707
Magnitude (Debye)      :      0.34840

Rotational constants in cm-1:     0.399829     0.375950     0.193761
Rotational constants in MHz : 11986.581518 11270.708843  5808.813848

                             ****ORCA TERMINATED NORMALLY****
TOTAL RUN TIME: 0 days 0 hours 2 minutes 19 seconds 560 msec
