                         Program Version 5.0.4 -  RELEASE  -
|  1> !ri-mp2 aug-cc-pvqz aug-cc-pvqz/c tightscf
|  2> %pal nprocs 16 end
|  3>
|  4> * xyz 0 1
|  5> C      0.000000    0.000000   -0.151984
|  6> F      0.000000    0.000000    1.114358
|  7> N      0.000000    0.000000   -1.302474
|  8> *
|  9>
| 10>                          ****END OF INPUT****

CARTESIAN COORDINATES (ANGSTROEM)
---------------------------------
  C      0.000000    0.000000   -0.151984
  F      0.000000    0.000000    1.114358
  N      0.000000    0.000000   -1.302474

 Total Charge           Charge          ....    0
 Multiplicity           Mult            ....    1
 Number of Electrons    NEL             ....   22
 Basis Dimension        Dim             ....  240

ORBITAL ENERGIES
----------------

  NO   OCC          E(Eh)            E(eV)
   0   2.0000     -26.437647      -719.4049
   1   2.0000     -15.607814      -424.7102
   2   2.0000     -11.394990      -310.0734
   3   2.0000      -1.762957       -47.9725
   4   2.0000      -1.260495       -34.2998
   5   2.0000      -0.926198       -25.2031
   6   2.0000      -0.813710       -22.1422
   7   2.0000      -0.813710       -22.1422
   8   2.0000      -0.600447       -16.3390
   9   2.0000      -0.504864       -13.7380
  10   2.0000      -0.504864       -13.7380
  11   0.0000       0.038500         1.0477
  12   0.0000       0.065520         1.7829
  13   0.0000       0.065520         1.7829
  14   0.0000       0.066517         1.8100
  15   0.0000       0.117954         3.2097

MULLIKEN ATOMIC CHARGES
-----------------------
   0 C :    0.849698
   1 F :   -0.340763
   2 N :   -0.508935
Sum of atomic charges:    0.0000000

LOEWDIN ATOMIC CHARGES
----------------------
   0 C :   -0.982117
   1 F :    0.719770
   2 N :    0.262347

  Mayer bond orders larger than 0.100000
B(  0-C ,  1-F ) :   0.9391 B(  0-C ,  2-N ) :   2.7691

MP2 TOTAL ENERGY:     -192.422197921 Eh
FINAL SINGLE POINT ENERGY      -192.422197921457

DIPOLE MOMENT
-------------
                                X             Y             Z
Electronic contribution:      0.00000       0.00000       1.92196
Nuclear contribution   :      0.00000       0.00000      -1.01713
                        -----------------------------------------
Total Dipole Moment    :      0.00000       0.00000       0.90483
                        -----------------------------------------
Magnitude (a.u.)       :      0.90483
Magnitude (Debye)      :      2.29990

Rotational constants in cm-1:     0.000000     0.354122     0.354122
Rotational constants in MHz :     0.000000 10616.299095 10616.299095

                             ****ORCA TERMINATED NORMALLY****
TOTAL RUN TIME: 0 days 0 hours 0 minutes 36 seconds 976 msec
