                         Program Version 5.0.4 -  RELEASE  -
|  1> !ri-mp2 aug-cc-pvqz aug-cc-pvqz/c tightscf
|  2> %pal nprocs 16 end
|  3>
|  4> * xyz 0 1
|  5> C     -0.008290   -0.208356   -0.024723
|  6> S     -1.217170   -1.356869    0.021420
|  7> N     -0.162614    1.134737   -0.015493
|  8> N     -1.417749    1.738272    0.008702
|  9> N      1.302148   -0.610414   -0.099972
| 10> N      2.364793    0.297605    0.049141
| 11> H      2.841583    0.157650    0.933495
| 12> H      3.025732    0.182703   -0.708975
| 13> H     -1.510815    2.327204    0.825721
| 14> H     -1.567518    2.280758   -0.832165
| 15> H      0.681476    1.689836   -0.040769
| 16> H      1.447958   -1.599522    0.031666
| 17> *
| 18>
| 19>                          ****END OF INPUT****

CARTESIAN COORDINATES (ANGSTROEM)
---------------------------------
  C     -0.008290   -0.208356   -0.024723
  S     -1.217170   -1.356869    0.021420
  N     -0.162614    1.134737   -0.015493
  N     -1.417749    1.738272    0.008702
  N      1.302148   -0.610414   -0.099972
  N      2.364793    0.297605    0.049141
  H      2.841583    0.157650    0.933495
  H      3.025732    0.182703   -0.708975
  H     -1.510815    2.327204    0.825721
  H     -1.567518    2.280758   -0.832165
  H      0.681476    1.689836   -0.040769
  H      1.447958   -1.599522    0.031666

 Total Charge           Charge          ....    0
 Multiplicity           Mult            ....    1
 Number of Electrons    NEL             ....   56
 Basis Dimension        Dim             ....  760

ORBITAL ENERGIES
----------------

  NO   OCC          E(Eh)            E(eV)
   0   2.0000     -91.872042     -2499.9654
   1   2.0000     -15.620353      -425.0514
   2   2.0000     -15.619623      -425.0315
   3   2.0000     -15.617540      -424.9749
   4   2.0000     -15.593212      -424.3129
   5   2.0000     -11.365346      -309.2668
   6   2.0000      -8.876374      -241.5384
   7   2.0000      -6.558247      -178.4590
   8   2.0000      -6.556350      -178.4074
   9   2.0000      -6.555852      -178.3938
  10   2.0000      -1.358134       -36.9567
  11   2.0000      -1.301292       -35.4099
  12   2.0000      -1.142291       -31.0833
  13   2.0000      -1.058406       -28.8007
  14   2.0000      -0.943341       -25.6696
  15   2.0000      -0.798707       -21.7339
  16   2.0000      -0.755215       -20.5505
  17   2.0000      -0.724991       -19.7280
  18   2.0000      -0.711566       -19.3627
  19   2.0000      -0.701234       -19.0816
  20   2.0000      -0.660159       -17.9638
  21   2.0000      -0.543370       -14.7859
  22   2.0000      -0.505227       -13.7479
  23   2.0000      -0.476421       -12.9641
  24   2.0000      -0.432268       -11.7626
  25   2.0000      -0.413197       -11.2436
  26   2.0000      -0.310968        -8.4619
  27   2.0000      -0.307244        -8.3605
  28   0.0000       0.013728         0.3736
  29   0.0000       0.024682         0.6716
  30   0.0000       0.032596         0.8870
  31   0.0000       0.040824         1.1109
  32   0.0000       0.048806         1.3281

MULLIKEN ATOMIC CHARGES
-----------------------
   0 C :    0.253430
   1 S :   -0.164358
   2 N :   -0.279650
   3 N :   -0.589288
   4 N :   -0.409227
   5 N :   -0.430356
   6 H :    0.240786
   7 H :    0.235444
   8 H :    0.265308
   9 H :    0.266935
  10 H :    0.345159
  11 H :    0.265819
Sum of atomic charges:    0.0000000

LOEWDIN ATOMIC CHARGES
----------------------
   0 C :   -1.187434
   1 S :    0.973941
   2 N :    0.559508
   3 N :    1.103534
   4 N :    0.571988
   5 N :    1.142938
   6 H :   -0.490787
   7 H :   -0.499202
   8 H :   -0.512049
   9 H :   -0.510830
  10 H :   -0.577183
  11 H :   -0.574424

  Mayer bond orders larger than 0.100000
B(  0-C ,  1-S ) :   1.3633 B(  0-C ,  2-N ) :   1.2370 B(  0-C ,  4-N ) :   1.1806
B(  2-N ,  3-N ) :   0.6218 B(  2-N ,  4-N ) :   0.1127 B(  2-N , 10-H ) :   0.8980
B(  3-N ,  8-H ) :   0.9436 B(  3-N ,  9-H ) :   0.9382 B(  4-N ,  5-N ) :   0.8490
B(  4-N , 11-H ) :   0.9429 B(  5-N ,  6-H ) :   0.9734 B(  5-N ,  7-H ) :   0.9841

MP2 TOTAL ENERGY:     -658.020979010 Eh
FINAL SINGLE POINT ENERGY      -658.020979009999

DIPOLE MOMENT
-------------
                                X             Y             Z
Electronic contribution:     -2.74150      -3.38789      -0.10792
Nuclear contribution   :      4.92259       5.04873       0.20606
                        -----------------------------------------
Total Dipole Moment    :      2.18109       1.66083       0.09814
                        -----------------------------------------
Magnitude (a.u.)       :      2.74320
Magnitude (Debye)      :      6.97267

Rotational constants in cm-1:     0.116660     0.081681     0.048871
Rotational constants in MHz :  3497.380060  2448.726057  1465.102985

                             ****ORCA TERMINATED NORMALLY****
TOTAL RUN TIME: 0 days 0 hours 14 minutes 20 seconds 229 msec
