                         Program Version 5.0.4 -  RELEASE  -
|  1> !ri-mp2 aug-cc-pvqz aug-cc-pvqz/c tightscf
|  2> %pal nprocs 16 end
|  3>
|  4> * xyz 0 1
|  5> C      0.000000    0.000000   -2.265776
|  6> C      0.000000    1.202168   -1.568121
|  7> C      0.000000   -1.202168   -1.568121
|  8> C      0.000000    1.209985   -0.178204
|  9> C      0.000000   -1.209985   -0.178204
| 10> C      0.000000    0.000000    0.501800
| 11> Cl     0.000000    0.000000    2.255827
| 12> H      0.000000    0.000000   -3.347036
| 13> H      0.000000    2.141915   -2.103741
| 14> H      0.000000   -2.141915   -2.103741
| 15> H      0.000000    2.139131    0.372605
| 16> H      0.000000   -2.139131    0.372605
| 17> *
| 18>
| 19>                          ****END OF INPUT****

CARTESIAN COORDINATES (ANGSTROEM)
---------------------------------
  C      0.000000    0.000000   -2.265776
  C      0.000000    1.202168   -1.568121
  C      0.000000   -1.202168   -1.568121
  C      0.000000    1.209985   -0.178204
  C      0.000000   -1.209985   -0.178204
  C      0.000000    0.000000    0.501800
  Cl     0.000000    0.000000    2.255827
  H      0.000000    0.000000   -3.347036
  H      0.000000    2.141915   -2.103741
  H      0.000000   -2.141915   -2.103741
  H      0.000000    2.139131    0.372605
  H      0.000000   -2.139131    0.372605

 Total Charge           Charge          ....    0
 Multiplicity           Mult            ....    1
 Number of Electrons    NEL             ....   58
 Basis Dimension        Dim             ....  794

ORBITAL ENERGIES
----------------

  NO   OCC          E(Eh)            E(eV)
   0   2.0000    -104.838498     -2852.8006
   1   2.0000     -11.304345      -307.6069
   2   2.0000     -11.249878      -306.1248
   3   2.0000     -11.249872      -306.1246
   4   2.0000     -11.248610      -306.0902
   5   2.0000     -11.248465      -306.0863
   6   2.0000     -11.244658      -305.9827
   7   2.0000     -10.563729      -287.4537
   8   2.0000      -8.030848      -218.5305
   9   2.0000      -8.029146      -218.4842
  10   2.0000      -8.029095      -218.4828
  11   2.0000      -1.190777       -32.4027
  12   2.0000      -1.118586       -30.4383
  13   2.0000      -1.034164       -28.1410
  14   2.0000      -0.999074       -27.1862
  15   2.0000      -0.847887       -23.0722
  16   2.0000      -0.821869       -22.3642
  17   2.0000      -0.713863       -19.4252
  18   2.0000      -0.649642       -17.6776
  19   2.0000      -0.648359       -17.6427
  20   2.0000      -0.605536       -16.4775
  21   2.0000      -0.589371       -16.0376
  22   2.0000      -0.545724       -14.8499
  23   2.0000      -0.518136       -14.0992
  24   2.0000      -0.511373       -13.9152
  25   2.0000      -0.470240       -12.7959
  26   2.0000      -0.454959       -12.3801
  27   2.0000      -0.353755        -9.6262
  28   2.0000      -0.339093        -9.2272
  29   0.0000       0.023994         0.6529
  30   0.0000       0.028506         0.7757
  31   0.0000       0.033399         0.9088
  32   0.0000       0.043354         1.1797
  33   0.0000       0.046816         1.2739

MULLIKEN ATOMIC CHARGES
-----------------------
   0 C :   -0.229753
   1 C :   -0.327302
   2 C :   -0.327303
   3 C :   -0.086175
   4 C :   -0.086175
   5 C :   -0.365256
   6 Cl:   -0.356806
   7 H :    0.321404
   8 H :    0.261523
   9 H :    0.261523
  10 H :    0.467160
  11 H :    0.467161
Sum of atomic charges:    0.0000000

LOEWDIN ATOMIC CHARGES
----------------------
   0 C :    0.333012
   1 C :    0.323672
   2 C :    0.323672
   3 C :    0.195762
   4 C :    0.195762
   5 C :   -0.849108
   6 Cl:    1.165127
   7 H :   -0.324360
   8 H :   -0.322380
   9 H :   -0.322380
  10 H :   -0.359390
  11 H :   -0.359390

  Mayer bond orders larger than 0.100000
B(  0-C ,  1-C ) :   1.1631 B(  0-C ,  2-C ) :   1.1631 B(  0-C ,  7-H ) :   0.9929
B(  1-C ,  3-C ) :   1.2430 B(  1-C ,  4-C ) :   0.1169 B(  1-C ,  8-H ) :   1.0780
B(  2-C ,  3-C ) :   0.1169 B(  2-C ,  4-C ) :   1.2430 B(  2-C ,  9-H ) :   1.0780
B(  3-C ,  5-C ) :   1.2126 B(  3-C ,  6-Cl) :  -0.1670 B(  3-C ,  8-H ) :  -0.1061
B(  3-C , 10-H ) :   0.8163 B(  4-C ,  5-C ) :   1.2126 B(  4-C ,  6-Cl) :  -0.1670
B(  4-C ,  9-H ) :  -0.1061 B(  4-C , 11-H ) :   0.8163 B(  5-C ,  6-Cl) :   1.0447

MP2 TOTAL ENERGY:     -690.953839219 Eh
FINAL SINGLE POINT ENERGY      -690.953839218928

DIPOLE MOMENT
-------------
                                X             Y             Z
Electronic contribution:      0.00000       0.00000       8.92962
Nuclear contribution   :      0.00000       0.00000      -9.71287
                        -----------------------------------------
Total Dipole Moment    :      0.00000       0.00000      -0.78326
                        -----------------------------------------
Magnitude (a.u.)       :      0.78326
Magnitude (Debye)      :      1.99088

Rotational constants in cm-1:     0.190783     0.051943     0.040827
Rotational constants in MHz :  5719.517855  1557.213303  1223.971189

                             ****ORCA TERMINATED NORMALLY****
TOTAL RUN TIME: 0 days 0 hours 25 minutes 25 seconds 962 msec
