                         Program Version 5.0.4 -  RELEASE  -
|  1> !ri-mp2 aug-cc-pvqz aug-cc-pvqz/c tightscf
|  2> %pal nprocs 16 end
|  3>
|  4> * xyz 0 1
|  5> C      0.000000    0.000000    1.772157
|  6> C      0.703601    1.107660    0.968327
|  7> C     -0.703601   -1.107660    0.968327
|  8> C      0.000000    1.576287   -0.314065
|  9> C      0.000000   -1.576287   -0.314065
| 10> C      0.302469    0.703389   -1.539522
| 11> C     -0.302469   -0.703389   -1.539522
| 12> H     -0.742021    0.456246    2.433052
| 13> H      0.742021   -0.456246    2.433052
| 14> H      1.710243    0.776893    0.696626
| 15> H     -1.710243   -0.776893    0.696626
| 16> H      0.847619    1.961484    1.634661
| 17> H     -0.847619   -1.961484    1.634661
| 18> H      0.331829    2.593009   -0.538454
| 19> H     -0.331829   -2.593009   -0.538454
| 20> H     -1.081166    1.642958   -0.154172
| 21> H      1.081166   -1.642958   -0.154172
| 22> H      1.390576    0.624307   -1.637984
| 23> H     -1.390576   -0.624307   -1.637984
| 24> H     -0.042785    1.221357   -2.438645
| 25> H      0.042785   -1.221357   -2.438645
| 26> *
| 27>
| 28>                          ****END OF INPUT****

CARTESIAN COORDINATES (ANGSTROEM)
---------------------------------
  C      0.000000    0.000000    1.772157
  C      0.703601    1.107660    0.968327
  C     -0.703601   -1.107660    0.968327
  C      0.000000    1.576287   -0.314065
  C      0.000000   -1.576287   -0.314065
  C      0.302469    0.703389   -1.539522
  C     -0.302469   -0.703389   -1.539522
  H     -0.742021    0.456246    2.433052
  H      0.742021   -0.456246    2.433052
  H      1.710243    0.776893    0.696626
  H     -1.710243   -0.776893    0.696626
  H      0.847619    1.961484    1.634661
  H     -0.847619   -1.961484    1.634661
  H      0.331829    2.593009   -0.538454
  H     -0.331829   -2.593009   -0.538454
  H     -1.081166    1.642958   -0.154172
  H      1.081166   -1.642958   -0.154172
  H      1.390576    0.624307   -1.637984
  H     -1.390576   -0.624307   -1.637984
  H     -0.042785    1.221357   -2.438645
  H      0.042785   -1.221357   -2.438645

 Total Charge           Charge          ....    0
 Multiplicity           Mult            ....    1
 Number of Electrons    NEL             ....   56
 Basis Dimension        Dim             .... 1204

ORBITAL ENERGIES
----------------

  NO   OCC          E(Eh)            E(eV)
   0   2.0000     -11.211108      -305.0698
   1   2.0000     -11.210981      -305.0663
   2   2.0000     -11.210725      -305.0593
   3   2.0000     -11.210472      -305.0524
   4   2.0000     -11.210081      -305.0418
   5   2.0000     -11.209845      -305.0354
   6   2.0000     -11.209684      -305.0310
   7   2.0000      -1.101085       -29.9620
   8   2.0000      -1.021986       -27.8097
   9   2.0000      -1.021236       -27.7892
  10   2.0000      -0.877852       -23.8876
  11   2.0000      -0.877244       -23.8710
  12   2.0000      -0.763573       -20.7779
  13   2.0000      -0.745901       -20.2970
  14   2.0000      -0.643510       -17.5108
  15   2.0000      -0.618650       -16.8343
  16   2.0000      -0.607732       -16.5372
  17   2.0000      -0.586128       -15.9493
  18   2.0000      -0.553830       -15.0705
  19   2.0000      -0.549094       -14.9416
  20   2.0000      -0.519329       -14.1317
  21   2.0000      -0.514561       -14.0019
  22   2.0000      -0.460629       -12.5344
  23   2.0000      -0.458978       -12.4894
  24   2.0000      -0.453919       -12.3518
  25   2.0000      -0.439943       -11.9715
  26   2.0000      -0.432523       -11.7696
  27   2.0000      -0.431946       -11.7538
  28   0.0000       0.027328         0.7436
  29   0.0000       0.029715         0.8086
  30   0.0000       0.031084         0.8458
  31   0.0000       0.033138         0.9017
  32   0.0000       0.044960         1.2234

MULLIKEN ATOMIC CHARGES
-----------------------
   0 C :   -0.600880
   1 C :   -0.443183
   2 C :   -0.443182
   3 C :   -0.364607
   4 C :   -0.364608
   5 C :   -0.436017
   6 C :   -0.436018
   7 H :    0.211535
   8 H :    0.211537
   9 H :    0.210852
  10 H :    0.210851
  11 H :    0.281007
  12 H :    0.281003
  13 H :    0.209964
  14 H :    0.209963
  15 H :    0.248037
  16 H :    0.248039
  17 H :    0.167721
  18 H :    0.167719
  19 H :    0.215134
  20 H :    0.215133
Sum of atomic charges:   -0.0000000

LOEWDIN ATOMIC CHARGES
----------------------
   0 C :    0.554036
   1 C :    0.543149
   2 C :    0.543149
   3 C :    0.544466
   4 C :    0.544466
   5 C :    0.542068
   6 C :    0.542068
   7 H :   -0.272377
   8 H :   -0.272377
   9 H :   -0.283461
  10 H :   -0.283461
  11 H :   -0.270392
  12 H :   -0.270392
  13 H :   -0.272160
  14 H :   -0.272160
  15 H :   -0.264008
  16 H :   -0.264008
  17 H :   -0.275766
  18 H :   -0.275766
  19 H :   -0.268537
  20 H :   -0.268537

  Mayer bond orders larger than 0.100000
B(  0-C ,  1-C ) :   0.8637 B(  0-C ,  2-C ) :   0.8637 B(  0-C ,  7-H ) :   0.9975
B(  0-C ,  8-H ) :   0.9975 B(  1-C ,  3-C ) :   0.8347 B(  1-C ,  9-H ) :   0.9769
B(  1-C , 11-H ) :   0.9212 B(  2-C ,  4-C ) :   0.8347 B(  2-C , 10-H ) :   0.9769
B(  2-C , 12-H ) :   0.9212 B(  3-C ,  5-C ) :   0.7958 B(  3-C , 13-H ) :   1.0134
B(  3-C , 15-H ) :   0.9207 B(  4-C ,  6-C ) :   0.7958 B(  4-C , 14-H ) :   1.0134
B(  4-C , 16-H ) :   0.9207 B(  5-C ,  6-C ) :   0.8083 B(  5-C , 17-H ) :   1.0073
B(  5-C , 19-H ) :   0.9951 B(  6-C , 18-H ) :   1.0073 B(  6-C , 20-H ) :   0.9951

MP2 TOTAL ENERGY:     -274.640100417 Eh
FINAL SINGLE POINT ENERGY      -274.640100417168

DIPOLE MOMENT
-------------
                                X             Y             Z
Electronic contribution:      0.00000      -0.00000       0.00792
Nuclear contribution   :      0.00000       0.00000      -0.01053
                        -----------------------------------------
Total Dipole Moment    :      0.00000      -0.00000      -0.00261
                        -----------------------------------------
Magnitude (a.u.)       :      0.00261
Magnitude (Debye)      :      0.00663

Rotational constants in cm-1:     0.103897     0.095032     0.056832
Rotational constants in MHz :  3114.760494  2848.991878  1703.769191

                             ****ORCA TERMINATED NORMALLY****
TOTAL RUN TIME: 0 days 1 hours 27 minutes 22 seconds 720 msec
