                         Program Version 5.0.4 -  RELEASE  -
|  1> !ri-mp2 aug-cc-pvqz aug-cc-pvqz/c tightscf
|  2> %pal nprocs 16 end
|  3>
|  4> * xyz 0 1
|  5> C      0.611276    0.150433    0.000000
|  6> C     -0.558771    0.979132    0.000000
|  7> H      1.547692    0.693190    0.000000
|  8> C      0.611276   -1.169532    0.748025
|  9> C      0.611276   -1.169532   -0.748025
| 10> C     -1.538704    1.673681    0.000000
| 11> H     -2.403449    2.288355    0.000000
| 12> H      1.520070   -1.440716    1.265675
| 13> H     -0.301248   -1.442601    1.256473
| 14> H      1.520070   -1.440716   -1.265675
| 15> H     -0.301248   -1.442601   -1.256473
| 16> *
| 17>
| 18>                          ****END OF INPUT****

CARTESIAN COORDINATES (ANGSTROEM)
---------------------------------
  C      0.611276    0.150433    0.000000
  C     -0.558771    0.979132    0.000000
  H      1.547692    0.693190    0.000000
  C      0.611276   -1.169532    0.748025
  C      0.611276   -1.169532   -0.748025
  C     -1.538704    1.673681    0.000000
  H     -2.403449    2.288355    0.000000
  H      1.520070   -1.440716    1.265675
  H     -0.301248   -1.442601    1.256473
  H      1.520070   -1.440716   -1.265675
  H     -0.301248   -1.442601   -1.256473

 Total Charge           Charge          ....    0
 Multiplicity           Mult            ....    1
 Number of Electrons    NEL             ....   36
 Basis Dimension        Dim             ....  676

ORBITAL ENERGIES
----------------

  NO   OCC          E(Eh)            E(eV)
   0   2.0000     -11.257279      -306.3261
   1   2.0000     -11.238893      -305.8258
   2   2.0000     -11.238192      -305.8068
   3   2.0000     -11.231567      -305.6265
   4   2.0000     -11.216358      -305.2126
   5   2.0000      -1.161374       -31.6026
   6   2.0000      -1.021443       -27.7949
   7   2.0000      -0.868685       -23.6381
   8   2.0000      -0.834533       -22.7088
   9   2.0000      -0.723616       -19.6906
  10   2.0000      -0.685566       -18.6552
  11   2.0000      -0.652720       -17.7614
  12   2.0000      -0.559455       -15.2235
  13   2.0000      -0.528916       -14.3925
  14   2.0000      -0.478757       -13.0276
  15   2.0000      -0.459740       -12.5102
  16   2.0000      -0.381157       -10.3718
  17   2.0000      -0.359670        -9.7871
  18   0.0000       0.026332         0.7165
  19   0.0000       0.029800         0.8109
  20   0.0000       0.035710         0.9717
  21   0.0000       0.037126         1.0102
  22   0.0000       0.047639         1.2963

MULLIKEN ATOMIC CHARGES
-----------------------
   0 C :   -0.011735
   1 C :    0.063027
   2 H :    0.506569
   3 C :   -0.699185
   4 C :   -0.699185
   5 C :   -1.034579
   6 H :    0.403549
   7 H :    0.385111
   8 H :    0.350658
   9 H :    0.385111
  10 H :    0.350658
Sum of atomic charges:    0.0000000

LOEWDIN ATOMIC CHARGES
----------------------
   0 C :    0.048911
   1 C :    0.087649
   2 H :   -0.301782
   3 C :    0.581812
   4 C :    0.581812
   5 C :    0.570780
   6 H :   -0.469685
   7 H :   -0.271580
   8 H :   -0.278168
   9 H :   -0.271580
  10 H :   -0.278168

  Mayer bond orders larger than 0.100000
B(  0-C ,  1-C ) :   0.6284 B(  0-C ,  2-H ) :   0.7128 B(  0-C ,  3-C ) :   0.9182
B(  0-C ,  4-C ) :   0.9182 B(  0-C ,  5-C ) :  -0.2362 B(  1-C ,  5-C ) :   2.5892
B(  1-C ,  6-H ) :  -0.1473 B(  3-C ,  4-C ) :   1.0794 B(  3-C ,  7-H ) :   0.8319
B(  3-C ,  8-H ) :   0.8604 B(  4-C ,  9-H ) :   0.8319 B(  4-C , 10-H ) :   0.8604
B(  5-C ,  6-H ) :   1.0476

MP2 TOTAL ENERGY:     -193.670755620 Eh
FINAL SINGLE POINT ENERGY      -193.670755619972

DIPOLE MOMENT
-------------
                                X             Y             Z
Electronic contribution:     -1.37628       2.54973      -0.00000
Nuclear contribution   :      1.61796      -2.84861       0.00000
                        -----------------------------------------
Total Dipole Moment    :      0.24168      -0.29888      -0.00000
                        -----------------------------------------
Magnitude (a.u.)       :      0.38437
Magnitude (Debye)      :      0.97698

Rotational constants in cm-1:     0.533572     0.111633     0.105942
Rotational constants in MHz : 15996.096487  3346.684486  3176.048453

                             ****ORCA TERMINATED NORMALLY****
TOTAL RUN TIME: 0 days 0 hours 11 minutes 53 seconds 239 msec
