                         Program Version 5.0.4 -  RELEASE  -
|  1> !ri-mp2 aug-cc-pvqz aug-cc-pvqz/c tightscf
|  2> %pal nprocs 16 end
|  3>
|  4> * xyz 0 1
|  5> N     -1.392026    0.964971    0.000000
|  6> H     -1.686104    1.489839    0.815536
|  7> H     -1.686104    1.489839   -0.815536
|  8> C      0.483446   -0.254439   -1.082525
|  9> H     -0.198668   -0.373542   -1.923807
| 10> H      1.483527   -0.047564   -1.463346
| 11> C      0.483446   -0.254439    1.082525
| 12> H     -0.198668   -0.373542    1.923807
| 13> H      1.483527   -0.047564    1.463346
| 14> C      0.057064    0.770920    0.000000
| 15> H      0.619951    1.711232    0.000000
| 16> C      0.483446   -1.364057    0.000000
| 17> H      1.324266   -2.055871    0.000000
| 18> H     -0.441946   -1.935530    0.000000
| 19> *
| 20>
| 21>                          ****END OF INPUT****

CARTESIAN COORDINATES (ANGSTROEM)
---------------------------------
  N     -1.392026    0.964971    0.000000
  H     -1.686104    1.489839    0.815536
  H     -1.686104    1.489839   -0.815536
  C      0.483446   -0.254439   -1.082525
  H     -0.198668   -0.373542   -1.923807
  H      1.483527   -0.047564   -1.463346
  C      0.483446   -0.254439    1.082525
  H     -0.198668   -0.373542    1.923807
  H      1.483527   -0.047564    1.463346
  C      0.057064    0.770920    0.000000
  H      0.619951    1.711232    0.000000
  C      0.483446   -1.364057    0.000000
  H      1.324266   -2.055871    0.000000
  H     -0.441946   -1.935530    0.000000

 Total Charge           Charge          ....    0
 Multiplicity           Mult            ....    1
 Number of Electrons    NEL             ....   40
 Basis Dimension        Dim             ....  814

ORBITAL ENERGIES
----------------

  NO   OCC          E(Eh)            E(eV)
   0   2.0000     -15.535741      -422.7490
   1   2.0000     -11.247465      -306.0591
   2   2.0000     -11.211325      -305.0757
   3   2.0000     -11.211181      -305.0717
   4   2.0000     -11.210153      -305.0438
   5   2.0000      -1.188497       -32.3406
   6   2.0000      -1.081792       -29.4371
   7   2.0000      -0.895148       -24.3582
   8   2.0000      -0.868411       -23.6307
   9   2.0000      -0.733470       -19.9587
  10   2.0000      -0.664274       -18.0758
  11   2.0000      -0.646717       -17.5981
  12   2.0000      -0.632806       -17.2195
  13   2.0000      -0.564109       -15.3502
  14   2.0000      -0.532544       -14.4913
  15   2.0000      -0.475633       -12.9426
  16   2.0000      -0.465153       -12.6575
  17   2.0000      -0.455966       -12.4075
  18   2.0000      -0.428168       -11.6510
  19   2.0000      -0.379106       -10.3160
  20   0.0000       0.026211         0.7132
  21   0.0000       0.034042         0.9263
  22   0.0000       0.035109         0.9554
  23   0.0000       0.036215         0.9855
  24   0.0000       0.051376         1.3980

MULLIKEN ATOMIC CHARGES
-----------------------
   0 N :   -0.718475
   1 H :    0.204762
   2 H :    0.204762
   3 C :   -0.752524
   4 H :    0.308679
   5 H :    0.264177
   6 C :   -0.752524
   7 H :    0.308679
   8 H :    0.264177
   9 C :    0.140681
  10 H :    0.470612
  11 C :   -0.531070
  12 H :    0.318679
  13 H :    0.269384
Sum of atomic charges:    0.0000000

LOEWDIN ATOMIC CHARGES
----------------------
   0 N :    1.286228
   1 H :   -0.504335
   2 H :   -0.504335
   3 C :    0.535548
   4 H :   -0.265119
   5 H :   -0.269499
   6 C :    0.535548
   7 H :   -0.265119
   8 H :   -0.269499
   9 C :   -0.037780
  10 H :   -0.257137
  11 C :    0.550389
  12 H :   -0.262525
  13 H :   -0.272365

  Mayer bond orders larger than 0.100000
B(  0-N ,  1-H ) :   0.9730 B(  0-N ,  2-H ) :   0.9730 B(  0-N ,  9-C ) :   0.6262
B(  3-C ,  4-H ) :   0.8741 B(  3-C ,  5-H ) :   0.9376 B(  3-C ,  9-C ) :   0.8906
B(  3-C , 11-C ) :   1.0632 B(  6-C ,  7-H ) :   0.8741 B(  6-C ,  8-H ) :   0.9376
B(  6-C ,  9-C ) :   0.8906 B(  6-C , 11-C ) :   1.0632 B(  9-C , 10-H ) :   0.6923
B(  9-C , 11-C ) :  -0.1668 B( 11-C , 12-H ) :   0.8811 B( 11-C , 13-H ) :   0.8795

MP2 TOTAL ENERGY:     -212.178387835 Eh
FINAL SINGLE POINT ENERGY      -212.178387835228

DIPOLE MOMENT
-------------
                                X             Y             Z
Electronic contribution:     -0.54860       0.60153       0.00000
Nuclear contribution   :      0.73050      -0.14475      -0.00000
                        -----------------------------------------
Total Dipole Moment    :      0.18191       0.45679       0.00000
                        -----------------------------------------
Magnitude (a.u.)       :      0.49168
Magnitude (Debye)      :      1.24974

Rotational constants in cm-1:     0.282024     0.156047     0.128886
Rotational constants in MHz :  8454.873998  4678.170773  3863.913944

                             ****ORCA TERMINATED NORMALLY****
TOTAL RUN TIME: 0 days 0 hours 15 minutes 56 seconds 404 msec
