                         Program Version 5.0.4 -  RELEASE  -
|  1> !ri-mp2 aug-cc-pvqz aug-cc-pvqz/c tightscf
|  2> %pal nprocs 16 end
|  3>
|  4> * xyz 0 1
|  5> C      0.028542    0.674903    0.133473
|  6> C      1.166085   -0.321837    0.199900
|  7> Cl    -1.550178   -0.167557   -0.077281
|  8> O      2.264073   -0.071400   -0.217240
|  9> H     -0.023974    1.228514    1.070602
| 10> H      0.172885    1.363727   -0.692610
| 11> H      0.923765   -1.290966    0.673464
| 12> *
| 13>
| 14>                          ****END OF INPUT****

CARTESIAN COORDINATES (ANGSTROEM)
---------------------------------
  C      0.028542    0.674903    0.133473
  C      1.166085   -0.321837    0.199900
  Cl    -1.550178   -0.167557   -0.077281
  O      2.264073   -0.071400   -0.217240
  H     -0.023974    1.228514    1.070602
  H      0.172885    1.363727   -0.692610
  H      0.923765   -1.290966    0.673464

 Total Charge           Charge          ....    0
 Multiplicity           Mult            ....    1
 Number of Electrons    NEL             ....   40
 Basis Dimension        Dim             ....  462

ORBITAL ENERGIES
----------------

  NO   OCC          E(Eh)            E(eV)
   0   2.0000    -104.848594     -2853.0753
   1   2.0000     -20.581686      -560.0561
   2   2.0000     -11.357102      -309.0425
   3   2.0000     -11.320515      -308.0469
   4   2.0000     -10.573764      -287.7268
   5   2.0000      -8.040828      -218.8021
   6   2.0000      -8.039124      -218.7557
   7   2.0000      -8.039079      -218.7545
   8   2.0000      -1.422169       -38.6992
   9   2.0000      -1.156750       -31.4768
  10   2.0000      -0.981801       -26.7162
  11   2.0000      -0.827175       -22.5086
  12   2.0000      -0.694120       -18.8880
  13   2.0000      -0.663818       -18.0634
  14   2.0000      -0.649093       -17.6627
  15   2.0000      -0.572172       -15.5696
  16   2.0000      -0.534729       -14.5507
  17   2.0000      -0.480160       -13.0658
  18   2.0000      -0.459363       -12.4999
  19   2.0000      -0.439658       -11.9637
  20   0.0000       0.026194         0.7128
  21   0.0000       0.034679         0.9437
  22   0.0000       0.039757         1.0818
  23   0.0000       0.052918         1.4400
  24   0.0000       0.074798         2.0354

MULLIKEN ATOMIC CHARGES
-----------------------
   0 C :   -0.417019
   1 C :    0.206752
   2 Cl:   -0.257487
   3 O :   -0.668855
   4 H :    0.319998
   5 H :    0.327349
   6 H :    0.489262
Sum of atomic charges:    0.0000000

LOEWDIN ATOMIC CHARGES
----------------------
   0 C :   -0.192484
   1 C :   -0.370016
   2 Cl:    1.101217
   3 O :    0.696708
   4 H :   -0.414881
   5 H :   -0.429900
   6 H :   -0.390644

  Mayer bond orders larger than 0.100000
B(  0-C ,  1-C ) :   1.0154 B(  0-C ,  2-Cl) :   0.9281 B(  0-C ,  4-H ) :   0.8253
B(  0-C ,  5-H ) :   0.8530 B(  1-C ,  3-O ) :   1.6853 B(  1-C ,  6-H ) :   0.7144

MP2 TOTAL ENERGY:     -612.732767554 Eh
FINAL SINGLE POINT ENERGY      -612.732767554195

DIPOLE MOMENT
-------------
                                X             Y             Z
Electronic contribution:     -3.61475      -1.23402      -0.64108
Nuclear contribution   :      3.18313       1.47366       1.10878
                        -----------------------------------------
Total Dipole Moment    :     -0.43162       0.23963       0.46770
                        -----------------------------------------
Magnitude (a.u.)       :      0.68004
Magnitude (Debye)      :      1.72853

Rotational constants in cm-1:     1.017507     0.089657     0.085500
Rotational constants in MHz : 30504.104372  2687.860136  2563.224068

                             ****ORCA TERMINATED NORMALLY****
TOTAL RUN TIME: 0 days 0 hours 4 minutes 2 seconds 764 msec
