                         Program Version 5.0.4 -  RELEASE  -
|  1> !ri-mp2 aug-cc-pvqz aug-cc-pvqz/c tightscf
|  2> %pal nprocs 16 end
|  3>
|  4> * xyz 0 1
|  5> H      0.336332    2.019953    1.266776
|  6> H      0.336332    2.019953   -1.266776
|  7> H     -1.118471    0.924048   -1.256429
|  8> H     -1.118471    0.924048    1.256429
|  9> H      1.651115    0.325415    0.000000
| 10> C      0.575980    0.213094    0.000000
| 11> N     -0.228299   -2.244511    0.000000
| 12> C      0.132495   -1.150808    0.000000
| 13> C     -0.228299    1.260370    0.746697
| 14> C     -0.228299    1.260370   -0.746697
| 15> *
| 16>
| 17>                          ****END OF INPUT****

CARTESIAN COORDINATES (ANGSTROEM)
---------------------------------
  H      0.336332    2.019953    1.266776
  H      0.336332    2.019953   -1.266776
  H     -1.118471    0.924048   -1.256429
  H     -1.118471    0.924048    1.256429
  H      1.651115    0.325415    0.000000
  C      0.575980    0.213094    0.000000
  N     -0.228299   -2.244511    0.000000
  C      0.132495   -1.150808    0.000000
  C     -0.228299    1.260370    0.746697
  C     -0.228299    1.260370   -0.746697

 Total Charge           Charge          ....    0
 Multiplicity           Mult            ....    1
 Number of Electrons    NEL             ....   36
 Basis Dimension        Dim             ....  630

ORBITAL ENERGIES
----------------

  NO   OCC          E(Eh)            E(eV)
   0   2.0000     -15.563266      -423.4980
   1   2.0000     -11.287209      -307.1406
   2   2.0000     -11.270780      -306.6935
   3   2.0000     -11.264013      -306.5094
   4   2.0000     -11.263298      -306.4899
   5   2.0000      -1.223807       -33.3015
   6   2.0000      -1.175791       -31.9949
   7   2.0000      -0.919169       -25.0119
   8   2.0000      -0.858221       -23.3534
   9   2.0000      -0.739174       -20.1139
  10   2.0000      -0.685080       -18.6420
  11   2.0000      -0.600486       -16.3401
  12   2.0000      -0.552653       -15.0385
  13   2.0000      -0.550740       -14.9864
  14   2.0000      -0.523344       -14.2409
  15   2.0000      -0.498078       -13.5534
  16   2.0000      -0.444050       -12.0832
  17   2.0000      -0.419196       -11.4069
  18   0.0000       0.019703         0.5362
  19   0.0000       0.031276         0.8511
  20   0.0000       0.031522         0.8577
  21   0.0000       0.039112         1.0643
  22   0.0000       0.050648         1.3782

MULLIKEN ATOMIC CHARGES
-----------------------
   0 H :    0.386035
   1 H :    0.386034
   2 H :    0.361717
   3 H :    0.361717
   4 H :    0.524088
   5 C :   -0.449178
   6 N :   -0.707491
   7 C :    0.473032
   8 C :   -0.667976
   9 C :   -0.667976
Sum of atomic charges:   -0.0000000

LOEWDIN ATOMIC CHARGES
----------------------
   0 H :   -0.267534
   1 H :   -0.267534
   2 H :   -0.272790
   3 H :   -0.272790
   4 H :   -0.298890
   5 C :    0.059854
   6 N :    0.408858
   7 C :   -0.270617
   8 C :    0.590722
   9 C :    0.590722

  Mayer bond orders larger than 0.100000
B(  0-H ,  8-C ) :   0.8232 B(  1-H ,  9-C ) :   0.8232 B(  2-H ,  9-C ) :   0.8480
B(  3-H ,  8-C ) :   0.8480 B(  4-H ,  5-C ) :   0.6781 B(  5-C ,  7-C ) :   1.1072
B(  5-C ,  8-C ) :   0.9322 B(  5-C ,  9-C ) :   0.9322 B(  6-N ,  7-C ) :   2.4735
B(  8-C ,  9-C ) :   1.0832

MP2 TOTAL ENERGY:     -209.772961711 Eh
FINAL SINGLE POINT ENERGY      -209.772961711115

DIPOLE MOMENT
-------------
                                X             Y             Z
Electronic contribution:      0.28233      -4.46383       0.00000
Nuclear contribution   :      0.08616       6.24826       0.00000
                        -----------------------------------------
Total Dipole Moment    :      0.36849       1.78444       0.00000
                        -----------------------------------------
Magnitude (a.u.)       :      1.82209
Magnitude (Debye)      :      4.63138

Rotational constants in cm-1:     0.535399     0.115195     0.109127
Rotational constants in MHz : 16050.850954  3453.453855  3271.560068

                             ****ORCA TERMINATED NORMALLY****
TOTAL RUN TIME: 0 days 0 hours 8 minutes 13 seconds 18 msec
