                         Program Version 5.0.4 -  RELEASE  -
|  1> !ri-mp2 aug-cc-pvqz aug-cc-pvqz/c tightscf
|  2> %pal nprocs 16 end
|  3>
|  4> * xyz 0 1
|  5> C      0.000000    0.000000   -0.615871
|  6> C      0.000000    0.000000   -1.813601
|  7> Cl     0.000000    0.000000    1.026530
|  8> H      0.000000    0.000000   -2.874172
|  9> *
| 10>
| 11>                          ****END OF INPUT****

CARTESIAN COORDINATES (ANGSTROEM)
---------------------------------
  C      0.000000    0.000000   -0.615871
  C      0.000000    0.000000   -1.813601
  Cl     0.000000    0.000000    1.026530
  H      0.000000    0.000000   -2.874172

 Total Charge           Charge          ....    0
 Multiplicity           Mult            ....    1
 Number of Electrons    NEL             ....   30
 Basis Dimension        Dim             ....  290

ORBITAL ENERGIES
----------------

  NO   OCC          E(Eh)            E(eV)
   0   2.0000    -104.889843     -2854.1977
   1   2.0000     -11.295465      -307.3652
   2   2.0000     -11.248416      -306.0850
   3   2.0000     -10.613807      -288.8164
   4   2.0000      -8.081267      -219.9025
   5   2.0000      -8.078995      -219.8406
   6   2.0000      -8.078995      -219.8406
   7   2.0000      -1.192092       -32.4385
   8   2.0000      -1.024458       -27.8769
   9   2.0000      -0.748151       -20.3582
  10   2.0000      -0.670733       -18.2516
  11   2.0000      -0.550598       -14.9825
  12   2.0000      -0.550598       -14.9825
  13   2.0000      -0.396443       -10.7878
  14   2.0000      -0.396443       -10.7878
  15   0.0000       0.026395         0.7183
  16   0.0000       0.048079         1.3083
  17   0.0000       0.073706         2.0056
  18   0.0000       0.074741         2.0338
  19   0.0000       0.074741         2.0338

MULLIKEN ATOMIC CHARGES
-----------------------
   0 C :   -0.498834
   1 C :   -0.253986
   2 Cl:    0.146545
   3 H :    0.606275
Sum of atomic charges:    0.0000000

LOEWDIN ATOMIC CHARGES
----------------------
   0 C :   -0.917086
   1 C :    0.344644
   2 Cl:    1.064881
   3 H :   -0.492439

  Mayer bond orders larger than 0.100000
B(  0-C ,  1-C ) :   2.6793 B(  0-C ,  2-Cl) :   1.0110 B(  1-C ,  3-H ) :   0.6461

MP2 TOTAL ENERGY:     -536.317212173 Eh
FINAL SINGLE POINT ENERGY      -536.317212173152

DIPOLE MOMENT
-------------
                                X             Y             Z
Electronic contribution:      0.00000       0.00000       3.80796
Nuclear contribution   :      0.00000       0.00000      -4.04547
                        -----------------------------------------
Total Dipole Moment    :      0.00000       0.00000      -0.23750
                        -----------------------------------------
Magnitude (a.u.)       :      0.23750
Magnitude (Debye)      :      0.60368

Rotational constants in cm-1:     0.000000     0.188480     0.188480
Rotational constants in MHz :     0.000000  5650.501610  5650.501610

                             ****ORCA TERMINATED NORMALLY****
TOTAL RUN TIME: 0 days 0 hours 1 minutes 2 seconds 669 msec
