                         Program Version 5.0.4 -  RELEASE  -
|  1> !ri-mp2 aug-cc-pvqz aug-cc-pvqz/c tightscf
|  2> %pal nprocs 16 end
|  3>
|  4> * xyz 0 1
|  5> H     0.000000     2.213829    1.634446
|  6> H     0.877402     3.463699    0.738497
|  7> H    -0.877402     3.463699    0.738497
|  8> H     0.000000    -2.213829    1.634446
|  9> H     0.877402    -3.463699    0.738497
| 10> H    -0.877402    -3.463699    0.738497
| 11> C     0.000000     2.811524    0.725249
| 12> C     0.000000    -2.811524    0.725249
| 13> H     0.000000     2.459711   -1.459498
| 14> H     0.000000    -2.459711   -1.459498
| 15> C     0.000000    -0.631593   -0.499294
| 16> C     0.000000     0.631593   -0.499294
| 17> C     0.000000     1.946711   -0.501278
| 18> C     0.000000    -1.946711   -0.501278
| 19> *
| 20>
| 21>                          ****END OF INPUT****

CARTESIAN COORDINATES (ANGSTROEM)
---------------------------------
  H      0.000000    2.213829    1.634446
  H      0.877402    3.463699    0.738497
  H     -0.877402    3.463699    0.738497
  H      0.000000   -2.213829    1.634446
  H      0.877402   -3.463699    0.738497
  H     -0.877402   -3.463699    0.738497
  C      0.000000    2.811524    0.725249
  C      0.000000   -2.811524    0.725249
  H      0.000000    2.459711   -1.459498
  H      0.000000   -2.459711   -1.459498
  C      0.000000   -0.631593   -0.499294
  C      0.000000    0.631593   -0.499294
  C      0.000000    1.946711   -0.501278
  C      0.000000   -1.946711   -0.501278

 Total Charge           Charge          ....    0
 Multiplicity           Mult            ....    1
 Number of Electrons    NEL             ....   44
 Basis Dimension        Dim             ....  848

ORBITAL ENERGIES
----------------

  NO   OCC          E(Eh)            E(eV)
   0   2.0000     -11.249379      -306.1112
   1   2.0000     -11.249367      -306.1108
   2   2.0000     -11.239941      -305.8544
   3   2.0000     -11.237436      -305.7862
   4   2.0000     -11.227197      -305.5076
   5   2.0000     -11.227196      -305.5075
   6   2.0000      -1.098599       -29.8944
   7   2.0000      -1.056623       -28.7522
   8   2.0000      -0.978797       -26.6344
   9   2.0000      -0.903947       -24.5976
  10   2.0000      -0.835375       -22.7317
  11   2.0000      -0.679724       -18.4962
  12   2.0000      -0.660137       -17.9632
  13   2.0000      -0.581788       -15.8312
  14   2.0000      -0.575966       -15.6728
  15   2.0000      -0.573192       -15.5973
  16   2.0000      -0.571172       -15.5424
  17   2.0000      -0.529721       -14.4144
  18   2.0000      -0.528523       -14.3818
  19   2.0000      -0.452894       -12.3239
  20   2.0000      -0.363604        -9.8942
  21   2.0000      -0.308822        -8.4035
  22   0.0000       0.026459         0.7200
  23   0.0000       0.028359         0.7717
  24   0.0000       0.034240         0.9317
  25   0.0000       0.040623         1.1054
  26   0.0000       0.043115         1.1732

MULLIKEN ATOMIC CHARGES
-----------------------
   0 H :    0.283628
   1 H :    0.237121
   2 H :    0.237121
   3 H :    0.283628
   4 H :    0.237121
   5 H :    0.237121
   6 C :   -0.739531
   7 C :   -0.739531
   8 H :    0.386050
   9 H :    0.386050
  10 C :   -0.216988
  11 C :   -0.216988
  12 C :   -0.187401
  13 C :   -0.187401
Sum of atomic charges:    0.0000000

LOEWDIN ATOMIC CHARGES
----------------------
   0 H :   -0.314911
   1 H :   -0.300198
   2 H :   -0.300198
   3 H :   -0.314911
   4 H :   -0.300198
   5 H :   -0.300198
   6 C :    0.864084
   7 C :    0.864084
   8 H :   -0.357809
   9 H :   -0.357809
  10 C :    0.125339
  11 C :    0.125339
  12 C :    0.283694
  13 C :    0.283694

  Mayer bond orders larger than 0.100000
B(  0-H ,  6-C ) :   0.9096 B(  1-H ,  6-C ) :   0.9633 B(  2-H ,  6-C ) :   0.9633
B(  3-H ,  7-C ) :   0.9096 B(  4-H ,  7-C ) :   0.9633 B(  5-H ,  7-C ) :   0.9633
B(  6-C , 11-C ) :  -0.1069 B(  6-C , 12-C ) :   1.0007 B(  7-C , 10-C ) :  -0.1069
B(  7-C , 13-C ) :   1.0007 B(  8-H , 12-C ) :   0.8207 B(  9-H , 13-C ) :   0.8207
B( 10-C , 11-C ) :   2.2880 B( 10-C , 12-C ) :  -0.2278 B( 10-C , 13-C ) :   1.7240
B( 11-C , 12-C ) :   1.7240 B( 11-C , 13-C ) :  -0.2278

MP2 TOTAL ENERGY:     -232.904514025 Eh
FINAL SINGLE POINT ENERGY      -232.904514025283

DIPOLE MOMENT
-------------
                                X             Y             Z
Electronic contribution:      0.00000      -0.00000      -3.24497
Nuclear contribution   :      0.00000       0.00000       3.40718
                        -----------------------------------------
Total Dipole Moment    :      0.00000      -0.00000       0.16221
                        -----------------------------------------
Magnitude (a.u.)       :      0.16221
Magnitude (Debye)      :      0.41230

Rotational constants in cm-1:     0.426686     0.046305     0.042424
Rotational constants in MHz : 12791.716911  1388.181353  1271.845804

                             ****ORCA TERMINATED NORMALLY****
TOTAL RUN TIME: 0 days 0 hours 20 minutes 36 seconds 790 msec
