                         Program Version 5.0.4 -  RELEASE  -
|  1> !ri-mp2 aug-cc-pvqz aug-cc-pvqz/c tightscf
|  2> %pal nprocs 16 end
|  3>
|  4> * xyz 0 1
|  5> C      0.636065    0.415283    0.571630
|  6> C     -0.713037   -0.368475    0.430685
|  7> C      1.364965   -0.856683    0.052791
|  8> C      0.013200   -1.382989   -0.489869
|  9> C      0.802735    1.630562   -0.331113
| 10> C     -1.968744    0.323549   -0.068200
| 11> H      0.880376    0.697694    1.597241
| 12> H     -0.928293   -0.850203    1.387512
| 13> H      2.167047   -0.700311   -0.668994
| 14> H     -0.125626   -1.141655   -1.544800
| 15> H      1.747856   -1.473016    0.866030
| 16> H     -0.212001   -2.439705   -0.348512
| 17> H      0.603423    1.391862   -1.377604
| 18> H     -1.805638    0.816530   -1.027783
| 19> H      0.132470    2.442392   -0.042514
| 20> H      1.825302    2.008700   -0.271645
| 21> H     -2.318826    1.078652    0.639323
| 22> H     -2.777199   -0.398427   -0.203797
| 23> *
| 24>
| 25>                          ****END OF INPUT****

CARTESIAN COORDINATES (ANGSTROEM)
---------------------------------
  C      0.636065    0.415283    0.571630
  C     -0.713037   -0.368475    0.430685
  C      1.364965   -0.856683    0.052791
  C      0.013200   -1.382989   -0.489869
  C      0.802735    1.630562   -0.331113
  C     -1.968744    0.323549   -0.068200
  H      0.880376    0.697694    1.597241
  H     -0.928293   -0.850203    1.387512
  H      2.167047   -0.700311   -0.668994
  H     -0.125626   -1.141655   -1.544800
  H      1.747856   -1.473016    0.866030
  H     -0.212001   -2.439705   -0.348512
  H      0.603423    1.391862   -1.377604
  H     -1.805638    0.816530   -1.027783
  H      0.132470    2.442392   -0.042514
  H      1.825302    2.008700   -0.271645
  H     -2.318826    1.078652    0.639323
  H     -2.777199   -0.398427   -0.203797

 Total Charge           Charge          ....    0
 Multiplicity           Mult            ....    1
 Number of Electrons    NEL             ....   48
 Basis Dimension        Dim             .... 1032

ORBITAL ENERGIES
----------------

  NO   OCC          E(Eh)            E(eV)
   0   2.0000     -11.218210      -305.2630
   1   2.0000     -11.217666      -305.2482
   2   2.0000     -11.210734      -305.0596
   3   2.0000     -11.210043      -305.0408
   4   2.0000     -11.207685      -304.9766
   5   2.0000     -11.206289      -304.9386
   6   2.0000      -1.131863       -30.7995
   7   2.0000      -0.984658       -26.7939
   8   2.0000      -0.968010       -26.3409
   9   2.0000      -0.847817       -23.0703
  10   2.0000      -0.837610       -22.7925
  11   2.0000      -0.712042       -19.3756
  12   2.0000      -0.661519       -18.0008
  13   2.0000      -0.608221       -16.5505
  14   2.0000      -0.588856       -16.0236
  15   2.0000      -0.566007       -15.4018
  16   2.0000      -0.542190       -14.7537
  17   2.0000      -0.531844       -14.4722
  18   2.0000      -0.517342       -14.0776
  19   2.0000      -0.502862       -13.6836
  20   2.0000      -0.452811       -12.3216
  21   2.0000      -0.440446       -11.9851
  22   2.0000      -0.415365       -11.3027
  23   2.0000      -0.413282       -11.2460
  24   0.0000       0.026729         0.7273
  25   0.0000       0.031538         0.8582
  26   0.0000       0.032802         0.8926
  27   0.0000       0.033214         0.9038
  28   0.0000       0.047885         1.3030

MULLIKEN ATOMIC CHARGES
-----------------------
   0 C :    0.110597
   1 C :    0.014213
   2 C :   -0.736401
   3 C :   -0.553486
   4 C :   -0.974214
   5 C :   -0.944270
   6 H :    0.408814
   7 H :    0.278606
   8 H :    0.270045
   9 H :    0.225791
  10 H :    0.246798
  11 H :    0.322858
  12 H :    0.176359
  13 H :    0.163411
  14 H :    0.244448
  15 H :    0.278549
  16 H :    0.200374
  17 H :    0.267508
Sum of atomic charges:    0.0000000

LOEWDIN ATOMIC CHARGES
----------------------
   0 C :    0.145128
   1 C :    0.133373
   2 C :    0.552222
   3 C :    0.555794
   4 C :    0.921867
   5 C :    0.938720
   6 H :   -0.254061
   7 H :   -0.268719
   8 H :   -0.257359
   9 H :   -0.270719
  10 H :   -0.262139
  11 H :   -0.248745
  12 H :   -0.285661
  13 H :   -0.299500
  14 H :   -0.275806
  15 H :   -0.273791
  16 H :   -0.273999
  17 H :   -0.276606

  Mayer bond orders larger than 0.100000
B(  0-C ,  1-C ) :   0.8121 B(  0-C ,  2-C ) :   0.9457 B(  0-C ,  4-C ) :   0.7074
B(  0-C ,  6-H ) :   0.7477 B(  1-C ,  2-C ) :  -0.1103 B(  1-C ,  3-C ) :   0.8862
B(  1-C ,  5-C ) :   0.6172 B(  1-C ,  7-H ) :   0.9093 B(  1-C , 17-H ) :  -0.1110
B(  2-C ,  3-C ) :   1.0877 B(  2-C ,  8-H ) :   0.9318 B(  2-C , 10-H ) :   0.9480
B(  3-C ,  9-H ) :   0.9390 B(  3-C , 11-H ) :   0.8770 B(  4-C , 12-H ) :   1.0168
B(  4-C , 14-H ) :   0.9814 B(  4-C , 15-H ) :   0.9807 B(  5-C , 13-H ) :   1.0001
B(  5-C , 16-H ) :   1.0703 B(  5-C , 17-H ) :   1.0376

MP2 TOTAL ENERGY:     -235.377259941 Eh
FINAL SINGLE POINT ENERGY      -235.377259941132

DIPOLE MOMENT
-------------
                                X             Y             Z
Electronic contribution:      0.85745      -1.52891       1.12373
Nuclear contribution   :     -0.86879       1.53439      -1.06635
                        -----------------------------------------
Total Dipole Moment    :     -0.01134       0.00548       0.05738
                        -----------------------------------------
Magnitude (a.u.)       :      0.05875
Magnitude (Debye)      :      0.14932

Rotational constants in cm-1:     0.145207     0.120797     0.079780
Rotational constants in MHz :  4353.198859  3621.393576  2391.746047

                             ****ORCA TERMINATED NORMALLY****
TOTAL RUN TIME: 0 days 0 hours 48 minutes 18 seconds 648 msec
