                         Program Version 5.0.4 -  RELEASE  -
|  1> !ri-mp2 aug-cc-pvqz aug-cc-pvqz/c tightscf
|  2> %pal nprocs 16 end
|  3>
|  4> * xyz 0 1
|  5> C      1.478824    0.602081   -0.167602
|  6> C      1.131874   -0.871035   -0.441609
|  7> C      0.138007    1.266828    0.236745
|  8> C     -0.007005   -1.147497    0.545787
|  9> C     -0.865878    0.122768    0.481642
| 10> O     -1.764277    0.100355   -0.639892
| 11> H      2.191316    0.663706    0.657603
| 12> H      1.942541    1.089472   -1.024485
| 13> H      0.768396   -0.991211   -1.463462
| 14> H      1.983364   -1.539018   -0.312244
| 15> H      0.250934    1.884221    1.127542
| 16> H     -0.256769    1.906427   -0.551166
| 17> H     -0.583006   -2.047024    0.320771
| 18> H      0.393171   -1.259290    1.558075
| 19> H     -1.443380    0.274160    1.398057
| 20> H     -2.387285   -0.623160   -0.521332
| 21> *
| 22>
| 23>                          ****END OF INPUT****

CARTESIAN COORDINATES (ANGSTROEM)
---------------------------------
  C      1.478824    0.602081   -0.167602
  C      1.131874   -0.871035   -0.441609
  C      0.138007    1.266828    0.236745
  C     -0.007005   -1.147497    0.545787
  C     -0.865878    0.122768    0.481642
  O     -1.764277    0.100355   -0.639892
  H      2.191316    0.663706    0.657603
  H      1.942541    1.089472   -1.024485
  H      0.768396   -0.991211   -1.463462
  H      1.983364   -1.539018   -0.312244
  H      0.250934    1.884221    1.127542
  H     -0.256769    1.906427   -0.551166
  H     -0.583006   -2.047024    0.320771
  H      0.393171   -1.259290    1.558075
  H     -1.443380    0.274160    1.398057
  H     -2.387285   -0.623160   -0.521332

 Total Charge           Charge          ....    0
 Multiplicity           Mult            ....    1
 Number of Electrons    NEL             ....   48
 Basis Dimension        Dim             ....  940

ORBITAL ENERGIES
----------------

  NO   OCC          E(Eh)            E(eV)
   0   2.0000     -20.548501      -559.1531
   1   2.0000     -11.273149      -306.7580
   2   2.0000     -11.216328      -305.2118
   3   2.0000     -11.213157      -305.1255
   4   2.0000     -11.212138      -305.0978
   5   2.0000     -11.210598      -305.0559
   6   2.0000      -1.351328       -36.7715
   7   2.0000      -1.108313       -30.1587
   8   2.0000      -0.963707       -26.2238
   9   2.0000      -0.949150       -25.8277
  10   2.0000      -0.787234       -21.4217
  11   2.0000      -0.768736       -20.9184
  12   2.0000      -0.687336       -18.7034
  13   2.0000      -0.654109       -17.7992
  14   2.0000      -0.639198       -17.3935
  15   2.0000      -0.584341       -15.9007
  16   2.0000      -0.545712       -14.8496
  17   2.0000      -0.531987       -14.4761
  18   2.0000      -0.498121       -13.5546
  19   2.0000      -0.475789       -12.9469
  20   2.0000      -0.469279       -12.7697
  21   2.0000      -0.462460       -12.5842
  22   2.0000      -0.451767       -12.2932
  23   2.0000      -0.429552       -11.6887
  24   0.0000       0.025443         0.6923
  25   0.0000       0.032458         0.8832
  26   0.0000       0.033360         0.9078
  27   0.0000       0.036718         0.9991
  28   0.0000       0.049123         1.3367

MULLIKEN ATOMIC CHARGES
-----------------------
   0 C :   -0.585261
   1 C :   -0.531765
   2 C :   -0.558880
   3 C :   -0.705292
   4 C :    0.482156
   5 O :   -0.908889
   6 H :    0.191199
   7 H :    0.328098
   8 H :    0.225411
   9 H :    0.352848
  10 H :    0.224760
  11 H :    0.266622
  12 H :    0.356354
  13 H :    0.233644
  14 H :    0.323238
  15 H :    0.305756
Sum of atomic charges:   -0.0000000

LOEWDIN ATOMIC CHARGES
----------------------
   0 C :    0.543650
   1 C :    0.528213
   2 C :    0.532874
   3 C :    0.516024
   4 C :   -0.190116
   5 O :    1.287209
   6 H :   -0.271589
   7 H :   -0.261866
   8 H :   -0.267571
   9 H :   -0.259342
  10 H :   -0.267869
  11 H :   -0.291837
  12 H :   -0.265605
  13 H :   -0.264279
  14 H :   -0.280527
  15 H :   -0.787368

  Mayer bond orders larger than 0.100000
B(  0-C ,  1-C ) :   0.9962 B(  0-C ,  2-C ) :   0.9415 B(  0-C ,  6-H ) :   0.9748
B(  0-C ,  7-H ) :   0.8596 B(  1-C ,  3-C ) :   0.9180 B(  1-C ,  8-H ) :   0.9516
B(  1-C ,  9-H ) :   0.8112 B(  2-C ,  4-C ) :   0.8500 B(  2-C ,  5-O ) :   0.1556
B(  2-C , 10-H ) :   0.9704 B(  2-C , 11-H ) :   0.9303 B(  3-C ,  4-C ) :   0.8869
B(  3-C ,  5-O ) :   0.1306 B(  3-C , 12-H ) :   0.8188 B(  3-C , 13-H ) :   0.9621
B(  4-C ,  5-O ) :   0.3203 B(  4-C , 14-H ) :   0.9090 B(  5-O , 15-H ) :   0.9176

MP2 TOTAL ENERGY:     -271.317504526 Eh
FINAL SINGLE POINT ENERGY      -271.317504526196

DIPOLE MOMENT
-------------
                                X             Y             Z
Electronic contribution:     -2.90084       0.26109      -0.74081
Nuclear contribution   :      2.96341      -0.66996       1.23422
                        -----------------------------------------
Total Dipole Moment    :      0.06257      -0.40887       0.49342
                        -----------------------------------------
Magnitude (a.u.)       :      0.64386
Magnitude (Debye)      :      1.63655

Rotational constants in cm-1:     0.179830     0.113368     0.088831
Rotational constants in MHz :  5391.163138  3398.690656  2663.093716

                             ****ORCA TERMINATED NORMALLY****
TOTAL RUN TIME: 0 days 0 hours 38 minutes 53 seconds 774 msec
