                         Program Version 5.0.4 -  RELEASE  -
|  1> !ri-mp2 aug-cc-pvqz aug-cc-pvqz/c tightscf
|  2> %pal nprocs 16 end
|  3>
|  4> * xyz 0 1
|  5> C      1.506018    0.680611    0.000000
|  6> C      0.000000    0.820714    0.000000
|  7> H      1.961216    1.673866    0.000000
|  8> H      1.851632    0.145961    0.883624
|  9> H      1.851632    0.145961   -0.883624
| 10> Cl    -0.821829   -0.802430    0.000000
| 11> H     -0.364745    1.333788    0.885068
| 12> H     -0.364745    1.333788   -0.885068
| 13> *
| 14>
| 15>                          ****END OF INPUT****

CARTESIAN COORDINATES (ANGSTROEM)
---------------------------------
  C      1.506018    0.680611    0.000000
  C      0.000000    0.820714    0.000000
  H      1.961216    1.673866    0.000000
  H      1.851632    0.145961    0.883624
  H      1.851632    0.145961   -0.883624
  Cl    -0.821829   -0.802430    0.000000
  H     -0.364745    1.333788    0.885068
  H     -0.364745    1.333788   -0.885068

 Total Charge           Charge          ....    0
 Multiplicity           Mult            ....    1
 Number of Electrons    NEL             ....   34
 Basis Dimension        Dim             ....  474

ORBITAL ENERGIES
----------------

  NO   OCC          E(Eh)            E(eV)
   0   2.0000    -104.816871     -2852.2121
   1   2.0000     -11.295440      -307.3646
   2   2.0000     -11.233490      -305.6788
   3   2.0000     -10.542283      -286.8701
   4   2.0000      -8.009296      -217.9440
   5   2.0000      -8.007732      -217.9015
   6   2.0000      -8.007709      -217.9008
   7   2.0000      -1.128980       -30.7211
   8   2.0000      -1.001930       -27.2639
   9   2.0000      -0.844865       -22.9900
  10   2.0000      -0.650679       -17.7059
  11   2.0000      -0.609328       -16.5807
  12   2.0000      -0.562190       -15.2980
  13   2.0000      -0.530553       -14.4371
  14   2.0000      -0.502420       -13.6715
  15   2.0000      -0.431487       -11.7413
  16   2.0000      -0.430625       -11.7179
  17   0.0000       0.025192         0.6855
  18   0.0000       0.036165         0.9841
  19   0.0000       0.036764         1.0004
  20   0.0000       0.044178         1.2021
  21   0.0000       0.058641         1.5957

MULLIKEN ATOMIC CHARGES
-----------------------
   0 C :   -0.740751
   1 C :   -0.358767
   2 H :    0.247516
   3 H :    0.268680
   4 H :    0.268680
   5 Cl:   -0.305537
   6 H :    0.310090
   7 H :    0.310090
Sum of atomic charges:    0.0000000

LOEWDIN ATOMIC CHARGES
----------------------
   0 C :    0.798511
   1 C :   -0.135862
   2 H :   -0.296820
   3 H :   -0.315652
   4 H :   -0.315652
   5 Cl:    1.074598
   6 H :   -0.404561
   7 H :   -0.404561

  Mayer bond orders larger than 0.100000
B(  0-C ,  1-C ) :   1.0177 B(  0-C ,  2-H ) :   0.9186 B(  0-C ,  3-H ) :   0.9246
B(  0-C ,  4-H ) :   0.9246 B(  1-C ,  5-Cl) :   0.8786 B(  1-C ,  6-H ) :   0.8531
B(  1-C ,  7-H ) :   0.8531

MP2 TOTAL ENERGY:     -538.801471147 Eh
FINAL SINGLE POINT ENERGY      -538.801471147058

DIPOLE MOMENT
-------------
                                X             Y             Z
Electronic contribution:     -5.54692      -4.91208      -0.00000
Nuclear contribution   :      6.04818       5.72217       0.00000
                        -----------------------------------------
Total Dipole Moment    :      0.50126       0.81009      -0.00000
                        -----------------------------------------
Magnitude (a.u.)       :      0.95263
Magnitude (Debye)      :      2.42140

Rotational constants in cm-1:     1.054989     0.178531     0.161942
Rotational constants in MHz : 31627.776416  5352.215512  4854.902626

                             ****ORCA TERMINATED NORMALLY****
TOTAL RUN TIME: 0 days 0 hours 3 minutes 40 seconds 795 msec
