                         Program Version 5.0.4 -  RELEASE  -
|  1> !ri-mp2 aug-cc-pvqz aug-cc-pvqz/c tightscf
|  2> %pal nprocs 16 end
|  3>
|  4> * xyz 0 1
|  5> C      0.000000    0.000000    0.000000
|  6> S      0.000000    0.000000    1.557501
|  7> S      0.000000    0.000000   -1.557501
|  8> *
|  9>
| 10>                          ****END OF INPUT****

CARTESIAN COORDINATES (ANGSTROEM)
---------------------------------
  C      0.000000    0.000000    0.000000
  S      0.000000    0.000000    1.557501
  S      0.000000    0.000000   -1.557501

 Total Charge           Charge          ....    0
 Multiplicity           Mult            ....    1
 Number of Electrons    NEL             ....   38
 Basis Dimension        Dim             ....  248

ORBITAL ENERGIES
----------------

  NO   OCC          E(Eh)            E(eV)
   0   2.0000     -91.990705     -2503.1944
   1   2.0000     -91.990705     -2503.1943
   2   2.0000     -11.401931      -310.2623
   3   2.0000      -8.994665      -244.7573
   4   2.0000      -8.994643      -244.7567
   5   2.0000      -6.675927      -181.6612
   6   2.0000      -6.675916      -181.6609
   7   2.0000      -6.674122      -181.6121
   8   2.0000      -6.674122      -181.6121
   9   2.0000      -6.674122      -181.6121
  10   2.0000      -6.674122      -181.6121
  11   2.0000      -1.141672       -31.0665
  12   2.0000      -1.019395       -27.7391
  13   2.0000      -0.679595       -18.4927
  14   2.0000      -0.582503       -15.8507
  15   2.0000      -0.524917       -14.2837
  16   2.0000      -0.524917       -14.2837
  17   2.0000      -0.372934       -10.1481
  18   2.0000      -0.372934       -10.1481
  19   0.0000       0.038771         1.0550
  20   0.0000       0.038771         1.0550
  21   0.0000       0.047082         1.2812
  22   0.0000       0.048873         1.3299
  23   0.0000       0.075445         2.0530

MULLIKEN ATOMIC CHARGES
-----------------------
   0 C :   -0.436107
   1 S :    0.218053
   2 S :    0.218053
Sum of atomic charges:   -0.0000000

LOEWDIN ATOMIC CHARGES
----------------------
   0 C :   -1.747398
   1 S :    0.873699
   2 S :    0.873699

  Mayer bond orders larger than 0.100000
B(  0-C ,  1-S ) :   1.7280 B(  0-C ,  2-S ) :   1.7280 B(  1-S ,  2-S ) :   0.2198

MP2 TOTAL ENERGY:     -833.513933829 Eh
FINAL SINGLE POINT ENERGY      -833.513933828796

DIPOLE MOMENT
-------------
                                X             Y             Z
Electronic contribution:      0.00000       0.00000      -0.00000
Nuclear contribution   :      0.00000       0.00000       0.00000
                        -----------------------------------------
Total Dipole Moment    :      0.00000       0.00000      -0.00000
                        -----------------------------------------
Magnitude (a.u.)       :      0.00000
Magnitude (Debye)      :      0.00000

Rotational constants in cm-1:     0.000000     0.108379     0.108379
Rotational constants in MHz :     0.000000  3249.132497  3249.132497

                             ****ORCA TERMINATED NORMALLY****
TOTAL RUN TIME: 0 days 0 hours 0 minutes 43 seconds 298 msec
