                         Program Version 5.0.4 -  RELEASE  -
|  1> !ri-mp2 aug-cc-pvqz aug-cc-pvqz/c tightscf
|  2> %pal nprocs 16 end
|  3>
|  4> * xyz 0 1
|  5> C      0.000000    0.771638   -1.378323
|  6> H     -0.624422    1.190682   -2.165746
|  7> H      1.015837    1.139927   -1.539367
|  8> C      0.000000   -0.771638   -1.378323
|  9> H      0.624422   -1.190682   -2.165746
| 10> H     -1.015837   -1.139927   -1.539367
| 11> C      0.473205   -1.145341    0.031186
| 12> H      1.566143   -1.166083    0.089614
| 13> H      0.115834   -2.102523    0.407428
| 14> C     -0.473205    1.145341    0.031186
| 15> H     -0.115834    2.102523    0.407428
| 16> H     -1.566143    1.166083    0.089614
| 17> C      0.000000    0.000000    0.924314
| 18> O      0.000000    0.000000    2.129486
| 19> *
| 20>
| 21>                          ****END OF INPUT****

CARTESIAN COORDINATES (ANGSTROEM)
---------------------------------
  C      0.000000    0.771638   -1.378323
  H     -0.624422    1.190682   -2.165746
  H      1.015837    1.139927   -1.539367
  C      0.000000   -0.771638   -1.378323
  H      0.624422   -1.190682   -2.165746
  H     -1.015837   -1.139927   -1.539367
  C      0.473205   -1.145341    0.031186
  H      1.566143   -1.166083    0.089614
  H      0.115834   -2.102523    0.407428
  C     -0.473205    1.145341    0.031186
  H     -0.115834    2.102523    0.407428
  H     -1.566143    1.166083    0.089614
  C      0.000000    0.000000    0.924314
  O      0.000000    0.000000    2.129486

 Total Charge           Charge          ....    0
 Multiplicity           Mult            ....    1
 Number of Electrons    NEL             ....   46
 Basis Dimension        Dim             ....  848

ORBITAL ENERGIES
----------------

  NO   OCC          E(Eh)            E(eV)
   0   2.0000     -20.540359      -558.9316
   1   2.0000     -11.325606      -308.1854
   2   2.0000     -11.236042      -305.7482
   3   2.0000     -11.235512      -305.7338
   4   2.0000     -11.234607      -305.7092
   5   2.0000     -11.234579      -305.7084
   6   2.0000      -1.384727       -37.6804
   7   2.0000      -1.130127       -30.7523
   8   2.0000      -0.991692       -26.9853
   9   2.0000      -0.939808       -25.5735
  10   2.0000      -0.810669       -22.0594
  11   2.0000      -0.733861       -19.9694
  12   2.0000      -0.671377       -18.2691
  13   2.0000      -0.664324       -18.0772
  14   2.0000      -0.596073       -16.2200
  15   2.0000      -0.594063       -16.1653
  16   2.0000      -0.567922       -15.4539
  17   2.0000      -0.557987       -15.1836
  18   2.0000      -0.507287       -13.8040
  19   2.0000      -0.492832       -13.4106
  20   2.0000      -0.482185       -13.1209
  21   2.0000      -0.477472       -12.9927
  22   2.0000      -0.395483       -10.7616
  23   0.0000       0.022789         0.6201
  24   0.0000       0.030770         0.8373
  25   0.0000       0.031385         0.8540
  26   0.0000       0.036549         0.9945
  27   0.0000       0.050235         1.3670

MULLIKEN ATOMIC CHARGES
-----------------------
   0 C :   -0.514340
   1 H :    0.338493
   2 H :    0.214530
   3 C :   -0.514340
   4 H :    0.338493
   5 H :    0.214530
   6 C :   -0.610988
   7 H :    0.208935
   8 H :    0.303078
   9 C :   -0.610988
  10 H :    0.303078
  11 H :    0.208935
  12 C :    0.981342
  13 O :   -0.860759
Sum of atomic charges:   -0.0000000

LOEWDIN ATOMIC CHARGES
----------------------
   0 C :    0.521696
   1 H :   -0.259885
   2 H :   -0.266787
   3 C :    0.521696
   4 H :   -0.259885
   5 H :   -0.266787
   6 C :    0.511308
   7 H :   -0.273560
   8 H :   -0.275278
   9 C :    0.511308
  10 H :   -0.275278
  11 H :   -0.273560
  12 C :   -0.629884
  13 O :    0.714898

  Mayer bond orders larger than 0.100000
B(  0-C ,  1-H ) :   0.8549 B(  0-C ,  2-H ) :   0.9351 B(  0-C ,  3-C ) :   0.9335
B(  0-C ,  9-C ) :   1.0132 B(  3-C ,  4-H ) :   0.8549 B(  3-C ,  5-H ) :   0.9351
B(  3-C ,  6-C ) :   1.0132 B(  6-C ,  7-H ) :   0.9012 B(  6-C ,  8-H ) :   0.9012
B(  6-C , 12-C ) :   1.0032 B(  6-C , 13-O ) :   0.1713 B(  9-C , 10-H ) :   0.9012
B(  9-C , 11-H ) :   0.9012 B(  9-C , 12-C ) :   1.0032 B(  9-C , 13-O ) :   0.1713
B( 12-C , 13-O ) :   1.0426

MP2 TOTAL ENERGY:     -270.119565493 Eh
FINAL SINGLE POINT ENERGY      -270.119565492997

DIPOLE MOMENT
-------------
                                X             Y             Z
Electronic contribution:      0.00000       0.00000       5.12578
Nuclear contribution   :     -0.00000      -0.00000      -6.55506
                        -----------------------------------------
Total Dipole Moment    :      0.00000       0.00000      -1.42928
                        -----------------------------------------
Magnitude (a.u.)       :      1.42928
Magnitude (Debye)      :      3.63295

Rotational constants in cm-1:     0.221334     0.111716     0.080114
Rotational constants in MHz :  6635.422607  3349.151502  2401.742791

                             ****ORCA TERMINATED NORMALLY****
TOTAL RUN TIME: 0 days 0 hours 30 minutes 27 seconds 63 msec
