                         Program Version 5.0.4 -  RELEASE  -
|  1> !ri-mp2 aug-cc-pvqz aug-cc-pvqz/c tightscf
|  2> %pal nprocs 16 end
|  3>
|  4> * xyz 0 1
|  5> Cl     2.428631   -0.064395    0.032886
|  6> O     -1.730300    1.196583    0.115542
|  7> O     -2.527186   -0.891563   -0.130112
|  8> N      0.770338    0.388259   -0.379853
|  9> C     -0.158958   -0.592845    0.181441
| 10> C     -1.598551   -0.146064    0.017450
| 11> H     -0.003971   -0.777676    1.252540
| 12> H     -0.042747   -1.538938   -0.340394
| 13> H      0.644604    1.280659    0.086477
| 14> H     -2.672033    1.406156    0.024511
| 15> *
| 16>
| 17>                          ****END OF INPUT****

CARTESIAN COORDINATES (ANGSTROEM)
---------------------------------
  Cl     2.428631   -0.064395    0.032886
  O     -1.730300    1.196583    0.115542
  O     -2.527186   -0.891563   -0.130112
  N      0.770338    0.388259   -0.379853
  C     -0.158958   -0.592845    0.181441
  C     -1.598551   -0.146064    0.017450
  H     -0.003971   -0.777676    1.252540
  H     -0.042747   -1.538938   -0.340394
  H      0.644604    1.280659    0.086477
  H     -2.672033    1.406156    0.024511

 Total Charge           Charge          ....    0
 Multiplicity           Mult            ....    1
 Number of Electrons    NEL             ....   56
 Basis Dimension        Dim             ....  668

ORBITAL ENERGIES
----------------

  NO   OCC          E(Eh)            E(eV)
   0   2.0000    -104.861824     -2853.4353
   1   2.0000     -20.632670      -561.4435
   2   2.0000     -20.567660      -559.6745
   3   2.0000     -15.637492      -425.5178
   4   2.0000     -11.407996      -310.4274
   5   2.0000     -11.300470      -307.5014
   6   2.0000     -10.584490      -288.0186
   7   2.0000      -8.051617      -219.0956
   8   2.0000      -8.049503      -219.0381
   9   2.0000      -8.049343      -219.0338
  10   2.0000      -1.487102       -40.4661
  11   2.0000      -1.384878       -37.6844
  12   2.0000      -1.265957       -34.4485
  13   2.0000      -1.073462       -29.2104
  14   2.0000      -0.961559       -26.1653
  15   2.0000      -0.850444       -23.1417
  16   2.0000      -0.729988       -19.8640
  17   2.0000      -0.718193       -19.5430
  18   2.0000      -0.695818       -18.9342
  19   2.0000      -0.638627       -17.3779
  20   2.0000      -0.617758       -16.8100
  21   2.0000      -0.611633       -16.6434
  22   2.0000      -0.572797       -15.5866
  23   2.0000      -0.525229       -14.2922
  24   2.0000      -0.501754       -13.6534
  25   2.0000      -0.476170       -12.9573
  26   2.0000      -0.456988       -12.4353
  27   2.0000      -0.411584       -11.1998
  28   0.0000       0.021886         0.5955
  29   0.0000       0.034602         0.9416
  30   0.0000       0.041288         1.1235
  31   0.0000       0.043094         1.1727
  32   0.0000       0.061063         1.6616

MULLIKEN ATOMIC CHARGES
-----------------------
   0 Cl:   -0.099555
   1 O :   -0.651001
   2 O :   -0.728579
   3 N :   -0.466490
   4 C :   -0.234139
   5 C :    0.945542
   6 H :    0.323845
   7 H :    0.317284
   8 H :    0.285162
   9 H :    0.307931
Sum of atomic charges:   -0.0000000

LOEWDIN ATOMIC CHARGES
----------------------
   0 Cl:    0.933137
   1 O :    1.253319
   2 O :    0.706252
   3 N :    0.240916
   4 C :    0.116113
   5 C :   -1.026921
   6 H :   -0.322294
   7 H :   -0.357936
   8 H :   -0.743930
   9 H :   -0.798656

  Mayer bond orders larger than 0.100000
B(  0-Cl,  3-N ) :   1.0213 B(  1-O ,  5-C ) :   0.8904 B(  1-O ,  9-H ) :   0.9341
B(  2-O ,  5-C ) :   1.4779 B(  3-N ,  4-C ) :   0.8570 B(  3-N ,  8-H ) :   0.8685
B(  4-C ,  5-C ) :   1.0222 B(  4-C ,  6-H ) :   0.8243 B(  4-C ,  7-H ) :   0.9115

MP2 TOTAL ENERGY:     -743.155742582 Eh
FINAL SINGLE POINT ENERGY      -743.155742582221

DIPOLE MOMENT
-------------
                                X             Y             Z
Electronic contribution:      5.21323       0.18640      -0.41978
Nuclear contribution   :     -5.38890       0.45081       0.93504
                        -----------------------------------------
Total Dipole Moment    :     -0.17567       0.63721       0.51527
                        -----------------------------------------
Magnitude (a.u.)       :      0.83809
Magnitude (Debye)      :      2.13025

Rotational constants in cm-1:     0.314371     0.041067     0.037063
Rotational constants in MHz :  9424.612711  1231.158817  1111.122543

                             ****ORCA TERMINATED NORMALLY****
TOTAL RUN TIME: 0 days 0 hours 9 minutes 2 seconds 217 msec
