                         Program Version 5.0.4 -  RELEASE  -
|  1> !ri-mp2 aug-cc-pvqz aug-cc-pvqz/c tightscf
|  2> %pal nprocs 16 end
|  3>
|  4> * xyz 0 1
|  5> C      0.000000    0.000000    0.018127
|  6> N      0.000000    1.215003   -0.079246
|  7> N      0.000000   -1.215003   -0.079246
|  8> H      0.613213    1.770339    0.500341
|  9> H     -0.613213   -1.770339    0.500341
| 10> *
| 11>
| 12>                          ****END OF INPUT****

CARTESIAN COORDINATES (ANGSTROEM)
---------------------------------
  C      0.000000    0.000000    0.018127
  N      0.000000    1.215003   -0.079246
  N      0.000000   -1.215003   -0.079246
  H      0.613213    1.770339    0.500341
  H     -0.613213   -1.770339    0.500341

 Total Charge           Charge          ....    0
 Multiplicity           Mult            ....    1
 Number of Electrons    NEL             ....   22
 Basis Dimension        Dim             ....  332

ORBITAL ENERGIES
----------------

  NO   OCC          E(Eh)            E(eV)
   0   2.0000     -15.577983      -423.8985
   1   2.0000     -15.577943      -423.8974
   2   2.0000     -11.366018      -309.2851
   3   2.0000      -1.289419       -35.0869
   4   2.0000      -1.204768       -32.7834
   5   2.0000      -0.801930       -21.8216
   6   2.0000      -0.742960       -20.2170
   7   2.0000      -0.588010       -16.0006
   8   2.0000      -0.579891       -15.7796
   9   2.0000      -0.427518       -11.6334
  10   2.0000      -0.426903       -11.6166
  11   0.0000       0.021521         0.5856
  12   0.0000       0.033353         0.9076
  13   0.0000       0.064802         1.7633
  14   0.0000       0.065561         1.7840
  15   0.0000       0.087630         2.3845

MULLIKEN ATOMIC CHARGES
-----------------------
   0 C :    0.701110
   1 N :   -0.718550
   2 N :   -0.718550
   3 H :    0.367995
   4 H :    0.367995
Sum of atomic charges:   -0.0000000

LOEWDIN ATOMIC CHARGES
----------------------
   0 C :   -0.370241
   1 N :    0.890228
   2 N :    0.890228
   3 H :   -0.705107
   4 H :   -0.705107

  Mayer bond orders larger than 0.100000
B(  0-C ,  1-N ) :   2.0208 B(  0-C ,  2-N ) :   2.0208 B(  1-N ,  2-N ) :   0.1289
B(  1-N ,  3-H ) :   0.7830 B(  2-N ,  4-H ) :   0.7830

MP2 TOTAL ENERGY:     -148.564099575 Eh
FINAL SINGLE POINT ENERGY      -148.564099574702

DIPOLE MOMENT
-------------
                                X             Y             Z
Electronic contribution:     -0.00000       0.00000      -0.13940
Nuclear contribution   :      0.00000       0.00000       0.98255
                        -----------------------------------------
Total Dipole Moment    :     -0.00000       0.00000       0.84315
                        -----------------------------------------
Magnitude (a.u.)       :      0.84315
Magnitude (Debye)      :      2.14312

Rotational constants in cm-1:    12.797294     0.348071     0.348036
Rotational constants in MHz : 383653.215203 10434.913166 10433.863095

                             ****ORCA TERMINATED NORMALLY****
TOTAL RUN TIME: 0 days 0 hours 1 minutes 3 seconds 540 msec
