                         Program Version 5.0.4 -  RELEASE  -
|  1> !ri-mp2 aug-cc-pvqz aug-cc-pvqz/c tightscf
|  2> %pal nprocs 16 end
|  3>
|  4> * xyz 0 1
|  5> C     -0.974235    1.501801    0.000000
|  6> C     -0.313710    0.943702    1.264192
|  7> C     -0.313710    0.943702   -1.264192
|  8> C     -0.313710   -0.588507    1.262787
|  9> C     -0.313710   -0.588507   -1.262787
| 10> C      0.322144   -1.187508    0.000000
| 11> N      1.768888   -0.919814    0.000000
| 12> H     -2.037859    1.237524    0.000000
| 13> H     -0.926534    2.593057    0.000000
| 14> H      0.714983    1.305090    1.322149
| 15> H     -0.829805    1.310092    2.154594
| 16> H     -0.829805    1.310092   -2.154594
| 17> H      0.714983    1.305090   -1.322149
| 18> H      0.204080   -0.970114    2.147778
| 19> H     -1.343580   -0.952418    1.329721
| 20> H     -1.343580   -0.952418   -1.329721
| 21> H      0.204080   -0.970114   -2.147778
| 22> H      0.112103   -2.266434    0.000000
| 23> H      2.210148   -1.329430   -0.814645
| 24> H      2.210148   -1.329430    0.814645
| 25> *
| 26>
| 27>                          ****END OF INPUT****

CARTESIAN COORDINATES (ANGSTROEM)
---------------------------------
  C     -0.974235    1.501801    0.000000
  C     -0.313710    0.943702    1.264192
  C     -0.313710    0.943702   -1.264192
  C     -0.313710   -0.588507    1.262787
  C     -0.313710   -0.588507   -1.262787
  C      0.322144   -1.187508    0.000000
  N      1.768888   -0.919814    0.000000
  H     -2.037859    1.237524    0.000000
  H     -0.926534    2.593057    0.000000
  H      0.714983    1.305090    1.322149
  H     -0.829805    1.310092    2.154594
  H     -0.829805    1.310092   -2.154594
  H      0.714983    1.305090   -1.322149
  H      0.204080   -0.970114    2.147778
  H     -1.343580   -0.952418    1.329721
  H     -1.343580   -0.952418   -1.329721
  H      0.204080   -0.970114   -2.147778
  H      0.112103   -2.266434    0.000000
  H      2.210148   -1.329430   -0.814645
  H      2.210148   -1.329430    0.814645

 Total Charge           Charge          ....    0
 Multiplicity           Mult            ....    1
 Number of Electrons    NEL             ....   56
 Basis Dimension        Dim             .... 1158

ORBITAL ENERGIES
----------------

  NO   OCC          E(Eh)            E(eV)
   0   2.0000     -15.531569      -422.6355
   1   2.0000     -11.246113      -306.0223
   2   2.0000     -11.210366      -305.0496
   3   2.0000     -11.210351      -305.0492
   4   2.0000     -11.206477      -304.9438
   5   2.0000     -11.204714      -304.8958
   6   2.0000     -11.204601      -304.8927
   7   2.0000      -1.182480       -32.1769
   8   2.0000      -1.082951       -29.4686
   9   2.0000      -0.997229       -27.1360
  10   2.0000      -0.973561       -26.4919
  11   2.0000      -0.828656       -22.5489
  12   2.0000      -0.814506       -22.1638
  13   2.0000      -0.732808       -19.9407
  14   2.0000      -0.651911       -17.7394
  15   2.0000      -0.650540       -17.7021
  16   2.0000      -0.617554       -16.8045
  17   2.0000      -0.598038       -16.2734
  18   2.0000      -0.574917       -15.6443
  19   2.0000      -0.534119       -14.5341
  20   2.0000      -0.519407       -14.1338
  21   2.0000      -0.505074       -13.7438
  22   2.0000      -0.498955       -13.5772
  23   2.0000      -0.473662       -12.8890
  24   2.0000      -0.455322       -12.3899
  25   2.0000      -0.432937       -11.7808
  26   2.0000      -0.422274       -11.4907
  27   2.0000      -0.380009       -10.3406
  28   0.0000       0.025103         0.6831
  29   0.0000       0.031169         0.8481
  30   0.0000       0.031537         0.8582
  31   0.0000       0.033234         0.9043
  32   0.0000       0.045637         1.2418

MULLIKEN ATOMIC CHARGES
-----------------------
   0 C :   -0.487412
   1 C :   -0.354160
   2 C :   -0.354154
   3 C :   -0.576501
   4 C :   -0.576506
   5 C :    0.366309
   6 N :   -0.810388
   7 H :    0.144573
   8 H :    0.237226
   9 H :    0.167300
  10 H :    0.246100
  11 H :    0.246098
  12 H :    0.167297
  13 H :    0.263493
  14 H :    0.158464
  15 H :    0.158468
  16 H :    0.263496
  17 H :    0.437405
  18 H :    0.151447
  19 H :    0.151444
Sum of atomic charges:   -0.0000000

LOEWDIN ATOMIC CHARGES
----------------------
   0 C :    0.533681
   1 C :    0.535610
   2 C :    0.535610
   3 C :    0.521439
   4 C :    0.521439
   5 C :   -0.028464
   6 N :    1.299858
   7 H :   -0.265886
   8 H :   -0.261551
   9 H :   -0.272684
  10 H :   -0.261706
  11 H :   -0.261706
  12 H :   -0.272684
  13 H :   -0.263749
  14 H :   -0.265447
  15 H :   -0.265447
  16 H :   -0.263749
  17 H :   -0.267058
  18 H :   -0.498752
  19 H :   -0.498752

  Mayer bond orders larger than 0.100000
B(  0-C ,  1-C ) :   0.8688 B(  0-C ,  2-C ) :   0.8688 B(  0-C ,  7-H ) :   1.0126
B(  0-C ,  8-H ) :   0.9658 B(  1-C ,  3-C ) :   0.8649 B(  1-C ,  9-H ) :   0.9807
B(  1-C , 10-H ) :   0.9613 B(  2-C ,  4-C ) :   0.8649 B(  2-C , 11-H ) :   0.9613
B(  2-C , 12-H ) :   0.9807 B(  3-C ,  5-C ) :   0.7912 B(  3-C , 13-H ) :   0.9607
B(  3-C , 14-H ) :   1.0386 B(  4-C ,  5-C ) :   0.7912 B(  4-C , 15-H ) :   1.0386
B(  4-C , 16-H ) :   0.9607 B(  5-C ,  6-N ) :   0.6009 B(  5-C , 17-H ) :   0.7260
B(  6-N , 18-H ) :   1.0320 B(  6-N , 19-H ) :   1.0320

MP2 TOTAL ENERGY:     -290.693593015 Eh
FINAL SINGLE POINT ENERGY      -290.693593014563

DIPOLE MOMENT
-------------
                                X             Y             Z
Electronic contribution:      0.97255      -0.76616       0.00000
Nuclear contribution   :     -0.98649       0.30243       0.00000
                        -----------------------------------------
Total Dipole Moment    :     -0.01394      -0.46373       0.00000
                        -----------------------------------------
Magnitude (a.u.)       :      0.46394
Magnitude (Debye)      :      1.17923

Rotational constants in cm-1:     0.118249     0.086220     0.064706
Rotational constants in MHz :  3545.011284  2584.798379  1939.850476

                             ****ORCA TERMINATED NORMALLY****
TOTAL RUN TIME: 0 days 0 hours 57 minutes 5 seconds 565 msec
