                         Program Version 5.0.4 -  RELEASE  -
|  1> !ri-mp2 aug-cc-pvqz aug-cc-pvqz/c tightscf
|  2> %pal nprocs 16 end
|  3>
|  4> * xyz 0 1
|  5> N      0.042436    1.333654        0.000000
|  6> C      0.000000    0.181234        0.000000
|  7> O     -0.128990   -1.109677        0.000000
|  8> H      0.734862   -1.545563        0.000000
|  9> *
| 10>
| 11>                          ****END OF INPUT****

CARTESIAN COORDINATES (ANGSTROEM)
---------------------------------
  N      0.042436    1.333654    0.000000
  C      0.000000    0.181234    0.000000
  O     -0.128990   -1.109677    0.000000
  H      0.734862   -1.545563    0.000000

 Total Charge           Charge          ....    0
 Multiplicity           Mult            ....    1
 Number of Electrons    NEL             ....   22
 Basis Dimension        Dim             ....  286

ORBITAL ENERGIES
----------------

  NO   OCC          E(Eh)            E(eV)
   0   2.0000     -20.682436      -562.7977
   1   2.0000     -15.576302      -423.8527
   2   2.0000     -11.345703      -308.7323
   3   2.0000      -1.501671       -40.8625
   4   2.0000      -1.226785       -33.3825
   5   2.0000      -0.881196       -23.9786
   6   2.0000      -0.720033       -19.5931
   7   2.0000      -0.673717       -18.3328
   8   2.0000      -0.572351       -15.5745
   9   2.0000      -0.475654       -12.9432
  10   2.0000      -0.459467       -12.5027
  11   0.0000       0.010955         0.2981
  12   0.0000       0.062205         1.6927
  13   0.0000       0.064516         1.7556
  14   0.0000       0.065065         1.7705
  15   0.0000       0.085179         2.3178

MULLIKEN ATOMIC CHARGES
-----------------------
   0 N :   -0.570003
   1 C :    0.749836
   2 O :   -0.562542
   3 H :    0.382709
Sum of atomic charges:    0.0000000

LOEWDIN ATOMIC CHARGES
----------------------
   0 N :    0.311918
   1 C :   -0.706318
   2 O :    1.174655
   3 H :   -0.780255

  Mayer bond orders larger than 0.100000
B(  0-N ,  1-C ) :   2.7632 B(  1-C ,  2-O ) :   1.0885 B(  2-O ,  3-H ) :   0.8692

MP2 TOTAL ENERGY:     -168.425895745 Eh
FINAL SINGLE POINT ENERGY      -168.425895745422

DIPOLE MOMENT
-------------
                                X             Y             Z
Electronic contribution:     -0.12196      -0.01561       0.00000
Nuclear contribution   :      0.70399      -1.49351       0.00000
                        -----------------------------------------
Total Dipole Moment    :      0.58202      -1.50912       0.00000
                        -----------------------------------------
Magnitude (a.u.)       :      1.61747
Magnitude (Debye)      :      4.11128

Rotational constants in cm-1:    22.759651     0.355318     0.349856
Rotational constants in MHz : 682317.172791 10652.167830 10488.425118

                             ****ORCA TERMINATED NORMALLY****
TOTAL RUN TIME: 0 days 0 hours 0 minutes 52 seconds 231 msec
