                         Program Version 5.0.4 -  RELEASE  -
|  1> !ri-mp2 aug-cc-pvqz aug-cc-pvqz/c tightscf
|  2> %pal nprocs 16 end
|  3>
|  4> * xyz 0 1
|  5> H      1.757205   -0.189555    1.463765
|  6> H      0.080822   -0.525541    1.928692
|  7> C      0.759101   -0.406803    1.087809
|  8> H     -0.167443   -2.080157    0.000000
|  9> H      1.596662   -2.202628    0.000000
| 10> C      0.759101   -1.508440    0.000000
| 11> H      0.080822   -0.525541   -1.928692
| 12> H      1.757205   -0.189555   -1.463765
| 13> C      0.759101   -0.406803   -1.087809
| 14> H      0.914383    1.569711    0.000000
| 15> C      0.347469    0.639812    0.000000
| 16> N     -2.193925    1.206944    0.000000
| 17> C     -1.068470    0.964678    0.000000
| 18> *
| 19>
| 20>                          ****END OF INPUT****

CARTESIAN COORDINATES (ANGSTROEM)
---------------------------------
  H      1.757205   -0.189555    1.463765
  H      0.080822   -0.525541    1.928692
  C      0.759101   -0.406803    1.087809
  H     -0.167443   -2.080157    0.000000
  H      1.596662   -2.202628    0.000000
  C      0.759101   -1.508440    0.000000
  H      0.080822   -0.525541   -1.928692
  H      1.757205   -0.189555   -1.463765
  C      0.759101   -0.406803   -1.087809
  H      0.914383    1.569711    0.000000
  C      0.347469    0.639812    0.000000
  N     -2.193925    1.206944    0.000000
  C     -1.068470    0.964678    0.000000

 Total Charge           Charge          ....    0
 Multiplicity           Mult            ....    1
 Number of Electrons    NEL             ....   44
 Basis Dimension        Dim             ....  802

ORBITAL ENERGIES
----------------

  NO   OCC          E(Eh)            E(eV)
   0   2.0000     -15.561376      -423.4466
   1   2.0000     -11.280827      -306.9669
   2   2.0000     -11.266089      -306.5659
   3   2.0000     -11.250116      -306.1312
   4   2.0000     -11.250106      -306.1309
   5   2.0000     -11.240352      -305.8655
   6   2.0000      -1.219188       -33.1758
   7   2.0000      -1.156597       -31.4726
   8   2.0000      -0.963117       -26.2078
   9   2.0000      -0.927666       -25.2431
  10   2.0000      -0.806762       -21.9531
  11   2.0000      -0.704736       -19.1768
  12   2.0000      -0.682396       -18.5690
  13   2.0000      -0.615340       -16.7443
  14   2.0000      -0.576140       -15.6776
  15   2.0000      -0.552643       -15.0382
  16   2.0000      -0.545882       -14.8542
  17   2.0000      -0.503833       -13.7100
  18   2.0000      -0.492731       -13.4079
  19   2.0000      -0.479032       -13.0351
  20   2.0000      -0.440061       -11.9747
  21   2.0000      -0.438698       -11.9376
  22   0.0000       0.019802         0.5388
  23   0.0000       0.028644         0.7794
  24   0.0000       0.032261         0.8779
  25   0.0000       0.037184         1.0118
  26   0.0000       0.047828         1.3015

MULLIKEN ATOMIC CHARGES
-----------------------
   0 H :    0.268651
   1 H :    0.333535
   2 C :   -0.633541
   3 H :    0.274344
   4 H :    0.318440
   5 C :   -0.543182
   6 H :    0.333535
   7 H :    0.268651
   8 C :   -0.633541
   9 H :    0.473196
  10 C :   -0.211384
  11 N :   -0.749741
  12 C :    0.501037
Sum of atomic charges:    0.0000000

LOEWDIN ATOMIC CHARGES
----------------------
   0 H :   -0.262490
   1 H :   -0.258217
   2 C :    0.543887
   3 H :   -0.265746
   4 H :   -0.255890
   5 C :    0.561937
   6 H :   -0.258217
   7 H :   -0.262490
   8 C :    0.543887
   9 H :   -0.286581
  10 C :    0.047644
  11 N :    0.421585
  12 C :   -0.269311

  Mayer bond orders larger than 0.100000
B(  0-H ,  2-C ) :   0.9174 B(  1-H ,  2-C ) :   0.8501 B(  2-C ,  5-C ) :   1.0411
B(  2-C , 10-C ) :   0.9581 B(  3-H ,  5-C ) :   0.8854 B(  4-H ,  5-C ) :   0.8681
B(  5-C ,  8-C ) :   1.0411 B(  5-C , 10-C ) :  -0.1029 B(  6-H ,  8-C ) :   0.8501
B(  7-H ,  8-C ) :   0.9174 B(  8-C , 10-C ) :   0.9581 B(  9-H , 10-C ) :   0.7042
B( 10-C , 12-C ) :   1.0286 B( 11-N , 12-C ) :   2.3772

MP2 TOTAL ENERGY:     -249.011412092 Eh
FINAL SINGLE POINT ENERGY      -249.011412092118

DIPOLE MOMENT
-------------
                                X             Y             Z
Electronic contribution:     -4.42231       3.63457       0.00000
Nuclear contribution   :      6.11913      -4.21354      -0.00000
                        -----------------------------------------
Total Dipole Moment    :      1.69681      -0.57898       0.00000
                        -----------------------------------------
Magnitude (a.u.)       :      1.79287
Magnitude (Debye)      :      4.55712

Rotational constants in cm-1:     0.261466     0.087551     0.080828
Rotational constants in MHz :  7838.551390  2624.727576  2423.171252

                             ****ORCA TERMINATED NORMALLY****
TOTAL RUN TIME: 0 days 0 hours 19 minutes 42 seconds 12 msec
