                         Program Version 5.0.4 -  RELEASE  -
|  1> !ri-mp2 aug-cc-pvqz aug-cc-pvqz/c tightscf
|  2> %pal nprocs 16 end
|  3>
|  4> * xyz 0 1
|  5> O     -0.110702    1.322911   -0.000131
|  6> O      3.466618    0.112051   -0.000002
|  7> N      1.198390   -0.579867    0.000060
|  8> N     -3.543633    0.280825   -0.000038
|  9> C     -1.194850   -0.840419    0.000081
| 10> C     -0.022543    0.130129   -0.000013
| 11> C     -2.498057   -0.193546    0.000012
| 12> C      2.344250   -0.163499    0.000022
| 13> H     -1.101710   -1.491289   -0.872483
| 14> H     -1.101714   -1.491113    0.872777
| 15> *
| 16>
| 17>                          ****END OF INPUT****

CARTESIAN COORDINATES (ANGSTROEM)
---------------------------------
  O     -0.110702    1.322911   -0.000131
  O      3.466618    0.112051   -0.000002
  N      1.198390   -0.579867    0.000060
  N     -3.543633    0.280825   -0.000038
  C     -1.194850   -0.840419    0.000081
  C     -0.022543    0.130129   -0.000013
  C     -2.498057   -0.193546    0.000012
  C      2.344250   -0.163499    0.000022
  H     -1.101710   -1.491289   -0.872483
  H     -1.101714   -1.491113    0.872777

 Total Charge           Charge          ....    0
 Multiplicity           Mult            ....    1
 Number of Electrons    NEL             ....   56
 Basis Dimension        Dim             ....  732

ORBITAL ENERGIES
----------------

  NO   OCC          E(Eh)            E(eV)
   0   2.0000     -20.668081      -562.4071
   1   2.0000     -20.596550      -560.4606
   2   2.0000     -15.631147      -425.3451
   3   2.0000     -15.586242      -424.1232
   4   2.0000     -11.459845      -311.8382
   5   2.0000     -11.430849      -311.0492
   6   2.0000     -11.323888      -308.1387
   7   2.0000     -11.289967      -307.2156
   8   2.0000      -1.524457       -41.4826
   9   2.0000      -1.461841       -39.7787
  10   2.0000      -1.313524       -35.7428
  11   2.0000      -1.239733       -33.7349
  12   2.0000      -1.106883       -30.1198
  13   2.0000      -0.943448       -25.6725
  14   2.0000      -0.785209       -21.3666
  15   2.0000      -0.753116       -20.4933
  16   2.0000      -0.740846       -20.1595
  17   2.0000      -0.713904       -19.4263
  18   2.0000      -0.694364       -18.8946
  19   2.0000      -0.677797       -18.4438
  20   2.0000      -0.672310       -18.2945
  21   2.0000      -0.586680       -15.9644
  22   2.0000      -0.573069       -15.5940
  23   2.0000      -0.543569       -14.7913
  24   2.0000      -0.490430       -13.3453
  25   2.0000      -0.483853       -13.1663
  26   2.0000      -0.477182       -12.9848
  27   2.0000      -0.477128       -12.9833
  28   0.0000       0.015056         0.4097
  29   0.0000       0.030939         0.8419
  30   0.0000       0.037660         1.0248
  31   0.0000       0.049821         1.3557
  32   0.0000       0.062162         1.6915

MULLIKEN ATOMIC CHARGES
-----------------------
   0 O :   -0.656058
   1 O :   -0.559575
   2 N :   -0.812690
   3 N :   -0.660248
   4 C :   -0.547348
   5 C :    0.890139
   6 C :    0.505186
   7 C :    1.190169
   8 H :    0.325213
   9 H :    0.325213
Sum of atomic charges:   -0.0000000

LOEWDIN ATOMIC CHARGES
----------------------
   0 O :    0.723386
   1 O :    0.651030
   2 N :    0.452218
   3 N :    0.421330
   4 C :    0.360836
   5 C :   -0.979473
   6 C :   -0.282104
   7 C :   -0.714654
   8 H :   -0.316284
   9 H :   -0.316284

  Mayer bond orders larger than 0.100000
B(  0-O ,  4-C ) :   0.1236 B(  0-O ,  5-C ) :   1.3995 B(  1-O ,  2-N ) :   0.2584
B(  1-O ,  7-C ) :   1.6982 B(  2-N ,  5-C ) :   0.9712 B(  2-N ,  7-C ) :   2.0571
B(  3-N ,  6-C ) :   2.5236 B(  4-C ,  5-C ) :   1.0076 B(  4-C ,  6-C ) :   1.2281
B(  4-C ,  8-H ) :   0.8523 B(  4-C ,  9-H ) :   0.8523 B(  5-C ,  6-C ) :  -0.1809

MP2 TOTAL ENERGY:     -412.991966680 Eh
FINAL SINGLE POINT ENERGY      -412.991966679772

DIPOLE MOMENT
-------------
                                X             Y             Z
Electronic contribution:      3.09052       1.34065      -0.00013
Nuclear contribution   :     -2.06794      -2.82970       0.00028
                        -----------------------------------------
Total Dipole Moment    :      1.02258      -1.48905       0.00015
                        -----------------------------------------
Magnitude (a.u.)       :      1.80636
Magnitude (Debye)      :      4.59141

Rotational constants in cm-1:     0.341315     0.030620     0.028244
Rotational constants in MHz : 10232.363704   917.963548   846.724443

                             ****ORCA TERMINATED NORMALLY****
TOTAL RUN TIME: 0 days 0 hours 14 minutes 51 seconds 66 msec
