                         Program Version 5.0.4 -  RELEASE  -
|  1> !ri-mp2 aug-cc-pvqz aug-cc-pvqz/c tightscf
|  2> %pal nprocs 16 end
|  3>
|  4> * xyz 0 1
|  5> C     -1.186192    0.423794   -0.243636
|  6> C     -0.796090   -0.975769    0.244802
|  7> C      0.027367    1.287285    0.136896
|  8> C      0.687806   -1.087600   -0.139625
|  9> C      1.257252    0.349375    0.001362
| 10> H     -2.118589    0.788232    0.188807
| 11> H      1.226616   -1.811506    0.471854
| 12> H     -1.407585   -1.769785   -0.185074
| 13> H      0.115243    2.182391   -0.478872
| 14> H     -1.314699    0.411348   -1.329698
| 15> H      1.864002    0.612109   -0.865357
| 16> H      1.906597    0.434583    0.872795
| 17> H     -0.909311   -1.030087    1.331284
| 18> H     -0.074596    1.623613    1.170697
| 19> H      0.771463   -1.423403   -1.175226
| 20> *
| 21>
| 22>                          ****END OF INPUT****

CARTESIAN COORDINATES (ANGSTROEM)
---------------------------------
  C     -1.186192    0.423794   -0.243636
  C     -0.796090   -0.975769    0.244802
  C      0.027367    1.287285    0.136896
  C      0.687806   -1.087600   -0.139625
  C      1.257252    0.349375    0.001362
  H     -2.118589    0.788232    0.188807
  H      1.226616   -1.811506    0.471854
  H     -1.407585   -1.769785   -0.185074
  H      0.115243    2.182391   -0.478872
  H     -1.314699    0.411348   -1.329698
  H      1.864002    0.612109   -0.865357
  H      1.906597    0.434583    0.872795
  H     -0.909311   -1.030087    1.331284
  H     -0.074596    1.623613    1.170697
  H      0.771463   -1.423403   -1.175226

 Total Charge           Charge          ....    0
 Multiplicity           Mult            ....    1
 Number of Electrons    NEL             ....   40
 Basis Dimension        Dim             ....  860

ORBITAL ENERGIES
----------------

  NO   OCC          E(Eh)            E(eV)
   0   2.0000     -11.210751      -305.0600
   1   2.0000     -11.210353      -305.0492
   2   2.0000     -11.210341      -305.0489
   3   2.0000     -11.209761      -305.0331
   4   2.0000     -11.209581      -305.0282
   5   2.0000      -1.111006       -30.2320
   6   2.0000      -0.955519       -26.0010
   7   2.0000      -0.954904       -25.9843
   8   2.0000      -0.775388       -21.0994
   9   2.0000      -0.767830       -20.8937
  10   2.0000      -0.647757       -17.6264
  11   2.0000      -0.642123       -17.4730
  12   2.0000      -0.568823       -15.4784
  13   2.0000      -0.567572       -15.4444
  14   2.0000      -0.473992       -12.8980
  15   2.0000      -0.473016       -12.8714
  16   2.0000      -0.463481       -12.6120
  17   2.0000      -0.460298       -12.5253
  18   2.0000      -0.458379       -12.4731
  19   2.0000      -0.449135       -12.2216
  20   0.0000       0.028312         0.7704
  21   0.0000       0.033969         0.9243
  22   0.0000       0.034682         0.9437
  23   0.0000       0.035243         0.9590
  24   0.0000       0.050672         1.3789

MULLIKEN ATOMIC CHARGES
-----------------------
   0 C :   -0.534549
   1 C :   -0.531809
   2 C :   -0.579048
   3 C :   -0.581240
   4 C :   -0.435318
   5 H :    0.361186
   6 H :    0.337426
   7 H :    0.362191
   8 H :    0.337435
   9 H :    0.197777
  10 H :    0.238776
  11 H :    0.237176
  12 H :    0.197886
  13 H :    0.196159
  14 H :    0.195952
Sum of atomic charges:    0.0000000

LOEWDIN ATOMIC CHARGES
----------------------
   0 C :    0.522155
   1 C :    0.522110
   2 C :    0.537079
   3 C :    0.536404
   4 C :    0.551229
   5 H :   -0.260059
   6 H :   -0.264527
   7 H :   -0.259906
   8 H :   -0.264677
   9 H :   -0.265688
  10 H :   -0.271702
  11 H :   -0.271916
  12 H :   -0.265674
  13 H :   -0.272470
  14 H :   -0.272358

  Mayer bond orders larger than 0.100000
B(  0-C ,  1-C ) :   0.9090 B(  0-C ,  2-C ) :   0.9869 B(  0-C ,  5-H ) :   0.8123
B(  0-C ,  9-H ) :   0.9606 B(  1-C ,  3-C ) :   0.9860 B(  1-C ,  7-H ) :   0.8107
B(  1-C , 12-H ) :   0.9604 B(  2-C ,  4-C ) :   0.9647 B(  2-C ,  8-H ) :   0.8519
B(  2-C , 13-H ) :   0.9692 B(  3-C ,  4-C ) :   0.9653 B(  3-C ,  6-H ) :   0.8517
B(  3-C , 14-H ) :   0.9694 B(  4-C , 10-H ) :   0.9324 B(  4-C , 11-H ) :   0.9335

MP2 TOTAL ENERGY:     -196.167492125 Eh
FINAL SINGLE POINT ENERGY      -196.167492125434

DIPOLE MOMENT
-------------
                                X             Y             Z
Electronic contribution:     -0.06895      -0.02036      -0.00123
Nuclear contribution   :      0.06335       0.01874       0.00129
                        -----------------------------------------
Total Dipole Moment    :     -0.00561      -0.00163       0.00006
                        -----------------------------------------
Magnitude (a.u.)       :      0.00584
Magnitude (Debye)      :      0.01484

Rotational constants in cm-1:     0.216532     0.216480     0.124725
Rotational constants in MHz :  6491.476505  6489.902990  3739.167743

                             ****ORCA TERMINATED NORMALLY****
TOTAL RUN TIME: 0 days 0 hours 27 minutes 23 seconds 283 msec
