                         Program Version 5.0.4 -  RELEASE  -
|  1> !ri-mp2 aug-cc-pvqz aug-cc-pvqz/c tightscf
|  2> %pal nprocs 16 end
|  3> %maxcore 3800
|  4>
|  5> * xyz 0 1
|  6> C    -1.366891    0.474228   -0.146969
|  7> C     0.275353   -1.434457   -0.131432
|  8> C     1.099759    0.948113   -0.139858
|  9> C    -1.098479   -0.958309    0.321858
| 10> C    -0.269625    1.432558    0.319250
| 11> C     1.373754   -0.482882    0.325882
| 12> O    -2.056536   -1.879394   -0.204100
| 13> O    -0.446869    2.750757   -0.204758
| 14> O     2.605127   -0.984857   -0.196602
| 15> H    -1.412028    0.488864   -1.238475
| 16> H    -2.339459    0.812617    0.226852
| 17> H     0.466279   -2.436160    0.253202
| 18> H     0.288581   -1.495060   -1.222313
| 19> H     1.141058    0.982010   -1.231171
| 20> H     1.867909    1.627151    0.238193
| 21> H    -1.139106   -0.987591    1.419260
| 22> H    -0.278931    1.479268    1.416737
| 23> H     1.418949   -0.497589    1.423644
| 24> H    -2.934028   -1.628557    0.100071
| 25> H    -1.297930    3.093159    0.085131
| 26> H     3.321704   -0.405651    0.080163
| 27> *
| 28>
| 29>                          ****END OF INPUT****

CARTESIAN COORDINATES (ANGSTROEM)
---------------------------------
  C     -1.366891    0.474228   -0.146969
  C      0.275353   -1.434457   -0.131432
  C      1.099759    0.948113   -0.139858
  C     -1.098479   -0.958309    0.321858
  C     -0.269625    1.432558    0.319250
  C      1.373754   -0.482882    0.325882
  O     -2.056536   -1.879394   -0.204100
  O     -0.446869    2.750757   -0.204758
  O      2.605127   -0.984857   -0.196602
  H     -1.412028    0.488864   -1.238475
  H     -2.339459    0.812617    0.226852
  H      0.466279   -2.436160    0.253202
  H      0.288581   -1.495060   -1.222313
  H      1.141058    0.982010   -1.231171
  H      1.867909    1.627151    0.238193
  H     -1.139106   -0.987591    1.419260
  H     -0.278931    1.479268    1.416737
  H      1.418949   -0.497589    1.423644
  H     -2.934028   -1.628557    0.100071
  H     -1.297930    3.093159    0.085131
  H      3.321704   -0.405651    0.080163

 Total Charge           Charge          ....    0
 Multiplicity           Mult            ....    1
 Number of Electrons    NEL             ....   72
 Basis Dimension        Dim             .... 1272

ORBITAL ENERGIES
----------------

  NO   OCC          E(Eh)            E(eV)
   0   2.0000     -20.561363      -559.5031
   1   2.0000     -20.558662      -559.4296
   2   2.0000     -20.555633      -559.3472
   3   2.0000     -11.289496      -307.2028
   4   2.0000     -11.286853      -307.1309
   5   2.0000     -11.283790      -307.0475
   6   2.0000     -11.227628      -305.5193
   7   2.0000     -11.221972      -305.3654
   8   2.0000     -11.216168      -305.2075
   9   2.0000      -1.366756       -37.1913
  10   2.0000      -1.362466       -37.0746
  11   2.0000      -1.359485       -36.9935
  12   2.0000      -1.110850       -30.2278
  13   2.0000      -1.003119       -27.2963
  14   2.0000      -1.000339       -27.2206
  15   2.0000      -0.848158       -23.0795
  16   2.0000      -0.834306       -22.7026
  17   2.0000      -0.778354       -21.1801
  18   2.0000      -0.709165       -19.2973
  19   2.0000      -0.694820       -18.9070
  20   2.0000      -0.684125       -18.6160
  21   2.0000      -0.658027       -17.9058
  22   2.0000      -0.642431       -17.4814
  23   2.0000      -0.613546       -16.6954
  24   2.0000      -0.573064       -15.5939
  25   2.0000      -0.569439       -15.4952
  26   2.0000      -0.556699       -15.1486
  27   2.0000      -0.545267       -14.8375
  28   2.0000      -0.531538       -14.4639
  29   2.0000      -0.515602       -14.0302
  30   2.0000      -0.479842       -13.0572
  31   2.0000      -0.472882       -12.8678
  32   2.0000      -0.470178       -12.7942
  33   2.0000      -0.459718       -12.5096
  34   2.0000      -0.438251       -11.9254
  35   2.0000      -0.429761       -11.6944
  36   0.0000       0.018889         0.5140
  37   0.0000       0.026923         0.7326
  38   0.0000       0.031414         0.8548
  39   0.0000       0.034179         0.9301
  40   0.0000       0.043905         1.1947

MULLIKEN ATOMIC CHARGES
-----------------------
   0 C :   -0.743679
   1 C :   -0.552025
   2 C :   -0.632882
   3 C :    0.749508
   4 C :    0.794388
   5 C :    0.716981
   6 O :   -0.979990
   7 O :   -0.991142
   8 O :   -0.978100
   9 H :    0.192967
  10 H :    0.200163
  11 H :    0.268993
  12 H :    0.173211
  13 H :    0.182491
  14 H :    0.238436
  15 H :    0.159046
  16 H :    0.148875
  17 H :    0.168222
  18 H :    0.293793
  19 H :    0.294614
  20 H :    0.296133
Sum of atomic charges:    0.0000000

LOEWDIN ATOMIC CHARGES
----------------------
   0 C :    0.513280
   1 C :    0.487472
   2 C :    0.499117
   3 C :   -0.206006
   4 C :   -0.206558
   5 C :   -0.206765
   6 O :    1.300580
   7 O :    1.300203
   8 O :    1.301107
   9 H :   -0.271188
  10 H :   -0.264836
  11 H :   -0.262458
  12 H :   -0.271496
  13 H :   -0.271043
  14 H :   -0.263662
  15 H :   -0.278395
  16 H :   -0.278115
  17 H :   -0.278588
  18 H :   -0.780847
  19 H :   -0.780827
  20 H :   -0.780974

  Mayer bond orders larger than 0.100000
B(  0-C ,  3-C ) :   0.8947 B(  0-C ,  4-C ) :   0.8829 B(  0-C ,  6-O ) :   0.2281
B(  0-C ,  7-O ) :   0.2412 B(  0-C ,  9-H ) :   0.9354 B(  0-C , 10-H ) :   0.9619
B(  1-C ,  3-C ) :   0.8377 B(  1-C ,  5-C ) :   0.8603 B(  1-C ,  6-O ) :   0.1220
B(  1-C ,  8-O ) :   0.1273 B(  1-C , 11-H ) :   0.9487 B(  1-C , 12-H ) :   0.9878
B(  2-C ,  4-C ) :   0.8167 B(  2-C ,  5-C ) :   0.9273 B(  2-C ,  7-O ) :   0.1115
B(  2-C ,  8-O ) :   0.2223 B(  2-C , 13-H ) :   0.9531 B(  2-C , 14-H ) :   0.9473
B(  3-C , 15-H ) :   1.0298 B(  4-C , 16-H ) :   1.0308 B(  5-C , 17-H ) :   1.0240
B(  6-O , 18-H ) :   0.9708 B(  7-O , 19-H ) :   0.9723 B(  8-O , 20-H ) :   0.9672

MP2 TOTAL ENERGY:     -460.861019138 Eh
FINAL SINGLE POINT ENERGY      -460.861019137579

DIPOLE MOMENT
-------------
                                X             Y             Z
Electronic contribution:      0.29672      -0.34152      -0.50796
Nuclear contribution   :     -0.91615       1.05455       1.57747
                        -----------------------------------------
Total Dipole Moment    :     -0.61942       0.71304       1.06951
                        -----------------------------------------
Magnitude (a.u.)       :      1.42687
Magnitude (Debye)      :      3.62682

Rotational constants in cm-1:     0.054359     0.053382     0.028505
Rotational constants in MHz :  1629.639277  1600.341188   854.552551

                             ****ORCA TERMINATED NORMALLY****
TOTAL RUN TIME: 0 days 1 hours 45 minutes 58 seconds 287 msec
