                         Program Version 5.0.4 -  RELEASE  -
|  1> !ri-mp2 aug-cc-pvqz aug-cc-pvqz/c tightscf
|  2> %pal nprocs 16 end
|  3>
|  4> * xyz 0 1
|  5> N      0.132502    1.611883    0.297686
|  6> C      0.232379    0.161878    0.470580
|  7> C      1.642693   -0.320889    0.078786
|  8> O      2.061362   -1.407821    0.371619
|  9> O      2.340267    0.562288   -0.647593
| 10> H      1.773757    1.361340   -0.710982
| 11> C     -0.766023   -0.575233   -0.432100
| 12> S     -2.526785   -0.165977   -0.120311
| 13> H      0.072670   -0.163602    1.501691
| 14> H     -0.615582   -1.646562   -0.340585
| 15> H     -0.604235   -0.298474   -1.474310
| 16> H     -2.603154   -0.697517    1.114290
| 17> H     -0.830276    1.882258    0.128698
| 18> H      0.440533    2.104739    1.126558
| 19> *
| 20>
| 21>                          ****END OF INPUT****

CARTESIAN COORDINATES (ANGSTROEM)
---------------------------------
  N      0.132502    1.611883    0.297686
  C      0.232379    0.161878    0.470580
  C      1.642693   -0.320889    0.078786
  O      2.061362   -1.407821    0.371619
  O      2.340267    0.562288   -0.647593
  H      1.773757    1.361340   -0.710982
  C     -0.766023   -0.575233   -0.432100
  S     -2.526785   -0.165977   -0.120311
  H      0.072670   -0.163602    1.501691
  H     -0.615582   -1.646562   -0.340585
  H     -0.604235   -0.298474   -1.474310
  H     -2.603154   -0.697517    1.114290
  H     -0.830276    1.882258    0.128698
  H      0.440533    2.104739    1.126558

 Total Charge           Charge          ....    0
 Multiplicity           Mult            ....    1
 Number of Electrons    NEL             ....   64
 Basis Dimension        Dim             ....  886

ORBITAL ENERGIES
----------------

  NO   OCC          E(Eh)            E(eV)
   0   2.0000     -91.975069     -2502.7689
   1   2.0000     -20.602669      -560.6271
   2   2.0000     -20.542146      -558.9802
   3   2.0000     -15.583860      -424.0584
   4   2.0000     -11.382027      -309.7207
   5   2.0000     -11.303635      -307.5875
   6   2.0000     -11.289658      -307.2072
   7   2.0000      -8.977255      -244.2835
   8   2.0000      -6.658818      -181.1956
   9   2.0000      -6.657869      -181.1698
  10   2.0000      -6.657000      -181.1462
  11   2.0000      -1.459193       -39.7067
  12   2.0000      -1.364155       -37.1206
  13   2.0000      -1.231519       -33.5113
  14   2.0000      -1.076525       -29.2937
  15   2.0000      -0.976021       -26.5589
  16   2.0000      -0.864574       -23.5263
  17   2.0000      -0.812491       -22.1090
  18   2.0000      -0.739785       -20.1306
  19   2.0000      -0.714723       -19.4486
  20   2.0000      -0.682552       -18.5732
  21   2.0000      -0.644648       -17.5418
  22   2.0000      -0.627223       -17.0676
  23   2.0000      -0.600818       -16.3491
  24   2.0000      -0.580518       -15.7967
  25   2.0000      -0.561826       -15.2881
  26   2.0000      -0.533462       -14.5162
  27   2.0000      -0.491055       -13.3623
  28   2.0000      -0.477846       -13.0028
  29   2.0000      -0.460419       -12.5286
  30   2.0000      -0.428930       -11.6718
  31   2.0000      -0.383872       -10.4457
  32   0.0000       0.018240         0.4963
  33   0.0000       0.029592         0.8052
  34   0.0000       0.032109         0.8737
  35   0.0000       0.039521         1.0754
  36   0.0000       0.049731         1.3533

MULLIKEN ATOMIC CHARGES
-----------------------
   0 N :   -0.631676
   1 C :    0.117044
   2 C :    1.107558
   3 O :   -0.792886
   4 O :   -0.886623
   5 H :    0.386361
   6 C :   -0.609302
   7 S :   -0.199069
   8 H :    0.372483
   9 H :    0.326912
  10 H :    0.299283
  11 H :    0.046453
  12 H :    0.232012
  13 H :    0.231451
Sum of atomic charges:   -0.0000000

LOEWDIN ATOMIC CHARGES
----------------------
   0 N :    1.271201
   1 C :   -0.154399
   2 C :   -1.040948
   3 O :    0.679699
   4 O :    1.257880
   5 H :   -0.937864
   6 C :    0.113930
   7 S :    1.621649
   8 H :   -0.312220
   9 H :   -0.361907
  10 H :   -0.367163
  11 H :   -0.755524
  12 H :   -0.558074
  13 H :   -0.456258

  Mayer bond orders larger than 0.100000
B(  0-N ,  1-C ) :   0.7273 B(  0-N ,  5-H ) :   0.1146 B(  0-N , 12-H ) :   0.9771
B(  0-N , 13-H ) :   0.9575 B(  1-C ,  2-C ) :   1.0291 B(  1-C ,  3-O ) :   0.1243
B(  1-C ,  6-C ) :   0.7837 B(  1-C ,  8-H ) :   0.8021 B(  2-C ,  3-O ) :   1.4361
B(  2-C ,  4-O ) :   0.7444 B(  3-O ,  4-O ) :   0.1368 B(  4-O ,  5-H ) :   0.7500
B(  6-C ,  7-S ) :   0.8745 B(  6-C ,  9-H ) :   0.9029 B(  6-C , 10-H ) :   0.8929
B(  7-S , 11-H ) :   1.0396

MP2 TOTAL ENERGY:     -721.039519221 Eh
FINAL SINGLE POINT ENERGY      -721.039519220540

DIPOLE MOMENT
-------------
                                X             Y             Z
Electronic contribution:      0.99795      -1.41140      -0.82235
Nuclear contribution   :     -2.20063       2.52334       1.33583
                        -----------------------------------------
Total Dipole Moment    :     -1.20267       1.11194       0.51348
                        -----------------------------------------
Magnitude (a.u.)       :      1.71653
Magnitude (Debye)      :      4.36308

Rotational constants in cm-1:     0.145450     0.038707     0.033376
Rotational constants in MHz :  4360.467385  1160.414433  1000.602050

                             ****ORCA TERMINATED NORMALLY****
TOTAL RUN TIME: 0 days 0 hours 24 minutes 36 seconds 860 msec
