                         Program Version 5.0.4 -  RELEASE  -
|  1> !ri-mp2 aug-cc-pvqz aug-cc-pvqz/c tightscf
|  2> %pal nprocs 16 end
|  3>
|  4> * xyz 0 1
|  5> S    -0.536792   -0.543833   -0.276416
|  6> O     0.866478    1.705968    0.049598
|  7> O     2.489216   -1.419387    0.583107
|  8> O     2.845768    0.218453   -0.891343
|  9> N    -4.192497   -0.407208   -0.402880
| 10> C     0.859914    0.349946    0.489306
| 11> C     2.146941   -0.391213    0.076767
| 12> C    -1.899041    0.431745    0.492309
| 13> C    -3.177957   -0.037706   -0.008686
| 14> H     1.217959    2.266909    0.750986
| 15> H     2.393223    1.045651   -1.126008
| 16> H     0.773010    0.288303    1.574137
| 17> H    -1.868393    0.311523    1.575605
| 18> H    -1.770497    1.482491    0.239021
| 19> *
| 20>
| 21>                          ****END OF INPUT****

CARTESIAN COORDINATES (ANGSTROEM)
---------------------------------
  S     -0.536792   -0.543833   -0.276416
  O      0.866478    1.705968    0.049598
  O      2.489216   -1.419387    0.583107
  O      2.845768    0.218453   -0.891343
  N     -4.192497   -0.407208   -0.402880
  C      0.859914    0.349946    0.489306
  C      2.146941   -0.391213    0.076767
  C     -1.899041    0.431745    0.492309
  C     -3.177957   -0.037706   -0.008686
  H      1.217959    2.266909    0.750986
  H      2.393223    1.045651   -1.126008
  H      0.773010    0.288303    1.574137
  H     -1.868393    0.311523    1.575605
  H     -1.770497    1.482491    0.239021

 Total Charge           Charge          ....    0
 Multiplicity           Mult            ....    1
 Number of Electrons    NEL             ....   76
 Basis Dimension        Dim             ....  954

ORBITAL ENERGIES
----------------

  NO   OCC          E(Eh)            E(eV)
   0   2.0000     -92.002657     -2503.5196
   1   2.0000     -20.633360      -561.4623
   2   2.0000     -20.629363      -561.3535
   3   2.0000     -20.567472      -559.6694
   4   2.0000     -15.587844      -424.1668
   5   2.0000     -11.410751      -310.5023
   6   2.0000     -11.377214      -309.5897
   7   2.0000     -11.333399      -308.3975
   8   2.0000     -11.292671      -307.2892
   9   2.0000      -9.003920      -245.0091
  10   2.0000      -6.685140      -181.9119
  11   2.0000      -6.684198      -181.8863
  12   2.0000      -6.683054      -181.8551
  13   2.0000      -1.488671       -40.5088
  14   2.0000      -1.434384       -39.0316
  15   2.0000      -1.390061       -37.8255
  16   2.0000      -1.241799       -33.7911
  17   2.0000      -1.121352       -30.5135
  18   2.0000      -1.039545       -28.2875
  19   2.0000      -0.906859       -24.6769
  20   2.0000      -0.843854       -22.9624
  21   2.0000      -0.782698       -21.2983
  22   2.0000      -0.776071       -21.1180
  23   2.0000      -0.721297       -19.6275
  24   2.0000      -0.686665       -18.6851
  25   2.0000      -0.670996       -18.2587
  26   2.0000      -0.666553       -18.1378
  27   2.0000      -0.627236       -17.0680
  28   2.0000      -0.605344       -16.4722
  29   2.0000      -0.586270       -15.9532
  30   2.0000      -0.570778       -15.5317
  31   2.0000      -0.566026       -15.4024
  32   2.0000      -0.510853       -13.9010
  33   2.0000      -0.496530       -13.5113
  34   2.0000      -0.483029       -13.1439
  35   2.0000      -0.473413       -12.8822
  36   2.0000      -0.458336       -12.4720
  37   2.0000      -0.397345       -10.8123
  38   0.0000       0.005867         0.1596
  39   0.0000       0.024838         0.6759
  40   0.0000       0.030203         0.8219
  41   0.0000       0.037099         1.0095
  42   0.0000       0.048965         1.3324

MULLIKEN ATOMIC CHARGES
-----------------------
   0 S :   -0.011435
   1 O :   -0.772707
   2 O :   -0.755901
   3 O :   -0.823553
   4 N :   -0.644313
   5 C :    0.251279
   6 C :    1.128727
   7 C :   -0.568952
   8 C :    0.464481
   9 H :    0.355784
  10 H :    0.396944
  11 H :    0.300374
  12 H :    0.331717
  13 H :    0.347557
Sum of atomic charges:   -0.0000000

LOEWDIN ATOMIC CHARGES
----------------------
   0 S :    1.341523
   1 O :    1.232009
   2 O :    0.665427
   3 O :    1.246172
   4 N :    0.404923
   5 C :   -0.624090
   6 C :   -1.146269
   7 C :    0.076060
   8 C :   -0.371992
   9 H :   -0.745513
  10 H :   -0.911602
  11 H :   -0.396184
  12 H :   -0.376880
  13 H :   -0.393584

  Mayer bond orders larger than 0.100000
B(  0-S ,  5-C ) :   0.8560 B(  0-S ,  7-C ) :   0.9125 B(  1-O ,  5-C ) :   0.6333
B(  1-O ,  9-H ) :   0.8663 B(  2-O ,  3-O ) :   0.1265 B(  2-O ,  5-C ) :   0.1317
B(  2-O ,  6-C ) :   1.4389 B(  3-O ,  6-C ) :   0.7245 B(  3-O , 10-H ) :   0.7871
B(  4-N ,  8-C ) :   2.4866 B(  5-C ,  6-C ) :   1.0681 B(  5-C , 11-H ) :   0.8376
B(  7-C ,  8-C ) :   1.1126 B(  7-C , 12-H ) :   0.8423 B(  7-C , 13-H ) :   0.8278

MP2 TOTAL ENERGY:     -832.995742945 Eh
FINAL SINGLE POINT ENERGY      -832.995742944835

DIPOLE MOMENT
-------------
                                X             Y             Z
Electronic contribution:     -0.22983      -3.01197      -1.79908
Nuclear contribution   :      0.80997       5.25471       2.92535
                        -----------------------------------------
Total Dipole Moment    :      0.58013       2.24274       1.12628
                        -----------------------------------------
Magnitude (a.u.)       :      2.57584
Magnitude (Debye)      :      6.54725

Rotational constants in cm-1:     0.119562     0.021748     0.019949
Rotational constants in MHz :  3584.371602   651.991687   598.052055

                             ****ORCA TERMINATED NORMALLY****
TOTAL RUN TIME: 0 days 0 hours 26 minutes 15 seconds 181 msec
