                         Program Version 5.0.4 -  RELEASE  -
|  1> !ri-mp2 aug-cc-pvqz aug-cc-pvqz/c tightscf
|  2> %pal nprocs 16 end
|  3>
|  4> * xyz 0 1
|  5> C      0.385941   -0.723508    0.267146
|  6> Cl     1.900475    0.227545   -0.033923
|  7> C     -0.769906   -0.104546   -0.461481
|  8> C     -1.663184    0.846606    0.196657
|  9> O     -2.059013   -0.518958    0.002364
| 10> H      0.215602   -0.732869    1.339395
| 11> H      0.583531   -1.733301   -0.081694
| 12> H     -0.670754   -0.061183   -1.541492
| 13> H     -1.474553    1.128875    1.226754
| 14> H     -2.206901    1.570555   -0.399129
| 15> *
| 16>
| 17>                          ****END OF INPUT****

CARTESIAN COORDINATES (ANGSTROEM)
---------------------------------
  C      0.385941   -0.723508    0.267146
  Cl     1.900475    0.227545   -0.033923
  C     -0.769906   -0.104546   -0.461481
  C     -1.663184    0.846606    0.196657
  O     -2.059013   -0.518958    0.002364
  H      0.215602   -0.732869    1.339395
  H      0.583531   -1.733301   -0.081694
  H     -0.670754   -0.061183   -1.541492
  H     -1.474553    1.128875    1.226754
  H     -2.206901    1.570555   -0.399129

 Total Charge           Charge          ....    0
 Multiplicity           Mult            ....    1
 Number of Electrons    NEL             ....   48
 Basis Dimension        Dim             ....  634

ORBITAL ENERGIES
----------------

  NO   OCC          E(Eh)            E(eV)
   0   2.0000    -104.832067     -2852.6256
   1   2.0000     -20.583257      -560.0989
   2   2.0000     -11.306940      -307.6775
   3   2.0000     -11.306224      -307.6580
   4   2.0000     -11.296177      -307.3846
   5   2.0000     -10.557305      -287.2789
   6   2.0000      -8.024345      -218.3535
   7   2.0000      -8.022712      -218.3091
   8   2.0000      -8.022677      -218.3082
   9   2.0000      -1.425744       -38.7965
  10   2.0000      -1.139903       -31.0183
  11   2.0000      -0.985569       -26.8187
  12   2.0000      -0.923043       -25.1173
  13   2.0000      -0.830170       -22.5901
  14   2.0000      -0.716697       -19.5023
  15   2.0000      -0.672338       -18.2952
  16   2.0000      -0.621541       -16.9130
  17   2.0000      -0.591719       -16.1015
  18   2.0000      -0.556700       -15.1486
  19   2.0000      -0.530987       -14.4489
  20   2.0000      -0.472717       -12.8633
  21   2.0000      -0.460438       -12.5291
  22   2.0000      -0.442820       -12.0498
  23   2.0000      -0.441809       -12.0222
  24   0.0000       0.027329         0.7437
  25   0.0000       0.032243         0.8774
  26   0.0000       0.033311         0.9064
  27   0.0000       0.048837         1.3289
  28   0.0000       0.053825         1.4646

MULLIKEN ATOMIC CHARGES
-----------------------
   0 C :   -0.391226
   1 Cl:   -0.319166
   2 C :    0.161272
   3 C :   -0.501657
   4 O :   -0.793121
   5 H :    0.297994
   6 H :    0.304097
   7 H :    0.503825
   8 H :    0.369301
   9 H :    0.368680
Sum of atomic charges:    0.0000000

LOEWDIN ATOMIC CHARGES
----------------------
   0 C :   -0.134721
   1 Cl:    1.106590
   2 C :   -0.335259
   3 C :    0.236009
   4 O :    0.844533
   5 H :   -0.409510
   6 H :   -0.395428
   7 H :   -0.313990
   8 H :   -0.302581
   9 H :   -0.295643

  Mayer bond orders larger than 0.100000
B(  0-C ,  1-Cl) :   0.8679 B(  0-C ,  2-C ) :   0.8738 B(  0-C ,  5-H ) :   0.8916
B(  0-C ,  6-H ) :   0.8683 B(  2-C ,  3-C ) :   1.0254 B(  2-C ,  4-O ) :   0.6551
B(  2-C ,  7-H ) :   0.6999 B(  3-C ,  4-O ) :   0.9852 B(  3-C ,  8-H ) :   0.8554
B(  3-C ,  9-H ) :   0.8828

MP2 TOTAL ENERGY:     -651.940361926 Eh
FINAL SINGLE POINT ENERGY      -651.940361925820

DIPOLE MOMENT
-------------
                                X             Y             Z
Electronic contribution:      6.00222       0.36700      -0.52539
Nuclear contribution   :     -6.14246      -0.15749       0.57718
                        -----------------------------------------
Total Dipole Moment    :     -0.14024       0.20952       0.05179
                        -----------------------------------------
Magnitude (a.u.)       :      0.25738
Magnitude (Debye)      :      0.65422

Rotational constants in cm-1:     0.442381     0.065966     0.061513
Rotational constants in MHz : 13262.263575  1977.621316  1844.127932

                             ****ORCA TERMINATED NORMALLY****
TOTAL RUN TIME: 0 days 0 hours 10 minutes 20 seconds 329 msec
