                         Program Version 5.0.4 -  RELEASE  -
|  1> !ri-mp2 aug-cc-pvqz aug-cc-pvqz/c tightscf
|  2> %pal nprocs 16 end
|  3>
|  4> * xyz 0 1
|  5> C     0.000000     1.082580    0.123180
|  6> C     1.082580     0.000000   -0.123180
|  7> C    -1.082580     0.000000   -0.123180
|  8> C     0.000000    -1.082580    0.123180
|  9> H     0.000000    -1.957007   -0.526411
| 10> H     1.957007     0.000000    0.526411
| 11> H    -1.957007     0.000000    0.526411
| 12> H     0.000000     1.957007   -0.526411
| 13> H     0.000000     1.422103    1.159302
| 14> H    -1.422103     0.000000   -1.159302
| 15> H     1.422103     0.000000   -1.159302
| 16> H     0.000000    -1.422103    1.159302
| 17> *
| 18>
| 19>                          ****END OF INPUT****

CARTESIAN COORDINATES (ANGSTROEM)
---------------------------------
  C      0.000000    1.082580    0.123180
  C      1.082580    0.000000   -0.123180
  C     -1.082580    0.000000   -0.123180
  C      0.000000   -1.082580    0.123180
  H      0.000000   -1.957007   -0.526411
  H      1.957007    0.000000    0.526411
  H     -1.957007    0.000000    0.526411
  H      0.000000    1.957007   -0.526411
  H      0.000000    1.422103    1.159302
  H     -1.422103    0.000000   -1.159302
  H      1.422103    0.000000   -1.159302
  H      0.000000   -1.422103    1.159302

 Total Charge           Charge          ....    0
 Multiplicity           Mult            ....    1
 Number of Electrons    NEL             ....   32
 Basis Dimension        Dim             ....  688

ORBITAL ENERGIES
----------------

  NO   OCC          E(Eh)            E(eV)
   0   2.0000     -11.214719      -305.1680
   1   2.0000     -11.214169      -305.1530
   2   2.0000     -11.214169      -305.1530
   3   2.0000     -11.213616      -305.1380
   4   2.0000      -1.118980       -30.4490
   5   2.0000      -0.891340       -24.2546
   6   2.0000      -0.891340       -24.2546
   7   2.0000      -0.747647       -20.3445
   8   2.0000      -0.647109       -17.6087
   9   2.0000      -0.639047       -17.3894
  10   2.0000      -0.535130       -14.5616
  11   2.0000      -0.535130       -14.5616
  12   2.0000      -0.483554       -13.1582
  13   2.0000      -0.450505       -12.2589
  14   2.0000      -0.433803       -11.8044
  15   2.0000      -0.433803       -11.8044
  16   0.0000       0.028922         0.7870
  17   0.0000       0.034896         0.9496
  18   0.0000       0.036059         0.9812
  19   0.0000       0.036059         0.9812
  20   0.0000       0.053750         1.4626

MULLIKEN ATOMIC CHARGES
-----------------------
   0 C :   -0.596297
   1 C :   -0.596297
   2 C :   -0.596297
   3 C :   -0.596297
   4 H :    0.323562
   5 H :    0.323562
   6 H :    0.323562
   7 H :    0.323562
   8 H :    0.272735
   9 H :    0.272735
  10 H :    0.272735
  11 H :    0.272735
Sum of atomic charges:   -0.0000000

LOEWDIN ATOMIC CHARGES
----------------------
   0 C :    0.536926
   1 C :    0.536926
   2 C :    0.536926
   3 C :    0.536926
   4 H :   -0.261810
   5 H :   -0.261810
   6 H :   -0.261810
   7 H :   -0.261810
   8 H :   -0.275116
   9 H :   -0.275116
  10 H :   -0.275116
  11 H :   -0.275116

  Mayer bond orders larger than 0.100000
B(  0-C ,  1-C ) :   1.0257 B(  0-C ,  2-C ) :   1.0257 B(  0-C ,  7-H ) :   0.8546
B(  0-C ,  8-H ) :   0.8933 B(  1-C ,  3-C ) :   1.0257 B(  1-C ,  5-H ) :   0.8546
B(  1-C , 10-H ) :   0.8933 B(  2-C ,  3-C ) :   1.0257 B(  2-C ,  6-H ) :   0.8546
B(  2-C ,  9-H ) :   0.8933 B(  3-C ,  4-H ) :   0.8546 B(  3-C , 11-H ) :   0.8933

MP2 TOTAL ENERGY:     -156.898342566 Eh
FINAL SINGLE POINT ENERGY      -156.898342566305

DIPOLE MOMENT
-------------
                                X             Y             Z
Electronic contribution:      0.00000      -0.00000      -0.00000
Nuclear contribution   :      0.00000       0.00000       0.00000
                        -----------------------------------------
Total Dipole Moment    :      0.00000      -0.00000      -0.00000
                        -----------------------------------------
Magnitude (a.u.)       :      0.00000
Magnitude (Debye)      :      0.00000

Rotational constants in cm-1:     0.357028     0.357028     0.210977
Rotational constants in MHz : 10703.415920 10703.415920  6324.923022

                             ****ORCA TERMINATED NORMALLY****
TOTAL RUN TIME: 0 days 0 hours 12 minutes 23 seconds 958 msec
