                         Program Version 5.0.4 -  RELEASE  -
|  1> !ri-mp2 aug-cc-pvqz aug-cc-pvqz/c tightscf
|  2> %pal nprocs 16 end
|  3>
|  4> * xyz 0 1
|  5> C     0.000000     0.000000    0.381094
|  6> O     0.000000     0.000000    1.576449
|  7> C     0.000000     0.785897   -0.855963
|  8> C     0.000000    -0.785897   -0.855963
|  9> H     0.911746     1.287106   -1.156649
| 10> H    -0.911746     1.287106   -1.156649
| 11> H    -0.911746    -1.287106   -1.156649
| 12> H     0.911746    -1.287106   -1.156649
| 13> *
| 14>
| 15>                          ****END OF INPUT****

CARTESIAN COORDINATES (ANGSTROEM)
---------------------------------
  C      0.000000    0.000000    0.381094
  O      0.000000    0.000000    1.576449
  C      0.000000    0.785897   -0.855963
  C      0.000000   -0.785897   -0.855963
  H      0.911746    1.287106   -1.156649
  H     -0.911746    1.287106   -1.156649
  H     -0.911746   -1.287106   -1.156649
  H      0.911746   -1.287106   -1.156649

 Total Charge           Charge          ....    0
 Multiplicity           Mult            ....    1
 Number of Electrons    NEL             ....   30
 Basis Dimension        Dim             ....  504

ORBITAL ENERGIES
----------------

  NO   OCC          E(Eh)            E(eV)
   0   2.0000     -20.566632      -559.6465
   1   2.0000     -11.348367      -308.8048
   2   2.0000     -11.255446      -306.2763
   3   2.0000     -11.254961      -306.2631
   4   2.0000      -1.403761       -38.1983
   5   2.0000      -1.155472       -31.4420
   6   2.0000      -0.868099       -23.6222
   7   2.0000      -0.760655       -20.6985
   8   2.0000      -0.677753       -18.4426
   9   2.0000      -0.674208       -18.3461
  10   2.0000      -0.613736       -16.7006
  11   2.0000      -0.552001       -15.0207
  12   2.0000      -0.518860       -14.1189
  13   2.0000      -0.468001       -12.7350
  14   2.0000      -0.391096       -10.6423
  15   0.0000       0.023331         0.6349
  16   0.0000       0.033074         0.9000
  17   0.0000       0.033474         0.9109
  18   0.0000       0.051600         1.4041
  19   0.0000       0.052871         1.4387

MULLIKEN ATOMIC CHARGES
-----------------------
   0 C :    0.657599
   1 O :   -0.757714
   2 C :   -0.693274
   3 C :   -0.693274
   4 H :    0.371666
   5 H :    0.371666
   6 H :    0.371666
   7 H :    0.371666
Sum of atomic charges:   -0.0000000

LOEWDIN ATOMIC CHARGES
----------------------
   0 C :   -0.657592
   1 O :    0.654855
   2 C :    0.592434
   3 C :    0.592434
   4 H :   -0.295533
   5 H :   -0.295533
   6 H :   -0.295533
   7 H :   -0.295533

  Mayer bond orders larger than 0.100000
B(  0-C ,  1-O ) :   1.4853 B(  0-C ,  2-C ) :   1.1089 B(  0-C ,  3-C ) :   1.1089
B(  2-C ,  3-C ) :   1.0071 B(  2-C ,  4-H ) :   0.8096 B(  2-C ,  5-H ) :   0.8096
B(  3-C ,  6-H ) :   0.8096 B(  3-C ,  7-H ) :   0.8096

MP2 TOTAL ENERGY:     -191.578787728 Eh
FINAL SINGLE POINT ENERGY      -191.578787728473

DIPOLE MOMENT
-------------
                                X             Y             Z
Electronic contribution:     -0.00000       0.00000       3.27444
Nuclear contribution   :      0.00000       0.00000      -4.62458
                        -----------------------------------------
Total Dipole Moment    :     -0.00000       0.00000      -1.35013
                        -----------------------------------------
Magnitude (a.u.)       :      1.35013
Magnitude (Debye)      :      3.43177

Rotational constants in cm-1:     0.677882     0.249824     0.196837
Rotational constants in MHz : 20322.391803  7489.539687  5901.021926

                             ****ORCA TERMINATED NORMALLY****
TOTAL RUN TIME: 0 days 0 hours 5 minutes 16 seconds 853 msec
