                         Program Version 5.0.4 -  RELEASE  -
|  1> !ri-mp2 aug-cc-pvqz aug-cc-pvqz/c tightscf
|  2> %pal nprocs 16 end
|  3>
|  4> * xyz 0 1
|  5> C     -0.407739    1.083702    0.000000
|  6> C      0.155829    0.499472    1.282325
|  7> C      0.155829    0.499472   -1.282325
|  8> C      0.155829   -1.039311    1.263183
|  9> C      0.155829   -1.039311   -1.263183
| 10> C      0.820538   -1.590283    0.000000
| 11> O     -1.249483    1.954490    0.000000
| 12> H      1.188471    0.854961    1.375218
| 13> H     -0.408079    0.898882    2.123656
| 14> H     -0.408079    0.898882   -2.123656
| 15> H      1.188471    0.854961   -1.375218
| 16> H      0.657166   -1.415176    2.156695
| 17> H     -0.876952   -1.396180    1.313350
| 18> H     -0.876952   -1.396180   -1.313350
| 19> H      0.657166   -1.415176   -2.156695
| 20> H      1.882221   -1.322209    0.000000
| 21> H      0.775740   -2.681122    0.000000
| 22> *
| 23>
| 24>                          ****END OF INPUT****

CARTESIAN COORDINATES (ANGSTROEM)
---------------------------------
  C     -0.407739    1.083702    0.000000
  C      0.155829    0.499472    1.282325
  C      0.155829    0.499472   -1.282325
  C      0.155829   -1.039311    1.263183
  C      0.155829   -1.039311   -1.263183
  C      0.820538   -1.590283    0.000000
  O     -1.249483    1.954490    0.000000
  H      1.188471    0.854961    1.375218
  H     -0.408079    0.898882    2.123656
  H     -0.408079    0.898882   -2.123656
  H      1.188471    0.854961   -1.375218
  H      0.657166   -1.415176    2.156695
  H     -0.876952   -1.396180    1.313350
  H     -0.876952   -1.396180   -1.313350
  H      0.657166   -1.415176   -2.156695
  H      1.882221   -1.322209    0.000000
  H      0.775740   -2.681122    0.000000

 Total Charge           Charge          ....    0
 Multiplicity           Mult            ....    1
 Number of Electrons    NEL             ....   54
 Basis Dimension        Dim             .... 1020

ORBITAL ENERGIES
----------------

  NO   OCC          E(Eh)            E(eV)
   0   2.0000     -20.538631      -558.8846
   1   2.0000     -11.321967      -308.0864
   2   2.0000     -11.235151      -305.7240
   3   2.0000     -11.235118      -305.7231
   4   2.0000     -11.233108      -305.6684
   5   2.0000     -11.233090      -305.6679
   6   2.0000     -11.231138      -305.6148
   7   2.0000      -1.381032       -37.5798
   8   2.0000      -1.121957       -30.5300
   9   2.0000      -1.026307       -27.9272
  10   2.0000      -0.989931       -26.9374
  11   2.0000      -0.861987       -23.4559
  12   2.0000      -0.813797       -22.1445
  13   2.0000      -0.730895       -19.8887
  14   2.0000      -0.662356       -18.0236
  15   2.0000      -0.639810       -17.4101
  16   2.0000      -0.629648       -17.1336
  17   2.0000      -0.602069       -16.3831
  18   2.0000      -0.587882       -15.9971
  19   2.0000      -0.571087       -15.5401
  20   2.0000      -0.547026       -14.8853
  21   2.0000      -0.505719       -13.7613
  22   2.0000      -0.504822       -13.7369
  23   2.0000      -0.476303       -12.9609
  24   2.0000      -0.474452       -12.9105
  25   2.0000      -0.462464       -12.5843
  26   2.0000      -0.396473       -10.7886
  27   0.0000       0.022120         0.6019
  28   0.0000       0.028073         0.7639
  29   0.0000       0.030033         0.8172
  30   0.0000       0.035776         0.9735
  31   0.0000       0.047230         1.2852

MULLIKEN ATOMIC CHARGES
-----------------------
   0 C :    1.009168
   1 C :   -0.541137
   2 C :   -0.541136
   3 C :   -0.521300
   4 C :   -0.521301
   5 C :   -0.354812
   6 O :   -0.910020
   7 H :    0.204728
   8 H :    0.287453
   9 H :    0.287453
  10 H :    0.204728
  11 H :    0.281264
  12 H :    0.193080
  13 H :    0.193081
  14 H :    0.281263
  15 H :    0.168085
  16 H :    0.279405
Sum of atomic charges:    0.0000000

LOEWDIN ATOMIC CHARGES
----------------------
   0 C :   -0.619630
   1 C :    0.503418
   2 C :    0.503418
   3 C :    0.530990
   4 C :    0.530990
   5 C :    0.527260
   6 O :    0.742782
   7 H :   -0.273761
   8 H :   -0.297553
   9 H :   -0.297553
  10 H :   -0.273761
  11 H :   -0.261173
  12 H :   -0.264286
  13 H :   -0.264286
  14 H :   -0.261173
  15 H :   -0.265084
  16 H :   -0.260598

  Mayer bond orders larger than 0.100000
B(  0-C ,  1-C ) :   0.9860 B(  0-C ,  2-C ) :   0.9860 B(  0-C ,  6-O ) :   0.8672
B(  1-C ,  3-C ) :   0.9572 B(  1-C ,  6-O ) :   0.2071 B(  1-C ,  7-H ) :   0.9214
B(  1-C ,  8-H ) :   0.9154 B(  2-C ,  4-C ) :   0.9572 B(  2-C ,  6-O ) :   0.2071
B(  2-C ,  9-H ) :   0.9154 B(  2-C , 10-H ) :   0.9214 B(  3-C ,  5-C ) :   0.8949
B(  3-C , 11-H ) :   0.9108 B(  3-C , 12-H ) :   0.9364 B(  4-C ,  5-C ) :   0.8949
B(  4-C , 13-H ) :   0.9364 B(  4-C , 14-H ) :   0.9108 B(  5-C , 15-H ) :   0.9549
B(  5-C , 16-H ) :   0.8808

MP2 TOTAL ENERGY:     -309.361794100 Eh
FINAL SINGLE POINT ENERGY      -309.361794100016

DIPOLE MOMENT
-------------
                                X             Y             Z
Electronic contribution:     -2.93083       5.17120      -0.00000
Nuclear contribution   :      3.88477      -6.29043      -0.00000
                        -----------------------------------------
Total Dipole Moment    :      0.95394      -1.11923      -0.00000
                        -----------------------------------------
Magnitude (a.u.)       :      1.47061
Magnitude (Debye)      :      3.73799

Rotational constants in cm-1:     0.140599     0.082997     0.058051
Rotational constants in MHz :  4215.066829  2488.184425  1740.324923

                             ****ORCA TERMINATED NORMALLY****
TOTAL RUN TIME: 0 days 1 hours 2 minutes 47 seconds 877 msec
