                         Program Version 5.0.4 -  RELEASE  -
|  1> !ri-mp2 aug-cc-pvqz aug-cc-pvqz/c tightscf
|  2> %pal nprocs 16 end
|  3>
|  4> * xyz 0 1
|  5> C     0.000000     0.000000   -0.355296
|  6> Cl    0.000000     0.000000    1.420171
|  7> F     0.000000     1.248182   -0.815227
|  8> F     1.080957    -0.624091   -0.815227
|  9> F    -1.080957    -0.624091   -0.815227
| 10> *
| 11>
| 12>                          ****END OF INPUT****

CARTESIAN COORDINATES (ANGSTROEM)
---------------------------------
  C      0.000000    0.000000   -0.355296
  Cl     0.000000    0.000000    1.420171
  F      0.000000    1.248182   -0.815227
  F      1.080957   -0.624091   -0.815227
  F     -1.080957   -0.624091   -0.815227

 Total Charge           Charge          ....    0
 Multiplicity           Mult            ....    1
 Number of Electrons    NEL             ....   50
 Basis Dimension        Dim             ....  404

ORBITAL ENERGIES
----------------

  NO   OCC          E(Eh)            E(eV)
   0   2.0000    -104.884115     -2854.0419
   1   2.0000     -26.369872      -717.5607
   2   2.0000     -26.369872      -717.5607
   3   2.0000     -26.369839      -717.5598
   4   2.0000     -11.585686      -315.2626
   5   2.0000     -10.609726      -288.7053
   6   2.0000      -8.076764      -219.7799
   7   2.0000      -8.074762      -219.7254
   8   2.0000      -8.074762      -219.7254
   9   2.0000      -1.767274       -48.0900
  10   2.0000      -1.669815       -45.4380
  11   2.0000      -1.669815       -45.4380
  12   2.0000      -1.179162       -32.0866
  13   2.0000      -0.977038       -26.5866
  14   2.0000      -0.860797       -23.4235
  15   2.0000      -0.860797       -23.4235
  16   2.0000      -0.824421       -22.4336
  17   2.0000      -0.741300       -20.1718
  18   2.0000      -0.741300       -20.1718
  19   2.0000      -0.697418       -18.9777
  20   2.0000      -0.697418       -18.9777
  21   2.0000      -0.680657       -18.5216
  22   2.0000      -0.595877       -16.2146
  23   2.0000      -0.506861       -13.7924
  24   2.0000      -0.506861       -13.7924
  25   0.0000       0.048744         1.3264
  26   0.0000       0.062589         1.7031
  27   0.0000       0.070414         1.9161
  28   0.0000       0.070414         1.9161
  29   0.0000       0.092419         2.5148

MULLIKEN ATOMIC CHARGES
-----------------------
   0 C :    1.481383
   1 Cl:   -0.064033
   2 F :   -0.472450
   3 F :   -0.472450
   4 F :   -0.472450
Sum of atomic charges:    0.0000000

LOEWDIN ATOMIC CHARGES
----------------------
   0 C :   -2.953092
   1 Cl:    1.009586
   2 F :    0.647835
   3 F :    0.647836
   4 F :    0.647836

  Mayer bond orders larger than 0.100000
B(  0-C ,  1-Cl) :   1.0716 B(  0-C ,  2-F ) :   0.6793 B(  0-C ,  3-F ) :   0.6793
B(  0-C ,  4-F ) :   0.6793

MP2 TOTAL ENERGY:     -797.073550769 Eh
FINAL SINGLE POINT ENERGY      -797.073550769286

DIPOLE MOMENT
-------------
                                X             Y             Z
Electronic contribution:     -0.00000      -0.00000      -0.13163
Nuclear contribution   :      0.00000       0.00000       0.34480
                        -----------------------------------------
Total Dipole Moment    :     -0.00000      -0.00000       0.21317
                        -----------------------------------------
Magnitude (a.u.)       :      0.21317
Magnitude (Debye)      :      0.54184

Rotational constants in cm-1:     0.189851     0.108553     0.108553
Rotational constants in MHz :  5691.578944  3254.329324  3254.328772

                             ****ORCA TERMINATED NORMALLY****
TOTAL RUN TIME: 0 days 0 hours 2 minutes 9 seconds 544 msec
