                         Program Version 5.0.4 -  RELEASE  -
|  1> !ri-mp2 aug-cc-pvqz aug-cc-pvqz/c tightscf
|  2> %pal nprocs 16 end
|  3>
|  4> * xyz 0 1
|  5> Cl    0.454804   -1.139246    1.304813
|  6> Cl   -2.281823   -0.133493   -0.404658
|  7> N     0.212304    2.469029    0.884988
|  8> N     2.741580   -0.189878   -1.346088
|  9> C     0.469741    0.052344   -0.074733
| 10> C    -0.644368   -0.282574   -1.092678
| 11> C     0.324537    1.401661    0.476873
| 12> C     1.759694   -0.075092   -0.761062
| 13> H    -0.569014    0.407136   -1.929326
| 14> H    -0.506489   -1.302670   -1.436011
| 15> *
| 16>
| 17>                          ****END OF INPUT****

CARTESIAN COORDINATES (ANGSTROEM)
---------------------------------
  Cl     0.454804   -1.139246    1.304813
  Cl    -2.281823   -0.133493   -0.404658
  N      0.212304    2.469029    0.884988
  N      2.741580   -0.189878   -1.346088
  C      0.469741    0.052344   -0.074733
  C     -0.644368   -0.282574   -1.092678
  C      0.324537    1.401661    0.476873
  C      1.759694   -0.075092   -0.761062
  H     -0.569014    0.407136   -1.929326
  H     -0.506489   -1.302670   -1.436011

 Total Charge           Charge          ....    0
 Multiplicity           Mult            ....    1
 Number of Electrons    NEL             ....   74
 Basis Dimension        Dim             ....  740

ORBITAL ENERGIES
----------------

  NO   OCC          E(Eh)            E(eV)
   0   2.0000    -104.892212     -2854.2622
   1   2.0000    -104.869541     -2853.6453
   2   2.0000     -15.625675      -425.1962
   3   2.0000     -15.619884      -425.0387
   4   2.0000     -11.439993      -311.2980
   5   2.0000     -11.363968      -309.2293
   6   2.0000     -11.325397      -308.1797
   7   2.0000     -11.319708      -308.0249
   8   2.0000     -10.616976      -288.9026
   9   2.0000     -10.594762      -288.2981
  10   2.0000      -8.083942      -219.9752
  11   2.0000      -8.081857      -219.9185
  12   2.0000      -8.081838      -219.9180
  13   2.0000      -8.061849      -219.3741
  14   2.0000      -8.059998      -219.3237
  15   2.0000      -8.059922      -219.3216
  16   2.0000      -1.294161       -35.2159
  17   2.0000      -1.265488       -34.4357
  18   2.0000      -1.225594       -33.3501
  19   2.0000      -1.162572       -31.6352
  20   2.0000      -1.070701       -29.1353
  21   2.0000      -0.945924       -25.7399
  22   2.0000      -0.837317       -22.7845
  23   2.0000      -0.730971       -19.8907
  24   2.0000      -0.690564       -18.7912
  25   2.0000      -0.637160       -17.3380
  26   2.0000      -0.614871       -16.7315
  27   2.0000      -0.603330       -16.4174
  28   2.0000      -0.592926       -16.1343
  29   2.0000      -0.537664       -14.6306
  30   2.0000      -0.530292       -14.4300
  31   2.0000      -0.515547       -14.0287
  32   2.0000      -0.508018       -13.8239
  33   2.0000      -0.498534       -13.5658
  34   2.0000      -0.494121       -13.4457
  35   2.0000      -0.480303       -13.0697
  36   2.0000      -0.476680       -12.9711
  37   0.0000       0.021570         0.5869
  38   0.0000       0.035045         0.9536
  39   0.0000       0.041337         1.1248
  40   0.0000       0.047865         1.3025
  41   0.0000       0.053102         1.4450

MULLIKEN ATOMIC CHARGES
-----------------------
   0 Cl:   -0.314169
   1 Cl:   -0.256874
   2 N :   -0.639019
   3 N :   -0.620964
   4 C :    0.567016
   5 C :   -0.399857
   6 C :    0.543364
   7 C :    0.461447
   8 H :    0.313952
   9 H :    0.345104
Sum of atomic charges:   -0.0000000

LOEWDIN ATOMIC CHARGES
----------------------
   0 Cl:    1.212394
   1 Cl:    1.199664
   2 N :    0.444096
   3 N :    0.452328
   4 C :   -1.229946
   5 C :   -0.305977
   6 C :   -0.496561
   7 C :   -0.462502
   8 H :   -0.397141
   9 H :   -0.416355

  Mayer bond orders larger than 0.100000
B(  0-Cl,  4-C ) :   0.5924 B(  1-Cl,  4-C ) :  -0.1019 B(  1-Cl,  5-C ) :   0.8173
B(  2-N ,  6-C ) :   2.5058 B(  3-N ,  7-C ) :   2.5291 B(  4-C ,  5-C ) :   0.9096
B(  4-C ,  6-C ) :   1.0172 B(  4-C ,  7-C ) :   0.9828 B(  5-C ,  8-H ) :   0.8442
B(  5-C ,  9-H ) :   0.8532 B(  6-C ,  7-C ) :  -0.1355

MP2 TOTAL ENERGY:    -1182.128860847 Eh
FINAL SINGLE POINT ENERGY     -1182.128860846624

DIPOLE MOMENT
-------------
                                X             Y             Z
Electronic contribution:     -2.07278      -1.75897       3.82336
Nuclear contribution   :      1.45122       0.87567      -4.34326
                        -----------------------------------------
Total Dipole Moment    :     -0.62156      -0.88330      -0.51990
                        -----------------------------------------
Magnitude (a.u.)       :      1.19869
Magnitude (Debye)      :      3.04683

Rotational constants in cm-1:     0.057858     0.035382     0.033453
Rotational constants in MHz :  1734.538525  1060.719110  1002.886540

                             ****ORCA TERMINATED NORMALLY****
TOTAL RUN TIME: 0 days 0 hours 12 minutes 57 seconds 149 msec
