                         Program Version 5.0.4 -  RELEASE  -
|  1> !ri-mp2 aug-cc-pvqz aug-cc-pvqz/c tightscf
|  2> %pal nprocs 16 end
|  3>
|  4> * xyz 0 1
|  5> C    -1.077960     0.000000   -0.148679
|  6> C     1.077960     0.000000   -0.148679
|  7> C     0.000000     1.086408   -0.403813
|  8> C     0.000000    -1.086408   -0.403813
|  9> C     0.000000     2.344796    0.443912
| 10> C     0.000000    -2.344796    0.443912
| 11> H    -1.394186     0.000000    0.897568
| 12> H    -1.966460     0.000000   -0.780419
| 13> H     1.394186     0.000000    0.897568
| 14> H     1.966460     0.000000   -0.780419
| 15> H     0.000000     1.356060   -1.462683
| 16> H     0.000000    -1.356060   -1.462683
| 17> H     0.000000     2.098731    1.508187
| 18> H     0.000000    -2.098731    1.508187
| 19> H     0.881667     2.958111    0.244413
| 20> H    -0.881667     2.958111    0.244413
| 21> H    -0.881667    -2.958111    0.244413
| 22> H     0.881667    -2.958111    0.244413
| 23> *
| 24>
| 25>                          ****END OF INPUT****

CARTESIAN COORDINATES (ANGSTROEM)
---------------------------------
  C     -1.077960    0.000000   -0.148679
  C      1.077960    0.000000   -0.148679
  C      0.000000    1.086408   -0.403813
  C      0.000000   -1.086408   -0.403813
  C      0.000000    2.344796    0.443912
  C      0.000000   -2.344796    0.443912
  H     -1.394186    0.000000    0.897568
  H     -1.966460    0.000000   -0.780419
  H      1.394186    0.000000    0.897568
  H      1.966460    0.000000   -0.780419
  H      0.000000    1.356060   -1.462683
  H      0.000000   -1.356060   -1.462683
  H      0.000000    2.098731    1.508187
  H      0.000000   -2.098731    1.508187
  H      0.881667    2.958111    0.244413
  H     -0.881667    2.958111    0.244413
  H     -0.881667   -2.958111    0.244413
  H      0.881667   -2.958111    0.244413

 Total Charge           Charge          ....    0
 Multiplicity           Mult            ....    1
 Number of Electrons    NEL             ....   48
 Basis Dimension        Dim             .... 1032

ORBITAL ENERGIES
----------------

  NO   OCC          E(Eh)            E(eV)
   0   2.0000     -11.219342      -305.2938
   1   2.0000     -11.219312      -305.2930
   2   2.0000     -11.209472      -305.0252
   3   2.0000     -11.209440      -305.0244
   4   2.0000     -11.206753      -304.9513
   5   2.0000     -11.206752      -304.9512
   6   2.0000      -1.133155       -30.8347
   7   2.0000      -1.003521       -27.3072
   8   2.0000      -0.935295       -25.4507
   9   2.0000      -0.891966       -24.2716
  10   2.0000      -0.794891       -21.6301
  11   2.0000      -0.740565       -20.1518
  12   2.0000      -0.652102       -17.7446
  13   2.0000      -0.589078       -16.0296
  14   2.0000      -0.583217       -15.8702
  15   2.0000      -0.578860       -15.7516
  16   2.0000      -0.551777       -15.0146
  17   2.0000      -0.532493       -14.4899
  18   2.0000      -0.527789       -14.3619
  19   2.0000      -0.488108       -13.2821
  20   2.0000      -0.446033       -12.1372
  21   2.0000      -0.444723       -12.1015
  22   2.0000      -0.422197       -11.4886
  23   2.0000      -0.415042       -11.2939
  24   0.0000       0.027037         0.7357
  25   0.0000       0.031349         0.8531
  26   0.0000       0.032784         0.8921
  27   0.0000       0.033014         0.8984
  28   0.0000       0.047970         1.3053

MULLIKEN ATOMIC CHARGES
-----------------------
   0 C :   -0.583625
   1 C :   -0.583621
   2 C :    0.062565
   3 C :    0.062560
   4 C :   -0.946533
   5 C :   -0.946529
   6 H :    0.192739
   7 H :    0.384280
   8 H :    0.192738
   9 H :    0.384279
  10 H :    0.250874
  11 H :    0.250871
  12 H :    0.194970
  13 H :    0.194970
  14 H :    0.222366
  15 H :    0.222366
  16 H :    0.222365
  17 H :    0.222365
Sum of atomic charges:    0.0000000

LOEWDIN ATOMIC CHARGES
----------------------
   0 C :    0.556179
   1 C :    0.556179
   2 C :    0.128570
   3 C :    0.128570
   4 C :    0.943005
   5 C :    0.943005
   6 H :   -0.272852
   7 H :   -0.240070
   8 H :   -0.272852
   9 H :   -0.240070
  10 H :   -0.265262
  11 H :   -0.265262
  12 H :   -0.290261
  13 H :   -0.290261
  14 H :   -0.279655
  15 H :   -0.279655
  16 H :   -0.279655
  17 H :   -0.279655

  Mayer bond orders larger than 0.100000
B(  0-C ,  2-C ) :   0.9566 B(  0-C ,  3-C ) :   0.9566 B(  0-C ,  6-H ) :   0.9507
B(  0-C ,  7-H ) :   0.8143 B(  1-C ,  2-C ) :   0.9566 B(  1-C ,  3-C ) :   0.9566
B(  1-C ,  8-H ) :   0.9507 B(  1-C ,  9-H ) :   0.8143 B(  2-C ,  3-C ) :  -0.2794
B(  2-C ,  4-C ) :   0.6250 B(  2-C , 10-H ) :   0.9131 B(  2-C , 14-H ) :  -0.1107
B(  2-C , 15-H ) :  -0.1107 B(  3-C ,  5-C ) :   0.6250 B(  3-C , 11-H ) :   0.9131
B(  3-C , 16-H ) :  -0.1107 B(  3-C , 17-H ) :  -0.1107 B(  4-C , 12-H ) :   0.9460
B(  4-C , 14-H ) :   1.0738 B(  4-C , 15-H ) :   1.0738 B(  5-C , 13-H ) :   0.9460
B(  5-C , 16-H ) :   1.0738 B(  5-C , 17-H ) :   1.0738

MP2 TOTAL ENERGY:     -235.379157444 Eh
FINAL SINGLE POINT ENERGY      -235.379157443635

DIPOLE MOMENT
-------------
                                X             Y             Z
Electronic contribution:     -0.00000      -0.00000      -1.46316
Nuclear contribution   :      0.00000       0.00000       1.39562
                        -----------------------------------------
Total Dipole Moment    :     -0.00000      -0.00000      -0.06754
                        -----------------------------------------
Magnitude (a.u.)       :      0.06754
Magnitude (Debye)      :      0.17167

Rotational constants in cm-1:     0.263748     0.073470     0.067146
Rotational constants in MHz :  7906.965452  2202.572342  2012.997180

                             ****ORCA TERMINATED NORMALLY****
TOTAL RUN TIME: 0 days 0 hours 59 minutes 1 seconds 168 msec
