                         Program Version 5.0.4 -  RELEASE  -
|  1> !ri-mp2 aug-cc-pvqz aug-cc-pvqz/c tightscf
|  2> %pal nprocs 16 end
|  3> %maxcore 3800
|  4>
|  5> * xyz 0 1
|  6> C     -0.924984    1.455665    0.000000
|  7> C     -0.134405    1.385461    1.310207
|  8> C     -0.134405    1.385461   -1.310207
|  9> C      0.629237    0.082662    1.610338
| 10> C      0.629237    0.082662   -1.610338
| 11> C     -0.134405   -1.227318    1.323869
| 12> C     -0.134405   -1.227318   -1.323869
| 13> C      0.207639   -1.929091    0.000000
| 14> H     -1.479369    2.398329    0.000000
| 15> H      0.570283    2.221967    1.352098
| 16> H      0.570283    2.221967   -1.352098
| 17> H     -0.845053    1.554786    2.124992
| 18> H     -0.845053    1.554786   -2.124992
| 19> H     -1.689785    0.675570    0.000000
| 20> H      0.902756    0.108766    2.667617
| 21> H      0.902756    0.108766   -2.667617
| 22> H      1.576536    0.069346    1.069122
| 23> H      1.576536    0.069346   -1.069122
| 24> H     -1.212799   -1.052435    1.383389
| 25> H     -1.212799   -1.052435   -1.383389
| 26> H      0.088126   -1.939415    2.121981
| 27> H      0.088126   -1.939415   -2.121981
| 28> H      1.281288   -2.147303    0.000000
| 29> H     -0.292875   -2.901727    0.000000
| 30> *
| 31>
| 32>                          ****END OF INPUT****

CARTESIAN COORDINATES (ANGSTROEM)
---------------------------------
  C     -0.924984    1.455665    0.000000
  C     -0.134405    1.385461    1.310207
  C     -0.134405    1.385461   -1.310207
  C      0.629237    0.082662    1.610338
  C      0.629237    0.082662   -1.610338
  C     -0.134405   -1.227318    1.323869
  C     -0.134405   -1.227318   -1.323869
  C      0.207639   -1.929091    0.000000
  H     -1.479369    2.398329    0.000000
  H      0.570283    2.221967    1.352098
  H      0.570283    2.221967   -1.352098
  H     -0.845053    1.554786    2.124992
  H     -0.845053    1.554786   -2.124992
  H     -1.689785    0.675570    0.000000
  H      0.902756    0.108766    2.667617
  H      0.902756    0.108766   -2.667617
  H      1.576536    0.069346    1.069122
  H      1.576536    0.069346   -1.069122
  H     -1.212799   -1.052435    1.383389
  H     -1.212799   -1.052435   -1.383389
  H      0.088126   -1.939415    2.121981
  H      0.088126   -1.939415   -2.121981
  H      1.281288   -2.147303    0.000000
  H     -0.292875   -2.901727    0.000000

 Total Charge           Charge          ....    0
 Multiplicity           Mult            ....    1
 Number of Electrons    NEL             ....   64
 Basis Dimension        Dim             .... 1376

ORBITAL ENERGIES
----------------

  NO   OCC          E(Eh)            E(eV)
   0   2.0000     -11.211911      -305.0916
   1   2.0000     -11.210935      -305.0651
   2   2.0000     -11.210923      -305.0647
   3   2.0000     -11.210805      -305.0615
   4   2.0000     -11.210699      -305.0586
   5   2.0000     -11.209448      -305.0246
   6   2.0000     -11.209439      -305.0243
   7   2.0000     -11.208858      -305.0085
   8   2.0000      -1.099333       -29.9144
   9   2.0000      -1.037274       -28.2257
  10   2.0000      -1.035204       -28.1693
  11   2.0000      -0.918115       -24.9832
  12   2.0000      -0.914348       -24.8807
  13   2.0000      -0.793197       -21.5840
  14   2.0000      -0.790741       -21.5171
  15   2.0000      -0.736146       -20.0316
  16   2.0000      -0.643666       -17.5150
  17   2.0000      -0.629575       -17.1316
  18   2.0000      -0.596666       -16.2361
  19   2.0000      -0.590317       -16.0633
  20   2.0000      -0.573337       -15.6013
  21   2.0000      -0.567239       -15.4354
  22   2.0000      -0.550471       -14.9791
  23   2.0000      -0.507763       -13.8169
  24   2.0000      -0.485250       -13.2043
  25   2.0000      -0.481873       -13.1124
  26   2.0000      -0.468728       -12.7547
  27   2.0000      -0.465457       -12.6657
  28   2.0000      -0.460335       -12.5264
  29   2.0000      -0.433899       -11.8070
  30   2.0000      -0.426360       -11.6018
  31   2.0000      -0.417844       -11.3701
  32   0.0000       0.026768         0.7284
  33   0.0000       0.029383         0.7996
  34   0.0000       0.030033         0.8172
  35   0.0000       0.031507         0.8573
  36   0.0000       0.043373         1.1802

MULLIKEN ATOMIC CHARGES
-----------------------
   0 C :   -0.208503
   1 C :   -0.581308
   2 C :   -0.581313
   3 C :   -0.407503
   4 C :   -0.407510
   5 C :   -0.407949
   6 C :   -0.407931
   7 C :   -0.598397
   8 H :    0.222354
   9 H :    0.213763
  10 H :    0.213746
  11 H :    0.160237
  12 H :    0.160239
  13 H :    0.201178
  14 H :    0.294114
  15 H :    0.294112
  16 H :    0.245022
  17 H :    0.245030
  18 H :    0.231518
  19 H :    0.231547
  20 H :    0.228264
  21 H :    0.228256
  22 H :    0.233170
  23 H :    0.197862
Sum of atomic charges:    0.0000000

LOEWDIN ATOMIC CHARGES
----------------------
   0 C :    0.538611
   1 C :    0.557861
   2 C :    0.557861
   3 C :    0.560073
   4 C :    0.560073
   5 C :    0.559578
   6 C :    0.559578
   7 C :    0.552485
   8 H :   -0.267408
   9 H :   -0.264547
  10 H :   -0.264547
  11 H :   -0.271819
  12 H :   -0.271819
  13 H :   -0.305357
  14 H :   -0.270927
  15 H :   -0.270927
  16 H :   -0.302004
  17 H :   -0.302004
  18 H :   -0.280501
  19 H :   -0.280501
  20 H :   -0.274287
  21 H :   -0.274287
  22 H :   -0.273629
  23 H :   -0.271555

  Mayer bond orders larger than 0.100000
B(  0-C ,  1-C ) :   0.8080 B(  0-C ,  2-C ) :   0.8080 B(  0-C ,  8-H ) :   0.9855
B(  0-C , 13-H ) :   0.9053 B(  1-C ,  3-C ) :   0.7755 B(  1-C ,  9-H ) :   0.9856
B(  1-C , 11-H ) :   1.0743 B(  2-C ,  4-C ) :   0.7754 B(  2-C , 10-H ) :   0.9856
B(  2-C , 12-H ) :   1.0744 B(  3-C ,  5-C ) :   0.7713 B(  3-C , 14-H ) :   0.9306
B(  3-C , 16-H ) :   0.9979 B(  4-C ,  6-C ) :   0.7712 B(  4-C , 15-H ) :   0.9306
B(  4-C , 17-H ) :   0.9979 B(  5-C ,  7-C ) :   0.8246 B(  5-C , 18-H ) :   0.9972
B(  5-C , 20-H ) :   1.0014 B(  6-C ,  7-C ) :   0.8246 B(  6-C , 19-H ) :   0.9972
B(  6-C , 21-H ) :   1.0014 B(  7-C , 22-H ) :   0.9568 B(  7-C , 23-H ) :   1.0114

MP2 TOTAL ENERGY:     -313.871120527 Eh
FINAL SINGLE POINT ENERGY      -313.871120526626

DIPOLE MOMENT
-------------
                                X             Y             Z
Electronic contribution:      0.01730       0.03990      -0.00000
Nuclear contribution   :     -0.02254      -0.05259       0.00000
                        -----------------------------------------
Total Dipole Moment    :     -0.00525      -0.01269      -0.00000
                        -----------------------------------------
Magnitude (a.u.)       :      0.01374
Magnitude (Debye)      :      0.03491

Rotational constants in cm-1:     0.075241     0.071308     0.043406
Rotational constants in MHz :  2255.654299  2137.763426  1301.279410

                             ****ORCA TERMINATED NORMALLY****
TOTAL RUN TIME: 0 days 2 hours 12 minutes 40 seconds 805 msec
