                         Program Version 5.0.4 -  RELEASE  -
|  1> !ri-mp2 aug-cc-pvqz aug-cc-pvqz/c tightscf
|  2> %pal nprocs 16 end
|  3>
|  4> * xyz 0 1
|  5> C      0.420637    2.644566    0.000000
|  6> C      0.421753    1.947096    1.203090
|  7> C      0.421753    1.947096   -1.203090
|  8> C      0.421753    0.558318    1.201822
|  9> C      0.421753    0.558318   -1.201822
| 10> C      0.421492   -0.150366    0.000000
| 11> C      0.426140   -1.643412    0.000000
| 12> Cl    -1.272788   -2.340959    0.000000
| 13> H      0.421639    3.726146    0.000000
| 14> H      0.424437    2.484779    2.141585
| 15> H      0.424437    2.484779   -2.141585
| 16> H      0.419754    0.018155    2.140045
| 17> H      0.419754    0.018155   -2.140045
| 18> H      0.897849   -2.052701    0.887296
| 19> H      0.897849   -2.052701   -0.887296
| 20> *
| 21>
| 22>                          ****END OF INPUT****

CARTESIAN COORDINATES (ANGSTROEM)
---------------------------------
  C      0.420637    2.644566    0.000000
  C      0.421753    1.947096    1.203090
  C      0.421753    1.947096   -1.203090
  C      0.421753    0.558318    1.201822
  C      0.421753    0.558318   -1.201822
  C      0.421492   -0.150366    0.000000
  C      0.426140   -1.643412    0.000000
  Cl    -1.272788   -2.340959    0.000000
  H      0.421639    3.726146    0.000000
  H      0.424437    2.484779    2.141585
  H      0.424437    2.484779   -2.141585
  H      0.419754    0.018155    2.140045
  H      0.419754    0.018155   -2.140045
  H      0.897849   -2.052701    0.887296
  H      0.897849   -2.052701   -0.887296

 Total Charge           Charge          ....    0
 Multiplicity           Mult            ....    1
 Number of Electrons    NEL             ....   66
 Basis Dimension        Dim             ....  966

ORBITAL ENERGIES
----------------

  NO   OCC          E(Eh)            E(eV)
   0   2.0000    -104.818140     -2852.2466
   1   2.0000     -11.301440      -307.5278
   2   2.0000     -11.253040      -306.2108
   3   2.0000     -11.243573      -305.9532
   4   2.0000     -11.243556      -305.9527
   5   2.0000     -11.242647      -305.9280
   6   2.0000     -11.241516      -305.8972
   7   2.0000     -11.240922      -305.8811
   8   2.0000     -10.543367      -286.8996
   9   2.0000      -8.010329      -217.9721
  10   2.0000      -8.008720      -217.9284
  11   2.0000      -8.008690      -217.9275
  12   2.0000      -1.173729       -31.9388
  13   2.0000      -1.119122       -30.4528
  14   2.0000      -1.034181       -28.1415
  15   2.0000      -1.026106       -27.9218
  16   2.0000      -0.918238       -24.9865
  17   2.0000      -0.840100       -22.8603
  18   2.0000      -0.809047       -22.0153
  19   2.0000      -0.708939       -19.2912
  20   2.0000      -0.660964       -17.9857
  21   2.0000      -0.650862       -17.7109
  22   2.0000      -0.599370       -16.3097
  23   2.0000      -0.597577       -16.2609
  24   2.0000      -0.586631       -15.9630
  25   2.0000      -0.559050       -15.2125
  26   2.0000      -0.512089       -13.9347
  27   2.0000      -0.502327       -13.6690
  28   2.0000      -0.499398       -13.5893
  29   2.0000      -0.434560       -11.8250
  30   2.0000      -0.432799       -11.7771
  31   2.0000      -0.346907        -9.4398
  32   2.0000      -0.340872        -9.2756
  33   0.0000       0.024312         0.6616
  34   0.0000       0.028107         0.7648
  35   0.0000       0.028158         0.7662
  36   0.0000       0.040411         1.0996
  37   0.0000       0.041623         1.1326

MULLIKEN ATOMIC CHARGES
-----------------------
   0 C :   -0.313474
   1 C :   -0.324342
   2 C :   -0.324336
   3 C :   -0.367477
   4 C :   -0.367481
   5 C :    0.268689
   6 C :   -0.192781
   7 Cl:   -0.360830
   8 H :    0.329882
   9 H :    0.246616
  10 H :    0.246622
  11 H :    0.324522
  12 H :    0.324519
  13 H :    0.254934
  14 H :    0.254937
Sum of atomic charges:   -0.0000000

LOEWDIN ATOMIC CHARGES
----------------------
   0 C :    0.340619
   1 C :    0.347336
   2 C :    0.347336
   3 C :    0.322102
   4 C :    0.322102
   5 C :   -0.211548
   6 C :   -0.120553
   7 Cl:    1.079273
   8 H :   -0.322747
   9 H :   -0.321933
  10 H :   -0.321933
  11 H :   -0.318779
  12 H :   -0.318779
  13 H :   -0.411248
  14 H :   -0.411248

  Mayer bond orders larger than 0.100000
B(  0-C ,  1-C ) :   1.1494 B(  0-C ,  2-C ) :   1.1494 B(  0-C ,  8-H ) :   0.9935
B(  1-C ,  2-C ) :  -0.1040 B(  1-C ,  3-C ) :   1.3738 B(  1-C ,  4-C ) :   0.1523
B(  1-C ,  5-C ) :  -0.2840 B(  1-C ,  9-H ) :   1.1152 B(  2-C ,  3-C ) :   0.1523
B(  2-C ,  4-C ) :   1.3738 B(  2-C ,  5-C ) :  -0.2841 B(  2-C , 10-H ) :   1.1152
B(  3-C ,  5-C ) :   1.0412 B(  3-C ,  6-C ) :  -0.1425 B(  3-C ,  9-H ) :  -0.1147
B(  3-C , 11-H ) :   0.9194 B(  4-C ,  5-C ) :   1.0411 B(  4-C ,  6-C ) :  -0.1425
B(  4-C , 10-H ) :  -0.1147 B(  4-C , 12-H ) :   0.9194 B(  5-C ,  6-C ) :   0.8660
B(  6-C ,  7-Cl) :   0.7853 B(  6-C , 13-H ) :   0.9633 B(  6-C , 14-H ) :   0.9633

MP2 TOTAL ENERGY:     -730.190643867 Eh
FINAL SINGLE POINT ENERGY      -730.190643867338

DIPOLE MOMENT
-------------
                                X             Y             Z
Electronic contribution:     -4.82888      -7.27972       0.00000
Nuclear contribution   :      5.60752       7.80981       0.00000
                        -----------------------------------------
Total Dipole Moment    :      0.77864       0.53009       0.00000
                        -----------------------------------------
Magnitude (a.u.)       :      0.94196
Magnitude (Debye)      :      2.39426

Rotational constants in cm-1:     0.140227     0.032501     0.029189
Rotational constants in MHz :  4203.890297   974.346434   875.063489

                             ****ORCA TERMINATED NORMALLY****
TOTAL RUN TIME: 0 days 0 hours 48 minutes 30 seconds 2 msec
