                         Program Version 5.0.4 -  RELEASE  -
|  1> !ri-mp2 aug-cc-pvqz aug-cc-pvqz/c tightscf
|  2> %pal nprocs 16 end
|  3>
|  4> * xyz 0 1
|  5> C     0.667787     1.563913    0.371103
|  6> C    -0.667787     1.563913    0.371103
|  7> C     0.667787    -1.563913    0.371103
|  8> C    -0.667787    -1.563913    0.371103
|  9> C     1.563913     0.667787   -0.371103
| 10> C    -1.563913     0.667787   -0.371103
| 11> C     1.563913    -0.667787   -0.371103
| 12> C    -1.563913    -0.667787   -0.371103
| 13> H     1.166556     2.358559    0.918777
| 14> H    -1.166556     2.358559    0.918777
| 15> H     1.166556    -2.358559    0.918777
| 16> H    -1.166556    -2.358559    0.918777
| 17> H     2.358559     1.166556   -0.918777
| 18> H    -2.358559     1.166556   -0.918777
| 19> H     2.358559    -1.166556   -0.918777
| 20> H    -2.358559    -1.166556   -0.918777
| 21> *
| 22>
| 23>                          ****END OF INPUT****

CARTESIAN COORDINATES (ANGSTROEM)
---------------------------------
  C      0.667787    1.563913    0.371103
  C     -0.667787    1.563913    0.371103
  C      0.667787   -1.563913    0.371103
  C     -0.667787   -1.563913    0.371103
  C      1.563913    0.667787   -0.371103
  C     -1.563913    0.667787   -0.371103
  C      1.563913   -0.667787   -0.371103
  C     -1.563913   -0.667787   -0.371103
  H      1.166556    2.358559    0.918777
  H     -1.166556    2.358559    0.918777
  H      1.166556   -2.358559    0.918777
  H     -1.166556   -2.358559    0.918777
  H      2.358559    1.166556   -0.918777
  H     -2.358559    1.166556   -0.918777
  H      2.358559   -1.166556   -0.918777
  H     -2.358559   -1.166556   -0.918777

 Total Charge           Charge          ....    0
 Multiplicity           Mult            ....    1
 Number of Electrons    NEL             ....   56
 Basis Dimension        Dim             .... 1008

ORBITAL ENERGIES
----------------

  NO   OCC          E(Eh)            E(eV)
   0   2.0000     -11.236460      -305.7596
   1   2.0000     -11.236173      -305.7518
   2   2.0000     -11.236173      -305.7518
   3   2.0000     -11.235700      -305.7389
   4   2.0000     -11.234800      -305.7145
   5   2.0000     -11.234300      -305.7008
   6   2.0000     -11.234300      -305.7008
   7   2.0000     -11.233980      -305.6921
   8   2.0000      -1.129129       -30.7252
   9   2.0000      -1.060776       -28.8652
  10   2.0000      -1.060776       -28.8652
  11   2.0000      -0.955012       -25.9872
  12   2.0000      -0.896662       -24.3994
  13   2.0000      -0.775784       -21.1101
  14   2.0000      -0.775784       -21.1101
  15   2.0000      -0.690064       -18.7776
  16   2.0000      -0.633406       -17.2358
  17   2.0000      -0.628173       -17.0935
  18   2.0000      -0.628173       -17.0935
  19   2.0000      -0.623768       -16.9736
  20   2.0000      -0.587210       -15.9788
  21   2.0000      -0.513347       -13.9689
  22   2.0000      -0.513347       -13.9689
  23   2.0000      -0.478518       -13.0211
  24   2.0000      -0.441102       -12.0030
  25   2.0000      -0.375765       -10.2251
  26   2.0000      -0.375765       -10.2251
  27   2.0000      -0.299731        -8.1561
  28   0.0000       0.026235         0.7139
  29   0.0000       0.029427         0.8007
  30   0.0000       0.029427         0.8008
  31   0.0000       0.035213         0.9582
  32   0.0000       0.039975         1.0878

MULLIKEN ATOMIC CHARGES
-----------------------
   0 C :   -0.366817
   1 C :   -0.366816
   2 C :   -0.366853
   3 C :   -0.366734
   4 C :   -0.366636
   5 C :   -0.366689
   6 C :   -0.366584
   7 C :   -0.366785
   8 H :    0.366681
   9 H :    0.366740
  10 H :    0.366736
  11 H :    0.366768
  12 H :    0.366730
  13 H :    0.366745
  14 H :    0.366742
  15 H :    0.366770
Sum of atomic charges:   -0.0000000

LOEWDIN ATOMIC CHARGES
----------------------
   0 C :    0.339615
   1 C :    0.339615
   2 C :    0.339615
   3 C :    0.339615
   4 C :    0.339615
   5 C :    0.339615
   6 C :    0.339615
   7 C :    0.339615
   8 H :   -0.339615
   9 H :   -0.339615
  10 H :   -0.339615
  11 H :   -0.339615
  12 H :   -0.339615
  13 H :   -0.339615
  14 H :   -0.339615
  15 H :   -0.339615

  Mayer bond orders larger than 0.100000
B(  0-C ,  1-C ) :   1.8058 B(  0-C ,  4-C ) :   0.8522 B(  0-C ,  8-H ) :   0.9160
B(  1-C ,  5-C ) :   0.8523 B(  1-C ,  9-H ) :   0.9159 B(  2-C ,  3-C ) :   1.8058
B(  2-C ,  6-C ) :   0.8521 B(  2-C , 10-H ) :   0.9159 B(  3-C ,  7-C ) :   0.8522
B(  3-C , 11-H ) :   0.9159 B(  4-C ,  6-C ) :   1.8058 B(  4-C , 12-H ) :   0.9159
B(  5-C ,  7-C ) :   1.8058 B(  5-C , 13-H ) :   0.9158 B(  6-C , 14-H ) :   0.9158
B(  7-C , 15-H ) :   0.9158

MP2 TOTAL ENERGY:     -308.995671123 Eh
FINAL SINGLE POINT ENERGY      -308.995671122561

DIPOLE MOMENT
-------------
                                X             Y             Z
Electronic contribution:     -0.00000      -0.00000       0.00000
Nuclear contribution   :      0.00000       0.00000      -0.00000
                        -----------------------------------------
Total Dipole Moment    :     -0.00000      -0.00000       0.00000
                        -----------------------------------------
Magnitude (a.u.)       :      0.00000
Magnitude (Debye)      :      0.00000

Rotational constants in cm-1:     0.090202     0.090202     0.050518
Rotational constants in MHz :  2704.179669  2704.179669  1514.490228

                             ****ORCA TERMINATED NORMALLY****
TOTAL RUN TIME: 0 days 0 hours 51 minutes 45 seconds 588 msec
