                         Program Version 5.0.4 -  RELEASE  -
|  1> !ri-mp2 aug-cc-pvqz aug-cc-pvqz/c tightscf
|  2> %pal nprocs 16 end
|  3>
|  4> * xyz 0 1
|  5> C      1.868671    0.015665   -0.274924
|  6> C      1.165857   -1.254608    0.213738
|  7> C      1.143210    1.275650    0.207070
|  8> C     -0.316921   -1.266074   -0.173397
|  9> C     -0.338799    1.251562   -0.185476
| 10> C     -1.031529   -0.014315    0.318188
| 11> O     -2.389229   -0.097381   -0.127585
| 12> H      2.907050    0.026674    0.063303
| 13> H      1.897315    0.013456   -1.369367
| 14> H      1.659644   -2.140622   -0.189833
| 15> H      1.257836   -1.320104    1.302922
| 16> H      1.229487    1.346791    1.296330
| 17> H      1.621046    2.169628   -0.198474
| 18> H     -0.419613   -1.310640   -1.261741
| 19> H     -0.817792   -2.148289    0.228615
| 20> H     -0.850240    2.135483    0.207891
| 21> H     -0.437987    1.283978   -1.274557
| 22> H     -1.013629   -0.011453    1.417302
| 23> H     -2.862212    0.686872    0.167083
| 24> *
| 25>
| 26>                          ****END OF INPUT****

CARTESIAN COORDINATES (ANGSTROEM)
---------------------------------
  C      1.868671    0.015665   -0.274924
  C      1.165857   -1.254608    0.213738
  C      1.143210    1.275650    0.207070
  C     -0.316921   -1.266074   -0.173397
  C     -0.338799    1.251562   -0.185476
  C     -1.031529   -0.014315    0.318188
  O     -2.389229   -0.097381   -0.127585
  H      2.907050    0.026674    0.063303
  H      1.897315    0.013456   -1.369367
  H      1.659644   -2.140622   -0.189833
  H      1.257836   -1.320104    1.302922
  H      1.229487    1.346791    1.296330
  H      1.621046    2.169628   -0.198474
  H     -0.419613   -1.310640   -1.261741
  H     -0.817792   -2.148289    0.228615
  H     -0.850240    2.135483    0.207891
  H     -0.437987    1.283978   -1.274557
  H     -1.013629   -0.011453    1.417302
  H     -2.862212    0.686872    0.167083

 Total Charge           Charge          ....    0
 Multiplicity           Mult            ....    1
 Number of Electrons    NEL             ....   56
 Basis Dimension        Dim             .... 1112

ORBITAL ENERGIES
----------------

  NO   OCC          E(Eh)            E(eV)
   0   2.0000     -20.548131      -559.1431
   1   2.0000     -11.272008      -306.7269
   2   2.0000     -11.219552      -305.2995
   3   2.0000     -11.216848      -305.2260
   4   2.0000     -11.216636      -305.2202
   5   2.0000     -11.215969      -305.2020
   6   2.0000     -11.210673      -305.0579
   7   2.0000      -1.351798       -36.7843
   8   2.0000      -1.110713       -30.2241
   9   2.0000      -1.006370       -27.3847
  10   2.0000      -0.991547       -26.9814
  11   2.0000      -0.840656       -22.8754
  12   2.0000      -0.823301       -22.4032
  13   2.0000      -0.758672       -20.6445
  14   2.0000      -0.684927       -18.6378
  15   2.0000      -0.649229       -17.6664
  16   2.0000      -0.612968       -16.6797
  17   2.0000      -0.607227       -16.5235
  18   2.0000      -0.586274       -15.9533
  19   2.0000      -0.546700       -14.8765
  20   2.0000      -0.529297       -14.4029
  21   2.0000      -0.526916       -14.3381
  22   2.0000      -0.490451       -13.3458
  23   2.0000      -0.485353       -13.2071
  24   2.0000      -0.461889       -12.5686
  25   2.0000      -0.458631       -12.4800
  26   2.0000      -0.436133       -11.8678
  27   2.0000      -0.420684       -11.4474
  28   0.0000       0.025023         0.6809
  29   0.0000       0.029192         0.7944
  30   0.0000       0.031678         0.8620
  31   0.0000       0.034433         0.9370
  32   0.0000       0.045946         1.2503

MULLIKEN ATOMIC CHARGES
-----------------------
   0 C :   -0.399342
   1 C :   -0.462034
   2 C :   -0.440615
   3 C :   -0.495444
   4 C :   -0.546933
   5 C :    0.859346
   6 O :   -0.983930
   7 H :    0.246862
   8 H :    0.138294
   9 H :    0.244691
  10 H :    0.154749
  11 H :    0.169011
  12 H :    0.241750
  13 H :    0.166393
  14 H :    0.249996
  15 H :    0.214781
  16 H :    0.186813
  17 H :    0.161904
  18 H :    0.293708
Sum of atomic charges:    0.0000000

LOEWDIN ATOMIC CHARGES
----------------------
   0 C :    0.534753
   1 C :    0.536068
   2 C :    0.536456
   3 C :    0.507753
   4 C :    0.518775
   5 C :   -0.215598
   6 O :    1.294818
   7 H :   -0.261607
   8 H :   -0.265147
   9 H :   -0.261164
  10 H :   -0.264705
  11 H :   -0.264503
  12 H :   -0.260844
  13 H :   -0.270236
  14 H :   -0.263319
  15 H :   -0.263804
  16 H :   -0.269658
  17 H :   -0.281475
  18 H :   -0.786564

  Mayer bond orders larger than 0.100000
B(  0-C ,  1-C ) :   0.8782 B(  0-C ,  2-C ) :   0.8859 B(  0-C ,  7-H ) :   0.9495
B(  0-C ,  8-H ) :   1.0162 B(  1-C ,  3-C ) :   0.9464 B(  1-C ,  9-H ) :   0.9587
B(  1-C , 10-H ) :   0.9925 B(  2-C ,  4-C ) :   0.9004 B(  2-C , 11-H ) :   0.9721
B(  2-C , 12-H ) :   0.9609 B(  3-C ,  5-C ) :   0.7903 B(  3-C ,  6-O ) :   0.1262
B(  3-C , 13-H ) :   0.9724 B(  3-C , 14-H ) :   0.9620 B(  4-C ,  5-C ) :   0.8794
B(  4-C ,  6-O ) :   0.1965 B(  4-C , 15-H ) :   0.9665 B(  4-C , 16-H ) :   0.9334
B(  5-C ,  6-O ) :   0.1253 B(  5-C , 17-H ) :   1.0161 B(  6-O , 18-H ) :   0.9688

MP2 TOTAL ENERGY:     -310.564426799 Eh
FINAL SINGLE POINT ENERGY      -310.564426798617

DIPOLE MOMENT
-------------
                                X             Y             Z
Electronic contribution:     -3.94873      -0.28535      -0.08272
Nuclear contribution   :      4.34003       0.76677       0.40685
                        -----------------------------------------
Total Dipole Moment    :      0.39130       0.48142       0.32413
                        -----------------------------------------
Magnitude (a.u.)       :      0.69996
Magnitude (Debye)      :      1.77915

Rotational constants in cm-1:     0.143242     0.074175     0.053518
Rotational constants in MHz :  4294.274493  2223.698467  1604.423887

                             ****ORCA TERMINATED NORMALLY****
TOTAL RUN TIME: 0 days 1 hours 10 minutes 20 seconds 191 msec
