                         Program Version 5.0.4 -  RELEASE  -
|  1> !ri-mp2 aug-cc-pvqz aug-cc-pvqz/c tightscf
|  2> %pal nprocs 16 end
|  3>
|  4> * xyz 0 1
|  5> C     -2.749597   -0.147991    0.000003
|  6> C     -1.333822    0.314316    0.000006
|  7> C     -0.264018   -0.479484   -0.000015
|  8> C      1.099386    0.081029   -0.000004
|  9> O      1.398388    1.251758   -0.000006
| 10> O      2.037208   -0.903645    0.000010
| 11> H     -2.827857   -1.234217   -0.000022
| 12> H     -3.278292    0.239886    0.874582
| 13> H     -3.278303    0.239927   -0.874551
| 14> H     -1.161440    1.385990    0.000028
| 15> H     -0.351243   -1.557948   -0.000032
| 16> H      2.900674   -0.465762    0.000017
| 17> *
| 18>
| 19>                          ****END OF INPUT****

CARTESIAN COORDINATES (ANGSTROEM)
---------------------------------
  C     -2.749597   -0.147991    0.000003
  C     -1.333822    0.314316    0.000006
  C     -0.264018   -0.479484   -0.000015
  C      1.099386    0.081029   -0.000004
  O      1.398388    1.251758   -0.000006
  O      2.037208   -0.903645    0.000010
  H     -2.827857   -1.234217   -0.000022
  H     -3.278292    0.239886    0.874582
  H     -3.278303    0.239927   -0.874551
  H     -1.161440    1.385990    0.000028
  H     -0.351243   -1.557948   -0.000032
  H      2.900674   -0.465762    0.000017

 Total Charge           Charge          ....    0
 Multiplicity           Mult            ....    1
 Number of Electrons    NEL             ....   46
 Basis Dimension        Dim             ....  756

ORBITAL ENERGIES
----------------

  NO   OCC          E(Eh)            E(eV)
   0   2.0000     -20.605599      -560.7069
   1   2.0000     -20.538396      -558.8782
   2   2.0000     -11.383139      -309.7510
   3   2.0000     -11.267725      -306.6104
   4   2.0000     -11.240871      -305.8797
   5   2.0000     -11.239752      -305.8492
   6   2.0000      -1.457172       -39.6517
   7   2.0000      -1.353561       -36.8323
   8   2.0000      -1.102932       -30.0123
   9   2.0000      -0.986819       -26.8527
  10   2.0000      -0.865518       -23.5520
  11   2.0000      -0.757221       -20.6050
  12   2.0000      -0.705841       -19.2069
  13   2.0000      -0.697548       -18.9812
  14   2.0000      -0.627319       -17.0702
  15   2.0000      -0.612882       -16.6774
  16   2.0000      -0.600730       -16.3467
  17   2.0000      -0.586698       -15.9649
  18   2.0000      -0.554260       -15.0822
  19   2.0000      -0.525879       -14.3099
  20   2.0000      -0.485771       -13.2185
  21   2.0000      -0.451929       -12.2976
  22   2.0000      -0.383741       -10.4421
  23   0.0000       0.023364         0.6358
  24   0.0000       0.030907         0.8410
  25   0.0000       0.035484         0.9656
  26   0.0000       0.039845         1.0842
  27   0.0000       0.047842         1.3019

MULLIKEN ATOMIC CHARGES
-----------------------
   0 C :   -0.672342
   1 C :   -0.150387
   2 C :   -0.921048
   3 C :    1.216794
   4 O :   -0.750246
   5 O :   -0.695720
   6 H :    0.250646
   7 H :    0.234254
   8 H :    0.234255
   9 H :    0.474790
  10 H :    0.462156
  11 H :    0.316849
Sum of atomic charges:   -0.0000000

LOEWDIN ATOMIC CHARGES
----------------------
   0 C :    0.910215
   1 C :    0.361632
   2 C :    0.302704
   3 C :   -1.078947
   4 O :    0.683526
   5 O :    1.229981
   6 H :   -0.308398
   7 H :   -0.289718
   8 H :   -0.289718
   9 H :   -0.332227
  10 H :   -0.363311
  11 H :   -0.825736

  Mayer bond orders larger than 0.100000
B(  0-C ,  1-C ) :   0.8973 B(  0-C ,  2-C ) :  -0.1398 B(  0-C ,  6-H ) :   0.9499
B(  0-C ,  7-H ) :   0.9804 B(  0-C ,  8-H ) :   0.9804 B(  1-C ,  2-C ) :   1.4817
B(  1-C ,  3-C ) :  -0.2692 B(  1-C ,  9-H ) :   0.7098 B(  2-C ,  3-C ) :   1.2687
B(  2-C ,  4-O ) :   0.1099 B(  2-C ,  5-O ) :   0.1370 B(  2-C , 10-H ) :   0.7451
B(  3-C ,  4-O ) :   1.3809 B(  3-C ,  5-O ) :   0.8017 B(  5-O , 11-H ) :   0.9354

MP2 TOTAL ENERGY:     -306.038020601 Eh
FINAL SINGLE POINT ENERGY      -306.038020601390

DIPOLE MOMENT
-------------
                                X             Y             Z
Electronic contribution:      7.22051       0.84967      -0.00001
Nuclear contribution   :     -7.97010      -1.39149       0.00002
                        -----------------------------------------
Total Dipole Moment    :     -0.74960      -0.54182       0.00001
                        -----------------------------------------
Magnitude (a.u.)       :      0.92492
Magnitude (Debye)      :      2.35095

Rotational constants in cm-1:     0.335840     0.063440     0.053886
Rotational constants in MHz : 10068.219343  1901.882021  1615.469298

                             ****ORCA TERMINATED NORMALLY****
TOTAL RUN TIME: 0 days 0 hours 16 minutes 23 seconds 245 msec
