                         Program Version 5.0.4 -  RELEASE  -
|  1> !ri-mp2 aug-cc-pvqz aug-cc-pvqz/c tightscf
|  2> %pal nprocs 16 end
|  3>
|  4> * xyz 0 1
|  5> C      0.000000    0.000000   -0.527573
|  6> O      0.000000    0.000000   -1.683489
|  7> S      0.000000    0.000000    1.039584
|  8> *
|  9>
| 10>                          ****END OF INPUT****

CARTESIAN COORDINATES (ANGSTROEM)
---------------------------------
  C      0.000000    0.000000   -0.527573
  O      0.000000    0.000000   -1.683489
  S      0.000000    0.000000    1.039584

 Total Charge           Charge          ....    0
 Multiplicity           Mult            ....    1
 Number of Electrons    NEL             ....   30
 Basis Dimension        Dim             ....  244

ORBITAL ENERGIES
----------------

  NO   OCC          E(Eh)            E(eV)
   0   2.0000     -91.990236     -2503.1816
   1   2.0000     -20.657822      -562.1279
   2   2.0000     -11.436973      -311.2159
   3   2.0000      -8.994467      -244.7519
   4   2.0000      -6.676211      -181.6689
   5   2.0000      -6.673660      -181.5995
   6   2.0000      -6.673660      -181.5995
   7   2.0000      -1.507964       -41.0338
   8   2.0000      -1.088448       -29.6182
   9   2.0000      -0.780459       -21.2374
  10   2.0000      -0.660985       -17.9863
  11   2.0000      -0.660985       -17.9863
  12   2.0000      -0.637031       -17.3345
  13   2.0000      -0.420416       -11.4401
  14   2.0000      -0.420416       -11.4401
  15   0.0000       0.042074         1.1449
  16   0.0000       0.052818         1.4372
  17   0.0000       0.073666         2.0045
  18   0.0000       0.073666         2.0045
  19   0.0000       0.084942         2.3114

MULLIKEN ATOMIC CHARGES
-----------------------
   0 C :    0.222035
   1 O :   -0.465618
   2 S :    0.243583
Sum of atomic charges:   -0.0000000

LOEWDIN ATOMIC CHARGES
----------------------
   0 C :   -1.425801
   1 O :    0.488243
   2 S :    0.937558

  Mayer bond orders larger than 0.100000
B(  0-C ,  1-O ) :   1.9615 B(  0-C ,  2-S ) :   1.7680 B(  1-O ,  2-S ) :   0.1244

MP2 TOTAL ENERGY:     -510.943894775 Eh
FINAL SINGLE POINT ENERGY      -510.943894775166

DIPOLE MOMENT
-------------
                                X             Y             Z
Electronic contribution:     -0.00000      -0.00000       0.34538
Nuclear contribution   :      0.00000       0.00000      -0.05498
                        -----------------------------------------
Total Dipole Moment    :     -0.00000      -0.00000       0.29040
                        -----------------------------------------
Magnitude (a.u.)       :      0.29040
Magnitude (Debye)      :      0.73815

Rotational constants in cm-1:     0.000000     0.202288     0.202288
Rotational constants in MHz :     0.000000  6064.454708  6064.454708

                             ****ORCA TERMINATED NORMALLY****
TOTAL RUN TIME: 0 days 0 hours 0 minutes 39 seconds 137 msec
