                         Program Version 5.0.4 -  RELEASE  -
|  1> !ri-mp2 aug-cc-pvqz aug-cc-pvqz/c tightscf
|  2> %pal nprocs 16 end
|  3>
|  4> * xyz 0 1
|  5> C     -0.063692    1.072090    0.664505
|  6> C     -0.063692    1.072090   -0.664505
|  7> C     -0.063692   -0.324395    1.233989
|  8> C     -0.063692   -0.324395   -1.233989
|  9> C      0.247090   -1.207905    0.000000
| 10> H     -0.098837    1.958513    1.283789
| 11> H     -0.098837    1.958513   -1.283789
| 12> H      0.667358   -0.455946    2.034338
| 13> H     -1.041041   -0.560191    1.669221
| 14> H     -1.041041   -0.560191   -1.669221
| 15> H      0.667358   -0.455946   -2.034338
| 16> H      1.305988   -1.468869    0.000000
| 17> H     -0.314874   -2.140795    0.000000
| 18> *
| 19>
| 20>                          ****END OF INPUT****

CARTESIAN COORDINATES (ANGSTROEM)
---------------------------------
  C     -0.063692    1.072090    0.664505
  C     -0.063692    1.072090   -0.664505
  C     -0.063692   -0.324395    1.233989
  C     -0.063692   -0.324395   -1.233989
  C      0.247090   -1.207905    0.000000
  H     -0.098837    1.958513    1.283789
  H     -0.098837    1.958513   -1.283789
  H      0.667358   -0.455946    2.034338
  H     -1.041041   -0.560191    1.669221
  H     -1.041041   -0.560191   -1.669221
  H      0.667358   -0.455946   -2.034338
  H      1.305988   -1.468869    0.000000
  H     -0.314874   -2.140795    0.000000

 Total Charge           Charge          ....    0
 Multiplicity           Mult            ....    1
 Number of Electrons    NEL             ....   38
 Basis Dimension        Dim             ....  768

ORBITAL ENERGIES
----------------

  NO   OCC          E(Eh)            E(eV)
   0   2.0000     -11.219118      -305.2877
   1   2.0000     -11.219007      -305.2847
   2   2.0000     -11.218024      -305.2579
   3   2.0000     -11.216511      -305.2168
   4   2.0000     -11.216307      -305.2112
   5   2.0000      -1.126727       -30.6598
   6   2.0000      -0.961971       -26.1766
   7   2.0000      -0.954202       -25.9652
   8   2.0000      -0.785547       -21.3758
   9   2.0000      -0.721799       -19.6411
  10   2.0000      -0.671710       -18.2782
  11   2.0000      -0.633096       -17.2274
  12   2.0000      -0.549276       -14.9466
  13   2.0000      -0.532244       -14.4831
  14   2.0000      -0.488537       -13.2938
  15   2.0000      -0.486991       -13.2517
  16   2.0000      -0.483518       -13.1572
  17   2.0000      -0.472234       -12.8502
  18   2.0000      -0.340621        -9.2688
  19   0.0000       0.027809         0.7567
  20   0.0000       0.033873         0.9217
  21   0.0000       0.034357         0.9349
  22   0.0000       0.037125         1.0102
  23   0.0000       0.048061         1.3078

MULLIKEN ATOMIC CHARGES
-----------------------
   0 C :   -0.468878
   1 C :   -0.468878
   2 C :   -0.462547
   3 C :   -0.462547
   4 C :   -0.485941
   5 H :    0.410232
   6 H :    0.410232
   7 H :    0.253037
   8 H :    0.249394
   9 H :    0.249394
  10 H :    0.253037
  11 H :    0.273776
  12 H :    0.249688
Sum of atomic charges:    0.0000000

LOEWDIN ATOMIC CHARGES
----------------------
   0 C :    0.388454
   1 C :    0.388454
   2 C :    0.491202
   3 C :    0.491202
   4 C :    0.506678
   5 H :   -0.307707
   6 H :   -0.307707
   7 H :   -0.278914
   8 H :   -0.275171
   9 H :   -0.275171
  10 H :   -0.278914
  11 H :   -0.276540
  12 H :   -0.265866

  Mayer bond orders larger than 0.100000
B(  0-C ,  1-C ) :   1.6430 B(  0-C ,  2-C ) :   0.8764 B(  0-C ,  5-H ) :   0.8608
B(  1-C ,  3-C ) :   0.8764 B(  1-C ,  6-H ) :   0.8608 B(  2-C ,  4-C ) :   0.9690
B(  2-C ,  7-H ) :   0.9721 B(  2-C ,  8-H ) :   0.8892 B(  3-C ,  4-C ) :   0.9690
B(  3-C ,  9-H ) :   0.8892 B(  3-C , 10-H ) :   0.9721 B(  4-C , 11-H ) :   0.8882
B(  4-C , 12-H ) :   0.9392

MP2 TOTAL ENERGY:     -194.946062135 Eh
FINAL SINGLE POINT ENERGY      -194.946062134758

DIPOLE MOMENT
-------------
                                X             Y             Z
Electronic contribution:     -0.07491       1.71974      -0.00000
Nuclear contribution   :      0.04827      -1.80715      -0.00000
                        -----------------------------------------
Total Dipole Moment    :     -0.02664      -0.08741      -0.00000
                        -----------------------------------------
Magnitude (a.u.)       :      0.09138
Magnitude (Debye)      :      0.23227

Rotational constants in cm-1:     0.244142     0.241733     0.131443
Rotational constants in MHz :  7319.194736  7246.985568  3940.558187

                             ****ORCA TERMINATED NORMALLY****
TOTAL RUN TIME: 0 days 0 hours 17 minutes 59 seconds 843 msec
