                         Program Version 5.0.4 -  RELEASE  -
|  1> !ri-mp2 aug-cc-pvqz aug-cc-pvqz/c tightscf
|  2> %pal nprocs 16 end
|  3> %maxcore 3800
|  4>
|  5> * xyz 0 1
|  6> C      1.927322    0.636513   -0.258294
|  7> C      1.743892   -0.637759    0.593827
|  8> C      0.967529    1.802826    0.029936
|  9> C      1.010427   -1.805008   -0.082822
| 10> C     -0.389151   -1.492307   -0.630603
| 11> C     -2.508959   -0.040026   -0.047710
| 12> C     -1.316135    0.696622    0.507138
| 13> C     -1.283474   -0.807165    0.375253
| 14> C     -0.501762    1.619138   -0.377467
| 15> H      1.877073    0.382557   -1.322304
| 16> H      2.940001    1.013596   -0.097779
| 17> H      1.232847   -0.376497    1.523302
| 18> H      2.727826   -1.006927    0.892208
| 19> H      1.350022    2.683406   -0.493672
| 20> H      1.017205    2.045069    1.097068
| 21> H      0.931656   -2.621757    0.641307
| 22> H      1.627908   -2.187488   -0.901162
| 23> H     -0.854124   -2.427139   -0.957440
| 24> H     -2.696494    0.053458   -1.110254
| 25> H     -1.427595    1.064908    1.521416
| 26> H     -0.986303    2.600318   -0.368695
| 27> H     -0.546416    1.282133   -1.416116
| 28> H     -3.404364   -0.117946    0.553456
| 29> H     -0.305848   -0.875995   -1.527448
| 30> H     -1.381530   -1.348693    1.310563
| 31> *
| 32>
| 33>                          ****END OF INPUT****

CARTESIAN COORDINATES (ANGSTROEM)
---------------------------------
  C      1.927322    0.636513   -0.258294
  C      1.743892   -0.637759    0.593827
  C      0.967529    1.802826    0.029936
  C      1.010427   -1.805008   -0.082822
  C     -0.389151   -1.492307   -0.630603
  C     -2.508959   -0.040026   -0.047710
  C     -1.316135    0.696622    0.507138
  C     -1.283474   -0.807165    0.375253
  C     -0.501762    1.619138   -0.377467
  H      1.877073    0.382557   -1.322304
  H      2.940001    1.013596   -0.097779
  H      1.232847   -0.376497    1.523302
  H      2.727826   -1.006927    0.892208
  H      1.350022    2.683406   -0.493672
  H      1.017205    2.045069    1.097068
  H      0.931656   -2.621757    0.641307
  H      1.627908   -2.187488   -0.901162
  H     -0.854124   -2.427139   -0.957440
  H     -2.696494    0.053458   -1.110254
  H     -1.427595    1.064908    1.521416
  H     -0.986303    2.600318   -0.368695
  H     -0.546416    1.282133   -1.416116
  H     -3.404364   -0.117946    0.553456
  H     -0.305848   -0.875995   -1.527448
  H     -1.381530   -1.348693    1.310563

 Total Charge           Charge          ....    0
 Multiplicity           Mult            ....    1
 Number of Electrons    NEL             ....   70
 Basis Dimension        Dim             .... 1456

ORBITAL ENERGIES
----------------

  NO   OCC          E(Eh)            E(eV)
   0   2.0000     -11.219628      -305.3016
   1   2.0000     -11.218800      -305.2791
   2   2.0000     -11.214369      -305.1585
   3   2.0000     -11.212762      -305.1148
   4   2.0000     -11.212392      -305.1047
   5   2.0000     -11.212238      -305.1005
   6   2.0000     -11.211261      -305.0739
   7   2.0000     -11.211098      -305.0695
   8   2.0000     -11.208932      -305.0105
   9   2.0000      -1.149462       -31.2785
  10   2.0000      -1.071270       -29.1507
  11   2.0000      -1.040634       -28.3171
  12   2.0000      -0.955898       -26.0113
  13   2.0000      -0.911959       -24.8157
  14   2.0000      -0.824152       -22.4263
  15   2.0000      -0.793423       -21.5901
  16   2.0000      -0.778388       -21.1810
  17   2.0000      -0.724072       -19.7030
  18   2.0000      -0.667465       -18.1626
  19   2.0000      -0.628553       -17.1038
  20   2.0000      -0.621811       -16.9203
  21   2.0000      -0.590660       -16.0727
  22   2.0000      -0.579139       -15.7592
  23   2.0000      -0.565741       -15.3946
  24   2.0000      -0.544672       -14.8213
  25   2.0000      -0.520698       -14.1689
  26   2.0000      -0.504476       -13.7275
  27   2.0000      -0.494797       -13.4641
  28   2.0000      -0.477823       -13.0022
  29   2.0000      -0.475923       -12.9505
  30   2.0000      -0.449650       -12.2356
  31   2.0000      -0.446815       -12.1584
  32   2.0000      -0.436523       -11.8784
  33   2.0000      -0.390187       -10.6175
  34   2.0000      -0.383361       -10.4318
  35   0.0000       0.025713         0.6997
  36   0.0000       0.028926         0.7871
  37   0.0000       0.029432         0.8009
  38   0.0000       0.030548         0.8313
  39   0.0000       0.041862         1.1391

MULLIKEN ATOMIC CHARGES
-----------------------
   0 C :   -0.457691
   1 C :   -0.436655
   2 C :   -0.550801
   3 C :   -0.570908
   4 C :   -0.385784
   5 C :   -0.900626
   6 C :   -0.108645
   7 C :   -0.109074
   8 C :   -0.333364
   9 H :    0.262704
  10 H :    0.257141
  11 H :    0.277239
  12 H :    0.247335
  13 H :    0.184611
  14 H :    0.241801
  15 H :    0.171088
  16 H :    0.178219
  17 H :    0.303171
  18 H :    0.215681
  19 H :    0.269410
  20 H :    0.260595
  21 H :    0.166949
  22 H :    0.341775
  23 H :    0.182882
  24 H :    0.292949
Sum of atomic charges:   -0.0000000

LOEWDIN ATOMIC CHARGES
----------------------
   0 C :    0.559921
   1 C :    0.553776
   2 C :    0.557629
   3 C :    0.550181
   4 C :    0.547997
   5 C :    0.636666
   6 C :    0.193286
   7 C :    0.182929
   8 C :    0.553890
   9 H :   -0.274639
  10 H :   -0.275474
  11 H :   -0.285322
  12 H :   -0.271238
  13 H :   -0.272832
  14 H :   -0.269028
  15 H :   -0.267628
  16 H :   -0.265573
  17 H :   -0.256135
  18 H :   -0.269098
  19 H :   -0.254173
  20 H :   -0.263519
  21 H :   -0.294631
  22 H :   -0.260657
  23 H :   -0.303269
  24 H :   -0.253058

  Mayer bond orders larger than 0.100000
B(  0-C ,  1-C ) :   0.7796 B(  0-C ,  2-C ) :   0.8327 B(  0-C ,  9-H ) :   0.9716
B(  0-C , 10-H ) :   0.9956 B(  1-C ,  3-C ) :   0.8306 B(  1-C , 11-H ) :   0.9365
B(  1-C , 12-H ) :   0.9863 B(  2-C ,  8-C ) :   0.8342 B(  2-C , 13-H ) :   1.0465
B(  2-C , 14-H ) :   0.9331 B(  3-C ,  4-C ) :   0.9105 B(  3-C ,  7-C ) :  -0.1337
B(  3-C , 15-H ) :   1.0115 B(  3-C , 16-H ) :   1.0492 B(  4-C ,  7-C ) :   0.8094
B(  4-C , 17-H ) :   0.9256 B(  4-C , 23-H ) :   0.9159 B(  5-C ,  6-C ) :   0.9243
B(  5-C ,  7-C ) :   0.9260 B(  5-C , 18-H ) :   1.0549 B(  5-C , 22-H ) :   0.9789
B(  6-C ,  7-C ) :   0.5204 B(  6-C ,  8-C ) :   0.6964 B(  6-C , 19-H ) :   0.9746
B(  6-C , 20-H ) :  -0.1118 B(  7-C , 17-H ) :  -0.1035 B(  7-C , 24-H ) :   0.9341
B(  8-C , 20-H ) :   0.9519 B(  8-C , 21-H ) :   0.9947

MP2 TOTAL ENERGY:     -351.886660087 Eh
FINAL SINGLE POINT ENERGY      -351.886660087089

DIPOLE MOMENT
-------------
                                X             Y             Z
Electronic contribution:     -2.16728      -0.15808       0.71517
Nuclear contribution   :      2.22433       0.17250      -0.69375
                        -----------------------------------------
Total Dipole Moment    :      0.05705       0.01442       0.02143
                        -----------------------------------------
Magnitude (a.u.)       :      0.06262
Magnitude (Debye)      :      0.15918

Rotational constants in cm-1:     0.070635     0.053762     0.034970
Rotational constants in MHz :  2117.580178  1611.756988  1048.360863

                             ****ORCA TERMINATED NORMALLY****
TOTAL RUN TIME: 0 days 2 hours 23 minutes 12 seconds 45 msec
