                         Program Version 5.0.4 -  RELEASE  -
|  1> !ri-mp2 aug-cc-pvqz aug-cc-pvqz/c tightscf
|  2> %pal nprocs 16 end
|  3>
|  4> * xyz 0 1
|  5> Cl    -0.142353    1.682318    0.000006
|  6> S      0.908059   -1.112252   -0.000003
|  7> S     -1.983399   -0.651574   -0.000005
|  8> C     -0.475009   -0.060877    0.000000
|  9> C      2.395894   -0.059942    0.000003
| 10> H      2.437172    0.555719    0.893120
| 11> H      3.225785   -0.764724    0.000001
| 12> H      2.437174    0.555726   -0.893110
| 13> *
| 14>
| 15>                          ****END OF INPUT****

CARTESIAN COORDINATES (ANGSTROEM)
---------------------------------
  Cl    -0.142353    1.682318    0.000006
  S      0.908059   -1.112252   -0.000003
  S     -1.983399   -0.651574   -0.000005
  C     -0.475009   -0.060877    0.000000
  C      2.395894   -0.059942    0.000003
  H      2.437172    0.555719    0.893120
  H      3.225785   -0.764724    0.000001
  H      2.437174    0.555726   -0.893110

 Total Charge           Charge          ....    0
 Multiplicity           Mult            ....    1
 Number of Electrons    NEL             ....   64
 Basis Dimension        Dim             ....  550

ORBITAL ENERGIES
----------------

  NO   OCC          E(Eh)            E(eV)
   0   2.0000    -104.870315     -2853.6664
   1   2.0000     -92.002935     -2503.5271
   2   2.0000     -91.947925     -2502.0302
   3   2.0000     -11.410240      -310.4884
   4   2.0000     -11.281762      -306.9924
   5   2.0000     -10.595300      -288.3128
   6   2.0000      -9.004278      -245.0189
   7   2.0000      -8.951681      -243.5876
   8   2.0000      -8.062189      -219.3833
   9   2.0000      -8.060426      -219.3353
  10   2.0000      -8.060335      -219.3329
  11   2.0000      -6.685631      -181.9253
  12   2.0000      -6.684407      -181.8920
  13   2.0000      -6.683821      -181.8760
  14   2.0000      -6.632819      -180.4882
  15   2.0000      -6.631793      -180.4603
  16   2.0000      -6.630665      -180.4296
  17   2.0000      -1.193912       -32.4880
  18   2.0000      -1.079772       -29.3821
  19   2.0000      -1.028014       -27.9737
  20   2.0000      -0.911849       -24.8127
  21   2.0000      -0.728389       -19.8205
  22   2.0000      -0.638587       -17.3768
  23   2.0000      -0.623473       -16.9656
  24   2.0000      -0.604779       -16.4569
  25   2.0000      -0.554882       -15.0991
  26   2.0000      -0.541038       -14.7224
  27   2.0000      -0.492147       -13.3920
  28   2.0000      -0.460882       -12.5412
  29   2.0000      -0.442699       -12.0465
  30   2.0000      -0.357725        -9.7342
  31   2.0000      -0.353072        -9.6076
  32   0.0000       0.021328         0.5804
  33   0.0000       0.031369         0.8536
  34   0.0000       0.037388         1.0174
  35   0.0000       0.042003         1.1429
  36   0.0000       0.048196         1.3115

MULLIKEN ATOMIC CHARGES
-----------------------
   0 Cl:   -0.112326
   1 S :    0.424296
   2 S :    0.161577
   3 C :   -0.508370
   4 C :   -0.924986
   5 H :    0.277563
   6 H :    0.404683
   7 H :    0.277562
Sum of atomic charges:    0.0000000

LOEWDIN ATOMIC CHARGES
----------------------
   0 Cl:    0.990901
   1 S :    1.043185
   2 S :    0.801193
   3 C :   -2.149131
   4 C :    0.505828
   5 H :   -0.397584
   6 H :   -0.396808
   7 H :   -0.397583

  Mayer bond orders larger than 0.100000
B(  0-Cl,  3-C ) :   0.8763 B(  1-S ,  3-C ) :   1.0802 B(  1-S ,  4-C ) :   0.9945
B(  2-S ,  3-C ) :   1.5950 B(  4-C ,  5-H ) :   0.9253 B(  4-C ,  6-H ) :   0.8087
B(  4-C ,  7-H ) :   0.9253

MP2 TOTAL ENERGY:    -1333.063732762 Eh
FINAL SINGLE POINT ENERGY     -1333.063732762462

DIPOLE MOMENT
-------------
                                X             Y             Z
Electronic contribution:     -6.49310       2.16123       0.00000
Nuclear contribution   :      7.91410      -1.90394       0.00000
                        -----------------------------------------
Total Dipole Moment    :      1.42100       0.25729       0.00000
                        -----------------------------------------
Magnitude (a.u.)       :      1.44411
Magnitude (Debye)      :      3.67063

Rotational constants in cm-1:     0.107726     0.067848     0.041962
Rotational constants in MHz :  3229.555309  2034.026039  1258.000685

                             ****ORCA TERMINATED NORMALLY****
TOTAL RUN TIME: 0 days 0 hours 8 minutes 8 seconds 188 msec
