                         Program Version 5.0.4 -  RELEASE  -
|  1> !ri-mp2 aug-cc-pvqz aug-cc-pvqz/c tightscf
|  2> %pal nprocs 16 end
|  3>
|  4> * xyz 0 1
|  5> C     0.000000     0.000000   -1.138108
|  6> Cl    0.000000     0.000000    0.662444
|  7> H     0.000000     1.030124   -1.477634
|  8> H     0.892114    -0.515062   -1.477634
|  9> H    -0.892114    -0.515062   -1.477634
| 10> *
| 11>
| 12>                          ****END OF INPUT****

CARTESIAN COORDINATES (ANGSTROEM)
---------------------------------
  C      0.000000    0.000000   -1.138108
  Cl     0.000000    0.000000    0.662444
  H      0.000000    1.030124   -1.477634
  H      0.892114   -0.515062   -1.477634
  H     -0.892114   -0.515062   -1.477634

 Total Charge           Charge          ....    0
 Multiplicity           Mult            ....    1
 Number of Electrons    NEL             ....   26
 Basis Dimension        Dim             ....  302

ORBITAL ENERGIES
----------------

  NO   OCC          E(Eh)            E(eV)
   0   2.0000    -104.824075     -2852.4081
   1   2.0000     -11.291323      -307.2525
   2   2.0000     -10.549240      -287.0594
   3   2.0000      -8.016336      -218.1356
   4   2.0000      -8.014657      -218.0899
   5   2.0000      -8.014657      -218.0899
   6   2.0000      -1.122968       -30.5575
   7   2.0000      -0.916974       -24.9521
   8   2.0000      -0.618195       -16.8219
   9   2.0000      -0.618195       -16.8219
  10   2.0000      -0.541808       -14.7433
  11   2.0000      -0.436084       -11.8664
  12   2.0000      -0.436084       -11.8664
  13   0.0000       0.024948         0.6789
  14   0.0000       0.041613         1.1323
  15   0.0000       0.041613         1.1323
  16   0.0000       0.055688         1.5153
  17   0.0000       0.097625         2.6565

MULLIKEN ATOMIC CHARGES
-----------------------
   0 C :   -0.681958
   1 Cl:   -0.194516
   2 H :    0.292158
   3 H :    0.292158
   4 H :    0.292158
Sum of atomic charges:    0.0000000

LOEWDIN ATOMIC CHARGES
----------------------
   0 C :    0.248061
   1 Cl:    1.021662
   2 H :   -0.423241
   3 H :   -0.423241
   4 H :   -0.423241

  Mayer bond orders larger than 0.100000
B(  0-C ,  1-Cl) :   0.9314 B(  0-C ,  2-H ) :   0.8930 B(  0-C ,  3-H ) :   0.8930
B(  0-C ,  4-H ) :   0.8930

MP2 TOTAL ENERGY:     -499.561753581 Eh
FINAL SINGLE POINT ENERGY      -499.561753581057

DIPOLE MOMENT
-------------
                                X             Y             Z
Electronic contribution:      0.00000       0.00000       4.34577
Nuclear contribution   :      0.00000       0.00000      -5.20392
                        -----------------------------------------
Total Dipole Moment    :      0.00000       0.00000      -0.85815
                        -----------------------------------------
Magnitude (a.u.)       :      0.85815
Magnitude (Debye)      :      2.18124

Rotational constants in cm-1:     5.253345     0.434965     0.434965
Rotational constants in MHz : 157491.307458 13039.918156 13039.917615

                             ****ORCA TERMINATED NORMALLY****
TOTAL RUN TIME: 0 days 0 hours 0 minutes 50 seconds 24 msec
