                         Program Version 5.0.4 -  RELEASE  -
|  1> !ri-mp2 aug-cc-pvqz aug-cc-pvqz/c tightscf
|  2> %pal nprocs 16 end
|  3>
|  4> * xyz 0 1
|  5> N     -1.375785    0.000002    0.012410
|  6> N      1.116606    0.000001   -0.079764
|  7> C     -0.221237   -0.000004   -0.000219
|  8> H      1.570840    0.843614    0.236395
|  9> H      1.570840   -0.843611    0.236395
| 10> *
| 11>
| 12>                          ****END OF INPUT****

CARTESIAN COORDINATES (ANGSTROEM)
---------------------------------
  N     -1.375785    0.000002    0.012410
  N      1.116606    0.000001   -0.079764
  C     -0.221237   -0.000004   -0.000219
  H      1.570840    0.843614    0.236395
  H      1.570840   -0.843611    0.236395

 Total Charge           Charge          ....    0
 Multiplicity           Mult            ....    1
 Number of Electrons    NEL             ....   22
 Basis Dimension        Dim             ....  332

ORBITAL ENERGIES
----------------

  NO   OCC          E(Eh)            E(eV)
   0   2.0000     -15.630597      -425.3302
   1   2.0000     -15.560825      -423.4316
   2   2.0000     -11.305667      -307.6428
   3   2.0000      -1.284869       -34.9631
   4   2.0000      -1.192494       -32.4494
   5   2.0000      -0.800857       -21.7924
   6   2.0000      -0.747789       -20.3484
   7   2.0000      -0.578834       -15.7509
   8   2.0000      -0.556465       -15.1422
   9   2.0000      -0.466977       -12.7071
  10   2.0000      -0.417680       -11.3657
  11   0.0000       0.012523         0.3408
  12   0.0000       0.034256         0.9322
  13   0.0000       0.064271         1.7489
  14   0.0000       0.068651         1.8681
  15   0.0000       0.086369         2.3502

MULLIKEN ATOMIC CHARGES
-----------------------
   0 N :   -0.598589
   1 N :   -0.725002
   2 C :    0.627929
   3 H :    0.347832
   4 H :    0.347831
Sum of atomic charges:   -0.0000000

LOEWDIN ATOMIC CHARGES
----------------------
   0 N :    0.348717
   1 N :    1.169889
   2 C :   -0.479308
   3 H :   -0.519648
   4 H :   -0.519651

  Mayer bond orders larger than 0.100000
B(  0-N ,  2-C ) :   2.7397 B(  1-N ,  2-C ) :   1.2038 B(  1-N ,  3-H ) :   0.8424
B(  1-N ,  4-H ) :   0.8424

MP2 TOTAL ENERGY:     -148.569947756 Eh
FINAL SINGLE POINT ENERGY      -148.569947756076

DIPOLE MOMENT
-------------
                                X             Y             Z
Electronic contribution:     -1.24380      -0.00000      -0.08565
Nuclear contribution   :      3.08613       0.00000       0.46427
                        -----------------------------------------
Total Dipole Moment    :      1.84233      -0.00000       0.37862
                        -----------------------------------------
Magnitude (a.u.)       :      1.88083
Magnitude (Debye)      :      4.78069

Rotational constants in cm-1:    10.397620     0.340519     0.332144
Rotational constants in MHz : 311712.817653 10208.498957  9957.439031

                             ****ORCA TERMINATED NORMALLY****
TOTAL RUN TIME: 0 days 0 hours 1 minutes 3 seconds 741 msec
