                         Program Version 5.0.4 -  RELEASE  -
|  1> !ri-mp2 aug-cc-pvqz aug-cc-pvqz/c tightscf
|  2> %pal nprocs 16 end
|  3>
|  4> * xyz 0 1
|  5> Cl    -1.385401   -0.338103    0.000000
|  6> N      2.297547   -0.400037    0.000000
|  7> C      0.000000    0.819137    0.000000
|  8> C      1.275830    0.126036    0.000000
|  9> H     -0.092993    1.438487    0.887765
| 10> H     -0.092993    1.438487   -0.887765
| 11> *
| 12>
| 13>                          ****END OF INPUT****

CARTESIAN COORDINATES (ANGSTROEM)
---------------------------------
  Cl    -1.385401   -0.338103    0.000000
  N      2.297547   -0.400037    0.000000
  C      0.000000    0.819137    0.000000
  C      1.275830    0.126036    0.000000
  H     -0.092993    1.438487    0.887765
  H     -0.092993    1.438487   -0.887765

 Total Charge           Charge          ....    0
 Multiplicity           Mult            ....    1
 Number of Electrons    NEL             ....   38
 Basis Dimension        Dim             ....  416

ORBITAL ENERGIES
----------------

  NO   OCC          E(Eh)            E(eV)
   0   2.0000    -104.862945     -2853.4658
   1   2.0000     -15.592504      -424.2936
   2   2.0000     -11.361260      -309.1556
   3   2.0000     -11.294823      -307.3477
   4   2.0000     -10.587783      -288.1082
   5   2.0000      -8.054849      -219.1836
   6   2.0000      -8.052947      -219.1318
   7   2.0000      -8.052902      -219.1306
   8   2.0000      -1.246753       -33.9259
   9   2.0000      -1.169056       -31.8116
  10   2.0000      -1.000323       -27.2202
  11   2.0000      -0.739320       -20.1179
  12   2.0000      -0.687006       -18.6944
  13   2.0000      -0.610221       -16.6050
  14   2.0000      -0.578754       -15.7487
  15   2.0000      -0.494917       -13.4674
  16   2.0000      -0.490509       -13.3474
  17   2.0000      -0.472055       -12.8453
  18   2.0000      -0.466606       -12.6970
  19   0.0000       0.019907         0.5417
  20   0.0000       0.034328         0.9341
  21   0.0000       0.048152         1.3103
  22   0.0000       0.053931         1.4675
  23   0.0000       0.083945         2.2843

MULLIKEN ATOMIC CHARGES
-----------------------
   0 Cl:   -0.180421
   1 N :   -0.561066
   2 C :   -0.335579
   3 C :    0.368006
   4 H :    0.354530
   5 H :    0.354530
Sum of atomic charges:   -0.0000000

LOEWDIN ATOMIC CHARGES
----------------------
   0 Cl:    1.112317
   1 N :    0.390136
   2 C :   -0.236830
   3 C :   -0.405715
   4 H :   -0.429954
   5 H :   -0.429954

  Mayer bond orders larger than 0.100000
B(  0-Cl,  2-C ) :   0.9350 B(  1-N ,  3-C ) :   2.6584 B(  2-C ,  3-C ) :   1.0003
B(  2-C ,  4-H ) :   0.8344 B(  2-C ,  5-H ) :   0.8344

MP2 TOTAL ENERGY:     -591.661373351 Eh
FINAL SINGLE POINT ENERGY      -591.661373350961

DIPOLE MOMENT
-------------
                                X             Y             Z
Electronic contribution:     -2.53030      -2.06445      -0.00000
Nuclear contribution   :      1.71051       3.17457       0.00000
                        -----------------------------------------
Total Dipole Moment    :     -0.81979       1.11012      -0.00000
                        -----------------------------------------
Magnitude (a.u.)       :      1.38001
Magnitude (Debye)      :      3.50769

Rotational constants in cm-1:     0.844577     0.103233     0.093612
Rotational constants in MHz : 25319.777353  3094.850633  2806.431557

                             ****ORCA TERMINATED NORMALLY****
TOTAL RUN TIME: 0 days 0 hours 1 minutes 51 seconds 586 msec
