                         Program Version 5.0.4 -  RELEASE  -
|  1> !ri-mp2 aug-cc-pvqz aug-cc-pvqz/c tightscf
|  2> %pal nprocs 16 end
|  3>
|  4> * xyz 0 1
|  5> Cl    -1.452562   -0.235201    0.000013
|  6> O      2.214395   -0.375124    0.000033
|  7> C      0.002567    0.726842   -0.000115
|  8> C      1.175372    0.139924   -0.000030
|  9> H     -0.089246    1.798809    0.000383
| 10> *
| 11>
| 12>                          ****END OF INPUT****

CARTESIAN COORDINATES (ANGSTROEM)
---------------------------------
  Cl    -1.452562   -0.235201    0.000013
  O      2.214395   -0.375124    0.000033
  C      0.002567    0.726842   -0.000115
  C      1.175372    0.139924   -0.000030
  H     -0.089246    1.798809    0.000383

 Total Charge           Charge          ....    0
 Multiplicity           Mult            ....    1
 Number of Electrons    NEL             ....   38
 Basis Dimension        Dim             ....  370

ORBITAL ENERGIES
----------------

  NO   OCC          E(Eh)            E(eV)
   0   2.0000    -104.863057     -2853.4689
   1   2.0000     -20.648957      -561.8867
   2   2.0000     -11.401610      -310.2536
   3   2.0000     -11.306483      -307.6650
   4   2.0000     -10.587068      -288.0888
   5   2.0000      -8.054300      -219.1686
   6   2.0000      -8.052368      -219.1161
   7   2.0000      -8.052179      -219.1109
   8   2.0000      -1.493814       -40.6488
   9   2.0000      -1.173664       -31.9370
  10   2.0000      -1.020821       -27.7780
  11   2.0000      -0.774697       -21.0806
  12   2.0000      -0.717351       -19.5201
  13   2.0000      -0.667496       -18.1635
  14   2.0000      -0.648381       -17.6434
  15   2.0000      -0.575089       -15.6490
  16   2.0000      -0.520239       -14.1564
  17   2.0000      -0.476125       -12.9560
  18   2.0000      -0.363997        -9.9049
  19   0.0000       0.023591         0.6419
  20   0.0000       0.047648         1.2966
  21   0.0000       0.050723         1.3802
  22   0.0000       0.072883         1.9832
  23   0.0000       0.081240         2.2107

MULLIKEN ATOMIC CHARGES
-----------------------
   0 Cl:   -0.080181
   1 O :   -0.576341
   2 C :   -0.613138
   3 C :    0.771008
   4 H :    0.498652
Sum of atomic charges:    0.0000000

LOEWDIN ATOMIC CHARGES
----------------------
   0 Cl:    1.041534
   1 O :    0.616504
   2 C :   -0.514563
   3 C :   -0.616298
   4 H :   -0.527177

  Mayer bond orders larger than 0.100000
B(  0-Cl,  2-C ) :   0.9853 B(  1-O ,  2-C ) :   0.1408 B(  1-O ,  3-C ) :   1.8011
B(  2-C ,  3-C ) :   1.7702 B(  2-C ,  4-H ) :   0.7046

MP2 TOTAL ENERGY:     -611.501102032 Eh
FINAL SINGLE POINT ENERGY      -611.501102032357

DIPOLE MOMENT
-------------
                                X             Y             Z
Electronic contribution:     -1.98102      -1.41289      -0.00012
Nuclear contribution   :      1.88842       1.98697       0.00034
                        -----------------------------------------
Total Dipole Moment    :     -0.09259       0.57408       0.00022
                        -----------------------------------------
Magnitude (a.u.)       :      0.58150
Magnitude (Debye)      :      1.47806

Rotational constants in cm-1:     1.204645     0.099276     0.091717
Rotational constants in MHz : 36114.361304  2976.214606  2749.616434

                             ****ORCA TERMINATED NORMALLY****
TOTAL RUN TIME: 0 days 0 hours 1 minutes 59 seconds 623 msec
