                         Program Version 5.0.4 -  RELEASE  -
|  1> !ri-mp2 aug-cc-pvqz aug-cc-pvqz/c tightscf
|  2> %pal nprocs 16 end
|  3>
|  4> * xyz 0 1
|  5> C     -0.270459   -0.778426    0.000000
|  6> C      0.336510    1.596630    0.743093
|  7> C      0.336510    1.596630   -0.743093
|  8> C      0.710072    0.327080    0.000000
|  9> O     -1.472192   -0.658476    0.000000
| 10> O      0.336510   -1.992090    0.000000
| 11> H      1.135578    2.100682    1.266594
| 12> H     -0.620002    1.590351    1.244203
| 13> H     -0.620002    1.590351   -1.244203
| 14> H      1.135578    2.100682   -1.266594
| 15> H      1.746444    0.027754    0.000000
| 16> H     -0.367938   -2.656783    0.000000
| 17> *
| 18>
| 19>                          ****END OF INPUT****

CARTESIAN COORDINATES (ANGSTROEM)
---------------------------------
  C     -0.270459   -0.778426    0.000000
  C      0.336510    1.596630    0.743093
  C      0.336510    1.596630   -0.743093
  C      0.710072    0.327080    0.000000
  O     -1.472192   -0.658476    0.000000
  O      0.336510   -1.992090    0.000000
  H      1.135578    2.100682    1.266594
  H     -0.620002    1.590351    1.244203
  H     -0.620002    1.590351   -1.244203
  H      1.135578    2.100682   -1.266594
  H      1.746444    0.027754    0.000000
  H     -0.367938   -2.656783    0.000000

 Total Charge           Charge          ....    0
 Multiplicity           Mult            ....    1
 Number of Electrons    NEL             ....   46
 Basis Dimension        Dim             ....  756

ORBITAL ENERGIES
----------------

  NO   OCC          E(Eh)            E(eV)
   0   2.0000     -20.609115      -560.8025
   1   2.0000     -20.541408      -558.9601
   2   2.0000     -11.385140      -309.8054
   3   2.0000     -11.252110      -306.1855
   4   2.0000     -11.245703      -306.0111
   5   2.0000     -11.244986      -305.9916
   6   2.0000      -1.461379       -39.7661
   7   2.0000      -1.357875       -36.9496
   8   2.0000      -1.163994       -31.6739
   9   2.0000      -0.934912       -25.4403
  10   2.0000      -0.839716       -22.8498
  11   2.0000      -0.781118       -21.2553
  12   2.0000      -0.724173       -19.7057
  13   2.0000      -0.700450       -19.0602
  14   2.0000      -0.649505       -17.6739
  15   2.0000      -0.629959       -17.1421
  16   2.0000      -0.616071       -16.7641
  17   2.0000      -0.560825       -15.2608
  18   2.0000      -0.534225       -14.5370
  19   2.0000      -0.488475       -13.2921
  20   2.0000      -0.460011       -12.5175
  21   2.0000      -0.446217       -12.1422
  22   2.0000      -0.430947       -11.7267
  23   0.0000       0.025006         0.6804
  24   0.0000       0.031584         0.8594
  25   0.0000       0.035434         0.9642
  26   0.0000       0.037440         1.0188
  27   0.0000       0.050317         1.3692

MULLIKEN ATOMIC CHARGES
-----------------------
   0 C :    1.153083
   1 C :   -0.653998
   2 C :   -0.653997
   3 C :   -0.648717
   4 O :   -0.755639
   5 O :   -0.724197
   6 H :    0.372310
   7 H :    0.369329
   8 H :    0.369328
   9 H :    0.372310
  10 H :    0.482506
  11 H :    0.317682
Sum of atomic charges:    0.0000000

LOEWDIN ATOMIC CHARGES
----------------------
   0 C :   -1.023167
   1 C :    0.590568
   2 C :    0.590568
   3 C :    0.092831
   4 O :    0.717915
   5 O :    1.252119
   6 H :   -0.266557
   7 H :   -0.285127
   8 H :   -0.285127
   9 H :   -0.266557
  10 H :   -0.298051
  11 H :   -0.819415

  Mayer bond orders larger than 0.100000
B(  0-C ,  3-C ) :   1.0751 B(  0-C ,  4-O ) :   1.4136 B(  0-C ,  5-O ) :   0.7425
B(  1-C ,  2-C ) :   1.1152 B(  1-C ,  3-C ) :   0.8968 B(  1-C ,  6-H ) :   0.8451
B(  1-C ,  7-H ) :   0.8334 B(  2-C ,  3-C ) :   0.8968 B(  2-C ,  8-H ) :   0.8334
B(  2-C ,  9-H ) :   0.8451 B(  3-C ,  4-O ) :   0.1311 B(  3-C ,  5-O ) :   0.1319
B(  3-C , 10-H ) :   0.7146 B(  5-O , 11-H ) :   0.9417

MP2 TOTAL ENERGY:     -306.031461383 Eh
FINAL SINGLE POINT ENERGY      -306.031461382627

DIPOLE MOMENT
-------------
                                X             Y             Z
Electronic contribution:     -1.66540      -4.54070       0.00000
Nuclear contribution   :      2.40013       4.72775       0.00000
                        -----------------------------------------
Total Dipole Moment    :      0.73473       0.18705       0.00000
                        -----------------------------------------
Magnitude (a.u.)       :      0.75817
Magnitude (Debye)      :      1.92711

Rotational constants in cm-1:     0.255236     0.090177     0.078867
Rotational constants in MHz :  7651.768849  2703.453404  2364.386855

                             ****ORCA TERMINATED NORMALLY****
TOTAL RUN TIME: 0 days 0 hours 19 minutes 20 seconds 76 msec
