                         Program Version 5.0.4 -  RELEASE  -
|  1> !ri-mp2 aug-cc-pvqz aug-cc-pvqz/c tightscf
|  2> %pal nprocs 16 end
|  3>
|  4> * xyz 0 1
|  5> C      0.570687   -0.092261    0.000000
|  6> F      0.570687   -0.879813    1.088316
|  7> F      0.570687   -0.879813   -1.088316
|  8> Cl    -0.890989    0.932054    0.000000
|  9> H      1.450337    0.545289    0.000000
| 10> *
| 11>
| 12>                          ****END OF INPUT****

CARTESIAN COORDINATES (ANGSTROEM)
---------------------------------
  C      0.570687   -0.092261    0.000000
  F      0.570687   -0.879813    1.088316
  F      0.570687   -0.879813   -1.088316
  Cl    -0.890989    0.932054    0.000000
  H      1.450337    0.545289    0.000000

 Total Charge           Charge          ....    0
 Multiplicity           Mult            ....    1
 Number of Electrons    NEL             ....   42
 Basis Dimension        Dim             ....  370

ORBITAL ENERGIES
----------------

  NO   OCC          E(Eh)            E(eV)
   0   2.0000    -104.863146     -2853.4713
   1   2.0000     -26.344194      -716.8620
   2   2.0000     -26.344174      -716.8614
   3   2.0000     -11.489287      -312.6394
   4   2.0000     -10.588931      -288.1395
   5   2.0000      -8.055917      -219.2126
   6   2.0000      -8.054127      -219.1639
   7   2.0000      -8.054085      -219.1628
   8   2.0000      -1.702759       -46.3344
   9   2.0000      -1.637585       -44.5609
  10   2.0000      -1.158568       -31.5262
  11   2.0000      -0.956918       -26.0391
  12   2.0000      -0.820089       -22.3158
  13   2.0000      -0.798254       -21.7216
  14   2.0000      -0.770353       -20.9624
  15   2.0000      -0.699416       -19.0321
  16   2.0000      -0.665621       -18.1125
  17   2.0000      -0.652439       -17.7538
  18   2.0000      -0.552356       -15.0304
  19   2.0000      -0.488492       -13.2926
  20   2.0000      -0.484232       -13.1766
  21   0.0000       0.026480         0.7206
  22   0.0000       0.053662         1.4602
  23   0.0000       0.067711         1.8425
  24   0.0000       0.068384         1.8608
  25   0.0000       0.092849         2.5266

MULLIKEN ATOMIC CHARGES
-----------------------
   0 C :    0.752591
   1 F :   -0.515630
   2 F :   -0.515630
   3 Cl:   -0.111480
   4 H :    0.390149
Sum of atomic charges:    0.0000000

LOEWDIN ATOMIC CHARGES
----------------------
   0 C :   -1.834021
   1 F :    0.676208
   2 F :    0.676208
   3 Cl:    1.025769
   4 H :   -0.544164

  Mayer bond orders larger than 0.100000
B(  0-C ,  1-F ) :   0.6785 B(  0-C ,  2-F ) :   0.6785 B(  0-C ,  3-Cl) :   1.0470
B(  0-C ,  4-H ) :   0.7620

MP2 TOTAL ENERGY:     -697.896917560 Eh
FINAL SINGLE POINT ENERGY      -697.896917559620

DIPOLE MOMENT
-------------
                                X             Y             Z
Electronic contribution:     -0.98015      -0.42454      -0.00000
Nuclear contribution   :      1.45759       0.86629       0.00000
                        -----------------------------------------
Total Dipole Moment    :      0.47744       0.44174      -0.00000
                        -----------------------------------------
Magnitude (a.u.)       :      0.65045
Magnitude (Debye)      :      1.65332

Rotational constants in cm-1:     0.339296     0.157365     0.114330
Rotational constants in MHz : 10171.849170  4717.682365  3427.516198

                             ****ORCA TERMINATED NORMALLY****
TOTAL RUN TIME: 0 days 0 hours 1 minutes 43 seconds 541 msec
