                         Program Version 5.0.4 -  RELEASE  -
|  1> !ri-mp2 aug-cc-pvqz aug-cc-pvqz/c tightscf
|  2> %pal nprocs 16 end
|  3>
|  4> * xyz 0 1
|  5> C      0.783809    0.783809    0.783809
|  6> C     -0.783809    0.783809    0.783809
|  7> C      0.783809    0.783809   -0.783809
|  8> C     -0.783809    0.783809   -0.783809
|  9> C      0.783809   -0.783809    0.783809
| 10> C     -0.783809   -0.783809    0.783809
| 11> C      0.783809   -0.783809   -0.783809
| 12> C     -0.783809   -0.783809   -0.783809
| 13> H      1.410999    1.410999    1.410999
| 14> H     -1.410999    1.410999    1.410999
| 15> H      1.410999    1.410999   -1.410999
| 16> H     -1.410999    1.410999   -1.410999
| 17> H      1.410999   -1.410999    1.410999
| 18> H     -1.410999   -1.410999    1.410999
| 19> H      1.410999   -1.410999   -1.410999
| 20> H     -1.410999   -1.410999   -1.410999
| 21> *
| 22>
| 23>                          ****END OF INPUT****

CARTESIAN COORDINATES (ANGSTROEM)
---------------------------------
  C      0.783809    0.783809    0.783809
  C     -0.783809    0.783809    0.783809
  C      0.783809    0.783809   -0.783809
  C     -0.783809    0.783809   -0.783809
  C      0.783809   -0.783809    0.783809
  C     -0.783809   -0.783809    0.783809
  C      0.783809   -0.783809   -0.783809
  C     -0.783809   -0.783809   -0.783809
  H      1.410999    1.410999    1.410999
  H     -1.410999    1.410999    1.410999
  H      1.410999    1.410999   -1.410999
  H     -1.410999    1.410999   -1.410999
  H      1.410999   -1.410999    1.410999
  H     -1.410999   -1.410999    1.410999
  H      1.410999   -1.410999   -1.410999
  H     -1.410999   -1.410999   -1.410999

 Total Charge           Charge          ....    0
 Multiplicity           Mult            ....    1
 Number of Electrons    NEL             ....   56
 Basis Dimension        Dim             .... 1008

ORBITAL ENERGIES
----------------

  NO   OCC          E(Eh)            E(eV)
   0   2.0000     -11.220264      -305.3189
   1   2.0000     -11.219767      -305.3054
   2   2.0000     -11.219767      -305.3054
   3   2.0000     -11.219767      -305.3054
   4   2.0000     -11.219259      -305.2916
   5   2.0000     -11.219259      -305.2916
   6   2.0000     -11.219259      -305.2916
   7   2.0000     -11.218735      -305.2773
   8   2.0000      -1.242607       -33.8131
   9   2.0000      -0.977488       -26.5988
  10   2.0000      -0.977488       -26.5988
  11   2.0000      -0.977488       -26.5988
  12   2.0000      -0.767345       -20.8805
  13   2.0000      -0.767345       -20.8805
  14   2.0000      -0.767345       -20.8805
  15   2.0000      -0.709900       -19.3174
  16   2.0000      -0.641357       -17.4522
  17   2.0000      -0.579839       -15.7782
  18   2.0000      -0.579839       -15.7782
  19   2.0000      -0.579839       -15.7782
  20   2.0000      -0.578864       -15.7517
  21   2.0000      -0.578864       -15.7517
  22   2.0000      -0.390174       -10.6172
  23   2.0000      -0.390174       -10.6172
  24   2.0000      -0.390174       -10.6172
  25   2.0000      -0.383219       -10.4279
  26   2.0000      -0.383219       -10.4279
  27   2.0000      -0.383219       -10.4279
  28   0.0000       0.023942         0.6515
  29   0.0000       0.029461         0.8017
  30   0.0000       0.029461         0.8017
  31   0.0000       0.029462         0.8017
  32   0.0000       0.042472         1.1557

MULLIKEN ATOMIC CHARGES
-----------------------
   0 C :   -0.339279
   1 C :   -0.339087
   2 C :   -0.338991
   3 C :   -0.339443
   4 C :   -0.338958
   5 C :   -0.339203
   6 C :   -0.339324
   7 C :   -0.339101
   8 H :    0.339283
   9 H :    0.339367
  10 H :    0.339199
  11 H :    0.339107
  12 H :    0.339135
  13 H :    0.339195
  14 H :    0.338999
  15 H :    0.339099
Sum of atomic charges:    0.0000000

LOEWDIN ATOMIC CHARGES
----------------------
   0 C :    0.230829
   1 C :    0.230829
   2 C :    0.230829
   3 C :    0.230829
   4 C :    0.230829
   5 C :    0.230829
   6 C :    0.230829
   7 C :    0.230829
   8 H :   -0.230829
   9 H :   -0.230829
  10 H :   -0.230829
  11 H :   -0.230829
  12 H :   -0.230829
  13 H :   -0.230829
  14 H :   -0.230829
  15 H :   -0.230829

  Mayer bond orders larger than 0.100000
B(  0-C ,  1-C ) :   0.6730 B(  0-C ,  2-C ) :   0.6729 B(  0-C ,  3-C ) :  -0.1235
B(  0-C ,  4-C ) :   0.6729 B(  0-C ,  5-C ) :  -0.1236 B(  0-C ,  6-C ) :  -0.1234
B(  0-C ,  7-C ) :   0.1398 B(  0-C ,  8-H ) :   1.1017 B(  1-C ,  2-C ) :  -0.1236
B(  1-C ,  3-C ) :   0.6727 B(  1-C ,  4-C ) :  -0.1235 B(  1-C ,  5-C ) :   0.6729
B(  1-C ,  6-C ) :   0.1396 B(  1-C ,  7-C ) :  -0.1235 B(  1-C ,  9-H ) :   1.1015
B(  2-C ,  3-C ) :   0.6725 B(  2-C ,  4-C ) :  -0.1234 B(  2-C ,  5-C ) :   0.1397
B(  2-C ,  6-C ) :   0.6722 B(  2-C ,  7-C ) :  -0.1234 B(  2-C , 10-H ) :   1.1018
B(  3-C ,  4-C ) :   0.1396 B(  3-C ,  5-C ) :  -0.1234 B(  3-C ,  6-C ) :  -0.1231
B(  3-C ,  7-C ) :   0.6723 B(  3-C , 11-H ) :   1.1020 B(  4-C ,  5-C ) :   0.6730
B(  4-C ,  6-C ) :   0.6725 B(  4-C ,  7-C ) :  -0.1233 B(  4-C , 12-H ) :   1.1018
B(  5-C ,  6-C ) :  -0.1234 B(  5-C ,  7-C ) :   0.6728 B(  5-C , 13-H ) :   1.1017
B(  6-C ,  7-C ) :   0.6722 B(  6-C , 14-H ) :   1.1021 B(  7-C , 15-H ) :   1.1019

MP2 TOTAL ENERGY:     -308.885792206 Eh
FINAL SINGLE POINT ENERGY      -308.885792206318

DIPOLE MOMENT
-------------
                                X             Y             Z
Electronic contribution:      0.00000       0.00000       0.00000
Nuclear contribution   :      0.00000       0.00000       0.00000
                        -----------------------------------------
Total Dipole Moment    :      0.00000       0.00000       0.00000
                        -----------------------------------------
Magnitude (a.u.)       :      0.00000
Magnitude (Debye)      :      0.00000

Rotational constants in cm-1:     0.112254     0.112254     0.112254
Rotational constants in MHz :  3365.290272  3365.290272  3365.290272

                             ****ORCA TERMINATED NORMALLY****
TOTAL RUN TIME: 0 days 0 hours 53 minutes 45 seconds 654 msec
