                         Program Version 5.0.4 -  RELEASE  -
|  1> !ri-mp2 aug-cc-pvqz aug-cc-pvqz/c tightscf
|  2> %pal nprocs 16 end
|  3>
|  4> * xyz 0 1
|  5> C      1.602438    0.009053   -0.031364
|  6> C     -1.371859    0.746330   -0.653168
|  7> C     -1.307418   -0.806205   -0.645590
|  8> C     -0.501396    1.220231    0.531175
|  9> C     -0.485334   -1.190374    0.598276
| 10> C      0.432357    0.028014    0.847230
| 11> N      2.515785   -0.006019   -0.731269
| 12> H     -0.984080    1.137519   -1.592694
| 13> H     -2.392524    1.113594   -0.555555
| 14> H     -2.295941   -1.262646   -0.625195
| 15> H     -0.810388   -1.165675   -1.546124
| 16> H      0.045306    2.137508    0.322211
| 17> H     -1.117683    1.398437    1.413455
| 18> H     -1.132932   -1.299095    1.469966
| 19> H      0.067826   -2.119975    0.478891
| 20> H      0.797203    0.060175    1.874581
| 21> *
| 22>
| 23>                          ****END OF INPUT****

CARTESIAN COORDINATES (ANGSTROEM)
---------------------------------
  C      1.602438    0.009053   -0.031364
  C     -1.371859    0.746330   -0.653168
  C     -1.307418   -0.806205   -0.645590
  C     -0.501396    1.220231    0.531175
  C     -0.485334   -1.190374    0.598276
  C      0.432357    0.028014    0.847230
  N      2.515785   -0.006019   -0.731269
  H     -0.984080    1.137519   -1.592694
  H     -2.392524    1.113594   -0.555555
  H     -2.295941   -1.262646   -0.625195
  H     -0.810388   -1.165675   -1.546124
  H      0.045306    2.137508    0.322211
  H     -1.117683    1.398437    1.413455
  H     -1.132932   -1.299095    1.469966
  H      0.067826   -2.119975    0.478891
  H      0.797203    0.060175    1.874581

 Total Charge           Charge          ....    0
 Multiplicity           Mult            ....    1
 Number of Electrons    NEL             ....   52
 Basis Dimension        Dim             ....  974

ORBITAL ENERGIES
----------------

  NO   OCC          E(Eh)            E(eV)
   0   2.0000     -15.560409      -423.4203
   1   2.0000     -11.278180      -306.8949
   2   2.0000     -11.264197      -306.5144
   3   2.0000     -11.243798      -305.9593
   4   2.0000     -11.243738      -305.9577
   5   2.0000     -11.231695      -305.6300
   6   2.0000     -11.231081      -305.6133
   7   2.0000      -1.218160       -33.1478
   8   2.0000      -1.146952       -31.2101
   9   2.0000      -1.005273       -27.3549
  10   2.0000      -0.986489       -26.8437
  11   2.0000      -0.845817       -23.0159
  12   2.0000      -0.795404       -21.6440
  13   2.0000      -0.701085       -19.0775
  14   2.0000      -0.680428       -18.5154
  15   2.0000      -0.633066       -17.2266
  16   2.0000      -0.605147       -16.4669
  17   2.0000      -0.558542       -15.1987
  18   2.0000      -0.528550       -14.3826
  19   2.0000      -0.522536       -14.2189
  20   2.0000      -0.512801       -13.9540
  21   2.0000      -0.498844       -13.5742
  22   2.0000      -0.489868       -13.3300
  23   2.0000      -0.476078       -12.9547
  24   2.0000      -0.450172       -12.2498
  25   2.0000      -0.443719       -12.0742
  26   0.0000       0.019800         0.5388
  27   0.0000       0.028966         0.7882
  28   0.0000       0.030869         0.8400
  29   0.0000       0.036068         0.9815
  30   0.0000       0.046797         1.2734

MULLIKEN ATOMIC CHARGES
-----------------------
   0 C :    0.540884
   1 C :   -0.491297
   2 C :   -0.525763
   3 C :   -0.613869
   4 C :   -0.605676
   5 C :   -0.220811
   6 N :   -0.798375
   7 H :    0.218145
   8 H :    0.300567
   9 H :    0.319842
  10 H :    0.217667
  11 H :    0.349418
  12 H :    0.238198
  13 H :    0.237884
  14 H :    0.349622
  15 H :    0.483565
Sum of atomic charges:   -0.0000000

LOEWDIN ATOMIC CHARGES
----------------------
   0 C :   -0.267218
   1 C :    0.561381
   2 C :    0.555519
   3 C :    0.527584
   4 C :    0.522934
   5 C :    0.040675
   6 N :    0.436780
   7 H :   -0.265890
   8 H :   -0.262901
   9 H :   -0.260193
  10 H :   -0.267863
  11 H :   -0.258735
  12 H :   -0.261440
  13 H :   -0.259497
  14 H :   -0.256469
  15 H :   -0.284670

  Mayer bond orders larger than 0.100000
B(  0-C ,  5-C ) :   1.0736 B(  0-C ,  6-N ) :   2.3076 B(  1-C ,  2-C ) :   0.9571
B(  1-C ,  3-C ) :   0.9914 B(  1-C ,  7-H ) :   0.9690 B(  1-C ,  8-H ) :   0.8825
B(  2-C ,  4-C ) :   1.0062 B(  2-C ,  9-H ) :   0.8674 B(  2-C , 10-H ) :   0.9619
B(  3-C ,  5-C ) :   0.9117 B(  3-C , 11-H ) :   0.8342 B(  3-C , 12-H ) :   0.9544
B(  4-C ,  5-C ) :   0.8936 B(  4-C , 13-H ) :   0.9524 B(  4-C , 14-H ) :   0.8228
B(  5-C , 15-H ) :   0.6818

MP2 TOTAL ENERGY:     -288.281396194 Eh
FINAL SINGLE POINT ENERGY      -288.281396194472

DIPOLE MOMENT
-------------
                                X             Y             Z
Electronic contribution:      6.49817       0.01566      -0.38410
Nuclear contribution   :     -8.01483      -0.00020       1.26789
                        -----------------------------------------
Total Dipole Moment    :     -1.51666       0.01546       0.88379
                        -----------------------------------------
Magnitude (a.u.)       :      1.75544
Magnitude (Debye)      :      4.46198

Rotational constants in cm-1:     0.146181     0.072140     0.066403
Rotational constants in MHz :  4382.395183  2162.690934  1990.711728

                             ****ORCA TERMINATED NORMALLY****
TOTAL RUN TIME: 0 days 0 hours 40 minutes 2 seconds 784 msec
