                         Program Version 5.0.4 -  RELEASE  -
|  1> !ri-mp2 aug-cc-pvqz aug-cc-pvqz/c tightscf
|  2> %pal nprocs 16 end
|  3>
|  4> * xyz 0 1
|  5> C      0.000000    0.000000    0.000000
|  6> O      0.000000    0.000000    1.160386
|  7> O      0.000000    0.000000   -1.160386
|  8> *
|  9>
| 10>                          ****END OF INPUT****

CARTESIAN COORDINATES (ANGSTROEM)
---------------------------------
  C      0.000000    0.000000    0.000000
  O      0.000000    0.000000    1.160386
  O      0.000000    0.000000   -1.160386

 Total Charge           Charge          ....    0
 Multiplicity           Mult            ....    1
 Number of Electrons    NEL             ....   22
 Basis Dimension        Dim             ....  240

ORBITAL ENERGIES
----------------

  NO   OCC          E(Eh)            E(eV)
   0   2.0000     -20.650293      -561.9230
   1   2.0000     -20.650248      -561.9218
   2   2.0000     -11.459517      -311.8293
   3   2.0000      -1.531112       -41.6637
   4   2.0000      -1.477936       -40.2167
   5   2.0000      -0.800938       -21.7946
   6   2.0000      -0.743805       -20.2400
   7   2.0000      -0.715939       -19.4817
   8   2.0000      -0.715939       -19.4817
   9   2.0000      -0.544981       -14.8297
  10   2.0000      -0.544981       -14.8297
  11   0.0000       0.041419         1.1271
  12   0.0000       0.063374         1.7245
  13   0.0000       0.063374         1.7245
  14   0.0000       0.069071         1.8795
  15   0.0000       0.129039         3.5113

MULLIKEN ATOMIC CHARGES
-----------------------
   0 C :    1.000862
   1 O :   -0.500431
   2 O :   -0.500431
Sum of atomic charges:   -0.0000000

LOEWDIN ATOMIC CHARGES
----------------------
   0 C :   -1.134907
   1 O :    0.567454
   2 O :    0.567454

  Mayer bond orders larger than 0.100000
B(  0-C ,  1-O ) :   1.9916 B(  0-C ,  2-O ) :   1.9916 B(  1-O ,  2-O ) :   0.1782

MP2 TOTAL ENERGY:     -188.373663148 Eh
FINAL SINGLE POINT ENERGY      -188.373663147742

DIPOLE MOMENT
-------------
                                X             Y             Z
Electronic contribution:      0.00000       0.00000       0.00000
Nuclear contribution   :      0.00000       0.00000       0.00000
                        -----------------------------------------
Total Dipole Moment    :      0.00000       0.00000       0.00000
                        -----------------------------------------
Magnitude (a.u.)       :      0.00000
Magnitude (Debye)      :      0.00000

Rotational constants in cm-1:     0.000000     0.391263     0.391263
Rotational constants in MHz :     0.000000 11729.778443 11729.778443

                             ****ORCA TERMINATED NORMALLY****
TOTAL RUN TIME: 0 days 0 hours 0 minutes 41 seconds 573 msec
