                         Program Version 5.0.4 -  RELEASE  -
|  1> !ri-mp2 aug-cc-pvqz aug-cc-pvqz/c tightscf
|  2> %pal nprocs 16 end
|  3>
|  4> * xyz 0 1
|  5> C     0.000000     0.868264    0.000000
|  6> C    -0.751939    -0.434132    0.000000
|  7> C     0.751939    -0.434132    0.000000
|  8> H     1.260331    -0.727653    0.907443
|  9> H     0.000000     1.455305    0.907443
| 10> H     1.260331    -0.727653   -0.907443
| 11> H    -1.260331    -0.727653    0.907443
| 12> H    -1.260331    -0.727653   -0.907443
| 13> H     0.000000     1.455305   -0.907443
| 14> *
| 15>
| 16>                          ****END OF INPUT****

CARTESIAN COORDINATES (ANGSTROEM)
---------------------------------
  C      0.000000    0.868264    0.000000
  C     -0.751939   -0.434132    0.000000
  C      0.751939   -0.434132    0.000000
  H      1.260331   -0.727653    0.907443
  H      0.000000    1.455305    0.907443
  H      1.260331   -0.727653   -0.907443
  H     -1.260331   -0.727653    0.907443
  H     -1.260331   -0.727653   -0.907443
  H      0.000000    1.455305   -0.907443

 Total Charge           Charge          ....    0
 Multiplicity           Mult            ....    1
 Number of Electrons    NEL             ....   24
 Basis Dimension        Dim             ....  516

ORBITAL ENERGIES
----------------

  NO   OCC          E(Eh)            E(eV)
   0   2.0000     -11.221555      -305.3540
   1   2.0000     -11.220527      -305.3261
   2   2.0000     -11.220527      -305.3261
   3   2.0000      -1.130824       -30.7713
   4   2.0000      -0.818032       -22.2598
   5   2.0000      -0.818032       -22.2598
   6   2.0000      -0.667306       -18.1583
   7   2.0000      -0.627832       -17.0842
   8   2.0000      -0.511876       -13.9288
   9   2.0000      -0.511876       -13.9288
  10   2.0000      -0.419580       -11.4174
  11   2.0000      -0.419580       -11.4174
  12   0.0000       0.029877         0.8130
  13   0.0000       0.036304         0.9879
  14   0.0000       0.037561         1.0221
  15   0.0000       0.037561         1.0221
  16   0.0000       0.055659         1.5146

MULLIKEN ATOMIC CHARGES
-----------------------
   0 C :   -0.740010
   1 C :   -0.740007
   2 C :   -0.740007
   3 H :    0.370004
   4 H :    0.370004
   5 H :    0.370004
   6 H :    0.370004
   7 H :    0.370004
   8 H :    0.370004
Sum of atomic charges:    0.0000000

LOEWDIN ATOMIC CHARGES
----------------------
   0 C :    0.570836
   1 C :    0.570836
   2 C :    0.570836
   3 H :   -0.285418
   4 H :   -0.285418
   5 H :   -0.285418
   6 H :   -0.285418
   7 H :   -0.285418
   8 H :   -0.285418

  Mayer bond orders larger than 0.100000
B(  0-C ,  1-C ) :   1.0430 B(  0-C ,  2-C ) :   1.0430 B(  0-C ,  4-H ) :   0.8244
B(  0-C ,  8-H ) :   0.8244 B(  1-C ,  2-C ) :   1.0430 B(  1-C ,  6-H ) :   0.8244
B(  1-C ,  7-H ) :   0.8244 B(  2-C ,  3-H ) :   0.8244 B(  2-C ,  5-H ) :   0.8244

MP2 TOTAL ENERGY:     -117.660186823 Eh
FINAL SINGLE POINT ENERGY      -117.660186822604

DIPOLE MOMENT
-------------
                                X             Y             Z
Electronic contribution:      0.00000       0.00000       0.00000
Nuclear contribution   :      0.00000      -0.00000       0.00000
                        -----------------------------------------
Total Dipole Moment    :      0.00000       0.00000       0.00000
                        -----------------------------------------
Magnitude (a.u.)       :      0.00000
Magnitude (Debye)      :      0.00000

Rotational constants in cm-1:     0.675193     0.675193     0.421717
Rotational constants in MHz : 20241.788982 20241.782849 12642.770324

                             ****ORCA TERMINATED NORMALLY****
TOTAL RUN TIME: 0 days 0 hours 4 minutes 45 seconds 206 msec
