                         Program Version 5.0.4 -  RELEASE  -
|  1> !ri-mp2 aug-cc-pvqz aug-cc-pvqz/c tightscf
|  2> %pal nprocs 16 end
|  3>
|  4> * xyz 0 1
|  5> C     -0.320050    0.416085    0.000000
|  6> H     -1.260116    0.962973    0.000000
|  7> N      0.903346    1.179214    0.000000
|  8> C     -0.320050   -0.882833    0.753840
|  9> C     -0.320050   -0.882833   -0.753840
| 10> H      0.970739    1.771825    0.818204
| 11> H      0.970739    1.771825   -0.818204
| 12> H     -1.223024   -1.176047    1.270152
| 13> H     -1.223024   -1.176047   -1.270152
| 14> H      0.601086   -1.155773    1.247962
| 15> H      0.601086   -1.155773   -1.247962
| 16> *
| 17>
| 18>                          ****END OF INPUT****

CARTESIAN COORDINATES (ANGSTROEM)
---------------------------------
  C     -0.320050    0.416085    0.000000
  H     -1.260116    0.962973    0.000000
  N      0.903346    1.179214    0.000000
  C     -0.320050   -0.882833    0.753840
  C     -0.320050   -0.882833   -0.753840
  H      0.970739    1.771825    0.818204
  H      0.970739    1.771825   -0.818204
  H     -1.223024   -1.176047    1.270152
  H     -1.223024   -1.176047   -1.270152
  H      0.601086   -1.155773    1.247962
  H      0.601086   -1.155773   -1.247962

 Total Charge           Charge          ....    0
 Multiplicity           Mult            ....    1
 Number of Electrons    NEL             ....   32
 Basis Dimension        Dim             ....  642

ORBITAL ENERGIES
----------------

  NO   OCC          E(Eh)            E(eV)
   0   2.0000     -15.540358      -422.8746
   1   2.0000     -11.252080      -306.1847
   2   2.0000     -11.216637      -305.2202
   3   2.0000     -11.215972      -305.2021
   4   2.0000      -1.198413       -32.6105
   5   2.0000      -1.086614       -29.5683
   6   2.0000      -0.820101       -22.3161
   7   2.0000      -0.790695       -21.5159
   8   2.0000      -0.680543       -18.5185
   9   2.0000      -0.646662       -17.5966
  10   2.0000      -0.622715       -16.9449
  11   2.0000      -0.548501       -14.9255
  12   2.0000      -0.510054       -13.8793
  13   2.0000      -0.443388       -12.0652
  14   2.0000      -0.409739       -11.1496
  15   2.0000      -0.382103       -10.3975
  16   0.0000       0.026633         0.7247
  17   0.0000       0.035426         0.9640
  18   0.0000       0.035897         0.9768
  19   0.0000       0.037267         1.0141
  20   0.0000       0.052728         1.4348

MULLIKEN ATOMIC CHARGES
-----------------------
   0 C :   -0.273225
   1 H :    0.502293
   2 N :   -0.667739
   3 C :   -0.740786
   4 C :   -0.740786
   5 H :    0.227192
   6 H :    0.227192
   7 H :    0.373590
   8 H :    0.373590
   9 H :    0.359339
  10 H :    0.359339
Sum of atomic charges:    0.0000000

LOEWDIN ATOMIC CHARGES
----------------------
   0 C :   -0.025192
   1 H :   -0.272973
   2 N :    1.278994
   3 C :    0.582991
   4 C :    0.582991
   5 H :   -0.506620
   6 H :   -0.506620
   7 H :   -0.280041
   8 H :   -0.280041
   9 H :   -0.286745
  10 H :   -0.286745

  Mayer bond orders larger than 0.100000
B(  0-C ,  1-H ) :   0.6532 B(  0-C ,  2-N ) :   0.8198 B(  0-C ,  3-C ) :   0.9686
B(  0-C ,  4-C ) :   0.9686 B(  2-N ,  5-H ) :   0.9454 B(  2-N ,  6-H ) :   0.9454
B(  3-C ,  4-C ) :   1.0527 B(  3-C ,  7-H ) :   0.8392 B(  3-C ,  9-H ) :   0.8591
B(  4-C ,  8-H ) :   0.8392 B(  4-C , 10-H ) :   0.8591

MP2 TOTAL ENERGY:     -172.939731355 Eh
FINAL SINGLE POINT ENERGY      -172.939731354702

DIPOLE MOMENT
-------------
                                X             Y             Z
Electronic contribution:      0.25648       0.54016       0.00000
Nuclear contribution   :     -0.58651      -0.15799       0.00000
                        -----------------------------------------
Total Dipole Moment    :     -0.33003       0.38217       0.00000
                        -----------------------------------------
Magnitude (a.u.)       :      0.50495
Magnitude (Debye)      :      1.28348

Rotational constants in cm-1:     0.548551     0.223624     0.192794
Rotational constants in MHz : 16445.152267  6704.068889  5779.829964

                             ****ORCA TERMINATED NORMALLY****
TOTAL RUN TIME: 0 days 0 hours 6 minutes 37 seconds 99 msec
