                         Program Version 5.0.4 -  RELEASE  -
|  1> !ri-mp2 aug-cc-pvqz aug-cc-pvqz/c tightscf
|  2> %pal nprocs 16 end
|  3>
|  4> * xyz 0 1
|  5> H     -0.839567   -2.094249    0.000000
|  6> H      0.927182   -2.122428    0.000000
|  7> C      0.054138   -1.475036    0.000000
|  8> O     -0.153392    1.866794    0.000000
|  9> C     -0.034224    0.676084    0.000000
| 10> H      0.974306   -0.304588    1.688889
| 11> H      0.974306   -0.304588   -1.688889
| 12> H     -0.789114   -0.376716    1.798667
| 13> H     -0.789114   -0.376716   -1.798667
| 14> C      0.054138   -0.380113    1.107874
| 15> C      0.054138   -0.380113   -1.107874
| 16> *
| 17>
| 18>                          ****END OF INPUT****

CARTESIAN COORDINATES (ANGSTROEM)
---------------------------------
  H     -0.839567   -2.094249    0.000000
  H      0.927182   -2.122428    0.000000
  C      0.054138   -1.475036    0.000000
  O     -0.153392    1.866794    0.000000
  C     -0.034224    0.676084    0.000000
  H      0.974306   -0.304588    1.688889
  H      0.974306   -0.304588   -1.688889
  H     -0.789114   -0.376716    1.798667
  H     -0.789114   -0.376716   -1.798667
  C      0.054138   -0.380113    1.107874
  C      0.054138   -0.380113   -1.107874

 Total Charge           Charge          ....    0
 Multiplicity           Mult            ....    1
 Number of Electrons    NEL             ....   38
 Basis Dimension        Dim             ....  676

ORBITAL ENERGIES
----------------

  NO   OCC          E(Eh)            E(eV)
   0   2.0000     -20.550810      -559.2160
   1   2.0000     -11.330720      -308.3246
   2   2.0000     -11.241827      -305.9057
   3   2.0000     -11.240354      -305.8656
   4   2.0000     -11.240235      -305.8623
   5   2.0000      -1.393988       -37.9323
   6   2.0000      -1.135048       -30.8862
   7   2.0000      -0.935291       -25.4506
   8   2.0000      -0.868612       -23.6361
   9   2.0000      -0.727536       -19.7972
  10   2.0000      -0.668134       -18.1809
  11   2.0000      -0.666651       -18.1405
  12   2.0000      -0.618419       -16.8280
  13   2.0000      -0.567318       -15.4375
  14   2.0000      -0.543565       -14.7912
  15   2.0000      -0.508118       -13.8266
  16   2.0000      -0.485759       -13.2182
  17   2.0000      -0.480603       -13.0779
  18   2.0000      -0.399197       -10.8627
  19   0.0000       0.023776         0.6470
  20   0.0000       0.032884         0.8948
  21   0.0000       0.034018         0.9257
  22   0.0000       0.038191         1.0392
  23   0.0000       0.050383         1.3710

MULLIKEN ATOMIC CHARGES
-----------------------
   0 H :    0.294497
   1 H :    0.286564
   2 C :   -0.546975
   3 O :   -0.812602
   4 C :    0.813888
   5 H :    0.312060
   6 H :    0.312060
   7 H :    0.314644
   8 H :    0.314644
   9 C :   -0.644390
  10 C :   -0.644390
Sum of atomic charges:   -0.0000000

LOEWDIN ATOMIC CHARGES
----------------------
   0 H :   -0.275004
   1 H :   -0.272612
   2 C :    0.520160
   3 O :    0.681471
   4 C :   -0.642190
   5 H :   -0.275097
   6 H :   -0.275097
   7 H :   -0.273359
   8 H :   -0.273359
   9 C :    0.542544
  10 C :    0.542544

  Mayer bond orders larger than 0.100000
B(  0-H ,  2-C ) :   0.8673 B(  1-H ,  2-C ) :   0.8814 B(  2-C ,  4-C ) :  -0.1310
B(  2-C ,  9-C ) :   1.0441 B(  2-C , 10-C ) :   1.0441 B(  3-O ,  4-C ) :   1.2194
B(  3-O ,  9-C ) :   0.1344 B(  3-O , 10-C ) :   0.1344 B(  4-C ,  9-C ) :   1.0377
B(  4-C , 10-C ) :   1.0377 B(  5-H ,  9-C ) :   0.8572 B(  6-H , 10-C ) :   0.8572
B(  7-H ,  9-C ) :   0.8603 B(  8-H , 10-C ) :   0.8603

MP2 TOTAL ENERGY:     -230.849558564 Eh
FINAL SINGLE POINT ENERGY      -230.849558564335

DIPOLE MOMENT
-------------
                                X             Y             Z
Electronic contribution:     -0.32975       4.28971       0.00000
Nuclear contribution   :      0.46387      -5.65087       0.00000
                        -----------------------------------------
Total Dipole Moment    :      0.13412      -1.36116       0.00000
                        -----------------------------------------
Magnitude (a.u.)       :      1.36775
Magnitude (Debye)      :      3.47654

Rotational constants in cm-1:     0.362115     0.160413     0.118675
Rotational constants in MHz : 10855.926986  4809.060266  3557.778230

                             ****ORCA TERMINATED NORMALLY****
TOTAL RUN TIME: 0 days 0 hours 13 minutes 52 seconds 587 msec
