                         Program Version 5.0.4 -  RELEASE  -
|  1> !ri-mp2 aug-cc-pvqz aug-cc-pvqz/c tightscf
|  2> %pal nprocs 16 end
|  3>
|  4> * xyz 0 1
|  5> C      0.000000    0.510905        0.000000
|  6> O     -0.797403    1.370426        0.000000
|  7> Cl    -0.321200   -1.202070        0.000000
|  8> F      1.315513    0.711817        0.000000
|  9> *
| 10>
| 11>                          ****END OF INPUT****

CARTESIAN COORDINATES (ANGSTROEM)
---------------------------------
  C      0.000000    0.510905    0.000000
  O     -0.797403    1.370426    0.000000
  Cl    -0.321200   -1.202070    0.000000
  F      1.315513    0.711817    0.000000

 Total Charge           Charge          ....    0
 Multiplicity           Mult            ....    1
 Number of Electrons    NEL             ....   40
 Basis Dimension        Dim             ....  324

ORBITAL ENERGIES
----------------

  NO   OCC          E(Eh)            E(eV)
   0   2.0000    -104.897023     -2854.3931
   1   2.0000     -26.375098      -717.7029
   2   2.0000     -20.620500      -561.1123
   3   2.0000     -11.502692      -313.0042
   4   2.0000     -10.622214      -289.0451
   5   2.0000      -8.089265      -220.1201
   6   2.0000      -8.087294      -220.0664
   7   2.0000      -8.087172      -220.0631
   8   2.0000      -1.705451       -46.4077
   9   2.0000      -1.479422       -40.2571
  10   2.0000      -1.181548       -32.1516
  11   2.0000      -0.899591       -24.4791
  12   2.0000      -0.784322       -21.3425
  13   2.0000      -0.768178       -20.9032
  14   2.0000      -0.757431       -20.6108
  15   2.0000      -0.655002       -17.8235
  16   2.0000      -0.601767       -16.3749
  17   2.0000      -0.542686       -14.7672
  18   2.0000      -0.507853       -13.8194
  19   2.0000      -0.503747       -13.7077
  20   0.0000       0.042697         1.1618
  21   0.0000       0.062402         1.6981
  22   0.0000       0.069044         1.8788
  23   0.0000       0.072533         1.9737
  24   0.0000       0.093799         2.5524

MULLIKEN ATOMIC CHARGES
-----------------------
   0 C :    0.827228
   1 O :   -0.451302
   2 Cl:    0.039119
   3 F :   -0.415045
Sum of atomic charges:   -0.0000000

LOEWDIN ATOMIC CHARGES
----------------------
   0 C :   -2.126655
   1 O :    0.481809
   2 Cl:    1.026797
   3 F :    0.618049

  Mayer bond orders larger than 0.100000
B(  0-C ,  1-O ) :   1.9159 B(  0-C ,  2-Cl) :   1.1208 B(  0-C ,  3-F ) :   0.8086

MP2 TOTAL ENERGY:     -672.688201587 Eh
FINAL SINGLE POINT ENERGY      -672.688201586954

DIPOLE MOMENT
-------------
                                X             Y             Z
Electronic contribution:      0.96045      -1.51510       0.00000
Nuclear contribution   :     -0.77639       0.94597       0.00000
                        -----------------------------------------
Total Dipole Moment    :      0.18405      -0.56913       0.00000
                        -----------------------------------------
Magnitude (a.u.)       :      0.59815
Magnitude (Debye)      :      1.52038

Rotational constants in cm-1:     0.393272     0.172266     0.119793
Rotational constants in MHz : 11789.983597  5164.402210  3591.295965

                             ****ORCA TERMINATED NORMALLY****
TOTAL RUN TIME: 0 days 0 hours 1 minutes 17 seconds 436 msec
