                         Program Version 5.0.4 -  RELEASE  -
|  1> !ri-mp2 aug-cc-pvqz aug-cc-pvqz/c tightscf
|  2> %pal nprocs 16 end
|  3> %maxcore 3800
|  4>
|  5> * xyz 0 1
|  6> C      1.737280    0.792495   -0.479503
|  7> C      2.019870   -0.672323   -0.100223
|  8> C      0.725512    1.538451    0.401741
|  9> C      0.827926   -1.495424    0.414755
| 10> C     -0.739200    1.302862    0.010037
| 11> C     -0.519506   -1.262644   -0.283540
| 12> C     -1.315360   -0.085645    0.291439
| 13> O     -2.684418   -0.139555   -0.132940
| 14> H      2.688253    1.329635   -0.472454
| 15> H      1.383423    0.840676   -1.513335
| 16> H      2.448382   -1.170470   -0.973960
| 17> H      2.799085   -0.698261    0.666057
| 18> H      0.880078    1.290425    1.456387
| 19> H      0.917245    2.610333    0.318106
| 20> H      1.092130   -2.551954    0.338093
| 21> H      0.690935   -1.308620    1.483722
| 22> H     -1.377340    2.026147    0.521809
| 23> H     -0.844172    1.505605   -1.063458
| 24> H     -0.381135   -1.129922   -1.362564
| 25> H     -1.146124   -2.147322   -0.159163
| 26> H     -1.374227   -0.226165    1.374425
| 27> H     -2.720326    0.039705   -1.078385
| 28> *
| 29>
| 30>                          ****END OF INPUT****

CARTESIAN COORDINATES (ANGSTROEM)
---------------------------------
  C      1.737280    0.792495   -0.479503
  C      2.019870   -0.672323   -0.100223
  C      0.725512    1.538451    0.401741
  C      0.827926   -1.495424    0.414755
  C     -0.739200    1.302862    0.010037
  C     -0.519506   -1.262644   -0.283540
  C     -1.315360   -0.085645    0.291439
  O     -2.684418   -0.139555   -0.132940
  H      2.688253    1.329635   -0.472454
  H      1.383423    0.840676   -1.513335
  H      2.448382   -1.170470   -0.973960
  H      2.799085   -0.698261    0.666057
  H      0.880078    1.290425    1.456387
  H      0.917245    2.610333    0.318106
  H      1.092130   -2.551954    0.338093
  H      0.690935   -1.308620    1.483722
  H     -1.377340    2.026147    0.521809
  H     -0.844172    1.505605   -1.063458
  H     -0.381135   -1.129922   -1.362564
  H     -1.146124   -2.147322   -0.159163
  H     -1.374227   -0.226165    1.374425
  H     -2.720326    0.039705   -1.078385

 Total Charge           Charge          ....    0
 Multiplicity           Mult            ....    1
 Number of Electrons    NEL             ....   64
 Basis Dimension        Dim             .... 1284

ORBITAL ENERGIES
----------------

  NO   OCC          E(Eh)            E(eV)
   0   2.0000     -20.546292      -559.0930
   1   2.0000     -11.272153      -306.7309
   2   2.0000     -11.220099      -305.3144
   3   2.0000     -11.218371      -305.2674
   4   2.0000     -11.217379      -305.2404
   5   2.0000     -11.217199      -305.2355
   6   2.0000     -11.216767      -305.2237
   7   2.0000     -11.215353      -305.1853
   8   2.0000      -1.350248       -36.7421
   9   2.0000      -1.103909       -30.0389
  10   2.0000      -1.030704       -28.0469
  11   2.0000      -1.016723       -27.6664
  12   2.0000      -0.889663       -24.2089
  13   2.0000      -0.876244       -23.8438
  14   2.0000      -0.787822       -21.4377
  15   2.0000      -0.756560       -20.5870
  16   2.0000      -0.673605       -18.3297
  17   2.0000      -0.634588       -17.2680
  18   2.0000      -0.628271       -17.0961
  19   2.0000      -0.611944       -16.6518
  20   2.0000      -0.604165       -16.4402
  21   2.0000      -0.561140       -15.2694
  22   2.0000      -0.552162       -15.0251
  23   2.0000      -0.529684       -14.4134
  24   2.0000      -0.524167       -14.2633
  25   2.0000      -0.512657       -13.9501
  26   2.0000      -0.482858       -13.1392
  27   2.0000      -0.461213       -12.5503
  28   2.0000      -0.449321       -12.2266
  29   2.0000      -0.445441       -12.1211
  30   2.0000      -0.442548       -12.0423
  31   2.0000      -0.422583       -11.4991
  32   0.0000       0.024977         0.6796
  33   0.0000       0.028947         0.7877
  34   0.0000       0.029800         0.8109
  35   0.0000       0.033201         0.9035
  36   0.0000       0.045432         1.2363

MULLIKEN ATOMIC CHARGES
-----------------------
   0 C :   -0.458541
   1 C :   -0.580736
   2 C :   -0.376763
   3 C :   -0.459140
   4 C :   -0.693425
   5 C :   -0.651094
   6 C :    0.968813
   7 O :   -1.091287
   8 H :    0.273194
   9 H :    0.201061
  10 H :    0.196673
  11 H :    0.212278
  12 H :    0.242875
  13 H :    0.196655
  14 H :    0.277930
  15 H :    0.214331
  16 H :    0.253602
  17 H :    0.175243
  18 H :    0.276813
  19 H :    0.238547
  20 H :    0.248124
  21 H :    0.334849
Sum of atomic charges:   -0.0000000

LOEWDIN ATOMIC CHARGES
----------------------
   0 C :    0.546527
   1 C :    0.556307
   2 C :    0.551014
   3 C :    0.547349
   4 C :    0.527892
   5 C :    0.533073
   6 C :   -0.184816
   7 O :    1.299336
   8 H :   -0.269168
   9 H :   -0.281963
  10 H :   -0.270652
  11 H :   -0.271267
  12 H :   -0.262138
  13 H :   -0.270374
  14 H :   -0.267658
  15 H :   -0.281574
  16 H :   -0.270427
  17 H :   -0.282174
  18 H :   -0.265461
  19 H :   -0.279946
  20 H :   -0.313776
  21 H :   -0.790104

  Mayer bond orders larger than 0.100000
B(  0-C ,  1-C ) :   0.8407 B(  0-C ,  2-C ) :   0.8264 B(  0-C ,  8-H ) :   0.9331
B(  0-C ,  9-H ) :   0.9993 B(  1-C ,  3-C ) :   0.8606 B(  1-C , 10-H ) :   1.0220
B(  1-C , 11-H ) :   1.0011 B(  2-C ,  4-C ) :   0.7894 B(  2-C , 12-H ) :   0.9184
B(  2-C , 13-H ) :   1.0312 B(  3-C ,  5-C ) :   0.8105 B(  3-C , 14-H ) :   0.9293
B(  3-C , 15-H ) :   0.9690 B(  4-C ,  6-C ) :   0.8782 B(  4-C ,  7-O ) :   0.2705
B(  4-C , 16-H ) :   0.9537 B(  4-C , 17-H ) :   0.9785 B(  5-C ,  6-C ) :   0.8857
B(  5-C ,  7-O ) :   0.2746 B(  5-C , 18-H ) :   0.8900 B(  5-C , 19-H ) :   0.9785
B(  6-C ,  7-O ) :  -0.2024 B(  6-C , 20-H ) :   0.9414 B(  7-O , 21-H ) :   0.8889

MP2 TOTAL ENERGY:     -349.789946285 Eh
FINAL SINGLE POINT ENERGY      -349.789946284956

DIPOLE MOMENT
-------------
                                X             Y             Z
Electronic contribution:     -4.60002      -0.29644       0.16038
Nuclear contribution   :      5.27773       0.42906      -0.49138
                        -----------------------------------------
Total Dipole Moment    :      0.67771       0.13262      -0.33100
                        -----------------------------------------
Magnitude (a.u.)       :      0.76579
Magnitude (Debye)      :      1.94649

Rotational constants in cm-1:     0.101643     0.054474     0.039459
Rotational constants in MHz :  3047.174656  1633.096691  1182.964033

                             ****ORCA TERMINATED NORMALLY****
TOTAL RUN TIME: 0 days 2 hours 5 minutes 54 seconds 848 msec
