                         Program Version 5.0.4 -  RELEASE  -
|  1> !ri-mp2 aug-cc-pvqz aug-cc-pvqz/c tightscf
|  2> %pal nprocs 16 end
|  3>
|  4> * xyz 0 1
|  5> C      0.005646    0.665273    1.302124
|  6> C     -0.005646   -0.665273    1.302124
|  7> C     -0.005646    1.497566    0.048624
|  8> C      0.005646   -1.497566    0.048624
|  9> C     -0.367769    0.670959   -1.190000
| 10> C      0.367769   -0.670959   -1.190000
| 11> H      0.020501    1.196537    2.247558
| 12> H     -0.020501   -1.196537    2.247558
| 13> H     -0.708445    2.326979    0.166811
| 14> H      0.977019    1.965639   -0.085347
| 15> H      0.708445   -2.326979    0.166811
| 16> H     -0.977019   -1.965639   -0.085347
| 17> H     -1.446378    0.487192   -1.195721
| 18> H     -0.141259    1.233380   -2.097788
| 19> H      1.446378   -0.487192   -1.195721
| 20> H      0.141259   -1.233380   -2.097788
| 21> *
| 22>
| 23>                          ****END OF INPUT****

CARTESIAN COORDINATES (ANGSTROEM)
---------------------------------
  C      0.005646    0.665273    1.302124
  C     -0.005646   -0.665273    1.302124
  C     -0.005646    1.497566    0.048624
  C      0.005646   -1.497566    0.048624
  C     -0.367769    0.670959   -1.190000
  C      0.367769   -0.670959   -1.190000
  H      0.020501    1.196537    2.247558
  H     -0.020501   -1.196537    2.247558
  H     -0.708445    2.326979    0.166811
  H      0.977019    1.965639   -0.085347
  H      0.708445   -2.326979    0.166811
  H     -0.977019   -1.965639   -0.085347
  H     -1.446378    0.487192   -1.195721
  H     -0.141259    1.233380   -2.097788
  H      1.446378   -0.487192   -1.195721
  H      0.141259   -1.233380   -2.097788

 Total Charge           Charge          ....    0
 Multiplicity           Mult            ....    1
 Number of Electrons    NEL             ....   46
 Basis Dimension        Dim             ....  940

ORBITAL ENERGIES
----------------

  NO   OCC          E(Eh)            E(eV)
   0   2.0000     -11.218733      -305.2773
   1   2.0000     -11.218676      -305.2757
   2   2.0000     -11.217589      -305.2461
   3   2.0000     -11.215898      -305.2001
   4   2.0000     -11.214915      -305.1734
   5   2.0000     -11.214305      -305.1567
   6   2.0000      -1.116899       -30.3924
   7   2.0000      -1.003757       -27.3136
   8   2.0000      -1.000523       -27.2256
   9   2.0000      -0.845227       -22.9998
  10   2.0000      -0.815130       -22.1808
  11   2.0000      -0.696621       -18.9560
  12   2.0000      -0.666434       -18.1346
  13   2.0000      -0.613007       -16.6808
  14   2.0000      -0.582485       -15.8502
  15   2.0000      -0.565978       -15.4010
  16   2.0000      -0.537572       -14.6281
  17   2.0000      -0.528113       -14.3707
  18   2.0000      -0.523417       -14.2429
  19   2.0000      -0.463331       -12.6079
  20   2.0000      -0.450250       -12.2519
  21   2.0000      -0.435903       -11.8615
  22   2.0000      -0.341162        -9.2835
  23   0.0000       0.027205         0.7403
  24   0.0000       0.031757         0.8642
  25   0.0000       0.031821         0.8659
  26   0.0000       0.035312         0.9609
  27   0.0000       0.044883         1.2213

MULLIKEN ATOMIC CHARGES
-----------------------
   0 C :   -0.450200
   1 C :   -0.450200
   2 C :   -0.340760
   3 C :   -0.340760
   4 C :   -0.446265
   5 C :   -0.446265
   6 H :    0.329731
   7 H :    0.329731
   8 H :    0.264112
   9 H :    0.177318
  10 H :    0.264112
  11 H :    0.177317
  12 H :    0.200558
  13 H :    0.265506
  14 H :    0.200558
  15 H :    0.265505
Sum of atomic charges:    0.0000000

LOEWDIN ATOMIC CHARGES
----------------------
   0 C :    0.399166
   1 C :    0.399166
   2 C :    0.494886
   3 C :    0.494886
   4 C :    0.511566
   5 C :    0.511566
   6 H :   -0.320305
   7 H :   -0.320305
   8 H :   -0.281096
   9 H :   -0.274280
  10 H :   -0.281096
  11 H :   -0.274280
  12 H :   -0.266849
  13 H :   -0.263087
  14 H :   -0.266849
  15 H :   -0.263087

  Mayer bond orders larger than 0.100000
B(  0-C ,  1-C ) :   1.7684 B(  0-C ,  2-C ) :   0.6940 B(  0-C ,  6-H ) :   0.9650
B(  1-C ,  3-C ) :   0.6940 B(  1-C ,  7-H ) :   0.9650 B(  2-C ,  4-C ) :   0.9330
B(  2-C ,  8-H ) :   0.9605 B(  2-C ,  9-H ) :   0.9701 B(  3-C ,  5-C ) :   0.9330
B(  3-C , 10-H ) :   0.9605 B(  3-C , 11-H ) :   0.9701 B(  4-C ,  5-C ) :   0.9263
B(  4-C , 12-H ) :   0.9418 B(  4-C , 13-H ) :   0.9223 B(  5-C , 14-H ) :   0.9418
B(  5-C , 15-H ) :   0.9223

MP2 TOTAL ENERGY:     -234.189628750 Eh
FINAL SINGLE POINT ENERGY      -234.189628750294

DIPOLE MOMENT
-------------
                                X             Y             Z
Electronic contribution:      0.00000      -0.00000       1.89319
Nuclear contribution   :      0.00000      -0.00000      -2.02866
                        -----------------------------------------
Total Dipole Moment    :      0.00000      -0.00000      -0.13548
                        -----------------------------------------
Magnitude (a.u.)       :      0.13548
Magnitude (Debye)      :      0.34435

Rotational constants in cm-1:     0.158081     0.152003     0.085225
Rotational constants in MHz :  4739.152944  4556.948365  2554.993737

                             ****ORCA TERMINATED NORMALLY****
TOTAL RUN TIME: 0 days 0 hours 36 minutes 11 seconds 631 msec
