                         Program Version 5.0.4 -  RELEASE  -
|  1> !ri-mp2 aug-cc-pvqz aug-cc-pvqz/c tightscf
|  2> %pal nprocs 16 end
|  3>
|  4> * xyz 0 1
|  5> Cl     0.682538   -0.843775    0.000000
|  6> F     -1.364381    0.762010    0.000000
|  7> C      0.000000    0.812042    0.000000
|  8> H      0.338141    1.306914    0.905061
|  9> H      0.338141    1.306914   -0.905061
| 10> *
| 11>
| 12>                          ****END OF INPUT****

CARTESIAN COORDINATES (ANGSTROEM)
---------------------------------
  Cl     0.682538   -0.843775    0.000000
  F     -1.364381    0.762010    0.000000
  C      0.000000    0.812042    0.000000
  H      0.338141    1.306914    0.905061
  H      0.338141    1.306914   -0.905061

 Total Charge           Charge          ....    0
 Multiplicity           Mult            ....    1
 Number of Electrons    NEL             ....   34
 Basis Dimension        Dim             ....  336

ORBITAL ENERGIES
----------------

  NO   OCC          E(Eh)            E(eV)
   0   2.0000    -104.844318     -2852.9589
   1   2.0000     -26.314130      -716.0439
   2   2.0000     -11.390278      -309.9452
   3   2.0000     -10.569903      -287.6217
   4   2.0000      -8.036919      -218.6957
   5   2.0000      -8.035264      -218.6506
   6   2.0000      -8.035140      -218.6473
   7   2.0000      -1.631275       -44.3893
   8   2.0000      -1.141483       -31.0613
   9   2.0000      -0.934286       -25.4232
  10   2.0000      -0.748847       -20.3772
  11   2.0000      -0.731374       -19.9017
  12   2.0000      -0.697753       -18.9868
  13   2.0000      -0.589469       -16.0403
  14   2.0000      -0.541133       -14.7250
  15   2.0000      -0.470091       -12.7918
  16   2.0000      -0.455440       -12.3931
  17   0.0000       0.025429         0.6919
  18   0.0000       0.038421         1.0455
  19   0.0000       0.054488         1.4827
  20   0.0000       0.067404         1.8342
  21   0.0000       0.094567         2.5733

MULLIKEN ATOMIC CHARGES
-----------------------
   0 Cl:   -0.144655
   1 F :   -0.535419
   2 C :    0.008989
   3 H :    0.335543
   4 H :    0.335543
Sum of atomic charges:   -0.0000000

LOEWDIN ATOMIC CHARGES
----------------------
   0 Cl:    1.037428
   1 F :    0.687815
   2 C :   -0.759190
   3 H :   -0.483026
   4 H :   -0.483026

  Mayer bond orders larger than 0.100000
B(  0-Cl,  2-C ) :   1.0144 B(  1-F ,  2-C ) :   0.6645 B(  2-C ,  3-H ) :   0.8421
B(  2-C ,  4-H ) :   0.8421

MP2 TOTAL ENERGY:     -598.722621652 Eh
FINAL SINGLE POINT ENERGY      -598.722621651592

DIPOLE MOMENT
-------------
                                X             Y             Z
Electronic contribution:     -0.53337      -2.17581      -0.00000
Nuclear contribution   :      0.97655       2.86125       0.00000
                        -----------------------------------------
Total Dipole Moment    :      0.44318       0.68544      -0.00000
                        -----------------------------------------
Magnitude (a.u.)       :      0.81623
Magnitude (Debye)      :      2.07469

Rotational constants in cm-1:     1.398088     0.185572     0.169260
Rotational constants in MHz : 41913.612521  5563.314275  5074.278063

                             ****ORCA TERMINATED NORMALLY****
TOTAL RUN TIME: 0 days 0 hours 1 minutes 21 seconds 907 msec
