                         Program Version 5.0.4 -  RELEASE  -
|  1> !ri-mp2 aug-cc-pvqz aug-cc-pvqz/c tightscf
|  2> %pal nprocs 16 end
|  3>
|  4> * xyz 0 1
|  5> N      0.137512    2.151652    0.000000
|  6> C      0.448122    0.721591    0.000000
|  7> H      1.532762    0.530144    0.000000
|  8> H      0.533560    2.608259    0.813100
|  9> H      0.533560    2.608259   -0.813100
| 10> C     -0.167084   -1.496898    0.778524
| 11> C     -0.167084   -1.496898   -0.778524
| 12> C     -0.167084   -0.013012   -1.194728
| 13> C     -0.167084   -0.013012    1.194728
| 14> H     -1.025406   -2.027487   -1.189237
| 15> H     -1.025406   -2.027487    1.189237
| 16> H      0.721946   -2.002668    1.157019
| 17> H      0.721946   -2.002668   -1.157019
| 18> H     -1.187175    0.355253   -1.326931
| 19> H     -1.187175    0.355253    1.326931
| 20> H      0.370046    0.165478   -2.127734
| 21> H      0.370046    0.165478    2.127734
| 22> *
| 23>
| 24>                          ****END OF INPUT****

CARTESIAN COORDINATES (ANGSTROEM)
---------------------------------
  N      0.137512    2.151652    0.000000
  C      0.448122    0.721591    0.000000
  H      1.532762    0.530144    0.000000
  H      0.533560    2.608259    0.813100
  H      0.533560    2.608259   -0.813100
  C     -0.167084   -1.496898    0.778524
  C     -0.167084   -1.496898   -0.778524
  C     -0.167084   -0.013012   -1.194728
  C     -0.167084   -0.013012    1.194728
  H     -1.025406   -2.027487   -1.189237
  H     -1.025406   -2.027487    1.189237
  H      0.721946   -2.002668    1.157019
  H      0.721946   -2.002668   -1.157019
  H     -1.187175    0.355253   -1.326931
  H     -1.187175    0.355253    1.326931
  H      0.370046    0.165478   -2.127734
  H      0.370046    0.165478    2.127734

 Total Charge           Charge          ....    0
 Multiplicity           Mult            ....    1
 Number of Electrons    NEL             ....   48
 Basis Dimension        Dim             ....  986

ORBITAL ENERGIES
----------------

  NO   OCC          E(Eh)            E(eV)
   0   2.0000     -15.533969      -422.7008
   1   2.0000     -11.244386      -305.9753
   2   2.0000     -11.212488      -305.1073
   3   2.0000     -11.211947      -305.0926
   4   2.0000     -11.208090      -304.9876
   5   2.0000     -11.208077      -304.9873
   6   2.0000      -1.183498       -32.2046
   7   2.0000      -1.088712       -29.6253
   8   2.0000      -0.958760       -26.0892
   9   2.0000      -0.930695       -25.3255
  10   2.0000      -0.775335       -21.0979
  11   2.0000      -0.765307       -20.8251
  12   2.0000      -0.660836       -17.9823
  13   2.0000      -0.638825       -17.3833
  14   2.0000      -0.637133       -17.3373
  15   2.0000      -0.591903       -16.1065
  16   2.0000      -0.566015       -15.4021
  17   2.0000      -0.498319       -13.5599
  18   2.0000      -0.475880       -12.9493
  19   2.0000      -0.474548       -12.9131
  20   2.0000      -0.466396       -12.6913
  21   2.0000      -0.452781       -12.3208
  22   2.0000      -0.449513       -12.2319
  23   2.0000      -0.385302       -10.4846
  24   0.0000       0.026015         0.7079
  25   0.0000       0.032507         0.8845
  26   0.0000       0.032822         0.8931
  27   0.0000       0.034973         0.9517
  28   0.0000       0.048339         1.3154

MULLIKEN ATOMIC CHARGES
-----------------------
   0 N :   -0.821179
   1 C :    0.425009
   2 H :    0.339367
   3 H :    0.181965
   4 H :    0.181966
   5 C :   -0.508093
   6 C :   -0.508096
   7 C :   -0.675193
   8 C :   -0.675207
   9 H :    0.298371
  10 H :    0.298373
  11 H :    0.190025
  12 H :    0.190025
  13 H :    0.232167
  14 H :    0.232167
  15 H :    0.309167
  16 H :    0.309168
Sum of atomic charges:    0.0000000

LOEWDIN ATOMIC CHARGES
----------------------
   0 N :    1.302106
   1 C :   -0.064821
   2 H :   -0.257875
   3 H :   -0.502823
   4 H :   -0.502823
   5 C :    0.555751
   6 C :    0.555751
   7 C :    0.519956
   8 C :    0.519956
   9 H :   -0.265895
  10 H :   -0.265895
  11 H :   -0.271002
  12 H :   -0.271002
  13 H :   -0.271897
  14 H :   -0.271897
  15 H :   -0.253796
  16 H :   -0.253796

  Mayer bond orders larger than 0.100000
B(  0-N ,  1-C ) :   0.4667 B(  0-N ,  3-H ) :   1.0031 B(  0-N ,  4-H ) :   1.0031
B(  0-N ,  7-C ) :   0.1268 B(  0-N ,  8-C ) :   0.1268 B(  1-C ,  2-H ) :   0.8389
B(  1-C ,  7-C ) :   0.8303 B(  1-C ,  8-C ) :   0.8303 B(  5-C ,  6-C ) :   0.9379
B(  5-C ,  8-C ) :   1.0226 B(  5-C , 10-H ) :   0.8933 B(  5-C , 11-H ) :   0.9922
B(  6-C ,  7-C ) :   1.0226 B(  6-C ,  9-H ) :   0.8933 B(  6-C , 12-H ) :   0.9922
B(  7-C , 13-H ) :   0.9598 B(  7-C , 15-H ) :   0.8663 B(  8-C , 14-H ) :   0.9598
B(  8-C , 16-H ) :   0.8663

MP2 TOTAL ENERGY:     -251.447242041 Eh
FINAL SINGLE POINT ENERGY      -251.447242041110

DIPOLE MOMENT
-------------
                                X             Y             Z
Electronic contribution:      0.11105       1.28214      -0.00000
Nuclear contribution   :      0.38061      -1.33348       0.00000
                        -----------------------------------------
Total Dipole Moment    :      0.49166      -0.05134      -0.00000
                        -----------------------------------------
Magnitude (a.u.)       :      0.49433
Magnitude (Debye)      :      1.25649

Rotational constants in cm-1:     0.212455     0.099844     0.074490
Rotational constants in MHz :  6369.229396  2993.247706  2233.149391

                             ****ORCA TERMINATED NORMALLY****
TOTAL RUN TIME: 0 days 0 hours 37 minutes 21 seconds 513 msec
