                         Program Version 5.0.4 -  RELEASE  -
|  1> !ri-mp2 aug-cc-pvqz aug-cc-pvqz/c tightscf
|  2> %pal nprocs 16 end
|  3>
|  4> * xyz 0 1
|  5> C      0.000000    0.664652    0.787189
|  6> C      0.000000    0.664652   -0.787189
|  7> C      0.000000   -0.664652    0.787189
|  8> C      0.000000   -0.664652   -0.787189
|  9> H      0.000000    1.428618    1.548923
| 10> H      0.000000    1.428618   -1.548923
| 11> H      0.000000   -1.428618    1.548923
| 12> H      0.000000   -1.428618   -1.548923
| 13> *
| 14>
| 15>                          ****END OF INPUT****

CARTESIAN COORDINATES (ANGSTROEM)
---------------------------------
  C      0.000000    0.664652    0.787189
  C      0.000000    0.664652   -0.787189
  C      0.000000   -0.664652    0.787189
  C      0.000000   -0.664652   -0.787189
  H      0.000000    1.428618    1.548923
  H      0.000000    1.428618   -1.548923
  H      0.000000   -1.428618    1.548923
  H      0.000000   -1.428618   -1.548923

 Total Charge           Charge          ....    0
 Multiplicity           Mult            ....    1
 Number of Electrons    NEL             ....   28
 Basis Dimension        Dim             ....  504

ORBITAL ENERGIES
----------------

  NO   OCC          E(Eh)            E(eV)
   0   2.0000     -11.242846      -305.9334
   1   2.0000     -11.242381      -305.9207
   2   2.0000     -11.241093      -305.8857
   3   2.0000     -11.240626      -305.8730
   4   2.0000      -1.160493       -31.5786
   5   2.0000      -0.917959       -24.9789
   6   2.0000      -0.823545       -22.4098
   7   2.0000      -0.701409       -19.0863
   8   2.0000      -0.697214       -18.9722
   9   2.0000      -0.559322       -15.2199
  10   2.0000      -0.540175       -14.6989
  11   2.0000      -0.477733       -12.9998
  12   2.0000      -0.452970       -12.3259
  13   2.0000      -0.281030        -7.6472
  14   0.0000       0.027479         0.7477
  15   0.0000       0.030990         0.8433
  16   0.0000       0.032453         0.8831
  17   0.0000       0.043527         1.1844
  18   0.0000       0.061659         1.6778

MULLIKEN ATOMIC CHARGES
-----------------------
   0 C :   -0.565297
   1 C :   -0.565297
   2 C :   -0.565297
   3 C :   -0.565297
   4 H :    0.565297
   5 H :    0.565297
   6 H :    0.565297
   7 H :    0.565297
Sum of atomic charges:    0.0000000

LOEWDIN ATOMIC CHARGES
----------------------
   0 C :    0.331389
   1 C :    0.331389
   2 C :    0.331389
   3 C :    0.331389
   4 H :   -0.331389
   5 H :   -0.331389
   6 H :   -0.331389
   7 H :   -0.331389

  Mayer bond orders larger than 0.100000
B(  0-C ,  1-C ) :   1.0454 B(  0-C ,  2-C ) :   1.8028 B(  0-C ,  3-C ) :  -0.1919
B(  0-C ,  4-H ) :   0.6588 B(  1-C ,  2-C ) :  -0.1919 B(  1-C ,  3-C ) :   1.8028
B(  1-C ,  5-H ) :   0.6588 B(  2-C ,  3-C ) :   1.0454 B(  2-C ,  6-H ) :   0.6588
B(  3-C ,  7-H ) :   0.6588

MP2 TOTAL ENERGY:     -154.382097529 Eh
FINAL SINGLE POINT ENERGY      -154.382097529163

DIPOLE MOMENT
-------------
                                X             Y             Z
Electronic contribution:      0.00000      -0.00000      -0.00000
Nuclear contribution   :      0.00000       0.00000       0.00000
                        -----------------------------------------
Total Dipole Moment    :      0.00000      -0.00000      -0.00000
                        -----------------------------------------
Magnitude (a.u.)       :      0.00000
Magnitude (Debye)      :      0.00000

Rotational constants in cm-1:     0.572355     0.427374     0.244676
Rotational constants in MHz : 17158.766975 12812.360543  7335.203149

                             ****ORCA TERMINATED NORMALLY****
TOTAL RUN TIME: 0 days 0 hours 4 minutes 48 seconds 882 msec
