                         Program Version 5.0.4 -  RELEASE  -
|  1> !ri-mp2 aug-cc-pvqz aug-cc-pvqz/c tightscf
|  2> %pal nprocs 16 end
|  3>
|  4> * xyz 0 1
|  5> C      0.000000    0.000000    0.687813
|  6> C      0.000000    0.000000   -0.687813
|  7> N      0.000000    0.000000    1.839967
|  8> N      0.000000    0.000000   -1.839967
|  9> *
| 10>
| 11>                          ****END OF INPUT****

CARTESIAN COORDINATES (ANGSTROEM)
---------------------------------
  C      0.000000    0.000000    0.687813
  C      0.000000    0.000000   -0.687813
  N      0.000000    0.000000    1.839967
  N      0.000000    0.000000   -1.839967

 Total Charge           Charge          ....    0
 Multiplicity           Mult            ....    1
 Number of Electrons    NEL             ....   26
 Basis Dimension        Dim             ....  320

ORBITAL ENERGIES
----------------

  NO   OCC          E(Eh)            E(eV)
   0   2.0000     -15.653175      -425.9445
   1   2.0000     -15.653169      -425.9444
   2   2.0000     -11.352013      -308.9040
   3   2.0000     -11.350841      -308.8721
   4   2.0000      -1.303718       -35.4760
   5   2.0000      -1.277938       -34.7744
   6   2.0000      -0.984048       -26.7773
   7   2.0000      -0.640061       -17.4170
   8   2.0000      -0.624806       -17.0018
   9   2.0000      -0.602950       -16.4071
  10   2.0000      -0.602950       -16.4071
  11   2.0000      -0.498447       -13.5634
  12   2.0000      -0.498447       -13.5634
  13   0.0000       0.038552         1.0490
  14   0.0000       0.051076         1.3898
  15   0.0000       0.051076         1.3898
  16   0.0000       0.051860         1.4112
  17   0.0000       0.069547         1.8925

MULLIKEN ATOMIC CHARGES
-----------------------
   0 C :    0.547079
   1 C :    0.547079
   2 N :   -0.547079
   3 N :   -0.547079
Sum of atomic charges:    0.0000000

LOEWDIN ATOMIC CHARGES
----------------------
   0 C :   -0.402974
   1 C :   -0.402974
   2 N :    0.402974
   3 N :    0.402974

  Mayer bond orders larger than 0.100000
B(  0-C ,  1-C ) :   1.1371 B(  0-C ,  2-N ) :   2.6207 B(  1-C ,  3-N ) :   2.6207

MP2 TOTAL ENERGY:     -185.381106645 Eh
FINAL SINGLE POINT ENERGY      -185.381106645237

DIPOLE MOMENT
-------------
                                X             Y             Z
Electronic contribution:      0.00000       0.00000       0.00000
Nuclear contribution   :      0.00000       0.00000       0.00000
                        -----------------------------------------
Total Dipole Moment    :      0.00000       0.00000       0.00000
                        -----------------------------------------
Magnitude (a.u.)       :      0.00000
Magnitude (Debye)      :      0.00000

Rotational constants in cm-1:     0.000000     0.158727     0.158727
Rotational constants in MHz :     0.000000  4758.515327  4758.515327

                             ****ORCA TERMINATED NORMALLY****
TOTAL RUN TIME: 0 days 0 hours 1 minutes 18 seconds 540 msec
