                         Program Version 5.0.4 -  RELEASE  -
|  1> !ri-mp2 aug-cc-pvqz aug-cc-pvqz/c tightscf
|  2> %pal nprocs 16 end
|  3>
|  4> * xyz 0 1
|  5> C    -0.061344     1.463150    0.000000
|  6> C     0.061344    -1.463150    0.000000
|  7> C    -0.332830     0.695697    1.281972
|  8> C    -0.332830     0.695697   -1.281972
|  9> C     0.332830    -0.695697    1.281972
| 10> C     0.332830    -0.695697   -1.281972
| 11> O     0.332830     2.606139    0.000000
| 12> O    -0.332830    -2.606139    0.000000
| 13> H    -0.003435     1.294970    2.128181
| 14> H    -1.417638     0.571706    1.364952
| 15> H    -1.417638     0.571706   -1.364952
| 16> H    -0.003435     1.294970   -2.128181
| 17> H     0.003435    -1.294970    2.128181
| 18> H     1.417638    -0.571706    1.364952
| 19> H     1.417638    -0.571706   -1.364952
| 20> H     0.003435    -1.294970   -2.128181
| 21> *
| 22>
| 23>                          ****END OF INPUT****

CARTESIAN COORDINATES (ANGSTROEM)
---------------------------------
  C     -0.061344    1.463150    0.000000
  C      0.061344   -1.463150    0.000000
  C     -0.332830    0.695697    1.281972
  C     -0.332830    0.695697   -1.281972
  C      0.332830   -0.695697    1.281972
  C      0.332830   -0.695697   -1.281972
  O      0.332830    2.606139    0.000000
  O     -0.332830   -2.606139    0.000000
  H     -0.003435    1.294970    2.128181
  H     -1.417638    0.571706    1.364952
  H     -1.417638    0.571706   -1.364952
  H     -0.003435    1.294970   -2.128181
  H      0.003435   -1.294970    2.128181
  H      1.417638   -0.571706    1.364952
  H      1.417638   -0.571706   -1.364952
  H      0.003435   -1.294970   -2.128181

 Total Charge           Charge          ....    0
 Multiplicity           Mult            ....    1
 Number of Electrons    NEL             ....   60
 Basis Dimension        Dim             .... 1008

ORBITAL ENERGIES
----------------

  NO   OCC          E(Eh)            E(eV)
   0   2.0000     -20.559016      -559.4393
   1   2.0000     -20.559016      -559.4393
   2   2.0000     -11.342722      -308.6512
   3   2.0000     -11.342718      -308.6510
   4   2.0000     -11.257935      -306.3440
   5   2.0000     -11.257910      -306.3433
   6   2.0000     -11.257357      -306.3282
   7   2.0000     -11.257336      -306.3277
   8   2.0000      -1.402976       -38.1769
   9   2.0000      -1.400935       -38.1214
  10   2.0000      -1.130064       -30.7506
  11   2.0000      -1.054149       -28.6848
  12   2.0000      -0.978016       -26.6132
  13   2.0000      -0.896993       -24.4084
  14   2.0000      -0.788626       -21.4596
  15   2.0000      -0.731291       -19.8994
  16   2.0000      -0.678458       -18.4618
  17   2.0000      -0.664050       -18.0697
  18   2.0000      -0.657175       -17.8826
  19   2.0000      -0.646804       -17.6004
  20   2.0000      -0.616903       -16.7868
  21   2.0000      -0.610942       -16.6246
  22   2.0000      -0.571884       -15.5618
  23   2.0000      -0.554577       -15.0908
  24   2.0000      -0.532364       -14.4864
  25   2.0000      -0.529970       -14.4212
  26   2.0000      -0.518666       -14.1136
  27   2.0000      -0.487603       -13.2683
  28   2.0000      -0.422607       -11.4997
  29   2.0000      -0.415340       -11.3020
  30   0.0000       0.023088         0.6283
  31   0.0000       0.026775         0.7286
  32   0.0000       0.029400         0.8000
  33   0.0000       0.041233         1.1220
  34   0.0000       0.045339         1.2337

MULLIKEN ATOMIC CHARGES
-----------------------
   0 C :    1.006560
   1 C :    1.006560
   2 C :   -0.617474
   3 C :   -0.617474
   4 C :   -0.617474
   5 C :   -0.617474
   6 O :   -0.888283
   7 O :   -0.888283
   8 H :    0.316318
   9 H :    0.242018
  10 H :    0.242019
  11 H :    0.316317
  12 H :    0.316318
  13 H :    0.242018
  14 H :    0.242019
  15 H :    0.316317
Sum of atomic charges:    0.0000000

LOEWDIN ATOMIC CHARGES
----------------------
   0 C :   -0.621716
   1 C :   -0.621716
   2 C :    0.503073
   3 C :    0.503073
   4 C :    0.503073
   5 C :    0.503073
   6 O :    0.750121
   7 O :    0.750121
   8 H :   -0.296036
   9 H :   -0.271240
  10 H :   -0.271240
  11 H :   -0.296036
  12 H :   -0.296036
  13 H :   -0.271240
  14 H :   -0.271240
  15 H :   -0.296036

  Mayer bond orders larger than 0.100000
B(  0-C ,  2-C ) :   0.9705 B(  0-C ,  3-C ) :   0.9705 B(  0-C ,  6-O ) :   0.9421
B(  1-C ,  4-C ) :   0.9705 B(  1-C ,  5-C ) :   0.9705 B(  1-C ,  7-O ) :   0.9421
B(  2-C ,  4-C ) :   1.0145 B(  2-C ,  6-O ) :   0.1954 B(  2-C ,  8-H ) :   0.8845
B(  2-C ,  9-H ) :   0.8903 B(  3-C ,  5-C ) :   1.0145 B(  3-C ,  6-O ) :   0.1954
B(  3-C , 10-H ) :   0.8903 B(  3-C , 11-H ) :   0.8845 B(  4-C ,  7-O ) :   0.1954
B(  4-C , 12-H ) :   0.8845 B(  4-C , 13-H ) :   0.8903 B(  5-C ,  7-O ) :   0.1954
B(  5-C , 14-H ) :   0.8903 B(  5-C , 15-H ) :   0.8845

MP2 TOTAL ENERGY:     -383.305534608 Eh
FINAL SINGLE POINT ENERGY      -383.305534607953

DIPOLE MOMENT
-------------
                                X             Y             Z
Electronic contribution:     -0.00000       0.00000      -0.00000
Nuclear contribution   :     -0.00000       0.00000       0.00000
                        -----------------------------------------
Total Dipole Moment    :     -0.00000       0.00000      -0.00000
                        -----------------------------------------
Magnitude (a.u.)       :      0.00000
Magnitude (Debye)      :      0.00000

Rotational constants in cm-1:     0.138917     0.053154     0.041597
Rotational constants in MHz :  4164.636559  1593.511923  1247.046445

                             ****ORCA TERMINATED NORMALLY****
TOTAL RUN TIME: 0 days 0 hours 52 minutes 54 seconds 51 msec
