                         Program Version 5.0.4 -  RELEASE  -
|  1> !ri-mp2 aug-cc-pvqz aug-cc-pvqz/c tightscf
|  2> %pal nprocs 16 end
|  3>
|  4> * xyz 0 1
|  5> C      2.273854    0.274215   -0.203952
|  6> C      1.762908   -1.084479    0.283467
|  7> C      0.328202   -1.357217   -0.186256
|  8> C     -0.603815   -0.222061    0.229009
|  9> C     -0.109581    1.129030   -0.279562
| 10> C      1.321941    1.404284    0.197425
| 11> O     -1.885928   -0.581152   -0.300631
| 12> O     -2.882481    0.292841    0.300204
| 13> H      3.273677    0.463179    0.192478
| 14> H      2.369370    0.253715   -1.294443
| 15> H      1.795630   -1.111497    1.377231
| 16> H      2.418338   -1.885041   -0.064459
| 17> H     -0.041640   -2.299048    0.220652
| 18> H      0.306159   -1.447044   -1.276226
| 19> H     -0.688027   -0.199332    1.321058
| 20> H     -0.139153    1.116756   -1.373872
| 21> H     -0.781503    1.918852    0.057557
| 22> H      1.326109    1.510541    1.287156
| 23> H      1.670130    2.357427   -0.205005
| 24> H     -3.202874    0.765346   -0.479497
| 25> *
| 26>
| 27>                          ****END OF INPUT****

CARTESIAN COORDINATES (ANGSTROEM)
---------------------------------
  C      2.273854    0.274215   -0.203952
  C      1.762908   -1.084479    0.283467
  C      0.328202   -1.357217   -0.186256
  C     -0.603815   -0.222061    0.229009
  C     -0.109581    1.129030   -0.279562
  C      1.321941    1.404284    0.197425
  O     -1.885928   -0.581152   -0.300631
  O     -2.882481    0.292841    0.300204
  H      3.273677    0.463179    0.192478
  H      2.369370    0.253715   -1.294443
  H      1.795630   -1.111497    1.377231
  H      2.418338   -1.885041   -0.064459
  H     -0.041640   -2.299048    0.220652
  H      0.306159   -1.447044   -1.276226
  H     -0.688027   -0.199332    1.321058
  H     -0.139153    1.116756   -1.373872
  H     -0.781503    1.918852    0.057557
  H      1.326109    1.510541    1.287156
  H      1.670130    2.357427   -0.205005
  H     -3.202874    0.765346   -0.479497

 Total Charge           Charge          ....    0
 Multiplicity           Mult            ....    1
 Number of Electrons    NEL             ....   64
 Basis Dimension        Dim             .... 1192

ORBITAL ENERGIES
----------------

  NO   OCC          E(Eh)            E(eV)
   0   2.0000     -20.614536      -560.9500
   1   2.0000     -20.613016      -560.9087
   2   2.0000     -11.277982      -306.8895
   3   2.0000     -11.222225      -305.3723
   4   2.0000     -11.221945      -305.3646
   5   2.0000     -11.220053      -305.3132
   6   2.0000     -11.219513      -305.2985
   7   2.0000     -11.218588      -305.2733
   8   2.0000      -1.461484       -39.7690
   9   2.0000      -1.226091       -33.3636
  10   2.0000      -1.109470       -30.1902
  11   2.0000      -1.010897       -27.5079
  12   2.0000      -0.988318       -26.8935
  13   2.0000      -0.843039       -22.9402
  14   2.0000      -0.825030       -22.4502
  15   2.0000      -0.768185       -20.9034
  16   2.0000      -0.707342       -19.2478
  17   2.0000      -0.668937       -18.2027
  18   2.0000      -0.635697       -17.2982
  19   2.0000      -0.627434       -17.0733
  20   2.0000      -0.610486       -16.6122
  21   2.0000      -0.596584       -16.2339
  22   2.0000      -0.569345       -15.4927
  23   2.0000      -0.534313       -14.5394
  24   2.0000      -0.522595       -14.2205
  25   2.0000      -0.506110       -13.7720
  26   2.0000      -0.491314       -13.3693
  27   2.0000      -0.481936       -13.1142
  28   2.0000      -0.464532       -12.6406
  29   2.0000      -0.463799       -12.6206
  30   2.0000      -0.443457       -12.0671
  31   2.0000      -0.424089       -11.5400
  32   0.0000       0.024788         0.6745
  33   0.0000       0.028614         0.7786
  34   0.0000       0.031949         0.8694
  35   0.0000       0.033520         0.9121
  36   0.0000       0.044748         1.2177

MULLIKEN ATOMIC CHARGES
-----------------------
   0 C :   -0.407645
   1 C :   -0.483175
   2 C :   -0.513697
   3 C :    0.994638
   4 C :   -0.623068
   5 C :   -0.428342
   6 O :   -0.581577
   7 O :   -0.581981
   8 H :    0.249151
   9 H :    0.140651
  10 H :    0.160612
  11 H :    0.243653
  12 H :    0.255584
  13 H :    0.186407
  14 H :    0.185213
  15 H :    0.168431
  16 H :    0.251780
  17 H :    0.170326
  18 H :    0.242931
  19 H :    0.370104
Sum of atomic charges:   -0.0000000

LOEWDIN ATOMIC CHARGES
----------------------
   0 C :    0.535970
   1 C :    0.537720
   2 C :    0.496932
   3 C :   -0.294151
   4 C :    0.507244
   5 C :    0.537755
   6 O :    0.587778
   7 O :    0.945530
   8 H :   -0.260964
   9 H :   -0.264976
  10 H :   -0.263694
  11 H :   -0.260445
  12 H :   -0.265358
  13 H :   -0.270279
  14 H :   -0.302201
  15 H :   -0.270542
  16 H :   -0.280615
  17 H :   -0.262615
  18 H :   -0.259871
  19 H :   -0.893219

  Mayer bond orders larger than 0.100000
B(  0-C ,  1-C ) :   0.8847 B(  0-C ,  5-C ) :   0.8818 B(  0-C ,  8-H ) :   0.9457
B(  0-C ,  9-H ) :   1.0179 B(  1-C ,  2-C ) :   0.9638 B(  1-C , 10-H ) :   0.9910
B(  1-C , 11-H ) :   0.9658 B(  2-C ,  3-C ) :   0.7612 B(  2-C ,  6-O ) :   0.1381
B(  2-C , 12-H ) :   0.9485 B(  2-C , 13-H ) :   0.9647 B(  3-C ,  4-C ) :   0.8569
B(  3-C ,  6-O ) :   0.1412 B(  3-C ,  7-O ) :  -0.2862 B(  3-C , 14-H ) :   0.9795
B(  4-C ,  5-C ) :   0.9048 B(  4-C ,  6-O ) :   0.2049 B(  4-C ,  7-O ) :   0.1289
B(  4-C , 15-H ) :   0.9445 B(  4-C , 16-H ) :   0.9468 B(  5-C , 17-H ) :   0.9767
B(  5-C , 18-H ) :   0.9573 B(  6-O ,  7-O ) :   0.8955 B(  7-O , 19-H ) :   0.8715

MP2 TOTAL ENERGY:     -385.615592823 Eh
FINAL SINGLE POINT ENERGY      -385.615592823136

DIPOLE MOMENT
-------------
                                X             Y             Z
Electronic contribution:     -7.91317      -1.01996      -0.02514
Nuclear contribution   :      8.51708       1.48933      -0.24563
                        -----------------------------------------
Total Dipole Moment    :      0.60392       0.46936      -0.27077
                        -----------------------------------------
Magnitude (a.u.)       :      0.81138
Magnitude (Debye)      :      2.06236

Rotational constants in cm-1:     0.132466     0.044953     0.036113
Rotational constants in MHz :  3971.239947  1347.664271  1082.645882

                             ****ORCA TERMINATED NORMALLY****
TOTAL RUN TIME: 0 days 1 hours 28 minutes 38 seconds 521 msec
