                         Program Version 5.0.4 -  RELEASE  -
|  1> !ri-mp2 aug-cc-pvqz aug-cc-pvqz/c tightscf
|  2> %pal nprocs 16 end
|  3>
|  4> * xyz 0 1
|  5> Cl     0.000000    0.000000    0.978264
|  6> C      0.000000    0.000000   -0.658524
|  7> N      0.000000    0.000000   -1.811335
|  8> *
|  9>
| 10>                          ****END OF INPUT****

CARTESIAN COORDINATES (ANGSTROEM)
---------------------------------
  Cl     0.000000    0.000000    0.978264
  C      0.000000    0.000000   -0.658524
  N      0.000000    0.000000   -1.811335

 Total Charge           Charge          ....    0
 Multiplicity           Mult            ....    1
 Number of Electrons    NEL             ....   30
 Basis Dimension        Dim             ....  244

ORBITAL ENERGIES
----------------

  NO   OCC          E(Eh)            E(eV)
   0   2.0000    -104.932762     -2855.3656
   1   2.0000     -15.602769      -424.5729
   2   2.0000     -11.343889      -308.6829
   3   2.0000     -10.656637      -289.9818
   4   2.0000      -8.124080      -221.0675
   5   2.0000      -8.121574      -220.9993
   6   2.0000      -8.121574      -220.9993
   7   2.0000      -1.273314       -34.6486
   8   2.0000      -1.195425       -32.5292
   9   2.0000      -0.754630       -20.5345
  10   2.0000      -0.599165       -16.3041
  11   2.0000      -0.599165       -16.3041
  12   2.0000      -0.587060       -15.9747
  13   2.0000      -0.467999       -12.7349
  14   2.0000      -0.467999       -12.7349
  15   0.0000       0.032877         0.8946
  16   0.0000       0.062146         1.6911
  17   0.0000       0.073725         2.0062
  18   0.0000       0.073725         2.0062
  19   0.0000       0.096091         2.6148

MULLIKEN ATOMIC CHARGES
-----------------------
   0 Cl:    0.227820
   1 C :    0.212576
   2 N :   -0.440396
Sum of atomic charges:    0.0000000

LOEWDIN ATOMIC CHARGES
----------------------
   0 Cl:    1.098486
   1 C :   -1.287820
   2 N :    0.189334

  Mayer bond orders larger than 0.100000
B(  0-Cl,  1-C ) :   1.0845 B(  1-C ,  2-N ) :   2.7638

MP2 TOTAL ENERGY:     -552.413839674 Eh
FINAL SINGLE POINT ENERGY      -552.413839674111

DIPOLE MOMENT
-------------
                                X             Y             Z
Electronic contribution:     -0.00000       0.00000       2.50346
Nuclear contribution   :      0.00000       0.00000      -1.29253
                        -----------------------------------------
Total Dipole Moment    :     -0.00000       0.00000       1.21093
                        -----------------------------------------
Magnitude (a.u.)       :      1.21093
Magnitude (Debye)      :      3.07794

Rotational constants in cm-1:     0.000000     0.198182     0.198182
Rotational constants in MHz :     0.000000  5941.359671  5941.359671

                             ****ORCA TERMINATED NORMALLY****
TOTAL RUN TIME: 0 days 0 hours 0 minutes 40 seconds 708 msec
