                         Program Version 5.0.4 -  RELEASE  -
|  1> !ri-mp2 aug-cc-pvqz aug-cc-pvqz/c tightscf
|  2> %pal nprocs 16 end
|  3>
|  4> * xyz 0 1
|  5> H     -2.590075    1.232318   -0.681766
|  6> H     -2.238693    1.101270    1.028530
|  7> C     -1.912106    0.776892    0.039228
|  8> H     -2.427878   -1.128437   -0.935303
|  9> H     -2.435411   -1.206457    0.811001
| 10> C     -1.913085   -0.775183   -0.042566
| 11> H     -0.116781   -1.457884   -1.078076
| 12> H     -0.224491   -2.076259    0.562195
| 13> C     -0.425486   -1.206167   -0.060963
| 14> H     -0.202025    2.158408    0.251061
| 15> H     -0.233592    1.261134   -1.263701
| 16> C     -0.451026    1.195668   -0.195623
| 17> H      0.319079    0.094769    1.494721
| 18> C      0.345505    0.036292    0.405726
| 19> H      2.525374    1.067170    0.480115
| 20> S      2.110105   -0.075690   -0.096475
| 21> *
| 22>
| 23>                          ****END OF INPUT****

CARTESIAN COORDINATES (ANGSTROEM)
---------------------------------
  H     -2.590075    1.232318   -0.681766
  H     -2.238693    1.101270    1.028530
  C     -1.912106    0.776892    0.039228
  H     -2.427878   -1.128437   -0.935303
  H     -2.435411   -1.206457    0.811001
  C     -1.913085   -0.775183   -0.042566
  H     -0.116781   -1.457884   -1.078076
  H     -0.224491   -2.076259    0.562195
  C     -0.425486   -1.206167   -0.060963
  H     -0.202025    2.158408    0.251061
  H     -0.233592    1.261134   -1.263701
  C     -0.451026    1.195668   -0.195623
  H      0.319079    0.094769    1.494721
  C      0.345505    0.036292    0.405726
  H      2.525374    1.067170    0.480115
  S      2.110105   -0.075690   -0.096475

 Total Charge           Charge          ....    0
 Multiplicity           Mult            ....    1
 Number of Electrons    NEL             ....   56
 Basis Dimension        Dim             ....  944

ORBITAL ENERGIES
----------------

  NO   OCC          E(Eh)            E(eV)
   0   2.0000     -91.944168     -2501.9280
   1   2.0000     -11.259801      -306.3948
   2   2.0000     -11.225330      -305.4567
   3   2.0000     -11.222946      -305.3919
   4   2.0000     -11.222431      -305.3779
   5   2.0000     -11.221749      -305.3593
   6   2.0000      -8.946442      -243.4451
   7   2.0000      -6.628025      -180.3577
   8   2.0000      -6.627089      -180.3322
   9   2.0000      -6.626214      -180.3084
  10   2.0000      -1.135229       -30.8912
  11   2.0000      -1.009748       -27.4766
  12   2.0000      -0.970938       -26.4206
  13   2.0000      -0.903692       -24.5907
  14   2.0000      -0.784802       -21.3556
  15   2.0000      -0.770871       -20.9765
  16   2.0000      -0.664417       -18.0797
  17   2.0000      -0.634071       -17.2540
  18   2.0000      -0.591299       -16.0901
  19   2.0000      -0.582431       -15.8487
  20   2.0000      -0.526114       -14.3163
  21   2.0000      -0.489000       -13.3064
  22   2.0000      -0.483494       -13.1565
  23   2.0000      -0.478228       -13.0133
  24   2.0000      -0.468577       -12.7506
  25   2.0000      -0.462500       -12.5853
  26   2.0000      -0.435115       -11.8401
  27   2.0000      -0.351491        -9.5645
  28   0.0000       0.025776         0.7014
  29   0.0000       0.031459         0.8560
  30   0.0000       0.032666         0.8889
  31   0.0000       0.036291         0.9875
  32   0.0000       0.048942         1.3318

MULLIKEN ATOMIC CHARGES
-----------------------
   0 H :    0.312790
   1 H :    0.194005
   2 C :   -0.569762
   3 H :    0.258986
   4 H :    0.214854
   5 C :   -0.430162
   6 H :    0.223987
   7 H :    0.341063
   8 C :   -0.549165
   9 H :    0.382613
  10 H :    0.207820
  11 C :   -0.556627
  12 H :    0.241988
  13 C :    0.029213
  14 H :   -0.028923
  15 S :   -0.272681
Sum of atomic charges:   -0.0000000

LOEWDIN ATOMIC CHARGES
----------------------
   0 H :   -0.262380
   1 H :   -0.269933
   2 C :    0.546313
   3 H :   -0.267638
   4 H :   -0.269033
   5 C :    0.558446
   6 H :   -0.297910
   7 H :   -0.267123
   8 C :    0.437470
   9 H :   -0.265670
  10 H :   -0.289015
  11 C :    0.448544
  12 H :   -0.345100
  13 C :   -0.300525
  14 H :   -0.770760
  15 S :    1.614314

  Mayer bond orders larger than 0.100000
B(  0-H ,  2-C ) :   0.8832 B(  1-H ,  2-C ) :   0.9720 B(  2-C ,  5-C ) :   0.9609
B(  2-C , 11-C ) :   0.9938 B(  3-H ,  5-C ) :   0.9199 B(  4-H ,  5-C ) :   0.9663
B(  5-C ,  8-C ) :   0.9586 B(  6-H ,  8-C ) :   0.9771 B(  7-H ,  8-C ) :   0.8552
B(  8-C , 13-C ) :   0.8561 B(  9-H , 11-C ) :   0.8252 B( 10-H , 11-C ) :   0.9532
B( 11-C , 13-C ) :   0.8785 B( 12-H , 13-C ) :   0.9092 B( 13-C , 15-S ) :   0.6377
B( 14-H , 15-S ) :   1.1207

MP2 TOTAL ENERGY:     -593.907864805 Eh
FINAL SINGLE POINT ENERGY      -593.907864805296

DIPOLE MOMENT
-------------
                                X             Y             Z
Electronic contribution:      7.25384      -0.79846      -0.41884
Nuclear contribution   :     -7.91361       1.07891       0.69133
                        -----------------------------------------
Total Dipole Moment    :     -0.65977       0.28044       0.27249
                        -----------------------------------------
Magnitude (a.u.)       :      0.76694
Magnitude (Debye)      :      1.94940

Rotational constants in cm-1:     0.210068     0.060617     0.050278
Rotational constants in MHz :  6297.681656  1817.248691  1507.289981

                             ****ORCA TERMINATED NORMALLY****
TOTAL RUN TIME: 0 days 0 hours 40 minutes 24 seconds 227 msec
