                         Program Version 5.0.4 -  RELEASE  -
|  1> !ri-mp2 aug-cc-pvqz aug-cc-pvqz/c tightscf
|  2> %pal nprocs 16 end
|  3>
|  4> * xyz 0 1
|  5> H     -1.297824    0.008644   -1.543899
|  6> H     -2.422921    0.029181   -0.180212
|  7> C     -1.370643    0.014803   -0.458265
|  8> H     -0.900800    1.519610    1.097315
|  9> H     -0.113750    1.903984   -0.444735
| 10> C     -0.464979    1.093290    0.193316
| 11> H      0.987868   -0.008659    1.529152
| 12> C      0.579115   -0.009257    0.514978
| 13> H     -0.932014   -1.492737    1.105684
| 14> H     -0.141293   -1.892778   -0.431151
| 15> C     -0.487824   -1.078003    0.201469
| 16> H      2.214363    0.655067   -0.337686
| 17> O      1.634045   -0.105913   -0.437932
| 18> *
| 19>
| 20>                          ****END OF INPUT****

CARTESIAN COORDINATES (ANGSTROEM)
---------------------------------
  H     -1.297824    0.008644   -1.543899
  H     -2.422921    0.029181   -0.180212
  C     -1.370643    0.014803   -0.458265
  H     -0.900800    1.519610    1.097315
  H     -0.113750    1.903984   -0.444735
  C     -0.464979    1.093290    0.193316
  H      0.987868   -0.008659    1.529152
  C      0.579115   -0.009257    0.514978
  H     -0.932014   -1.492737    1.105684
  H     -0.141293   -1.892778   -0.431151
  C     -0.487824   -1.078003    0.201469
  H      2.214363    0.655067   -0.337686
  O      1.634045   -0.105913   -0.437932

 Total Charge           Charge          ....    0
 Multiplicity           Mult            ....    1
 Number of Electrons    NEL             ....   40
 Basis Dimension        Dim             ....  768

ORBITAL ENERGIES
----------------

  NO   OCC          E(Eh)            E(eV)
   0   2.0000     -20.552983      -559.2751
   1   2.0000     -11.275301      -306.8165
   2   2.0000     -11.217904      -305.2547
   3   2.0000     -11.216794      -305.2245
   4   2.0000     -11.214340      -305.1577
   5   2.0000      -1.356846       -36.9217
   6   2.0000      -1.112490       -30.2724
   7   2.0000      -0.903619       -24.5887
   8   2.0000      -0.885365       -24.0920
   9   2.0000      -0.750247       -20.4153
  10   2.0000      -0.695699       -18.9309
  11   2.0000      -0.653868       -17.7927
  12   2.0000      -0.622138       -16.9292
  13   2.0000      -0.568966       -15.4823
  14   2.0000      -0.535914       -14.5830
  15   2.0000      -0.516767       -14.0619
  16   2.0000      -0.476656       -12.9705
  17   2.0000      -0.467546       -12.7226
  18   2.0000      -0.433266       -11.7898
  19   2.0000      -0.413086       -11.2406
  20   0.0000       0.026280         0.7151
  21   0.0000       0.033687         0.9167
  22   0.0000       0.034808         0.9472
  23   0.0000       0.038519         1.0482
  24   0.0000       0.051161         1.3922

MULLIKEN ATOMIC CHARGES
-----------------------
   0 H :    0.298752
   1 H :    0.311007
   2 C :   -0.527419
   3 H :    0.297816
   4 H :    0.299146
   5 C :   -0.746502
   6 H :    0.396605
   7 C :    0.371381
   8 H :    0.267817
   9 H :    0.294494
  10 C :   -0.735735
  11 H :    0.310525
  12 O :   -0.837888
Sum of atomic charges:   -0.0000000

LOEWDIN ATOMIC CHARGES
----------------------
   0 H :   -0.272192
   1 H :   -0.265603
   2 C :    0.548730
   3 H :   -0.272631
   4 H :   -0.270670
   5 C :    0.540805
   6 H :   -0.278078
   7 C :   -0.202347
   8 H :   -0.270681
   9 H :   -0.271450
  10 C :    0.527716
  11 H :   -0.787660
  12 O :    1.274061

  Mayer bond orders larger than 0.100000
B(  0-H ,  2-C ) :   0.8803 B(  1-H ,  2-C ) :   0.8802 B(  2-C ,  5-C ) :   1.0346
B(  2-C ,  7-C ) :  -0.1312 B(  2-C , 10-C ) :   1.0318 B(  3-H ,  5-C ) :   0.8911
B(  4-H ,  5-C ) :   0.8798 B(  5-C ,  7-C ) :   0.9152 B(  5-C , 12-O ) :   0.1193
B(  6-H ,  7-C ) :   0.8035 B(  7-C , 10-C ) :   0.9293 B(  7-C , 12-O ) :   0.4827
B(  8-H , 10-C ) :   0.9227 B(  9-H , 10-C ) :   0.8906 B( 10-C , 12-O ) :   0.1189
B( 11-H , 12-O ) :   0.9216

MP2 TOTAL ENERGY:     -232.046463122 Eh
FINAL SINGLE POINT ENERGY      -232.046463121774

DIPOLE MOMENT
-------------
                                X             Y             Z
Electronic contribution:      2.56312      -0.27162      -0.40289
Nuclear contribution   :     -2.68855       0.75078       0.82050
                        -----------------------------------------
Total Dipole Moment    :     -0.12542       0.47916       0.41762
                        -----------------------------------------
Magnitude (a.u.)       :      0.64787
Magnitude (Debye)      :      1.64675

Rotational constants in cm-1:     0.289919     0.156924     0.128949
Rotational constants in MHz :  8691.556030  4704.455324  3865.795691

                             ****ORCA TERMINATED NORMALLY****
TOTAL RUN TIME: 0 days 0 hours 19 minutes 54 seconds 922 msec
