                         Program Version 5.0.4 -  RELEASE  -
|  1> !ri-mp2 aug-cc-pvqz aug-cc-pvqz/c tightscf
|  2> %pal nprocs 16 end
|  3>
|  4> * xyz 0 1
|  5> C     -1.730590   -2.882390        0.000000
|  6> O     -1.562058   -4.083390        0.000000
|  7> C     -0.655985   -1.894403        0.000000
|  8> C     -0.933573   -0.580286        0.000000
|  9> C      0.000000    0.539524        0.000000
| 10> C     -0.511516    1.844139        0.000000
| 11> C      0.333448    2.945067        0.000000
| 12> C      1.710603    2.761404        0.000000
| 13> C      2.236083    1.470696        0.000000
| 14> C      1.393141    0.372360        0.000000
| 15> H     -2.755406   -2.457004        0.000000
| 16> H      0.353546   -2.285206        0.000000
| 17> H     -1.983825   -0.299778        0.000000
| 18> H     -1.584212    1.989985        0.000000
| 19> H     -0.081742    3.943603        0.000000
| 20> H      2.373203    3.616136        0.000000
| 21> H      3.307662    1.324322        0.000000
| 22> H      1.817575   -0.621621        0.000000
| 23> *
| 24>
| 25>                          ****END OF INPUT****

CARTESIAN COORDINATES (ANGSTROEM)
---------------------------------
  C     -1.730590   -2.882390    0.000000
  O     -1.562058   -4.083390    0.000000
  C     -0.655985   -1.894403    0.000000
  C     -0.933573   -0.580286    0.000000
  C      0.000000    0.539524    0.000000
  C     -0.511516    1.844139    0.000000
  C      0.333448    2.945067    0.000000
  C      1.710603    2.761404    0.000000
  C      2.236083    1.470696    0.000000
  C      1.393141    0.372360    0.000000
  H     -2.755406   -2.457004    0.000000
  H      0.353546   -2.285206    0.000000
  H     -1.983825   -0.299778    0.000000
  H     -1.584212    1.989985    0.000000
  H     -0.081742    3.943603    0.000000
  H      2.373203    3.616136    0.000000
  H      3.307662    1.324322    0.000000
  H      1.817575   -0.621621    0.000000

 Total Charge           Charge          ....    0
 Multiplicity           Mult            ....    1
 Number of Electrons    NEL             ....   70
 Basis Dimension        Dim             .... 1168

ORBITAL ENERGIES
----------------

  NO   OCC          E(Eh)            E(eV)
   0   2.0000     -20.546084      -559.0874
   1   2.0000     -11.327781      -308.2446
   2   2.0000     -11.276841      -306.8584
   3   2.0000     -11.263078      -306.4839
   4   2.0000     -11.255765      -306.2849
   5   2.0000     -11.254328      -306.2458
   6   2.0000     -11.253756      -306.2303
   7   2.0000     -11.250293      -306.1360
   8   2.0000     -11.250066      -306.1299
   9   2.0000     -11.245324      -306.0008
  10   2.0000      -1.382599       -37.6224
  11   2.0000      -1.180806       -32.1314
  12   2.0000      -1.106143       -30.0997
  13   2.0000      -1.037069       -28.2201
  14   2.0000      -1.027979       -27.9727
  15   2.0000      -0.902037       -24.5457
  16   2.0000      -0.851228       -23.1631
  17   2.0000      -0.817181       -22.2366
  18   2.0000      -0.779744       -21.2179
  19   2.0000      -0.723183       -19.6788
  20   2.0000      -0.679079       -18.4787
  21   2.0000      -0.669268       -18.2117
  22   2.0000      -0.635829       -17.3018
  23   2.0000      -0.627710       -17.0809
  24   2.0000      -0.606031       -16.4909
  25   2.0000      -0.600264       -16.3340
  26   2.0000      -0.557259       -15.1638
  27   2.0000      -0.545117       -14.8334
  28   2.0000      -0.526823       -14.3356
  29   2.0000      -0.521898       -14.2016
  30   2.0000      -0.507944       -13.8219
  31   2.0000      -0.426885       -11.6161
  32   2.0000      -0.425195       -11.5701
  33   2.0000      -0.357284        -9.7222
  34   2.0000      -0.326078        -8.8730
  35   0.0000       0.019053         0.5185
  36   0.0000       0.023103         0.6287
  37   0.0000       0.028726         0.7817
  38   0.0000       0.037041         1.0079
  39   0.0000       0.042298         1.1510

MULLIKEN ATOMIC CHARGES
-----------------------
   0 C :    0.485612
   1 O :   -0.771800
   2 C :   -0.781431
   3 C :   -0.141684
   4 C :    0.383274
   5 C :   -0.338507
   6 C :   -0.324347
   7 C :   -0.404243
   8 C :   -0.278145
   9 C :   -0.202529
  10 H :    0.351331
  11 H :    0.408781
  12 H :    0.239814
  13 H :    0.260169
  14 H :    0.278956
  15 H :    0.310551
  16 H :    0.249962
  17 H :    0.274235
Sum of atomic charges:    0.0000000

LOEWDIN ATOMIC CHARGES
----------------------
   0 C :   -0.297920
   1 O :    0.676587
   2 C :    0.335702
   3 C :    0.345257
   4 C :   -0.085554
   5 C :    0.338736
   6 C :    0.354224
   7 C :    0.348403
   8 C :    0.358094
   9 C :    0.342352
  10 H :   -0.377280
  11 H :   -0.365388
  12 H :   -0.356610
  13 H :   -0.321299
  14 H :   -0.320891
  15 H :   -0.319468
  16 H :   -0.319625
  17 H :   -0.335322

  Mayer bond orders larger than 0.100000
B(  0-C ,  1-O ) :   1.3233 B(  0-C ,  2-C ) :   1.2853 B(  0-C ,  3-C ) :  -0.4201
B(  0-C , 10-H ) :   0.9109 B(  1-O ,  2-C ) :   0.1652 B(  2-C ,  3-C ) :   1.2933
B(  2-C ,  4-C ) :  -0.2837 B(  2-C ,  9-C ) :  -0.1558 B(  2-C , 10-H ) :  -0.1149
B(  2-C , 11-H ) :   0.8270 B(  3-C ,  4-C ) :   0.7397 B(  3-C ,  5-C ) :  -0.4044
B(  3-C ,  9-C ) :  -0.3832 B(  3-C , 12-H ) :   0.9468 B(  4-C ,  5-C ) :   0.9738
B(  4-C ,  6-C ) :  -0.3618 B(  4-C ,  7-C ) :   0.1100 B(  4-C ,  8-C ) :  -0.3039
B(  4-C ,  9-C ) :   1.2123 B(  4-C , 12-H ) :  -0.1730 B(  4-C , 13-H ) :  -0.1140
B(  5-C ,  6-C ) :   1.1822 B(  5-C ,  9-C ) :   0.1056 B(  5-C , 13-H ) :   1.0105
B(  5-C , 14-H ) :  -0.1427 B(  6-C ,  7-C ) :   1.2030 B(  6-C ,  9-C ) :   0.1133
B(  6-C , 14-H ) :   1.1137 B(  7-C ,  8-C ) :   1.1895 B(  7-C , 14-H ) :  -0.1048
B(  7-C , 15-H ) :   1.0160 B(  8-C ,  9-C ) :   1.1402 B(  8-C , 16-H ) :   1.1182
B(  9-C , 16-H ) :  -0.1257 B(  9-C , 17-H ) :   0.9566

MP2 TOTAL ENERGY:     -422.247739486 Eh
FINAL SINGLE POINT ENERGY      -422.247739485661

DIPOLE MOMENT
-------------
                                X             Y             Z
Electronic contribution:     -1.10215      -3.15745      -0.00000
Nuclear contribution   :      1.41468       5.11893       0.00000
                        -----------------------------------------
Total Dipole Moment    :      0.31253       1.96148      -0.00000
                        -----------------------------------------
Magnitude (a.u.)       :      1.98622
Magnitude (Debye)      :      5.04858

Rotational constants in cm-1:     0.164162     0.019311     0.017278
Rotational constants in MHz :  4921.447248   578.925990   517.992797

                             ****ORCA TERMINATED NORMALLY****
TOTAL RUN TIME: 0 days 1 hours 33 minutes 43 seconds 976 msec
