                         Program Version 5.0.4 -  RELEASE  -
|  1> !ri-mp2 aug-cc-pvqz aug-cc-pvqz/c tightscf
|  2> %pal nprocs 16 end
|  3>
|  4> * xyz 0 1
|  5> C     0.000000     0.667446    0.812417
|  6> C     0.000000    -0.667446    0.812417
|  7> C     0.000000     0.784886   -0.698476
|  8> C     0.000000    -0.784886   -0.698476
|  9> H     0.000000     1.411038    1.598258
| 10> H     0.000000    -1.411038    1.598258
| 11> H     0.886543     1.242452   -1.140953
| 12> H    -0.886543    -1.242452   -1.140953
| 13> H    -0.886543     1.242452   -1.140953
| 14> H     0.886543    -1.242452   -1.140953
| 15> *
| 16>
| 17>                          ****END OF INPUT****

CARTESIAN COORDINATES (ANGSTROEM)
---------------------------------
  C      0.000000    0.667446    0.812417
  C      0.000000   -0.667446    0.812417
  C      0.000000    0.784886   -0.698476
  C      0.000000   -0.784886   -0.698476
  H      0.000000    1.411038    1.598258
  H      0.000000   -1.411038    1.598258
  H      0.886543    1.242452   -1.140953
  H     -0.886543   -1.242452   -1.140953
  H     -0.886543    1.242452   -1.140953
  H      0.886543   -1.242452   -1.140953

 Total Charge           Charge          ....    0
 Multiplicity           Mult            ....    1
 Number of Electrons    NEL             ....   30
 Basis Dimension        Dim             ....  596

ORBITAL ENERGIES
----------------

  NO   OCC          E(Eh)            E(eV)
   0   2.0000     -11.225776      -305.4689
   1   2.0000     -11.224754      -305.4411
   2   2.0000     -11.224536      -305.4352
   3   2.0000     -11.223786      -305.4148
   4   2.0000      -1.145212       -31.1628
   5   2.0000      -0.897715       -24.4281
   6   2.0000      -0.876691       -23.8560
   7   2.0000      -0.707301       -19.2466
   8   2.0000      -0.674593       -18.3566
   9   2.0000      -0.622719       -16.9451
  10   2.0000      -0.533430       -14.5154
  11   2.0000      -0.506240       -13.7755
  12   2.0000      -0.462522       -12.5859
  13   2.0000      -0.455267       -12.3884
  14   2.0000      -0.351173        -9.5559
  15   0.0000       0.028320         0.7706
  16   0.0000       0.033097         0.9006
  17   0.0000       0.035631         0.9696
  18   0.0000       0.039168         1.0658
  19   0.0000       0.049153         1.3375

MULLIKEN ATOMIC CHARGES
-----------------------
   0 C :   -0.535173
   1 C :   -0.535173
   2 C :   -0.519715
   3 C :   -0.519715
   4 H :    0.478968
   5 H :    0.478968
   6 H :    0.287960
   7 H :    0.287960
   8 H :    0.287960
   9 H :    0.287960
Sum of atomic charges:    0.0000000

LOEWDIN ATOMIC CHARGES
----------------------
   0 C :    0.391117
   1 C :    0.391117
   2 C :    0.474716
   3 C :    0.474716
   4 H :   -0.302950
   5 H :   -0.302950
   6 H :   -0.281441
   7 H :   -0.281441
   8 H :   -0.281441
   9 H :   -0.281441

  Mayer bond orders larger than 0.100000
B(  0-C ,  1-C ) :   1.7561 B(  0-C ,  2-C ) :   1.0714 B(  0-C ,  3-C ) :  -0.1031
B(  0-C ,  4-H ) :   0.7160 B(  1-C ,  2-C ) :  -0.1031 B(  1-C ,  3-C ) :   1.0714
B(  1-C ,  5-H ) :   0.7160 B(  2-C ,  3-C ) :   1.0345 B(  2-C ,  6-H ) :   0.8737
B(  2-C ,  8-H ) :   0.8737 B(  3-C ,  7-H ) :   0.8737 B(  3-C ,  9-H ) :   0.8737

MP2 TOTAL ENERGY:     -155.668196830 Eh
FINAL SINGLE POINT ENERGY      -155.668196830259

DIPOLE MOMENT
-------------
                                X             Y             Z
Electronic contribution:     -0.00000      -0.00000       1.38361
Nuclear contribution   :      0.00000       0.00000      -1.42417
                        -----------------------------------------
Total Dipole Moment    :     -0.00000      -0.00000      -0.04056
                        -----------------------------------------
Magnitude (a.u.)       :      0.04056
Magnitude (Debye)      :      0.10311

Rotational constants in cm-1:     0.433279     0.410082     0.228804
Rotational constants in MHz : 12989.382311 12293.961324  6859.383718

                             ****ORCA TERMINATED NORMALLY****
TOTAL RUN TIME: 0 days 0 hours 7 minutes 25 seconds 746 msec
