                         Program Version 5.0.4 -  RELEASE  -
|  1> !ri-mp2 aug-cc-pvqz aug-cc-pvqz/c tightscf
|  2> %pal nprocs 16 end
|  3>
|  4> * xyz 0 1
|  5> O     -2.011808   -0.775896   -0.227722
|  6> O     -1.126265    1.260042   -0.024183
|  7> N      1.364084    0.336361    0.181249
|  8> N      2.444806    0.013050   -0.303623
|  9> C     -1.063326   -0.080407   -0.006367
| 10> C      0.305241   -0.661369    0.352535
| 11> H     -0.236965    1.621218    0.140319
| 12> H      2.475277   -1.001924   -0.544358
| 13> H      0.269739   -0.910304    1.417114
| 14> H      0.482809   -1.577382   -0.218226
| 15> *
| 16>
| 17>                          ****END OF INPUT****

CARTESIAN COORDINATES (ANGSTROEM)
---------------------------------
  O     -2.011808   -0.775896   -0.227722
  O     -1.126265    1.260042   -0.024183
  N      1.364084    0.336361    0.181249
  N      2.444806    0.013050   -0.303623
  C     -1.063326   -0.080407   -0.006367
  C      0.305241   -0.661369    0.352535
  H     -0.236965    1.621218    0.140319
  H      2.475277   -1.001924   -0.544358
  H      0.269739   -0.910304    1.417114
  H      0.482809   -1.577382   -0.218226

 Total Charge           Charge          ....    0
 Multiplicity           Mult            ....    1
 Number of Electrons    NEL             ....   46
 Basis Dimension        Dim             ....  664

ORBITAL ENERGIES
----------------

  NO   OCC          E(Eh)            E(eV)
   0   2.0000     -20.618885      -561.0684
   1   2.0000     -20.556095      -559.3598
   2   2.0000     -15.671245      -426.4363
   3   2.0000     -15.661217      -426.1634
   4   2.0000     -11.402404      -310.2752
   5   2.0000     -11.312252      -307.8220
   6   2.0000      -1.474838       -40.1324
   7   2.0000      -1.405408       -38.2431
   8   2.0000      -1.379426       -37.5361
   9   2.0000      -1.090497       -29.6739
  10   2.0000      -0.909938       -24.7607
  11   2.0000      -0.840023       -22.8582
  12   2.0000      -0.773207       -21.0400
  13   2.0000      -0.733396       -19.9567
  14   2.0000      -0.695387       -18.9224
  15   2.0000      -0.664053       -18.0698
  16   2.0000      -0.623406       -16.9637
  17   2.0000      -0.596034       -16.2189
  18   2.0000      -0.574882       -15.6433
  19   2.0000      -0.535656       -14.5759
  20   2.0000      -0.489241       -13.3129
  21   2.0000      -0.464158       -12.6304
  22   2.0000      -0.431778       -11.7493
  23   0.0000       0.018573         0.5054
  24   0.0000       0.030852         0.8395
  25   0.0000       0.037748         1.0272
  26   0.0000       0.043206         1.1757
  27   0.0000       0.064063         1.7432

MULLIKEN ATOMIC CHARGES
-----------------------
   0 O :   -0.719468
   1 O :   -0.715801
   2 N :   -0.111474
   3 N :   -0.423316
   4 C :    0.996320
   5 C :   -0.308562
   6 H :    0.380195
   7 H :    0.282335
   8 H :    0.357005
   9 H :    0.262766
Sum of atomic charges:    0.0000000

LOEWDIN ATOMIC CHARGES
----------------------
   0 O :    0.665064
   1 O :    1.245882
   2 N :    0.346492
   3 N :    0.761866
   4 C :   -1.037075
   5 C :    0.247735
   6 H :   -0.925878
   7 H :   -0.661814
   8 H :   -0.305003
   9 H :   -0.337270

  Mayer bond orders larger than 0.100000
B(  0-O ,  4-C ) :   1.5717 B(  1-O ,  4-C ) :   0.8560 B(  1-O ,  6-H ) :   0.8135
B(  2-N ,  3-N ) :   1.6283 B(  2-N ,  5-C ) :   0.8683 B(  3-N ,  7-H ) :   0.8481
B(  4-C ,  5-C ) :   1.0997 B(  5-C ,  8-H ) :   0.7955 B(  5-C ,  9-H ) :   0.9278

MP2 TOTAL ENERGY:     -338.074260250 Eh
FINAL SINGLE POINT ENERGY      -338.074260249656

DIPOLE MOMENT
-------------
                                X             Y             Z
Electronic contribution:     -1.60027       1.25589      -0.40531
Nuclear contribution   :      2.90739      -1.82336       0.77513
                        -----------------------------------------
Total Dipole Moment    :      1.30712      -0.56747       0.36982
                        -----------------------------------------
Magnitude (a.u.)       :      1.47219
Magnitude (Debye)      :      3.74202

Rotational constants in cm-1:     0.304903     0.075754     0.063638
Rotational constants in MHz :  9140.772818  2271.039570  1907.827460

                             ****ORCA TERMINATED NORMALLY****
TOTAL RUN TIME: 0 days 0 hours 10 minutes 11 seconds 732 msec
