                         Program Version 5.0.4 -  RELEASE  -
|  1> !ri-mp2 aug-cc-pvqz aug-cc-pvqz/c tightscf
|  2> %pal nprocs 16 end
|  3>
|  4> * xyz 0 1
|  5> C     0.000000     1.391186   -0.512622
|  6> C     0.000000    -1.391186   -0.512622
|  7> S     0.000000     0.000000    0.659277
|  8> H     0.891412     1.376095   -1.138641
|  9> H     0.000000     2.304501    0.078799
| 10> H    -0.891412     1.376095   -1.138641
| 11> H     0.891412    -1.376095   -1.138641
| 12> H    -0.891412    -1.376095   -1.138641
| 13> H     0.000000    -2.304501    0.078799
| 14> *
| 15>
| 16>                          ****END OF INPUT****

CARTESIAN COORDINATES (ANGSTROEM)
---------------------------------
  C      0.000000    1.391186   -0.512622
  C      0.000000   -1.391186   -0.512622
  S      0.000000    0.000000    0.659277
  H      0.891412    1.376095   -1.138641
  H      0.000000    2.304501    0.078799
  H     -0.891412    1.376095   -1.138641
  H      0.891412   -1.376095   -1.138641
  H     -0.891412   -1.376095   -1.138641
  H      0.000000   -2.304501    0.078799

 Total Charge           Charge          ....    0
 Multiplicity           Mult            ....    1
 Number of Electrons    NEL             ....   34
 Basis Dimension        Dim             ....  520

ORBITAL ENERGIES
----------------

  NO   OCC          E(Eh)            E(eV)
   0   2.0000     -91.942567     -2501.8844
   1   2.0000     -11.249464      -306.1135
   2   2.0000     -11.249454      -306.1132
   3   2.0000      -8.943762      -243.3721
   4   2.0000      -6.625377      -180.2857
   5   2.0000      -6.624444      -180.2603
   6   2.0000      -6.623561      -180.2362
   7   2.0000      -1.056138       -28.7390
   8   2.0000      -0.950839       -25.8736
   9   2.0000      -0.806977       -21.9590
  10   2.0000      -0.602560       -16.3965
  11   2.0000      -0.600293       -16.3348
  12   2.0000      -0.577612       -15.7176
  13   2.0000      -0.565394       -15.3852
  14   2.0000      -0.491768       -13.3817
  15   2.0000      -0.433090       -11.7850
  16   2.0000      -0.336129        -9.1465
  17   0.0000       0.027039         0.7358
  18   0.0000       0.033479         0.9110
  19   0.0000       0.039796         1.0829
  20   0.0000       0.042643         1.1604
  21   0.0000       0.056570         1.5394

MULLIKEN ATOMIC CHARGES
-----------------------
   0 C :   -0.942980
   1 C :   -0.942980
   2 S :    0.100372
   3 H :    0.262451
   4 H :    0.367891
   5 H :    0.262451
   6 H :    0.262451
   7 H :    0.262451
   8 H :    0.367891
Sum of atomic charges:   -0.0000000

LOEWDIN ATOMIC CHARGES
----------------------
   0 C :    0.527511
   1 C :    0.527511
   2 S :    1.247174
   3 H :   -0.375150
   4 H :   -0.400797
   5 H :   -0.375150
   6 H :   -0.375150
   7 H :   -0.375150
   8 H :   -0.400797

  Mayer bond orders larger than 0.100000
B(  0-C ,  2-S ) :   1.0261 B(  0-C ,  3-H ) :   0.9184 B(  0-C ,  4-H ) :   0.8532
B(  0-C ,  5-H ) :   0.9184 B(  1-C ,  2-S ) :   1.0261 B(  1-C ,  6-H ) :   0.9184
B(  1-C ,  7-H ) :   0.9184 B(  1-C ,  8-H ) :   0.8532

MP2 TOTAL ENERGY:     -477.393054778 Eh
FINAL SINGLE POINT ENERGY      -477.393054778358

DIPOLE MOMENT
-------------
                                X             Y             Z
Electronic contribution:     -0.00000      -0.00000       3.84800
Nuclear contribution   :      0.00000      -0.00000      -4.53992
                        -----------------------------------------
Total Dipole Moment    :     -0.00000      -0.00000      -0.69192
                        -----------------------------------------
Magnitude (a.u.)       :      0.69192
Magnitude (Debye)      :      1.75871

Rotational constants in cm-1:     0.593976     0.247770     0.187285
Rotational constants in MHz : 17806.967165  7427.944058  5614.652687

                             ****ORCA TERMINATED NORMALLY****
TOTAL RUN TIME: 0 days 0 hours 4 minutes 16 seconds 153 msec
