                         Program Version 5.0.4 -  RELEASE  -
|  1> !ri-mp2 aug-cc-pvqz aug-cc-pvqz/c tightscf
|  2> %pal nprocs 16 end
|  3>
|  4> * xyz 0 1
|  5> N     -0.135879   -0.159469    0.000000
|  6> O      1.161592   -0.759998    0.000000
|  7> H      1.809832   -0.031424    0.000000
|  8> C     -0.288759   -0.230429    2.472841
|  9> C     -0.288759   -0.230429   -2.472841
| 10> C     -0.288759    0.629302    1.218177
| 11> C     -0.288759    0.629302   -1.218177
| 12> H      0.647697   -0.775732    2.573295
| 13> H      0.647697   -0.775732   -2.573295
| 14> H      0.502431    1.398690   -1.280754
| 15> H      0.502431    1.398690    1.280754
| 16> H     -1.239354    1.157946   -1.127847
| 17> H     -1.239354    1.157946    1.127847
| 18> H     -1.101796   -0.955280    2.437155
| 19> H     -1.101796   -0.955280   -2.437155
| 20> H     -0.419577    0.394984    3.356866
| 21> H     -0.419577    0.394984   -3.356866
| 22> *
| 23>
| 24>                          ****END OF INPUT****

CARTESIAN COORDINATES (ANGSTROEM)
---------------------------------
  N     -0.135879   -0.159469    0.000000
  O      1.161592   -0.759998    0.000000
  H      1.809832   -0.031424    0.000000
  C     -0.288759   -0.230429    2.472841
  C     -0.288759   -0.230429   -2.472841
  C     -0.288759    0.629302    1.218177
  C     -0.288759    0.629302   -1.218177
  H      0.647697   -0.775732    2.573295
  H      0.647697   -0.775732   -2.573295
  H      0.502431    1.398690   -1.280754
  H      0.502431    1.398690    1.280754
  H     -1.239354    1.157946   -1.127847
  H     -1.239354    1.157946    1.127847
  H     -1.101796   -0.955280    2.437155
  H     -1.101796   -0.955280   -2.437155
  H     -0.419577    0.394984    3.356866
  H     -0.419577    0.394984   -3.356866

 Total Charge           Charge          ....    0
 Multiplicity           Mult            ....    1
 Number of Electrons    NEL             ....   50
 Basis Dimension        Dim             ....  986

ORBITAL ENERGIES
----------------

  NO   OCC          E(Eh)            E(eV)
   0   2.0000     -20.580762      -560.0310
   1   2.0000     -15.603066      -424.5810
   2   2.0000     -11.254670      -306.2552
   3   2.0000     -11.254651      -306.2546
   4   2.0000     -11.209277      -305.0199
   5   2.0000     -11.209277      -305.0199
   6   2.0000      -1.401111       -38.1262
   7   2.0000      -1.149613       -31.2826
   8   2.0000      -1.036675       -28.2094
   9   2.0000      -0.960495       -26.1364
  10   2.0000      -0.841130       -22.8883
  11   2.0000      -0.819251       -22.2929
  12   2.0000      -0.672295       -18.2941
  13   2.0000      -0.664059       -18.0700
  14   2.0000      -0.663167       -18.0457
  15   2.0000      -0.608076       -16.5466
  16   2.0000      -0.565604       -15.3909
  17   2.0000      -0.560659       -15.2563
  18   2.0000      -0.529088       -14.3972
  19   2.0000      -0.521217       -14.1830
  20   2.0000      -0.502395       -13.6709
  21   2.0000      -0.488460       -13.2917
  22   2.0000      -0.487754       -13.2724
  23   2.0000      -0.463588       -12.6149
  24   2.0000      -0.383045       -10.4232
  25   0.0000       0.025191         0.6855
  26   0.0000       0.030704         0.8355
  27   0.0000       0.032666         0.8889
  28   0.0000       0.037059         1.0084
  29   0.0000       0.047648         1.2966

MULLIKEN ATOMIC CHARGES
-----------------------
   0 N :   -0.054577
   1 O :   -0.718145
   2 H :    0.339696
   3 C :   -0.872110
   4 C :   -0.872110
   5 C :   -0.199194
   6 C :   -0.199195
   7 H :    0.234238
   8 H :    0.234238
   9 H :    0.228171
  10 H :    0.228171
  11 H :    0.298981
  12 H :    0.298981
  13 H :    0.236256
  14 H :    0.236256
  15 H :    0.290170
  16 H :    0.290170
Sum of atomic charges:    0.0000000

LOEWDIN ATOMIC CHARGES
----------------------
   0 N :    0.207203
   1 O :    1.112897
   2 H :   -0.819971
   3 C :    0.920752
   4 C :    0.920752
   5 C :    0.287131
   6 C :    0.287131
   7 H :   -0.302285
   8 H :   -0.302285
   9 H :   -0.276510
  10 H :   -0.276510
  11 H :   -0.306028
  12 H :   -0.306028
  13 H :   -0.285290
  14 H :   -0.285290
  15 H :   -0.287835
  16 H :   -0.287835

  Mayer bond orders larger than 0.100000
B(  0-N ,  1-O ) :   0.5454 B(  0-N ,  5-C ) :   0.8833 B(  0-N ,  6-C ) :   0.8833
B(  1-O ,  2-H ) :   0.8670 B(  3-C ,  5-C ) :   0.8664 B(  3-C ,  7-H ) :   0.9464
B(  3-C , 13-H ) :   0.9584 B(  3-C , 15-H ) :   0.9949 B(  4-C ,  6-C ) :   0.8664
B(  4-C ,  8-H ) :   0.9464 B(  4-C , 14-H ) :   0.9584 B(  4-C , 16-H ) :   0.9949
B(  5-C , 10-H ) :   0.8905 B(  5-C , 12-H ) :   0.8629 B(  6-C ,  9-H ) :   0.8905
B(  6-C , 11-H ) :   0.8629

MP2 TOTAL ENERGY:     -288.495948708 Eh
FINAL SINGLE POINT ENERGY      -288.495948708448

DIPOLE MOMENT
-------------
                                X             Y             Z
Electronic contribution:      1.49440      -1.54422       0.00000
Nuclear contribution   :     -1.46837       2.52502       0.00000
                        -----------------------------------------
Total Dipole Moment    :      0.02603       0.98080       0.00000
                        -----------------------------------------
Magnitude (a.u.)       :      0.98115
Magnitude (Debye)      :      2.49388

Rotational constants in cm-1:     0.252650     0.066831     0.058658
Rotational constants in MHz :  7574.252325  2003.535125  1758.535084

                             ****ORCA TERMINATED NORMALLY****
TOTAL RUN TIME: 0 days 0 hours 31 minutes 6 seconds 861 msec
