                         Program Version 5.0.4 -  RELEASE  -
|  1> !ri-mp2 aug-cc-pvqz aug-cc-pvqz/c tightscf
|  2> %pal nprocs 16 end
|  3>
|  4> * xyz 0 1
|  5> C      0.000000    0.000000    0.681680
|  6> C      0.000000    0.000000   -0.681680
|  7> C      0.000000    0.000000    1.885975
|  8> C      0.000000    0.000000   -1.885975
|  9> H      0.000000    0.000000    2.946942
| 10> H      0.000000    0.000000   -2.946942
| 11> *
| 12>
| 13>                          ****END OF INPUT****

CARTESIAN COORDINATES (ANGSTROEM)
---------------------------------
  C      0.000000    0.000000    0.681680
  C      0.000000    0.000000   -0.681680
  C      0.000000    0.000000    1.885975
  C      0.000000    0.000000   -1.885975
  H      0.000000    0.000000    2.946942
  H      0.000000    0.000000   -2.946942

 Total Charge           Charge          ....    0
 Multiplicity           Mult            ....    1
 Number of Electrons    NEL             ....   26
 Basis Dimension        Dim             ....  412

ORBITAL ENERGIES
----------------

  NO   OCC          E(Eh)            E(eV)
   0   2.0000     -11.265260      -306.5433
   1   2.0000     -11.264069      -306.5109
   2   2.0000     -11.256916      -306.3163
   3   2.0000     -11.256834      -306.3140
   4   2.0000      -1.093955       -29.7680
   5   2.0000      -1.022303       -27.8183
   6   2.0000      -0.853233       -23.2176
   7   2.0000      -0.734178       -19.9780
   8   2.0000      -0.707067       -19.2403
   9   2.0000      -0.494474       -13.4553
  10   2.0000      -0.494474       -13.4553
  11   2.0000      -0.371015       -10.0958
  12   2.0000      -0.371015       -10.0958
  13   0.0000       0.024938         0.6786
  14   0.0000       0.025253         0.6872
  15   0.0000       0.064657         1.7594
  16   0.0000       0.064657         1.7594
  17   0.0000       0.065091         1.7712

MULLIKEN ATOMIC CHARGES
-----------------------
   0 C :    0.750713
   1 C :    0.750713
   2 C :   -1.026825
   3 C :   -1.026825
   4 H :    0.276112
   5 H :    0.276112
Sum of atomic charges:    0.0000000

LOEWDIN ATOMIC CHARGES
----------------------
   0 C :   -0.084515
   1 C :   -0.084515
   2 C :    0.537820
   3 C :    0.537820
   4 H :   -0.453305
   5 H :   -0.453305

  Mayer bond orders larger than 0.100000
B(  0-C ,  1-C ) :   1.1744 B(  0-C ,  2-C ) :   1.1204 B(  0-C ,  3-C ) :  -0.3591
B(  0-C ,  4-H ) :  -0.3624 B(  0-C ,  5-H ) :  -0.3306 B(  1-C ,  2-C ) :  -0.3591
B(  1-C ,  3-C ) :   1.1204 B(  1-C ,  4-H ) :  -0.3306 B(  1-C ,  5-H ) :  -0.3624
B(  2-C ,  3-C ) :   0.7310 B(  2-C ,  4-H ) :   1.5527 B(  3-C ,  5-H ) :   1.5527

MP2 TOTAL ENERGY:     -153.202453364 Eh
FINAL SINGLE POINT ENERGY      -153.202453364235

DIPOLE MOMENT
-------------
                                X             Y             Z
Electronic contribution:      0.00000       0.00000      -0.00000
Nuclear contribution   :      0.00000       0.00000       0.00000
                        -----------------------------------------
Total Dipole Moment    :      0.00000       0.00000      -0.00000
                        -----------------------------------------
Magnitude (a.u.)       :      0.00000
Magnitude (Debye)      :      0.00000

Rotational constants in cm-1:     0.000000     0.147726     0.147726
Rotational constants in MHz :     0.000000  4428.705027  4428.705027

                             ****ORCA TERMINATED NORMALLY****
TOTAL RUN TIME: 0 days 0 hours 2 minutes 11 seconds 792 msec
