                         Program Version 5.0.4 -  RELEASE  -
|  1> !ri-mp2 aug-cc-pvqz aug-cc-pvqz/c tightscf
|  2> %pal nprocs 16 end
|  3>
|  4> * xyz 0 1
|  5> S    -1.532660   -1.443390   -0.000144
|  6> S    -1.532666    1.443384    0.000144
|  7> N     2.115081    2.230324    0.000234
|  8> N     2.115090   -2.230316   -0.000233
|  9> C     0.830778    0.000002    0.000000
| 10> C    -0.544914    0.000000    0.000000
| 11> C     1.562090    1.217179    0.000129
| 12> C     1.562094   -1.217173   -0.000128
| 13> H    -0.513127   -2.326270   -0.000166
| 14> H    -0.513135    2.326268    0.000166
| 15> *
| 16>
| 17>                          ****END OF INPUT****

CARTESIAN COORDINATES (ANGSTROEM)
---------------------------------
  S     -1.532660   -1.443390   -0.000144
  S     -1.532666    1.443384    0.000144
  N      2.115081    2.230324    0.000234
  N      2.115090   -2.230316   -0.000233
  C      0.830778    0.000002    0.000000
  C     -0.544914    0.000000    0.000000
  C      1.562090    1.217179    0.000129
  C      1.562094   -1.217173   -0.000128
  H     -0.513127   -2.326270   -0.000166
  H     -0.513135    2.326268    0.000166

 Total Charge           Charge          ....    0
 Multiplicity           Mult            ....    1
 Number of Electrons    NEL             ....   72
 Basis Dimension        Dim             ....  740

ORBITAL ENERGIES
----------------

  NO   OCC          E(Eh)            E(eV)
   0   2.0000     -92.029698     -2504.2554
   1   2.0000     -92.029698     -2504.2554
   2   2.0000     -15.599482      -424.4835
   3   2.0000     -15.599482      -424.4835
   4   2.0000     -11.401195      -310.2423
   5   2.0000     -11.334823      -308.4362
   6   2.0000     -11.307039      -307.6802
   7   2.0000     -11.307015      -307.6795
   8   2.0000      -9.032125      -245.7766
   9   2.0000      -9.032120      -245.7765
  10   2.0000      -6.713595      -182.6862
  11   2.0000      -6.713592      -182.6861
  12   2.0000      -6.712510      -182.6567
  13   2.0000      -6.712504      -182.6565
  14   2.0000      -6.711701      -182.6347
  15   2.0000      -6.711697      -182.6346
  16   2.0000      -1.265416       -34.4337
  17   2.0000      -1.245932       -33.9035
  18   2.0000      -1.194602       -32.5068
  19   2.0000      -1.070318       -29.1248
  20   2.0000      -1.035158       -28.1681
  21   2.0000      -0.859376       -23.3848
  22   2.0000      -0.816335       -22.2136
  23   2.0000      -0.737694       -20.0737
  24   2.0000      -0.606172       -16.4948
  25   2.0000      -0.601004       -16.3541
  26   2.0000      -0.593221       -16.1424
  27   2.0000      -0.587477       -15.9861
  28   2.0000      -0.553673       -15.0662
  29   2.0000      -0.545198       -14.8356
  30   2.0000      -0.511987       -13.9319
  31   2.0000      -0.509956       -13.8766
  32   2.0000      -0.508162       -13.8278
  33   2.0000      -0.486049       -13.2261
  34   2.0000      -0.423853       -11.5336
  35   2.0000      -0.368551       -10.0288
  36   0.0000       0.022068         0.6005
  37   0.0000       0.024279         0.6607
  38   0.0000       0.032017         0.8712
  39   0.0000       0.045688         1.2432
  40   0.0000       0.057420         1.5625

MULLIKEN ATOMIC CHARGES
-----------------------
   0 S :    0.141354
   1 S :    0.141357
   2 N :   -0.683669
   3 N :   -0.683662
   4 C :   -0.177951
   5 C :   -0.018609
   6 C :    0.601957
   7 C :    0.601950
   8 H :    0.038637
   9 H :    0.038636
Sum of atomic charges:   -0.0000000

LOEWDIN ATOMIC CHARGES
----------------------
   0 S :    1.568418
   1 S :    1.568418
   2 N :    0.446825
   3 N :    0.446825
   4 C :   -0.475701
   5 C :   -1.069636
   6 C :   -0.439599
   7 C :   -0.439599
   8 H :   -0.802977
   9 H :   -0.802975

  Mayer bond orders larger than 0.100000
B(  0-S ,  4-C ) :  -0.1122 B(  0-S ,  5-C ) :   0.8917 B(  0-S ,  8-H ) :   1.0474
B(  1-S ,  4-C ) :  -0.1122 B(  1-S ,  5-C ) :   0.8917 B(  1-S ,  9-H ) :   1.0474
B(  2-N ,  6-C ) :   2.4250 B(  3-N ,  7-C ) :   2.4250 B(  4-C ,  5-C ) :   1.0813
B(  4-C ,  6-C ) :   1.2367 B(  4-C ,  7-C ) :   1.2367 B(  5-C ,  6-C ) :  -0.1478
B(  5-C ,  7-C ) :  -0.1478 B(  6-C ,  7-C ) :  -0.1065

MP2 TOTAL ENERGY:    -1058.132413308 Eh
FINAL SINGLE POINT ENERGY     -1058.132413307912

DIPOLE MOMENT
-------------
                                X             Y             Z
Electronic contribution:     -0.86025       0.00000       0.00000
Nuclear contribution   :     -0.86238      -0.00000      -0.00000
                        -----------------------------------------
Total Dipole Moment    :     -1.72263      -0.00000      -0.00000
                        -----------------------------------------
Magnitude (a.u.)       :      1.72263
Magnitude (Debye)      :      4.37858

Rotational constants in cm-1:     0.052773     0.048589     0.025297
Rotational constants in MHz :  1582.104827  1456.665123   758.397957

                             ****ORCA TERMINATED NORMALLY****
TOTAL RUN TIME: 0 days 0 hours 16 minutes 50 seconds 500 msec
