                         Program Version 5.0.4 -  RELEASE  -
|  1> !ri-mp2 aug-cc-pvqz aug-cc-pvqz/c tightscf
|  2> %pal nprocs 16 end
|  3> %maxcore 3800
|  4>
|  5> * xyz 0 1
|  6> C     -4.175993    0.207367   -0.005507
|  7> C     -5.448491   -0.614286    0.019396
|  8> C      6.054156    0.386362    0.006408
|  9> C     -2.871799   -0.571984   -0.012818
| 10> C      4.792505   -0.475092   -0.009332
| 11> C     -1.613136    0.286980    0.008336
| 12> C      3.501105    0.343620    0.008693
| 13> C     -0.327445   -0.540456   -0.008111
| 14> C      2.232016   -0.508852   -0.007095
| 15> C      0.941983    0.311836    0.009646
| 16> O     -4.204668    1.417596   -0.016635
| 17> H     -5.462714   -1.326538   -0.807857
| 18> H     -5.497683   -1.198360    0.941164
| 19> H     -6.314776    0.039007   -0.041572
| 20> H      6.089348    1.049308   -0.860580
| 21> H      6.956755   -0.226164   -0.008139
| 22> H      6.092680    1.012377    0.900299
| 23> H     -2.890569   -1.259757    0.840286
| 24> H     -2.883947   -1.221971   -0.895528
| 25> H      4.801833   -1.150837    0.851256
| 26> H      4.799527   -1.115634   -0.896480
| 27> H     -1.631210    0.927231    0.893082
| 28> H     -1.629208    0.965732   -0.846946
| 29> H      3.492536    1.020304   -0.852403
| 30> H      3.494509    0.985345    0.896184
| 31> H     -0.318063   -1.217877    0.852696
| 32> H     -0.317710   -1.181637   -0.896260
| 33> H      2.240008   -1.150711   -0.894489
| 34> H      2.241093   -1.184885    0.854517
| 35> H      0.932828    0.988464   -0.851005
| 36> H      0.932699    0.952874    0.897157
| 37> *
| 38>
| 39>                          ****END OF INPUT****

CARTESIAN COORDINATES (ANGSTROEM)
---------------------------------
  C     -4.175993    0.207367   -0.005507
  C     -5.448491   -0.614286    0.019396
  C      6.054156    0.386362    0.006408
  C     -2.871799   -0.571984   -0.012818
  C      4.792505   -0.475092   -0.009332
  C     -1.613136    0.286980    0.008336
  C      3.501105    0.343620    0.008693
  C     -0.327445   -0.540456   -0.008111
  C      2.232016   -0.508852   -0.007095
  C      0.941983    0.311836    0.009646
  O     -4.204668    1.417596   -0.016635
  H     -5.462714   -1.326538   -0.807857
  H     -5.497683   -1.198360    0.941164
  H     -6.314776    0.039007   -0.041572
  H      6.089348    1.049308   -0.860580
  H      6.956755   -0.226164   -0.008139
  H      6.092680    1.012377    0.900299
  H     -2.890569   -1.259757    0.840286
  H     -2.883947   -1.221971   -0.895528
  H      4.801833   -1.150837    0.851256
  H      4.799527   -1.115634   -0.896480
  H     -1.631210    0.927231    0.893082
  H     -1.629208    0.965732   -0.846946
  H      3.492536    1.020304   -0.852403
  H      3.494509    0.985345    0.896184
  H     -0.318063   -1.217877    0.852696
  H     -0.317710   -1.181637   -0.896260
  H      2.240008   -1.150711   -0.894489
  H      2.241093   -1.184885    0.854517
  H      0.932828    0.988464   -0.851005
  H      0.932699    0.952874    0.897157

 Total Charge           Charge          ....    0
 Multiplicity           Mult            ....    1
 Number of Electrons    NEL             ....   88
 Basis Dimension        Dim             .... 1800

ORBITAL ENERGIES
----------------

  NO   OCC          E(Eh)            E(eV)
   0   2.0000     -20.540044      -558.9230
   1   2.0000     -11.326832      -308.2188
   2   2.0000     -11.234758      -305.7133
   3   2.0000     -11.231735      -305.6310
   4   2.0000     -11.217820      -305.2524
   5   2.0000     -11.217202      -305.2356
   6   2.0000     -11.214384      -305.1589
   7   2.0000     -11.213924      -305.1464
   8   2.0000     -11.213212      -305.1270
   9   2.0000     -11.212117      -305.0972
  10   2.0000     -11.208192      -304.9904
  11   2.0000      -1.384242       -37.6671
  12   2.0000      -1.096300       -29.8318
  13   2.0000      -1.072328       -29.1795
  14   2.0000      -1.036304       -28.1993
  15   2.0000      -1.003711       -27.3124
  16   2.0000      -0.957825       -26.0638
  17   2.0000      -0.892843       -24.2955
  18   2.0000      -0.827606       -22.5203
  19   2.0000      -0.790637       -21.5143
  20   2.0000      -0.786259       -21.3952
  21   2.0000      -0.731682       -19.9101
  22   2.0000      -0.662401       -18.0248
  23   2.0000      -0.650138       -17.6911
  24   2.0000      -0.642432       -17.4815
  25   2.0000      -0.623903       -16.9773
  26   2.0000      -0.613121       -16.6839
  27   2.0000      -0.588001       -16.0003
  28   2.0000      -0.584031       -15.8923
  29   2.0000      -0.572341       -15.5742
  30   2.0000      -0.555206       -15.1079
  31   2.0000      -0.550807       -14.9882
  32   2.0000      -0.539243       -14.6735
  33   2.0000      -0.511662       -13.9230
  34   2.0000      -0.508835       -13.8461
  35   2.0000      -0.497882       -13.5480
  36   2.0000      -0.487673       -13.2703
  37   2.0000      -0.476758       -12.9733
  38   2.0000      -0.473144       -12.8749
  39   2.0000      -0.463433       -12.6107
  40   2.0000      -0.459243       -12.4966
  41   2.0000      -0.458693       -12.4817
  42   2.0000      -0.440339       -11.9822
  43   2.0000      -0.405280       -11.0282
  44   0.0000       0.021529         0.5858
  45   0.0000       0.025465         0.6929
  46   0.0000       0.030884         0.8404
  47   0.0000       0.031993         0.8706
  48   0.0000       0.034859         0.9486

MULLIKEN ATOMIC CHARGES
-----------------------
   0 C :    0.609983
   1 C :   -0.945851
   2 C :   -0.920799
   3 C :   -0.429308
   4 C :   -0.544992
   5 C :   -0.281754
   6 C :   -0.311709
   7 C :   -0.361611
   8 C :   -0.372213
   9 C :   -0.438916
  10 O :   -0.811993
  11 H :    0.264540
  12 H :    0.284578
  13 H :    0.280436
  14 H :    0.225625
  15 H :    0.267919
  16 H :    0.225626
  17 H :    0.228632
  18 H :    0.225856
  19 H :    0.224876
  20 H :    0.224369
  21 H :    0.212071
  22 H :    0.198704
  23 H :    0.231359
  24 H :    0.231374
  25 H :    0.237134
  26 H :    0.242927
  27 H :    0.250351
  28 H :    0.251945
  29 H :    0.251357
  30 H :    0.249485
Sum of atomic charges:   -0.0000000

LOEWDIN ATOMIC CHARGES
----------------------
   0 C :   -0.621972
   1 C :    0.897169
   2 C :    0.926123
   3 C :    0.478514
   4 C :    0.508571
   5 C :    0.499969
   6 C :    0.513459
   7 C :    0.528353
   8 C :    0.526033
   9 C :    0.530723
  10 O :    0.747901
  11 H :   -0.295019
  12 H :   -0.292831
  13 H :   -0.318372
  14 H :   -0.285651
  15 H :   -0.284978
  16 H :   -0.285606
  17 H :   -0.279565
  18 H :   -0.279323
  19 H :   -0.273566
  20 H :   -0.273578
  21 H :   -0.270598
  22 H :   -0.272664
  23 H :   -0.267891
  24 H :   -0.267748
  25 H :   -0.264705
  26 H :   -0.264895
  27 H :   -0.265454
  28 H :   -0.265373
  29 H :   -0.263590
  30 H :   -0.263438

  Mayer bond orders larger than 0.100000
B(  0-C ,  1-C ) :   1.1118 B(  0-C ,  3-C ) :   0.8953 B(  0-C ,  5-C ) :  -0.2957
B(  0-C , 10-O ) :   1.0178 B(  1-C ,  3-C ) :  -0.1330 B(  1-C , 11-H ) :   0.9476
B(  1-C , 12-H ) :   0.9123 B(  1-C , 13-H ) :   1.0132 B(  2-C ,  4-C ) :   1.0653
B(  2-C ,  6-C ) :  -0.1504 B(  2-C , 14-H ) :   0.9568 B(  2-C , 15-H ) :   1.0278
B(  2-C , 16-H ) :   0.9568 B(  3-C ,  5-C ) :   1.0940 B(  3-C ,  7-C ) :  -0.2228
B(  3-C , 10-O ) :   0.3377 B(  3-C , 17-H ) :   0.8685 B(  3-C , 18-H ) :   0.8741
B(  4-C ,  6-C ) :   1.0229 B(  4-C ,  8-C ) :  -0.1365 B(  4-C , 19-H ) :   0.8799
B(  4-C , 20-H ) :   0.8804 B(  5-C ,  7-C ) :   1.1452 B(  5-C ,  9-C ) :  -0.1612
B(  5-C , 10-O ) :  -0.1140 B(  5-C , 21-H ) :   0.8169 B(  5-C , 22-H ) :   0.8409
B(  6-C ,  8-C ) :   1.1181 B(  6-C ,  9-C ) :  -0.1704 B(  6-C , 23-H ) :   0.8555
B(  6-C , 24-H ) :   0.8568 B(  7-C ,  8-C ) :  -0.1563 B(  7-C ,  9-C ) :   1.2790
B(  7-C , 25-H ) :   0.8337 B(  7-C , 26-H ) :   0.8302 B(  8-C ,  9-C ) :   1.2017
B(  8-C , 27-H ) :   0.8317 B(  8-C , 28-H ) :   0.8315 B(  9-C , 29-H ) :   0.8238
B(  9-C , 30-H ) :   0.8260

MP2 TOTAL ENERGY:     -467.499155523 Eh
FINAL SINGLE POINT ENERGY      -467.499155523287

DIPOLE MOMENT
-------------
                                X             Y             Z
Electronic contribution:    -15.81882       3.27353      -0.06594
Nuclear contribution   :     15.92924      -4.51742       0.07945
                        -----------------------------------------
Total Dipole Moment    :      0.11042      -1.24389       0.01351
                        -----------------------------------------
Magnitude (a.u.)       :      1.24886
Magnitude (Debye)      :      3.17434

Rotational constants in cm-1:     0.183460     0.007470     0.007264
Rotational constants in MHz :  5499.999583   223.956673   217.769924

                             ****ORCA TERMINATED NORMALLY****
TOTAL RUN TIME: 0 days 3 hours 56 minutes 42 seconds 680 msec
