                         Program Version 5.0.4 -  RELEASE  -
|  1> !ri-mp2 aug-cc-pvqz aug-cc-pvqz/c tightscf
|  2> %pal nprocs 16 end
|  3>
|  4> * xyz 0 1
|  5> C     0.000000     0.000000    0.731328
|  6> H     0.926417     0.000000    1.301629
|  7> H    -0.926417     0.000000    1.301629
|  8> O     0.000000     0.749219   -0.436952
|  9> O     0.000000    -0.749219   -0.436952
| 10> *
| 11>
| 12>                          ****END OF INPUT****

CARTESIAN COORDINATES (ANGSTROEM)
---------------------------------
  C      0.000000    0.000000    0.731328
  H      0.926417    0.000000    1.301629
  H     -0.926417    0.000000    1.301629
  O      0.000000    0.749219   -0.436952
  O      0.000000   -0.749219   -0.436952

 Total Charge           Charge          ....    0
 Multiplicity           Mult            ....    1
 Number of Electrons    NEL             ....   24
 Basis Dimension        Dim             ....  332

ORBITAL ENERGIES
----------------

  NO   OCC          E(Eh)            E(eV)
   0   2.0000     -20.650078      -561.9172
   1   2.0000     -20.649826      -561.9103
   2   2.0000     -11.369300      -309.3744
   3   2.0000      -1.549017       -42.1509
   4   2.0000      -1.191916       -32.4337
   5   2.0000      -0.931259       -25.3409
   6   2.0000      -0.750329       -20.4175
   7   2.0000      -0.698407       -19.0046
   8   2.0000      -0.576599       -15.6901
   9   2.0000      -0.571758       -15.5583
  10   2.0000      -0.530426       -14.4336
  11   2.0000      -0.487565       -13.2673
  12   0.0000       0.023202         0.6314
  13   0.0000       0.036468         0.9924
  14   0.0000       0.051194         1.3931
  15   0.0000       0.065316         1.7773
  16   0.0000       0.116920         3.1816

MULLIKEN ATOMIC CHARGES
-----------------------
   0 C :    0.091318
   1 H :    0.366929
   2 H :    0.366929
   3 O :   -0.412588
   4 O :   -0.412588
Sum of atomic charges:   -0.0000000

LOEWDIN ATOMIC CHARGES
----------------------
   0 C :   -0.327584
   1 H :   -0.353467
   2 H :   -0.353467
   3 O :    0.517259
   4 O :    0.517259

  Mayer bond orders larger than 0.100000
B(  0-C ,  1-H ) :   0.8464 B(  0-C ,  2-H ) :   0.8464 B(  0-C ,  3-O ) :   0.7423
B(  0-C ,  4-O ) :   0.7423 B(  3-O ,  4-O ) :   0.9392

MP2 TOTAL ENERGY:     -189.390702229 Eh
FINAL SINGLE POINT ENERGY      -189.390702229320

DIPOLE MOMENT
-------------
                                X             Y             Z
Electronic contribution:      0.00000       0.00000      -1.38103
Nuclear contribution   :      0.00000       0.00000       2.53596
                        -----------------------------------------
Total Dipole Moment    :      0.00000       0.00000       1.15493
                        -----------------------------------------
Magnitude (a.u.)       :      1.15493
Magnitude (Debye)      :      2.93560

Rotational constants in cm-1:     0.961362     0.856081     0.499244
Rotational constants in MHz : 28820.910951 25664.674826 14966.957597

                             ****ORCA TERMINATED NORMALLY****
TOTAL RUN TIME: 0 days 0 hours 1 minutes 28 seconds 122 msec
