                         Program Version 5.0.4 -  RELEASE  -
|  1> !ri-mp2 aug-cc-pvqz aug-cc-pvqz/c tightscf
|  2> %pal nprocs 16 end
|  3>
|  4> * xyz 0 1
|  5> F     0.000000     1.105295   -0.290293
|  6> F     0.000000    -1.105295   -0.290293
|  7> C     0.000000     0.000000    0.502981
|  8> H     0.909963     0.000000    1.103692
|  9> H    -0.909963     0.000000    1.103692
| 10> *
| 11>
| 12>                          ****END OF INPUT****

CARTESIAN COORDINATES (ANGSTROEM)
---------------------------------
  F      0.000000    1.105295   -0.290293
  F      0.000000   -1.105295   -0.290293
  C      0.000000    0.000000    0.502981
  H      0.909963    0.000000    1.103692
  H     -0.909963    0.000000    1.103692

 Total Charge           Charge          ....    0
 Multiplicity           Mult            ....    1
 Number of Electrons    NEL             ....   26
 Basis Dimension        Dim             ....  332

ORBITAL ENERGIES
----------------

  NO   OCC          E(Eh)            E(eV)
   0   2.0000     -26.310320      -715.9402
   1   2.0000     -26.310303      -715.9397
   2   2.0000     -11.407725      -310.4200
   3   2.0000      -1.658811       -45.1385
   4   2.0000      -1.600071       -43.5401
   5   2.0000      -0.971282       -26.4299
   6   2.0000      -0.777839       -21.1661
   7   2.0000      -0.768940       -20.9239
   8   2.0000      -0.754337       -20.5266
   9   2.0000      -0.667572       -18.1656
  10   2.0000      -0.633850       -17.2479
  11   2.0000      -0.622646       -16.9431
  12   2.0000      -0.538718       -14.6593
  13   0.0000       0.025167         0.6848
  14   0.0000       0.038325         1.0429
  15   0.0000       0.063994         1.7414
  16   0.0000       0.065313         1.7773
  17   0.0000       0.108944         2.9645

MULLIKEN ATOMIC CHARGES
-----------------------
   0 F :   -0.547794
   1 F :   -0.547794
   2 C :    0.559584
   3 H :    0.268002
   4 H :    0.268002
Sum of atomic charges:    0.0000000

LOEWDIN ATOMIC CHARGES
----------------------
   0 F :    0.733984
   1 F :    0.733984
   2 C :   -0.643936
   3 H :   -0.412016
   4 H :   -0.412016

  Mayer bond orders larger than 0.100000
B(  0-F ,  2-C ) :   0.6458 B(  1-F ,  2-C ) :   0.6458 B(  2-C ,  3-H ) :   0.8760
B(  2-C ,  4-H ) :   0.8760

MP2 TOTAL ENERGY:     -238.755352334 Eh
FINAL SINGLE POINT ENERGY      -238.755352334430

DIPOLE MOMENT
-------------
                                X             Y             Z
Electronic contribution:     -0.00000       0.00000      -1.74220
Nuclear contribution   :      0.00000       0.00000       2.61009
                        -----------------------------------------
Total Dipole Moment    :     -0.00000       0.00000       0.86789
                        -----------------------------------------
Magnitude (a.u.)       :      0.86789
Magnitude (Debye)      :      2.20600

Rotational constants in cm-1:     1.649662     0.350557     0.306679
Rotational constants in MHz : 49455.616342 10509.438020  9194.004208

                             ****ORCA TERMINATED NORMALLY****
TOTAL RUN TIME: 0 days 0 hours 1 minutes 12 seconds 215 msec
