                         Program Version 5.0.4 -  RELEASE  -
|  1> !ri-mp2 aug-cc-pvqz aug-cc-pvqz/c tightscf
|  2> %pal nprocs 16 end
|  3>
|  4> * xyz 0 1
|  5> C     0.000000    0.000000     0.036614
|  6> S     0.000000    0.000000     1.679557
|  7> S     0.000000    1.427910    -0.995436
|  8> S     0.000000   -1.427910    -0.995436
|  9> C     0.000000    2.795841     0.193673
| 10> C     0.000000   -2.795841     0.193673
| 11> H     0.889349    2.757958     0.816057
| 12> H     0.889349   -2.757958     0.816057
| 13> H     0.000000    3.699161    -0.413472
| 14> H    -0.889349    2.757958     0.816057
| 15> H    -0.889349   -2.757958     0.816057
| 16> H     0.000000   -3.699161    -0.413472
| 17> *
| 18>
| 19>                          ****END OF INPUT****

CARTESIAN COORDINATES (ANGSTROEM)
---------------------------------
  C      0.000000    0.000000    0.036614
  S      0.000000    0.000000    1.679557
  S      0.000000    1.427910   -0.995436
  S      0.000000   -1.427910   -0.995436
  C      0.000000    2.795841    0.193673
  C      0.000000   -2.795841    0.193673
  H      0.889349    2.757958    0.816057
  H      0.889349   -2.757958    0.816057
  H      0.000000    3.699161   -0.413472
  H     -0.889349    2.757958    0.816057
  H     -0.889349   -2.757958    0.816057
  H      0.000000   -3.699161   -0.413472

 Total Charge           Charge          ....    0
 Multiplicity           Mult            ....    1
 Number of Electrons    NEL             ....   72
 Basis Dimension        Dim             ....  768

ORBITAL ENERGIES
----------------

  NO   OCC          E(Eh)            E(eV)
   0   2.0000     -91.986086     -2503.0687
   1   2.0000     -91.986086     -2503.0687
   2   2.0000     -91.928087     -2501.4904
   3   2.0000     -11.371742      -309.4408
   4   2.0000     -11.265295      -306.5443
   5   2.0000     -11.265294      -306.5442
   6   2.0000      -8.987762      -244.5694
   7   2.0000      -8.987756      -244.5693
   8   2.0000      -8.931989      -243.0518
   9   2.0000      -6.669212      -181.4785
  10   2.0000      -6.669209      -181.4784
  11   2.0000      -6.668057      -181.4470
  12   2.0000      -6.668051      -181.4469
  13   2.0000      -6.667497      -181.4318
  14   2.0000      -6.667492      -181.4317
  15   2.0000      -6.613300      -179.9570
  16   2.0000      -6.612180      -179.9266
  17   2.0000      -6.611172      -179.8991
  18   2.0000      -1.141856       -31.0715
  19   2.0000      -1.055447       -28.7202
  20   2.0000      -0.996984       -27.1293
  21   2.0000      -0.922778       -25.1101
  22   2.0000      -0.868965       -23.6457
  23   2.0000      -0.693130       -18.8610
  24   2.0000      -0.631263       -17.1775
  25   2.0000      -0.607993       -16.5443
  26   2.0000      -0.601324       -16.3629
  27   2.0000      -0.593931       -16.1617
  28   2.0000      -0.571697       -15.5567
  29   2.0000      -0.520960       -14.1760
  30   2.0000      -0.485295       -13.2055
  31   2.0000      -0.479661       -13.0522
  32   2.0000      -0.456987       -12.4353
  33   2.0000      -0.360866        -9.8197
  34   2.0000      -0.345179        -9.3928
  35   2.0000      -0.338971        -9.2239
  36   0.0000       0.026185         0.7125
  37   0.0000       0.027333         0.7438
  38   0.0000       0.036642         0.9971
  39   0.0000       0.041056         1.1172
  40   0.0000       0.050281         1.3682

MULLIKEN ATOMIC CHARGES
-----------------------
   0 C :   -0.625212
   1 S :   -0.102493
   2 S :    0.327648
   3 S :    0.327648
   4 C :   -0.971999
   5 C :   -0.971999
   6 H :    0.290005
   7 H :    0.290005
   8 H :    0.428194
   9 H :    0.290005
  10 H :    0.290005
  11 H :    0.428194
Sum of atomic charges:    0.0000000

LOEWDIN ATOMIC CHARGES
----------------------
   0 C :   -1.742818
   1 S :    0.953974
   2 S :    1.083449
   3 S :    1.083449
   4 C :    0.496362
   5 C :    0.496362
   6 H :   -0.396215
   7 H :   -0.396215
   8 H :   -0.392958
   9 H :   -0.396215
  10 H :   -0.396215
  11 H :   -0.392958

  Mayer bond orders larger than 0.100000
B(  0-C ,  1-S ) :   1.5239 B(  0-C ,  2-S ) :   0.9383 B(  0-C ,  3-S ) :   0.9383
B(  2-S ,  4-C ) :   1.0310 B(  3-S ,  5-C ) :   1.0310 B(  4-C ,  6-H ) :   0.9147
B(  4-C ,  8-H ) :   0.7946 B(  4-C ,  9-H ) :   0.9147 B(  5-C ,  7-H ) :   0.9147
B(  5-C , 10-H ) :   0.9147 B(  5-C , 11-H ) :   0.7946

MP2 TOTAL ENERGY:    -1310.913097722 Eh
FINAL SINGLE POINT ENERGY     -1310.913097722477

DIPOLE MOMENT
-------------
                                X             Y             Z
Electronic contribution:     -0.00000       0.00000      -2.54156
Nuclear contribution   :      0.00000      -0.00000       2.39309
                        -----------------------------------------
Total Dipole Moment    :     -0.00000       0.00000      -0.14846
                        -----------------------------------------
Magnitude (a.u.)       :      0.14846
Magnitude (Debye)      :      0.37736

Rotational constants in cm-1:     0.104662     0.044368     0.031531
Rotational constants in MHz :  3137.683755  1330.107907   945.264808

                             ****ORCA TERMINATED NORMALLY****
TOTAL RUN TIME: 0 days 0 hours 22 minutes 5 seconds 98 msec
