                         Program Version 5.0.4 -  RELEASE  -
|  1> !ri-mp2 aug-cc-pvqz aug-cc-pvqz/c tightscf
|  2> %pal nprocs 16 end
|  3> %maxcore 3800
|  4>
|  5> * xyz 0 1
|  6> C     -2.486191   -0.072064    0.552450
|  7> C     -1.024223    0.142152    0.935317
|  8> S     -0.047098    0.993348   -0.402402
|  9> O      0.947086    1.893124    0.293391
| 10> C     -2.714523   -1.122271   -0.534399
| 11> C      0.925143   -0.441946   -1.093699
| 12> C      2.275145   -0.662317   -0.419059
| 13> C      2.229720   -1.279940    0.977069
| 14> H     -2.917557    0.881786    0.239294
| 15> H     -3.024646   -0.367002    1.456918
| 16> H     -0.533523   -0.786746    1.217820
| 17> H     -0.928225    0.849831    1.758194
| 18> H     -2.255162   -0.831273   -1.480484
| 19> H     -2.300045   -2.089896   -0.243556
| 20> H     -3.779511   -1.261717   -0.720802
| 21> H      1.067876   -0.172666   -2.140309
| 22> H      0.277509   -1.317972   -1.055491
| 23> H      2.793803    0.296174   -0.372767
| 24> H      2.859562   -1.304564   -1.083624
| 25> H      1.774757   -0.601276    1.697093
| 26> H      1.672070   -2.219643    0.985066
| 27> H      3.239545   -1.495279    1.327871
| 28> *
| 29>
| 30>                          ****END OF INPUT****

CARTESIAN COORDINATES (ANGSTROEM)
---------------------------------
  C     -2.486191   -0.072064    0.552450
  C     -1.024223    0.142152    0.935317
  S     -0.047098    0.993348   -0.402402
  O      0.947086    1.893124    0.293391
  C     -2.714523   -1.122271   -0.534399
  C      0.925143   -0.441946   -1.093699
  C      2.275145   -0.662317   -0.419059
  C      2.229720   -1.279940    0.977069
  H     -2.917557    0.881786    0.239294
  H     -3.024646   -0.367002    1.456918
  H     -0.533523   -0.786746    1.217820
  H     -0.928225    0.849831    1.758194
  H     -2.255162   -0.831273   -1.480484
  H     -2.300045   -2.089896   -0.243556
  H     -3.779511   -1.261717   -0.720802
  H      1.067876   -0.172666   -2.140309
  H      0.277509   -1.317972   -1.055491
  H      2.793803    0.296174   -0.372767
  H      2.859562   -1.304564   -1.083624
  H      1.774757   -0.601276    1.697093
  H      1.672070   -2.219643    0.985066
  H      3.239545   -1.495279    1.327871

 Total Charge           Charge          ....    0
 Multiplicity           Mult            ....    1
 Number of Electrons    NEL             ....   74
 Basis Dimension        Dim             .... 1288

ORBITAL ENERGIES
----------------

  NO   OCC          E(Eh)            E(eV)
   0   2.0000     -92.053461     -2504.9020
   1   2.0000     -20.494636      -557.6874
   2   2.0000     -11.261002      -306.4274
   3   2.0000     -11.259047      -306.3742
   4   2.0000     -11.242143      -305.9143
   5   2.0000     -11.229551      -305.5716
   6   2.0000     -11.229356      -305.5663
   7   2.0000     -11.215818      -305.1979
   8   2.0000      -9.041178      -246.0230
   9   2.0000      -6.723113      -182.9452
  10   2.0000      -6.722901      -182.9394
  11   2.0000      -6.721640      -182.9051
  12   2.0000      -1.317799       -35.8591
  13   2.0000      -1.094250       -29.7760
  14   2.0000      -1.071051       -29.1448
  15   2.0000      -0.988123       -26.8882
  16   2.0000      -0.951125       -25.8814
  17   2.0000      -0.868907       -23.6442
  18   2.0000      -0.814323       -22.1589
  19   2.0000      -0.777418       -21.1546
  20   2.0000      -0.658325       -17.9139
  21   2.0000      -0.638854       -17.3841
  22   2.0000      -0.630159       -17.1475
  23   2.0000      -0.626566       -17.0497
  24   2.0000      -0.582960       -15.8632
  25   2.0000      -0.579625       -15.7724
  26   2.0000      -0.560408       -15.2495
  27   2.0000      -0.547539       -14.8993
  28   2.0000      -0.536555       -14.6004
  29   2.0000      -0.512868       -13.9559
  30   2.0000      -0.505941       -13.7674
  31   2.0000      -0.500500       -13.6193
  32   2.0000      -0.488146       -13.2831
  33   2.0000      -0.483110       -13.1461
  34   2.0000      -0.481737       -13.1087
  35   2.0000      -0.400247       -10.8913
  36   2.0000      -0.353525        -9.6199
  37   0.0000       0.020931         0.5696
  38   0.0000       0.026762         0.7282
  39   0.0000       0.028422         0.7734
  40   0.0000       0.034608         0.9417
  41   0.0000       0.039284         1.0690

MULLIKEN ATOMIC CHARGES
-----------------------
   0 C :   -0.388920
   1 C :   -0.609214
   2 S :    1.068668
   3 O :   -1.283243
   4 C :   -0.795875
   5 C :   -0.511114
   6 C :   -0.404195
   7 C :   -0.802519
   8 H :    0.237906
   9 H :    0.260798
  10 H :    0.326999
  11 H :    0.358202
  12 H :    0.201130
  13 H :    0.184811
  14 H :    0.307080
  15 H :    0.337249
  16 H :    0.298117
  17 H :    0.270042
  18 H :    0.260934
  19 H :    0.212140
  20 H :    0.170253
  21 H :    0.300749
Sum of atomic charges:   -0.0000000

LOEWDIN ATOMIC CHARGES
----------------------
   0 C :    0.459106
   1 C :    0.353543
   2 S :    0.753933
   3 O :    0.099342
   4 C :    0.911811
   5 C :    0.361558
   6 C :    0.457361
   7 C :    0.916724
   8 H :   -0.292464
   9 H :   -0.278397
  10 H :   -0.362272
  11 H :   -0.352066
  12 H :   -0.299219
  13 H :   -0.282703
  14 H :   -0.278855
  15 H :   -0.346295
  16 H :   -0.356009
  17 H :   -0.322167
  18 H :   -0.279322
  19 H :   -0.306390
  20 H :   -0.280400
  21 H :   -0.276819

  Mayer bond orders larger than 0.100000
B(  0-C ,  1-C ) :   0.8751 B(  0-C ,  4-C ) :   0.9918 B(  0-C ,  8-H ) :   0.9292
B(  0-C ,  9-H ) :   0.8914 B(  1-C ,  2-S ) :   0.9338 B(  1-C , 10-H ) :   0.8456
B(  1-C , 11-H ) :   0.8815 B(  2-S ,  3-O ) :   1.1289 B(  2-S ,  5-C ) :   0.7977
B(  4-C , 12-H ) :   0.9752 B(  4-C , 13-H ) :   0.9817 B(  4-C , 14-H ) :   0.9356
B(  5-C ,  6-C ) :   0.9075 B(  5-C , 15-H ) :   0.8709 B(  5-C , 16-H ) :   0.8801
B(  6-C ,  7-C ) :   0.9691 B(  6-C , 17-H ) :   0.8673 B(  6-C , 18-H ) :   0.8938
B(  7-C , 19-H ) :   0.9688 B(  7-C , 20-H ) :   0.9961 B(  7-C , 21-H ) :   0.9337

MP2 TOTAL ENERGY:     -709.460020137 Eh
FINAL SINGLE POINT ENERGY      -709.460020137474

DIPOLE MOMENT
-------------
                                X             Y             Z
Electronic contribution:      1.28901       9.21245      -1.92597
Nuclear contribution   :     -2.10910     -10.78906       1.65885
                        -----------------------------------------
Total Dipole Moment    :     -0.82009      -1.57661      -0.26712
                        -----------------------------------------
Magnitude (a.u.)       :      1.79711
Magnitude (Debye)      :      4.56789

Rotational constants in cm-1:     0.074785     0.035558     0.030612
Rotational constants in MHz :  2241.995073  1066.006596   917.729790

                             ****ORCA TERMINATED NORMALLY****
TOTAL RUN TIME: 0 days 1 hours 40 minutes 24 seconds 145 msec
