                         Program Version 5.0.4 -  RELEASE  -
|  1> !ri-mp2 aug-cc-pvqz aug-cc-pvqz/c tightscf
|  2> %pal nprocs 16 end
|  3>
|  4> * xyz 0 1
|  5> S      1.236970    0.049907   -0.108638
|  6> O      0.170344   -1.178406    0.365430
|  7> O     -1.065349   -0.869992   -0.353876
|  8> C     -0.081416    1.306104    0.072269
|  9> C     -1.371008    0.445059    0.086653
| 10> H     -0.029247    1.976188   -0.782424
| 11> H      0.016390    1.873792    0.994257
| 12> H     -2.117419    0.815604   -0.614952
| 13> H     -1.786663    0.416113    1.095372
| 14> *
| 15>
| 16>                          ****END OF INPUT****

CARTESIAN COORDINATES (ANGSTROEM)
---------------------------------
  S      1.236970    0.049907   -0.108638
  O      0.170344   -1.178406    0.365430
  O     -1.065349   -0.869992   -0.353876
  C     -0.081416    1.306104    0.072269
  C     -1.371008    0.445059    0.086653
  H     -0.029247    1.976188   -0.782424
  H      0.016390    1.873792    0.994257
  H     -2.117419    0.815604   -0.614952
  H     -1.786663    0.416113    1.095372

 Total Charge           Charge          ....    0
 Multiplicity           Mult            ....    1
 Number of Electrons    NEL             ....   48
 Basis Dimension        Dim             ....  588

ORBITAL ENERGIES
----------------

  NO   OCC          E(Eh)            E(eV)
   0   2.0000     -92.008570     -2503.6805
   1   2.0000     -20.647328      -561.8424
   2   2.0000     -20.638914      -561.6134
   3   2.0000     -11.308793      -307.7279
   4   2.0000     -11.281118      -306.9748
   5   2.0000      -9.005156      -245.0428
   6   2.0000      -6.686467      -181.9480
   7   2.0000      -6.685141      -181.9119
   8   2.0000      -6.683833      -181.8764
   9   2.0000      -1.490094       -40.5475
  10   2.0000      -1.243171       -33.8284
  11   2.0000      -1.075685       -29.2709
  12   2.0000      -0.897558       -24.4238
  13   2.0000      -0.846159       -23.0252
  14   2.0000      -0.706172       -19.2159
  15   2.0000      -0.687446       -18.7064
  16   2.0000      -0.647459       -17.6182
  17   2.0000      -0.622406       -16.9365
  18   2.0000      -0.560486       -15.2516
  19   2.0000      -0.535170       -14.5627
  20   2.0000      -0.525901       -14.3105
  21   2.0000      -0.479702       -13.0533
  22   2.0000      -0.460572       -12.5328
  23   2.0000      -0.360663        -9.8141
  24   0.0000       0.023012         0.6262
  25   0.0000       0.033628         0.9151
  26   0.0000       0.035030         0.9532
  27   0.0000       0.049773         1.3544
  28   0.0000       0.054670         1.4876

MULLIKEN ATOMIC CHARGES
-----------------------
   0 S :    0.400224
   1 O :   -0.554297
   2 O :   -0.407739
   3 C :   -0.586488
   4 C :   -0.083616
   5 H :    0.273618
   6 H :    0.272088
   7 H :    0.395292
   8 H :    0.290917
Sum of atomic charges:   -0.0000000

LOEWDIN ATOMIC CHARGES
----------------------
   0 S :    0.887945
   1 O :   -0.033138
   2 O :    0.431426
   3 C :    0.129896
   4 C :   -0.009715
   5 H :   -0.380511
   6 H :   -0.370744
   7 H :   -0.331338
   8 H :   -0.323821

  Mayer bond orders larger than 0.100000
B(  0-S ,  1-O ) :   0.7798 B(  0-S ,  3-C ) :   0.9827 B(  1-O ,  2-O ) :   0.8022
B(  2-O ,  4-C ) :   0.6886 B(  3-C ,  4-C ) :   1.0566 B(  3-C ,  5-H ) :   0.8969
B(  3-C ,  6-H ) :   0.8905 B(  4-C ,  7-H ) :   0.7903 B(  4-C ,  8-H ) :   0.9023

MP2 TOTAL ENERGY:     -626.367836425 Eh
FINAL SINGLE POINT ENERGY      -626.367836424721

DIPOLE MOMENT
-------------
                                X             Y             Z
Electronic contribution:      3.46659      -3.57583      -0.57520
Nuclear contribution   :     -3.88456       4.94021       0.68095
                        -----------------------------------------
Total Dipole Moment    :     -0.41798       1.36438       0.10575
                        -----------------------------------------
Magnitude (a.u.)       :      1.43088
Magnitude (Debye)      :      3.63702

Rotational constants in cm-1:     0.231026     0.159048     0.103274
Rotational constants in MHz :  6925.990476  4768.126714  3096.087445

                             ****ORCA TERMINATED NORMALLY****
TOTAL RUN TIME: 0 days 0 hours 9 minutes 16 seconds 737 msec
