                         Program Version 5.0.4 -  RELEASE  -
|  1> !ri-mp2 aug-cc-pvqz aug-cc-pvqz/c tightscf
|  2> %pal nprocs 16 end
|  3>
|  4> * xyz 0 1
|  5> F      2.734032   -0.044650    0.294765
|  6> F      1.181883    0.979329   -0.865319
|  7> O     -0.624931   -0.986352    0.049400
|  8> O     -2.650125   -0.501223   -0.660014
|  9> N      1.562213   -0.308934   -0.435957
| 10> C      0.589833   -0.642433    0.639320
| 11> C     -1.709038   -0.127949   -0.029755
| 12> C     -1.645992    1.182508    0.711998
| 13> H      0.536070    0.185170    1.344177
| 14> H      1.001583   -1.530166    1.114473
| 15> H     -0.840166    1.812068    0.338768
| 16> H     -2.596239    1.685000    0.564689
| 17> H     -1.488346    1.026194    1.780109
| 18> *
| 19>
| 20>                          ****END OF INPUT****

CARTESIAN COORDINATES (ANGSTROEM)
---------------------------------
  F      2.734032   -0.044650    0.294765
  F      1.181883    0.979329   -0.865319
  O     -0.624931   -0.986352    0.049400
  O     -2.650125   -0.501223   -0.660014
  N      1.562213   -0.308934   -0.435957
  C      0.589833   -0.642433    0.639320
  C     -1.709038   -0.127949   -0.029755
  C     -1.645992    1.182508    0.711998
  H      0.536070    0.185170    1.344177
  H      1.001583   -1.530166    1.114473
  H     -0.840166    1.812068    0.338768
  H     -2.596239    1.685000    0.564689
  H     -1.488346    1.026194    1.780109

 Total Charge           Charge          ....    0
 Multiplicity           Mult            ....    1
 Number of Electrons    NEL             ....   64
 Basis Dimension        Dim             ....  870

ORBITAL ENERGIES
----------------

  NO   OCC          E(Eh)            E(eV)
   0   2.0000     -26.354697      -717.1478
   1   2.0000     -26.351979      -717.0738
   2   2.0000     -20.630798      -561.3926
   3   2.0000     -20.561335      -559.5024
   4   2.0000     -15.790819      -429.6900
   5   2.0000     -11.405179      -310.3507
   6   2.0000     -11.373244      -309.4817
   7   2.0000     -11.264425      -306.5206
   8   2.0000      -1.700030       -46.2602
   9   2.0000      -1.615804       -43.9683
  10   2.0000      -1.484858       -40.4051
  11   2.0000      -1.394120       -37.9359
  12   2.0000      -1.175151       -31.9775
  13   2.0000      -1.042452       -28.3666
  14   2.0000      -0.967293       -26.3214
  15   2.0000      -0.834677       -22.7127
  16   2.0000      -0.789499       -21.4834
  17   2.0000      -0.786639       -21.4055
  18   2.0000      -0.757875       -20.6228
  19   2.0000      -0.719361       -19.5748
  20   2.0000      -0.715602       -19.4725
  21   2.0000      -0.688034       -18.7224
  22   2.0000      -0.673430       -18.3250
  23   2.0000      -0.654263       -17.8034
  24   2.0000      -0.643232       -17.5032
  25   2.0000      -0.627361       -17.0714
  26   2.0000      -0.598135       -16.2761
  27   2.0000      -0.572360       -15.5747
  28   2.0000      -0.554322       -15.0839
  29   2.0000      -0.510152       -13.8819
  30   2.0000      -0.487795       -13.2736
  31   2.0000      -0.467840       -12.7306
  32   0.0000       0.018840         0.5126
  33   0.0000       0.028613         0.7786
  34   0.0000       0.038237         1.0405
  35   0.0000       0.040256         1.0954
  36   0.0000       0.057702         1.5701

MULLIKEN ATOMIC CHARGES
-----------------------
   0 F :   -0.427047
   1 F :   -0.426630
   2 O :   -0.730017
   3 O :   -0.772044
   4 N :    0.445451
   5 C :   -0.004822
   6 C :    1.085838
   7 C :   -0.766128
   8 H :    0.314875
   9 H :    0.478919
  10 H :    0.266124
  11 H :    0.279839
  12 H :    0.255642
Sum of atomic charges:   -0.0000000

LOEWDIN ATOMIC CHARGES
----------------------
   0 F :    0.489015
   1 F :    0.492558
   2 O :    0.824834
   3 O :    0.683060
   4 N :   -0.506190
   5 C :   -0.163670
   6 C :   -1.007076
   7 C :    0.871689
   8 H :   -0.393879
   9 H :   -0.353455
  10 H :   -0.326793
  11 H :   -0.316234
  12 H :   -0.293860

  Mayer bond orders larger than 0.100000
B(  0-F ,  4-N ) :   0.7333 B(  1-F ,  4-N ) :   0.7447 B(  2-O ,  3-O ) :   0.1049
B(  2-O ,  5-C ) :   0.8194 B(  2-O ,  6-C ) :   0.8584 B(  3-O ,  6-C ) :   1.4423
B(  4-N ,  5-C ) :   0.8881 B(  5-C ,  8-H ) :   0.8853 B(  5-C ,  9-H ) :   0.7105
B(  6-C ,  7-C ) :   0.9347 B(  7-C , 10-H ) :   0.9361 B(  7-C , 11-H ) :   0.9614
B(  7-C , 12-H ) :   0.9416

MP2 TOTAL ENERGY:     -521.465431616 Eh
FINAL SINGLE POINT ENERGY      -521.465431616354

DIPOLE MOMENT
-------------
                                X             Y             Z
Electronic contribution:      7.34571      -1.58157      -3.95560
Nuclear contribution   :     -7.01233       2.14297       5.47148
                        -----------------------------------------
Total Dipole Moment    :      0.33338       0.56140       1.51588
                        -----------------------------------------
Magnitude (a.u.)       :      1.65051
Magnitude (Debye)      :      4.19527

Rotational constants in cm-1:     0.148645     0.037734     0.035504
Rotational constants in MHz :  4456.278176  1131.239781  1064.376303

                             ****ORCA TERMINATED NORMALLY****
TOTAL RUN TIME: 0 days 0 hours 19 minutes 13 seconds 704 msec
