                         Program Version 5.0.4 -  RELEASE  -
|  1> !ri-mp2 aug-cc-pvqz aug-cc-pvqz/c tightscf
|  2> %pal nprocs 16 end
|  3>
|  4> * xyz 0 1
|  5> O      0.000000    1.471034    0.000000
|  6> O     -1.045393    0.632131    0.498632
|  7> O      1.045393    0.632130   -0.498632
|  8> C     -1.857587    0.241250   -0.631137
|  9> C      1.857587    0.241251    0.631137
| 10> C     -2.930054   -0.597279   -0.127689
| 11> C      2.930054   -0.597279    0.127689
| 12> C     -3.820304   -1.289211    0.276887
| 13> C      3.820303   -1.289212   -0.276887
| 14> H     -2.252972    1.138284   -1.112154
| 15> H     -1.237646   -0.305795   -1.343916
| 16> H      2.252972    1.138285    1.112154
| 17> H      1.237646   -0.305794    1.343917
| 18> H     -4.609105   -1.902231    0.635967
| 19> H      4.609104   -1.902232   -0.635966
| 20> *
| 21>
| 22>                          ****END OF INPUT****

CARTESIAN COORDINATES (ANGSTROEM)
---------------------------------
  O      0.000000    1.471034    0.000000
  O     -1.045393    0.632131    0.498632
  O      1.045393    0.632130   -0.498632
  C     -1.857587    0.241250   -0.631137
  C      1.857587    0.241251    0.631137
  C     -2.930054   -0.597279   -0.127689
  C      2.930054   -0.597279    0.127689
  C     -3.820304   -1.289211    0.276887
  C      3.820303   -1.289212   -0.276887
  H     -2.252972    1.138284   -1.112154
  H     -1.237646   -0.305795   -1.343916
  H      2.252972    1.138285    1.112154
  H      1.237646   -0.305794    1.343917
  H     -4.609105   -1.902231    0.635967
  H      4.609104   -1.902232   -0.635966

 Total Charge           Charge          ....    0
 Multiplicity           Mult            ....    1
 Number of Electrons    NEL             ....   66
 Basis Dimension        Dim             ....  996

ORBITAL ENERGIES
----------------

  NO   OCC          E(Eh)            E(eV)
   0   2.0000     -20.697869      -563.2176
   1   2.0000     -20.647298      -561.8415
   2   2.0000     -20.647276      -561.8409
   3   2.0000     -11.321693      -308.0789
   4   2.0000     -11.321693      -308.0789
   5   2.0000     -11.247556      -306.0616
   6   2.0000     -11.247556      -306.0616
   7   2.0000     -11.240916      -305.8809
   8   2.0000     -11.240916      -305.8809
   9   2.0000      -1.550178       -42.1825
  10   2.0000      -1.383334       -37.6424
  11   2.0000      -1.185551       -32.2605
  12   2.0000      -1.066395       -29.0181
  13   2.0000      -1.047969       -28.5167
  14   2.0000      -0.965651       -26.2767
  15   2.0000      -0.937002       -25.4971
  16   2.0000      -0.760592       -20.6968
  17   2.0000      -0.741548       -20.1786
  18   2.0000      -0.724351       -19.7106
  19   2.0000      -0.724309       -19.7095
  20   2.0000      -0.707701       -19.2575
  21   2.0000      -0.666733       -18.1427
  22   2.0000      -0.657423       -17.8894
  23   2.0000      -0.627246       -17.0682
  24   2.0000      -0.597638       -16.2626
  25   2.0000      -0.588604       -16.0167
  26   2.0000      -0.500060       -13.6073
  27   2.0000      -0.491094       -13.3633
  28   2.0000      -0.489325       -13.3152
  29   2.0000      -0.414055       -11.2670
  30   2.0000      -0.412465       -11.2237
  31   2.0000      -0.404401       -11.0043
  32   2.0000      -0.402718       -10.9585
  33   0.0000       0.024486         0.6663
  34   0.0000       0.026886         0.7316
  35   0.0000       0.034142         0.9291
  36   0.0000       0.036860         1.0030
  37   0.0000       0.045112         1.2276

MULLIKEN ATOMIC CHARGES
-----------------------
   0 O :   -0.232818
   1 O :   -0.394698
   2 O :   -0.394693
   3 C :    0.302199
   4 C :    0.302184
   5 C :   -0.097198
   6 C :   -0.097211
   7 C :   -0.821248
   8 C :   -0.821236
   9 H :    0.337813
  10 H :    0.350161
  11 H :    0.337813
  12 H :    0.350158
  13 H :    0.439382
  14 H :    0.439390
Sum of atomic charges:   -0.0000000

LOEWDIN ATOMIC CHARGES
----------------------
   0 O :    0.173800
   1 O :    0.455783
   2 O :    0.455784
   3 C :   -0.001966
   4 C :   -0.001967
   5 C :    0.058098
   6 C :    0.058098
   7 C :    0.565828
   8 C :    0.565828
   9 H :   -0.344791
  10 H :   -0.359733
  11 H :   -0.344791
  12 H :   -0.359733
  13 H :   -0.460119
  14 H :   -0.460119

  Mayer bond orders larger than 0.100000
B(  0-O ,  1-O ) :   0.8514 B(  0-O ,  2-O ) :   0.8514 B(  1-O ,  3-C ) :   0.7904
B(  2-O ,  4-C ) :   0.7904 B(  3-C ,  5-C ) :   0.8241 B(  3-C ,  7-C ) :  -0.2237
B(  3-C ,  9-H ) :   0.8328 B(  3-C , 10-H ) :   0.8636 B(  4-C ,  6-C ) :   0.8241
B(  4-C ,  8-C ) :  -0.2237 B(  4-C , 11-H ) :   0.8327 B(  4-C , 12-H ) :   0.8636
B(  5-C ,  7-C ) :   2.7237 B(  6-C ,  8-C ) :   2.7236 B(  7-C , 13-H ) :   0.9414
B(  8-C , 14-H ) :   0.9414

MP2 TOTAL ENERGY:     -456.908369918 Eh
FINAL SINGLE POINT ENERGY      -456.908369918075

DIPOLE MOMENT
-------------
                                X             Y             Z
Electronic contribution:     -0.00000       1.58947      -0.00000
Nuclear contribution   :     -0.00000      -2.06049       0.00000
                        -----------------------------------------
Total Dipole Moment    :     -0.00000      -0.47102       0.00000
                        -----------------------------------------
Magnitude (a.u.)       :      0.47102
Magnitude (Debye)      :      1.19724

Rotational constants in cm-1:     0.125746     0.022253     0.020112
Rotational constants in MHz :  3769.759934   667.128073   602.928929

                             ****ORCA TERMINATED NORMALLY****
TOTAL RUN TIME: 0 days 0 hours 38 minutes 22 seconds 775 msec
