                         Program Version 5.0.4 -  RELEASE  -
|  1> !ri-mp2 aug-cc-pvqz aug-cc-pvqz/c tightscf
|  2> %pal nprocs 16 end
|  3>
|  4> * xyz 0 1
|  5> O      1.240989    2.316707   -0.287642
|  6> N      0.074392    0.539266    0.153552
|  7> N      0.338574    1.835872    0.364116
|  8> C     -1.018081   -0.017513    0.938595
|  9> C      0.805026   -0.270810   -0.823168
| 10> C     -2.168330   -0.409668    0.125287
| 11> C      1.525451   -1.378278   -0.205251
| 12> C     -3.106676   -0.740595   -0.542391
| 13> C      2.105048   -2.294984    0.304845
| 14> H     -0.653615   -0.880360    1.501749
| 15> H     -1.300451    0.756689    1.652149
| 16> H      1.494721    0.413664   -1.317408
| 17> H      0.099799   -0.648227   -1.567386
| 18> H     -3.943385   -1.027237   -1.129310
| 19> H      2.629621   -3.103060    0.750177
| 20> *
| 21>
| 22>                          ****END OF INPUT****

CARTESIAN COORDINATES (ANGSTROEM)
---------------------------------
  O      1.240989    2.316707   -0.287642
  N      0.074392    0.539266    0.153552
  N      0.338574    1.835872    0.364116
  C     -1.018081   -0.017513    0.938595
  C      0.805026   -0.270810   -0.823168
  C     -2.168330   -0.409668    0.125287
  C      1.525451   -1.378278   -0.205251
  C     -3.106676   -0.740595   -0.542391
  C      2.105048   -2.294984    0.304845
  H     -0.653615   -0.880360    1.501749
  H     -1.300451    0.756689    1.652149
  H      1.494721    0.413664   -1.317408
  H      0.099799   -0.648227   -1.567386
  H     -3.943385   -1.027237   -1.129310
  H      2.629621   -3.103060    0.750177

 Total Charge           Charge          ....    0
 Multiplicity           Mult            ....    1
 Number of Electrons    NEL             ....   64
 Basis Dimension        Dim             ....  996

ORBITAL ENERGIES
----------------

  NO   OCC          E(Eh)            E(eV)
   0   2.0000     -20.589463      -560.2678
   1   2.0000     -15.737759      -428.2462
   2   2.0000     -15.642240      -425.6470
   3   2.0000     -11.314388      -307.8802
   4   2.0000     -11.307695      -307.6980
   5   2.0000     -11.251830      -306.1779
   6   2.0000     -11.250518      -306.1422
   7   2.0000     -11.243969      -305.9640
   8   2.0000     -11.241321      -305.8919
   9   2.0000      -1.524313       -41.4787
  10   2.0000      -1.299783       -35.3689
  11   2.0000      -1.089160       -29.6376
  12   2.0000      -1.077926       -29.3319
  13   2.0000      -1.003274       -27.3005
  14   2.0000      -0.993229       -27.0271
  15   2.0000      -0.842388       -22.9225
  16   2.0000      -0.766768       -20.8648
  17   2.0000      -0.740242       -20.1430
  18   2.0000      -0.733619       -19.9628
  19   2.0000      -0.714850       -19.4520
  20   2.0000      -0.700752       -19.0684
  21   2.0000      -0.645225       -17.5575
  22   2.0000      -0.619707       -16.8631
  23   2.0000      -0.611023       -16.6268
  24   2.0000      -0.600804       -16.3487
  25   2.0000      -0.588974       -16.0268
  26   2.0000      -0.438930       -11.9439
  27   2.0000      -0.423277       -11.5180
  28   2.0000      -0.412420       -11.2225
  29   2.0000      -0.408497       -11.1158
  30   2.0000      -0.406456       -11.0602
  31   2.0000      -0.399557       -10.8725
  32   0.0000       0.021091         0.5739
  33   0.0000       0.024365         0.6630
  34   0.0000       0.033805         0.9199
  35   0.0000       0.037936         1.0323
  36   0.0000       0.045953         1.2504

MULLIKEN ATOMIC CHARGES
-----------------------
   0 O :   -0.596961
   1 N :   -0.064960
   2 N :    0.230602
   3 C :   -0.185793
   4 C :   -0.184113
   5 C :    0.164467
   6 C :    0.182568
   7 C :   -0.903279
   8 C :   -0.914394
   9 H :    0.352279
  10 H :    0.421958
  11 H :    0.453820
  12 H :    0.353032
  13 H :    0.352299
  14 H :    0.338475
Sum of atomic charges:   -0.0000000

LOEWDIN ATOMIC CHARGES
----------------------
   0 O :    0.420054
   1 N :    0.138572
   2 N :   -0.106951
   3 C :    0.232348
   4 C :    0.244283
   5 C :    0.102924
   6 C :    0.101983
   7 C :    0.582814
   8 C :    0.584169
   9 H :   -0.315526
  10 H :   -0.351231
  11 H :   -0.410787
  12 H :   -0.308705
  13 H :   -0.456652
  14 H :   -0.457294

  Mayer bond orders larger than 0.100000
B(  0-O ,  1-N ) :   0.1281 B(  0-O ,  2-N ) :   1.4447 B(  1-N ,  2-N ) :   1.0724
B(  1-N ,  3-C ) :   0.8770 B(  1-N ,  4-C ) :   0.7896 B(  3-C ,  5-C ) :   0.8280
B(  3-C ,  7-C ) :  -0.1978 B(  3-C ,  9-H ) :   0.8522 B(  3-C , 10-H ) :   0.8095
B(  4-C ,  6-C ) :   0.7925 B(  4-C ,  8-C ) :  -0.1984 B(  4-C , 11-H ) :   0.7980
B(  4-C , 12-H ) :   0.8580 B(  5-C ,  7-C ) :   2.4428 B(  5-C , 13-H ) :  -0.1875
B(  6-C ,  8-C ) :   2.4075 B(  6-C , 14-H ) :  -0.2035 B(  7-C , 13-H ) :   1.1171
B(  8-C , 14-H ) :   1.1473

MP2 TOTAL ENERGY:     -416.092248742 Eh
FINAL SINGLE POINT ENERGY      -416.092248741974

DIPOLE MOMENT
-------------
                                X             Y             Z
Electronic contribution:      1.01836       3.11945       0.19430
Nuclear contribution   :     -1.62522      -4.36792      -0.10976
                        -----------------------------------------
Total Dipole Moment    :     -0.60686      -1.24847       0.08454
                        -----------------------------------------
Magnitude (a.u.)       :      1.39073
Magnitude (Debye)      :      3.53494

Rotational constants in cm-1:     0.059404     0.046059     0.029449
Rotational constants in MHz :  1780.898828  1380.825236   882.860247

                             ****ORCA TERMINATED NORMALLY****
TOTAL RUN TIME: 0 days 0 hours 35 minutes 5 seconds 844 msec
