                         Program Version 5.0.4 -  RELEASE  -
|  1> !ri-mp2 aug-cc-pvqz aug-cc-pvqz/c tightscf
|  2> %pal nprocs 16 end
|  3>
|  4> * xyz 0 1
|  5> O    -0.015813     0.731327    0.000000
|  6> O     0.015813    -0.731327    0.000000
|  7> C    -1.344283    -1.140143    0.000000
|  8> H    -1.844417    -0.742104    0.887786
|  9> C     1.344283     1.140143    0.000000
| 10> H     1.844417     0.742104   -0.887786
| 11> H     1.844417     0.742104    0.887786
| 12> C     1.344283     2.657005    0.000000
| 13> C    -1.344283    -2.657005    0.000000
| 14> H    -1.844417    -0.742104   -0.887786
| 15> H     0.842512     3.047916   -0.884749
| 16> H     0.842512     3.047916    0.884749
| 17> H     2.372433     3.019890    0.000000
| 18> H    -0.842512    -3.047916   -0.884749
| 19> H    -0.842512    -3.047916    0.884749
| 20> H    -2.372433    -3.019890    0.000000
| 21> *
| 22>
| 23>                          ****END OF INPUT****

CARTESIAN COORDINATES (ANGSTROEM)
---------------------------------
  O     -0.015813    0.731327    0.000000
  O      0.015813   -0.731327    0.000000
  C     -1.344283   -1.140143    0.000000
  H     -1.844417   -0.742104    0.887786
  C      1.344283    1.140143    0.000000
  H      1.844417    0.742104   -0.887786
  H      1.844417    0.742104    0.887786
  C      1.344283    2.657005    0.000000
  C     -1.344283   -2.657005    0.000000
  H     -1.844417   -0.742104   -0.887786
  H      0.842512    3.047916   -0.884749
  H      0.842512    3.047916    0.884749
  H      2.372433    3.019890    0.000000
  H     -0.842512   -3.047916   -0.884749
  H     -0.842512   -3.047916    0.884749
  H     -2.372433   -3.019890    0.000000

 Total Charge           Charge          ....    0
 Multiplicity           Mult            ....    1
 Number of Electrons    NEL             ....   50
 Basis Dimension        Dim             ....  940

ORBITAL ENERGIES
----------------

  NO   OCC          E(Eh)            E(eV)
   0   2.0000     -20.607845      -560.7680
   1   2.0000     -20.607558      -560.7601
   2   2.0000     -11.274415      -306.7924
   3   2.0000     -11.274412      -306.7923
   4   2.0000     -11.218174      -305.2620
   5   2.0000     -11.218174      -305.2620
   6   2.0000      -1.459948       -39.7272
   7   2.0000      -1.240923       -33.7672
   8   2.0000      -1.019256       -27.7354
   9   2.0000      -0.987748       -26.8780
  10   2.0000      -0.847607       -23.0645
  11   2.0000      -0.827450       -22.5161
  12   2.0000      -0.689202       -18.7541
  13   2.0000      -0.678401       -18.4602
  14   2.0000      -0.638714       -17.3803
  15   2.0000      -0.636944       -17.3321
  16   2.0000      -0.562997       -15.3199
  17   2.0000      -0.560325       -15.2472
  18   2.0000      -0.546696       -14.8764
  19   2.0000      -0.517644       -14.0858
  20   2.0000      -0.516943       -14.0667
  21   2.0000      -0.515106       -14.0167
  22   2.0000      -0.478190       -13.0122
  23   2.0000      -0.473148       -12.8750
  24   2.0000      -0.415473       -11.3056
  25   0.0000       0.028122         0.7652
  26   0.0000       0.032035         0.8717
  27   0.0000       0.034933         0.9506
  28   0.0000       0.036156         0.9838
  29   0.0000       0.046691         1.2705

MULLIKEN ATOMIC CHARGES
-----------------------
   0 O :   -0.491664
   1 O :   -0.491664
   2 C :    0.008270
   3 H :    0.258470
   4 C :    0.008270
   5 H :    0.258471
   6 H :    0.258470
   7 C :   -0.821074
   8 C :   -0.821074
   9 H :    0.258471
  10 H :    0.265746
  11 H :    0.265746
  12 H :    0.256036
  13 H :    0.265746
  14 H :    0.265746
  15 H :    0.256036
Sum of atomic charges:   -0.0000000

LOEWDIN ATOMIC CHARGES
----------------------
   0 O :    0.566022
   1 O :    0.566022
   2 C :    0.069296
   3 H :   -0.316257
   4 C :    0.069296
   5 H :   -0.316257
   6 H :   -0.316257
   7 C :    0.884660
   8 C :    0.884660
   9 H :   -0.316257
  10 H :   -0.295880
  11 H :   -0.295880
  12 H :   -0.295705
  13 H :   -0.295880
  14 H :   -0.295880
  15 H :   -0.295705

  Mayer bond orders larger than 0.100000
B(  0-O ,  1-O ) :   0.7457 B(  0-O ,  4-C ) :   0.8341 B(  1-O ,  2-C ) :   0.8341
B(  2-C ,  3-H ) :   0.8829 B(  2-C ,  8-C ) :   0.9450 B(  2-C ,  9-H ) :   0.8829
B(  4-C ,  5-H ) :   0.8829 B(  4-C ,  6-H ) :   0.8829 B(  4-C ,  7-C ) :   0.9450
B(  7-C , 10-H ) :   0.9128 B(  7-C , 11-H ) :   0.9128 B(  7-C , 12-H ) :   0.9843
B(  8-C , 13-H ) :   0.9128 B(  8-C , 14-H ) :   0.9128 B(  8-C , 15-H ) :   0.9843

MP2 TOTAL ENERGY:     -308.320240398 Eh
FINAL SINGLE POINT ENERGY      -308.320240397682

DIPOLE MOMENT
-------------
                                X             Y             Z
Electronic contribution:      0.00000      -0.00000      -0.00000
Nuclear contribution   :      0.00000      -0.00000       0.00000
                        -----------------------------------------
Total Dipole Moment    :      0.00000      -0.00000      -0.00000
                        -----------------------------------------
Magnitude (a.u.)       :      0.00000
Magnitude (Debye)      :      0.00000

Rotational constants in cm-1:     0.578299     0.045042     0.043142
Rotational constants in MHz : 17336.961376  1350.337452  1293.377698

                             ****ORCA TERMINATED NORMALLY****
TOTAL RUN TIME: 0 days 0 hours 28 minutes 39 seconds 378 msec
