                         Program Version 5.0.4 -  RELEASE  -
|  1> !ri-mp2 aug-cc-pvqz aug-cc-pvqz/c tightscf
|  2> %pal nprocs 16 end
|  3>
|  4> * xyz 0 1
|  5> C     0.000000    0.000000     0.342340
|  6> F     0.000000    1.079325     1.126414
|  7> F     0.000000   -1.079325     1.126414
|  8> Cl    1.472567    0.000000    -0.656750
|  9> Cl   -1.472567    0.000000    -0.656750
| 10> *
| 11>
| 12>                          ****END OF INPUT****

CARTESIAN COORDINATES (ANGSTROEM)
---------------------------------
  C      0.000000    0.000000    0.342340
  F      0.000000    1.079325    1.126414
  F      0.000000   -1.079325    1.126414
  Cl     1.472567    0.000000   -0.656750
  Cl    -1.472567    0.000000   -0.656750

 Total Charge           Charge          ....    0
 Multiplicity           Mult            ....    1
 Number of Electrons    NEL             ....   58
 Basis Dimension        Dim             ....  408

ORBITAL ENERGIES
----------------

  NO   OCC          E(Eh)            E(eV)
   0   2.0000    -104.881195     -2853.9624
   1   2.0000    -104.881195     -2853.9624
   2   2.0000     -26.366400      -717.4662
   3   2.0000     -26.366379      -717.4656
   4   2.0000     -11.558785      -314.5305
   5   2.0000     -10.606737      -288.6240
   6   2.0000     -10.606726      -288.6237
   7   2.0000      -8.073727      -219.6973
   8   2.0000      -8.073725      -219.6972
   9   2.0000      -8.071722      -219.6427
  10   2.0000      -8.071720      -219.6427
  11   2.0000      -8.071713      -219.6425
  12   2.0000      -8.071712      -219.6424
  13   2.0000      -1.732765       -47.1509
  14   2.0000      -1.663108       -45.2555
  15   2.0000      -1.205892       -32.8140
  16   2.0000      -1.137821       -30.9617
  17   2.0000      -0.942510       -25.6470
  18   2.0000      -0.829428       -22.5699
  19   2.0000      -0.799273       -21.7493
  20   2.0000      -0.797786       -21.7089
  21   2.0000      -0.722529       -19.6610
  22   2.0000      -0.686788       -18.6885
  23   2.0000      -0.658380       -17.9154
  24   2.0000      -0.566215       -15.4075
  25   2.0000      -0.524752       -14.2792
  26   2.0000      -0.512878       -13.9561
  27   2.0000      -0.494487       -13.4557
  28   2.0000      -0.476841       -12.9755
  29   0.0000       0.045895         1.2489
  30   0.0000       0.055535         1.5112
  31   0.0000       0.066773         1.8170
  32   0.0000       0.074653         2.0314
  33   0.0000       0.090540         2.4637

MULLIKEN ATOMIC CHARGES
-----------------------
   0 C :    1.077863
   1 F :   -0.467057
   2 F :   -0.467057
   3 Cl:   -0.071875
   4 Cl:   -0.071875
Sum of atomic charges:   -0.0000000

LOEWDIN ATOMIC CHARGES
----------------------
   0 C :   -3.081463
   1 F :    0.587261
   2 F :    0.587261
   3 Cl:    0.953470
   4 Cl:    0.953470

  Mayer bond orders larger than 0.100000
B(  0-C ,  1-F ) :   0.6571 B(  0-C ,  2-F ) :   0.6571 B(  0-C ,  3-Cl) :   0.9858
B(  0-C ,  4-Cl) :   0.9858

MP2 TOTAL ENERGY:    -1157.030374168 Eh
FINAL SINGLE POINT ENERGY     -1157.030374167669

DIPOLE MOMENT
-------------
                                X             Y             Z
Electronic contribution:     -0.00000       0.00000       0.08236
Nuclear contribution   :      0.00000       0.00000      -0.31144
                        -----------------------------------------
Total Dipole Moment    :     -0.00000       0.00000      -0.22908
                        -----------------------------------------
Magnitude (a.u.)       :      0.22908
Magnitude (Debye)      :      0.58228

Rotational constants in cm-1:     0.135443     0.085131     0.072055
Rotational constants in MHz :  4060.489765  2552.169977  2160.148421

                             ****ORCA TERMINATED NORMALLY****
TOTAL RUN TIME: 0 days 0 hours 2 minutes 41 seconds 751 msec
