                         Program Version 5.0.4 -  RELEASE  -
|  1> !ri-mp2 aug-cc-pvqz aug-cc-pvqz/c tightscf
|  2> %pal nprocs 16 end
|  3>
|  4> * xyz 0 1
|  5> O      0.424779    2.021733    0.000000
|  6> S      0.358890    0.561255    0.000000
|  7> C     -0.613205    0.101793    1.471297
|  8> C     -0.613205   -1.376626    1.826915
|  9> C     -0.613205    0.101793   -1.471297
| 10> C     -0.613205   -1.376626   -1.826915
| 11> O      1.592893   -0.223650    0.000000
| 12> H     -1.610423    0.511825    1.314449
| 13> H     -0.127133    0.701508    2.241547
| 14> H      0.402605   -1.766402    1.849066
| 15> H     -1.195297   -1.970903    1.125329
| 16> H     -1.053100   -1.509402    2.815892
| 17> H     -0.127133    0.701508   -2.241547
| 18> H     -1.610423    0.511825   -1.314449
| 19> H      0.402605   -1.766402   -1.849066
| 20> H     -1.053100   -1.509402   -2.815892
| 21> H     -1.195297   -1.970903   -1.125329
| 22> *
| 23>
| 24>                          ****END OF INPUT****

CARTESIAN COORDINATES (ANGSTROEM)
---------------------------------
  O      0.424779    2.021733    0.000000
  S      0.358890    0.561255    0.000000
  C     -0.613205    0.101793    1.471297
  C     -0.613205   -1.376626    1.826915
  C     -0.613205    0.101793   -1.471297
  C     -0.613205   -1.376626   -1.826915
  O      1.592893   -0.223650    0.000000
  H     -1.610423    0.511825    1.314449
  H     -0.127133    0.701508    2.241547
  H      0.402605   -1.766402    1.849066
  H     -1.195297   -1.970903    1.125329
  H     -1.053100   -1.509402    2.815892
  H     -0.127133    0.701508   -2.241547
  H     -1.610423    0.511825   -1.314449
  H      0.402605   -1.766402   -1.849066
  H     -1.053100   -1.509402   -2.815892
  H     -1.195297   -1.970903   -1.125329

 Total Charge           Charge          ....    0
 Multiplicity           Mult            ....    1
 Number of Electrons    NEL             ....   66
 Basis Dimension        Dim             .... 1024

ORBITAL ENERGIES
----------------

  NO   OCC          E(Eh)            E(eV)
   0   2.0000     -92.163137     -2507.8865
   1   2.0000     -20.535761      -558.8065
   2   2.0000     -20.533363      -558.7412
   3   2.0000     -11.279011      -306.9175
   4   2.0000     -11.278997      -306.9171
   5   2.0000     -11.243580      -305.9534
   6   2.0000     -11.243578      -305.9533
   7   2.0000      -9.133568      -248.5370
   8   2.0000      -6.818691      -185.5460
   9   2.0000      -6.818128      -185.5307
  10   2.0000      -6.817748      -185.5203
  11   2.0000      -1.432230       -38.9729
  12   2.0000      -1.322438       -35.9854
  13   2.0000      -1.092409       -29.7259
  14   2.0000      -1.064803       -28.9748
  15   2.0000      -0.940095       -25.5813
  16   2.0000      -0.891668       -24.2635
  17   2.0000      -0.790591       -21.5131
  18   2.0000      -0.683998       -18.6125
  19   2.0000      -0.680520       -18.5179
  20   2.0000      -0.652234       -17.7482
  21   2.0000      -0.628239       -17.0952
  22   2.0000      -0.619279       -16.8514
  23   2.0000      -0.589574       -16.0431
  24   2.0000      -0.578223       -15.7342
  25   2.0000      -0.556996       -15.1566
  26   2.0000      -0.546612       -14.8741
  27   2.0000      -0.537063       -14.6142
  28   2.0000      -0.517896       -14.0927
  29   2.0000      -0.485534       -13.2121
  30   2.0000      -0.481683       -13.1073
  31   2.0000      -0.461230       -12.5507
  32   2.0000      -0.422493       -11.4966
  33   0.0000       0.018649         0.5075
  34   0.0000       0.025846         0.7033
  35   0.0000       0.031690         0.8623
  36   0.0000       0.037821         1.0292
  37   0.0000       0.045154         1.2287

MULLIKEN ATOMIC CHARGES
-----------------------
   0 O :   -1.384915
   1 S :    2.552849
   2 C :   -0.571957
   3 C :   -0.879908
   4 C :   -0.571958
   5 C :   -0.879907
   6 O :   -1.281573
   7 H :    0.323724
   8 H :    0.364219
   9 H :    0.233030
  10 H :    0.272237
  11 H :    0.315474
  12 H :    0.364219
  13 H :    0.323724
  14 H :    0.233030
  15 H :    0.315474
  16 H :    0.272238
Sum of atomic charges:    0.0000000

LOEWDIN ATOMIC CHARGES
----------------------
   0 O :    0.305822
   1 S :   -0.159655
   2 C :    0.424636
   3 C :    0.898606
   4 C :    0.424636
   5 C :    0.898606
   6 O :    0.310749
   7 H :   -0.320192
   8 H :   -0.338949
   9 H :   -0.302548
  10 H :   -0.310437
  11 H :   -0.279574
  12 H :   -0.338949
  13 H :   -0.320192
  14 H :   -0.302548
  15 H :   -0.279574
  16 H :   -0.310437

  Mayer bond orders larger than 0.100000
B(  0-O ,  1-S ) :   0.8107 B(  1-S ,  2-C ) :   0.9012 B(  1-S ,  4-C ) :   0.9012
B(  1-S ,  6-O ) :   0.9281 B(  2-C ,  3-C ) :   0.9779 B(  2-C ,  7-H ) :   0.8527
B(  2-C ,  8-H ) :   0.8186 B(  3-C ,  9-H ) :   0.9566 B(  3-C , 10-H ) :   0.9189
B(  3-C , 11-H ) :   0.9314 B(  4-C ,  5-C ) :   0.9779 B(  4-C , 12-H ) :   0.8186
B(  4-C , 13-H ) :   0.8527 B(  5-C , 14-H ) :   0.9566 B(  5-C , 15-H ) :   0.9314
B(  5-C , 16-H ) :   0.9189

MP2 TOTAL ENERGY:     -706.160509893 Eh
FINAL SINGLE POINT ENERGY      -706.160509892997

DIPOLE MOMENT
-------------
                                X             Y             Z
Electronic contribution:      5.46278       7.02967       0.00000
Nuclear contribution   :     -7.24953      -8.17247       0.00000
                        -----------------------------------------
Total Dipole Moment    :     -1.78676      -1.14280       0.00000
                        -----------------------------------------
Magnitude (a.u.)       :      2.12097
Magnitude (Debye)      :      5.39106

Rotational constants in cm-1:     0.077420     0.073227     0.051088
Rotational constants in MHz :  2320.980327  2195.290983  1531.569073

                             ****ORCA TERMINATED NORMALLY****
TOTAL RUN TIME: 0 days 0 hours 47 minutes 6 seconds 58 msec
