                         Program Version 5.0.4 -  RELEASE  -
|  1> !ri-mp2 aug-cc-pvqz aug-cc-pvqz/c tightscf
|  2> %pal nprocs 16 end
|  3>
|  4> * xyz 0 1
|  5> C     -0.975094    1.648785    0.791622
|  6> C      0.975094   -1.648785    0.791622
|  7> S     -0.975094    0.343346   -0.490829
|  8> S      0.975094   -0.343346   -0.490829
|  9> H     -0.781660    1.231798    1.776638
| 10> H     -1.975350    2.081790    0.775132
| 11> H     -0.243016    2.415025    0.551763
| 12> H      0.781660   -1.231798    1.776638
| 13> H      1.975350   -2.081790    0.775132
| 14> H      0.243016   -2.415025    0.551763
| 15> *
| 16>
| 17>                          ****END OF INPUT****

CARTESIAN COORDINATES (ANGSTROEM)
---------------------------------
  C     -0.975094    1.648785    0.791622
  C      0.975094   -1.648785    0.791622
  S     -0.975094    0.343346   -0.490829
  S      0.975094   -0.343346   -0.490829
  H     -0.781660    1.231798    1.776638
  H     -1.975350    2.081790    0.775132
  H     -0.243016    2.415025    0.551763
  H      0.781660   -1.231798    1.776638
  H      1.975350   -2.081790    0.775132
  H      0.243016   -2.415025    0.551763

 Total Charge           Charge          ....    0
 Multiplicity           Mult            ....    1
 Number of Electrons    NEL             ....   50
 Basis Dimension        Dim             ....  604

ORBITAL ENERGIES
----------------

  NO   OCC          E(Eh)            E(eV)
   0   2.0000     -91.971566     -2502.6736
   1   2.0000     -91.971564     -2502.6735
   2   2.0000     -11.257663      -306.3366
   3   2.0000     -11.257663      -306.3366
   4   2.0000      -8.971087      -244.1157
   5   2.0000      -8.970900      -244.1106
   6   2.0000      -6.652504      -181.0238
   7   2.0000      -6.652170      -181.0148
   8   2.0000      -6.651225      -180.9890
   9   2.0000      -6.651156      -180.9872
  10   2.0000      -6.650398      -180.9665
  11   2.0000      -6.650397      -180.9665
  12   2.0000      -1.076511       -29.2934
  13   2.0000      -1.005939       -27.3730
  14   2.0000      -0.902185       -24.5497
  15   2.0000      -0.785320       -21.3696
  16   2.0000      -0.608073       -16.5465
  17   2.0000      -0.597662       -16.2632
  18   2.0000      -0.595951       -16.2167
  19   2.0000      -0.580597       -15.7989
  20   2.0000      -0.525674       -14.3043
  21   2.0000      -0.487337       -13.2611
  22   2.0000      -0.435617       -11.8537
  23   2.0000      -0.356077        -9.6894
  24   2.0000      -0.350553        -9.5390
  25   0.0000       0.026130         0.7110
  26   0.0000       0.031899         0.8680
  27   0.0000       0.039996         1.0883
  28   0.0000       0.041416         1.1270
  29   0.0000       0.050275         1.3680

MULLIKEN ATOMIC CHARGES
-----------------------
   0 C :   -0.870864
   1 C :   -0.870864
   2 S :   -0.018107
   3 S :   -0.018107
   4 H :    0.278952
   5 H :    0.328825
   6 H :    0.281195
   7 H :    0.278952
   8 H :    0.328825
   9 H :    0.281195
Sum of atomic charges:   -0.0000000

LOEWDIN ATOMIC CHARGES
----------------------
   0 C :    0.464598
   1 C :    0.464598
   2 S :    0.730009
   3 S :    0.730009
   4 H :   -0.391271
   5 H :   -0.406894
   6 H :   -0.396442
   7 H :   -0.391271
   8 H :   -0.406894
   9 H :   -0.396442

  Mayer bond orders larger than 0.100000
B(  0-C ,  2-S ) :   0.9810 B(  0-C ,  4-H ) :   0.9134 B(  0-C ,  5-H ) :   0.8560
B(  0-C ,  6-H ) :   0.9127 B(  1-C ,  3-S ) :   0.9810 B(  1-C ,  7-H ) :   0.9134
B(  1-C ,  8-H ) :   0.8560 B(  1-C ,  9-H ) :   0.9127 B(  2-S ,  3-S ) :   1.1531

MP2 TOTAL ENERGY:     -875.138320978 Eh
FINAL SINGLE POINT ENERGY      -875.138320977556

DIPOLE MOMENT
-------------
                                X             Y             Z
Electronic contribution:     -0.00000       0.00000      -5.34039
Nuclear contribution   :      0.00000      -0.00000       6.21839
                        -----------------------------------------
Total Dipole Moment    :     -0.00000       0.00000       0.87800
                        -----------------------------------------
Magnitude (a.u.)       :      0.87800
Magnitude (Debye)      :      2.23170

Rotational constants in cm-1:     0.274201     0.088987     0.082424
Rotational constants in MHz :  8220.347137  2667.756444  2471.004427

                             ****ORCA TERMINATED NORMALLY****
TOTAL RUN TIME: 0 days 0 hours 7 minutes 27 seconds 146 msec
