                         Program Version 5.0.4 -  RELEASE  -
|  1> !ri-mp2 aug-cc-pvqz aug-cc-pvqz/c tightscf
|  2> %pal nprocs 16 end
|  3>
|  4> * xyz 0 1
|  5> C      0.150438   -1.090521    3.446524
|  6> C      0.085296    0.101402    2.517436
|  7> O      0.150438   -0.404858    1.160874
|  8> S      0.167579    0.766272    0.000000
|  9> O     -1.132613    1.441502    0.000000
| 10> O      0.150438   -0.404858   -1.160874
| 11> C      0.085296    0.101402   -2.517436
| 12> C      0.150438   -1.090521   -3.446524
| 13> H     -0.680200   -1.769479    3.258074
| 14> H      1.082937   -1.637650    3.313150
| 15> H      0.092076   -0.751674    4.481673
| 16> H      0.923392    0.782173    2.691692
| 17> H     -0.846294    0.654026    2.644175
| 18> H     -0.846294    0.654026   -2.644175
| 19> H      0.923392    0.782173   -2.691692
| 20> H      1.082937   -1.637650   -3.313150
| 21> H     -0.680200   -1.769479   -3.258074
| 22> H      0.092076   -0.751674   -4.481673
| 23> *
| 24>
| 25>                          ****END OF INPUT****

CARTESIAN COORDINATES (ANGSTROEM)
---------------------------------
  C      0.150438   -1.090521    3.446524
  C      0.085296    0.101402    2.517436
  O      0.150438   -0.404858    1.160874
  S      0.167579    0.766272    0.000000
  O     -1.132613    1.441502    0.000000
  O      0.150438   -0.404858   -1.160874
  C      0.085296    0.101402   -2.517436
  C      0.150438   -1.090521   -3.446524
  H     -0.680200   -1.769479    3.258074
  H      1.082937   -1.637650    3.313150
  H      0.092076   -0.751674    4.481673
  H      0.923392    0.782173    2.691692
  H     -0.846294    0.654026    2.644175
  H     -0.846294    0.654026   -2.644175
  H      0.923392    0.782173   -2.691692
  H      1.082937   -1.637650   -3.313150
  H     -0.680200   -1.769479   -3.258074
  H      0.092076   -0.751674   -4.481673

 Total Charge           Charge          ....    0
 Multiplicity           Mult            ....    1
 Number of Electrons    NEL             ....   74
 Basis Dimension        Dim             .... 1104

ORBITAL ENERGIES
----------------

  NO   OCC          E(Eh)            E(eV)
   0   2.0000     -92.153467     -2507.6233
   1   2.0000     -20.596216      -560.4515
   2   2.0000     -20.596203      -560.4512
   3   2.0000     -20.541421      -558.9605
   4   2.0000     -11.296587      -307.3958
   5   2.0000     -11.296586      -307.3957
   6   2.0000     -11.226566      -305.4904
   7   2.0000     -11.226566      -305.4904
   8   2.0000      -9.127247      -248.3650
   9   2.0000      -6.809504      -185.2960
  10   2.0000      -6.809033      -185.2832
  11   2.0000      -6.806729      -185.2205
  12   2.0000      -1.459751       -39.7218
  13   2.0000      -1.372339       -37.3433
  14   2.0000      -1.343470       -36.5577
  15   2.0000      -1.053310       -28.6620
  16   2.0000      -1.026058       -27.9205
  17   2.0000      -0.904493       -24.6125
  18   2.0000      -0.847901       -23.0726
  19   2.0000      -0.837979       -22.8026
  20   2.0000      -0.713139       -19.4055
  21   2.0000      -0.697125       -18.9697
  22   2.0000      -0.681519       -18.5451
  23   2.0000      -0.669246       -18.2111
  24   2.0000      -0.609058       -16.5733
  25   2.0000      -0.599021       -16.3002
  26   2.0000      -0.595831       -16.2134
  27   2.0000      -0.559568       -15.2266
  28   2.0000      -0.549692       -14.9579
  29   2.0000      -0.539340       -14.6762
  30   2.0000      -0.529158       -14.3991
  31   2.0000      -0.523017       -14.2320
  32   2.0000      -0.520869       -14.1736
  33   2.0000      -0.478445       -13.0192
  34   2.0000      -0.473913       -12.8958
  35   2.0000      -0.463838       -12.6217
  36   2.0000      -0.407594       -11.0912
  37   0.0000       0.026099         0.7102
  38   0.0000       0.027777         0.7558
  39   0.0000       0.033809         0.9200
  40   0.0000       0.036514         0.9936
  41   0.0000       0.043674         1.1884

MULLIKEN ATOMIC CHARGES
-----------------------
   0 C :   -0.903074
   1 C :   -0.030968
   2 O :   -0.824080
   3 S :    1.878490
   4 O :   -1.117407
   5 O :   -0.824076
   6 C :   -0.030969
   7 C :   -0.903073
   8 H :    0.267464
   9 H :    0.243464
  10 H :    0.295273
  11 H :    0.271390
  12 H :    0.299988
  13 H :    0.299987
  14 H :    0.271390
  15 H :    0.243464
  16 H :    0.267465
  17 H :    0.295272
Sum of atomic charges:   -0.0000000

LOEWDIN ATOMIC CHARGES
----------------------
   0 C :    0.895837
   1 C :    0.050245
   2 O :    0.504997
   3 S :    0.051902
   4 O :    0.112218
   5 O :    0.504997
   6 C :    0.050245
   7 C :    0.895837
   8 H :   -0.292814
   9 H :   -0.293833
  10 H :   -0.291529
  11 H :   -0.322339
  12 H :   -0.332624
  13 H :   -0.332624
  14 H :   -0.322339
  15 H :   -0.293833
  16 H :   -0.292814
  17 H :   -0.291529

  Mayer bond orders larger than 0.100000
B(  0-C ,  1-C ) :   0.9857 B(  0-C ,  8-H ) :   0.9184 B(  0-C ,  9-H ) :   0.9330
B(  0-C , 10-H ) :   0.9504 B(  1-C ,  2-O ) :   0.7270 B(  1-C , 11-H ) :   0.8852
B(  1-C , 12-H ) :   0.8571 B(  2-O ,  3-S ) :   0.8516 B(  2-O ,  5-O ) :  -0.3728
B(  3-S ,  4-O ) :   1.3854 B(  3-S ,  5-O ) :   0.8516 B(  5-O ,  6-C ) :   0.7270
B(  6-C ,  7-C ) :   0.9857 B(  6-C , 13-H ) :   0.8571 B(  6-C , 14-H ) :   0.8852
B(  7-C , 15-H ) :   0.9330 B(  7-C , 16-H ) :   0.9184 B(  7-C , 17-H ) :   0.9504

MP2 TOTAL ENERGY:     -781.290706617 Eh
FINAL SINGLE POINT ENERGY      -781.290706617470

DIPOLE MOMENT
-------------
                                X             Y             Z
Electronic contribution:     -0.32524       5.35096      -0.00000
Nuclear contribution   :      1.13203      -5.49036      -0.00000
                        -----------------------------------------
Total Dipole Moment    :      0.80679      -0.13940      -0.00000
                        -----------------------------------------
Magnitude (a.u.)       :      0.81874
Magnitude (Debye)      :      2.08108

Rotational constants in cm-1:     0.129471     0.027512     0.023935
Rotational constants in MHz :  3881.432390   824.783971   717.540418

                             ****ORCA TERMINATED NORMALLY****
TOTAL RUN TIME: 0 days 0 hours 48 minutes 22 seconds 37 msec
