                         Program Version 5.0.4 -  RELEASE  -
|  1> !ri-mp2 aug-cc-pvqz aug-cc-pvqz/c tightscf
|  2> %pal nprocs 16 end
|  3>
|  4> * xyz 0 1
|  5> S      2.159288    0.225879   -0.000022
|  6> S     -2.159288   -0.225879   -0.000022
|  7> N      0.380905   -1.736090    0.000033
|  8> N     -0.380905    1.736090    0.000033
|  9> C      0.630428   -0.433440    0.000013
| 10> C     -0.630428    0.433440    0.000008
| 11> H      1.142640   -2.391307    0.000019
| 12> H     -0.586716   -2.040345    0.000035
| 13> H      0.586717    2.040345    0.000036
| 14> H     -1.142640    2.391307    0.000026
| 15> *
| 16>
| 17>                          ****END OF INPUT****

CARTESIAN COORDINATES (ANGSTROEM)
---------------------------------
  S      2.159288    0.225879   -0.000022
  S     -2.159288   -0.225879   -0.000022
  N      0.380905   -1.736090    0.000033
  N     -0.380905    1.736090    0.000033
  C      0.630428   -0.433440    0.000013
  C     -0.630428    0.433440    0.000008
  H      1.142640   -2.391307    0.000019
  H     -0.586716   -2.040345    0.000035
  H      0.586717    2.040345    0.000036
  H     -1.142640    2.391307    0.000026

 Total Charge           Charge          ....    0
 Multiplicity           Mult            ....    1
 Number of Electrons    NEL             ....   62
 Basis Dimension        Dim             ....  672

ORBITAL ENERGIES
----------------

  NO   OCC          E(Eh)            E(eV)
   0   2.0000     -91.925826     -2501.4289
   1   2.0000     -91.925826     -2501.4289
   2   2.0000     -15.624454      -425.1630
   3   2.0000     -15.624453      -425.1630
   4   2.0000     -11.380822      -309.6879
   5   2.0000     -11.380204      -309.6711
   6   2.0000      -8.930056      -242.9992
   7   2.0000      -8.930055      -242.9992
   8   2.0000      -6.611592      -179.9106
   9   2.0000      -6.611592      -179.9106
  10   2.0000      -6.610174      -179.8720
  11   2.0000      -6.610174      -179.8720
  12   2.0000      -6.609432      -179.8518
  13   2.0000      -6.609432      -179.8518
  14   2.0000      -1.311512       -35.6881
  15   2.0000      -1.274188       -34.6724
  16   2.0000      -1.038785       -28.2668
  17   2.0000      -1.011929       -27.5360
  18   2.0000      -0.869530       -23.6611
  19   2.0000      -0.809651       -22.0317
  20   2.0000      -0.776434       -21.1278
  21   2.0000      -0.734819       -19.9954
  22   2.0000      -0.660207       -17.9652
  23   2.0000      -0.590491       -16.0681
  24   2.0000      -0.574994       -15.6464
  25   2.0000      -0.523120       -14.2348
  26   2.0000      -0.506557       -13.7841
  27   2.0000      -0.378805       -10.3078
  28   2.0000      -0.361030        -9.8241
  29   2.0000      -0.353838        -9.6284
  30   2.0000      -0.340893        -9.2762
  31   0.0000       0.016715         0.4548
  32   0.0000       0.022749         0.6190
  33   0.0000       0.026895         0.7319
  34   0.0000       0.042930         1.1682
  35   0.0000       0.052440         1.4270

MULLIKEN ATOMIC CHARGES
-----------------------
   0 S :   -0.169517
   1 S :   -0.169517
   2 N :   -0.547429
   3 N :   -0.547429
   4 C :    0.070049
   5 C :    0.070049
   6 H :    0.263872
   7 H :    0.383024
   8 H :    0.383024
   9 H :    0.263872
Sum of atomic charges:   -0.0000000

LOEWDIN ATOMIC CHARGES
----------------------
   0 S :    1.113331
   1 S :    1.113330
   2 N :    1.095942
   3 N :    1.095942
   4 C :   -1.040953
   5 C :   -1.040954
   6 H :   -0.503007
   7 H :   -0.665312
   8 H :   -0.665311
   9 H :   -0.503008

  Mayer bond orders larger than 0.100000
B(  0-S ,  4-C ) :   1.4819 B(  0-S ,  5-C ) :  -0.1172 B(  1-S ,  4-C ) :  -0.1172
B(  1-S ,  5-C ) :   1.4819 B(  2-N ,  4-C ) :   1.1392 B(  2-N ,  6-H ) :   0.9868
B(  2-N ,  7-H ) :   0.8001 B(  3-N ,  5-C ) :   1.1392 B(  3-N ,  8-H ) :   0.8001
B(  3-N ,  9-H ) :   0.9868 B(  4-C ,  5-C ) :   0.9378

MP2 TOTAL ENERGY:     -983.321603819 Eh
FINAL SINGLE POINT ENERGY      -983.321603819405

DIPOLE MOMENT
-------------
                                X             Y             Z
Electronic contribution:     -0.00000      -0.00000      -0.00007
Nuclear contribution   :      0.00000       0.00000       0.00011
                        -----------------------------------------
Total Dipole Moment    :      0.00000      -0.00000       0.00004
                        -----------------------------------------
Magnitude (a.u.)       :      0.00004
Magnitude (Debye)      :      0.00011

Rotational constants in cm-1:     0.150390     0.053356     0.039383
Rotational constants in MHz :  4508.575923  1599.576335  1180.686245

                             ****ORCA TERMINATED NORMALLY****
TOTAL RUN TIME: 0 days 0 hours 13 minutes 28 seconds 676 msec
