                         Program Version 5.0.4 -  RELEASE  -
|  1> !ri-mp2 aug-cc-pvqz aug-cc-pvqz/c tightscf
|  2> %pal nprocs 16 end
|  3>
|  4> * xyz 0 1
|  5> S     -1.060866   -1.182537    0.010069
|  6> S      1.060865   -1.182537    0.010062
|  7> N     -2.426341    1.041613   -0.216817
|  8> N      2.426343    1.041611   -0.216812
|  9> C      0.000000    1.355502    0.314245
| 10> C     -1.267395    0.594687   -0.001788
| 11> C      1.267396    0.594686   -0.001787
| 12> H      0.000000    1.557660    1.390467
| 13> H      0.000000    2.314713   -0.204060
| 14> H     -2.461028    2.058497   -0.168561
| 15> H      2.461031    2.058496   -0.168554
| 16> *
| 17>
| 18>                          ****END OF INPUT****

CARTESIAN COORDINATES (ANGSTROEM)
---------------------------------
  S     -1.060866   -1.182537    0.010069
  S      1.060865   -1.182537    0.010062
  N     -2.426341    1.041613   -0.216817
  N      2.426343    1.041611   -0.216812
  C      0.000000    1.355502    0.314245
  C     -1.267395    0.594687   -0.001788
  C      1.267396    0.594686   -0.001787
  H      0.000000    1.557660    1.390467
  H      0.000000    2.314713   -0.204060
  H     -2.461028    2.058497   -0.168561
  H      2.461031    2.058496   -0.168554

 Total Charge           Charge          ....    0
 Multiplicity           Mult            ....    1
 Number of Electrons    NEL             ....   68
 Basis Dimension        Dim             ....  752

ORBITAL ENERGIES
----------------

  NO   OCC          E(Eh)            E(eV)
   0   2.0000     -92.001023     -2503.4751
   1   2.0000     -92.001021     -2503.4751
   2   2.0000     -15.573425      -423.7744
   3   2.0000     -15.573425      -423.7744
   4   2.0000     -11.349876      -308.8458
   5   2.0000     -11.349867      -308.8456
   6   2.0000     -11.291683      -307.2623
   7   2.0000      -9.001542      -244.9444
   8   2.0000      -9.001389      -244.9402
   9   2.0000      -6.682610      -181.8431
  10   2.0000      -6.682368      -181.8365
  11   2.0000      -6.681602      -181.8156
  12   2.0000      -6.681525      -181.8135
  13   2.0000      -6.680355      -181.7817
  14   2.0000      -6.680340      -181.7813
  15   2.0000      -1.265471       -34.4352
  16   2.0000      -1.245309       -33.8866
  17   2.0000      -1.098747       -29.8984
  18   2.0000      -1.025602       -27.9081
  19   2.0000      -0.944336       -25.6967
  20   2.0000      -0.785196       -21.3663
  21   2.0000      -0.763131       -20.7658
  22   2.0000      -0.696484       -18.9523
  23   2.0000      -0.690690       -18.7946
  24   2.0000      -0.662966       -18.0402
  25   2.0000      -0.574545       -15.6342
  26   2.0000      -0.538635       -14.6570
  27   2.0000      -0.510554       -13.8929
  28   2.0000      -0.506359       -13.7787
  29   2.0000      -0.471754       -12.8371
  30   2.0000      -0.461350       -12.5540
  31   2.0000      -0.423862       -11.5339
  32   2.0000      -0.419608       -11.4181
  33   2.0000      -0.333272        -9.0688
  34   0.0000       0.016596         0.4516
  35   0.0000       0.032131         0.8743
  36   0.0000       0.032321         0.8795
  37   0.0000       0.049738         1.3534
  38   0.0000       0.053888         1.4664

MULLIKEN ATOMIC CHARGES
-----------------------
   0 S :    0.099170
   1 S :    0.099173
   2 N :   -0.762564
   3 N :   -0.762562
   4 C :   -0.290130
   5 C :    0.171287
   6 C :    0.171282
   7 H :    0.329352
   8 H :    0.252959
   9 H :    0.346017
  10 H :    0.346017
Sum of atomic charges:   -0.0000000

LOEWDIN ATOMIC CHARGES
----------------------
   0 S :    0.803557
   1 S :    0.803557
   2 N :    0.870534
   3 N :    0.870533
   4 C :    0.292430
   5 C :   -0.838549
   6 C :   -0.838550
   7 H :   -0.295868
   8 H :   -0.312854
   9 H :   -0.677395
  10 H :   -0.677394

  Mayer bond orders larger than 0.100000
B(  0-S ,  1-S ) :   1.0742 B(  0-S ,  4-C ) :  -0.1162 B(  0-S ,  5-C ) :   0.9803
B(  1-S ,  4-C ) :  -0.1162 B(  1-S ,  6-C ) :   0.9803 B(  2-N ,  5-C ) :   1.6197
B(  2-N ,  9-H ) :   0.7772 B(  3-N ,  6-C ) :   1.6197 B(  3-N , 10-H ) :   0.7772
B(  4-C ,  5-C ) :   1.0080 B(  4-C ,  6-C ) :   1.0080 B(  4-C ,  7-H ) :   0.7824
B(  4-C ,  8-H ) :   0.9101 B(  5-C ,  6-C ) :  -0.1764

MP2 TOTAL ENERGY:    -1021.310063709 Eh
FINAL SINGLE POINT ENERGY     -1021.310063709061

DIPOLE MOMENT
-------------
                                X             Y             Z
Electronic contribution:     -0.00000      -6.46279      -0.39454
Nuclear contribution   :      0.00000       7.80033       0.81739
                        -----------------------------------------
Total Dipole Moment    :     -0.00000       1.33753       0.42285
                        -----------------------------------------
Magnitude (a.u.)       :      1.40278
Magnitude (Debye)      :      3.56559

Rotational constants in cm-1:     0.098538     0.057647     0.037098
Rotational constants in MHz :  2954.096518  1728.222472  1112.157437

                             ****ORCA TERMINATED NORMALLY****
TOTAL RUN TIME: 0 days 0 hours 18 minutes 21 seconds 741 msec
