                         Program Version 5.0.4 -  RELEASE  -
|  1> !ri-mp2 aug-cc-pvqz aug-cc-pvqz/c tightscf
|  2> %pal nprocs 16 end
|  3>
|  4> * xyz 0 1
|  5> C     -0.178150    0.524281    0.000000
|  6> H     -1.074887    1.131933    0.000000
|  7> F      0.911211    1.319595    0.000000
|  8> Cl    -0.178150   -0.475117    1.474553
|  9> Cl    -0.178150   -0.475117   -1.474553
| 10> *
| 11>
| 12>                          ****END OF INPUT****

CARTESIAN COORDINATES (ANGSTROEM)
---------------------------------
  C     -0.178150    0.524281    0.000000
  H     -1.074887    1.131933    0.000000
  F      0.911211    1.319595    0.000000
  Cl    -0.178150   -0.475117    1.474553
  Cl    -0.178150   -0.475117   -1.474553

 Total Charge           Charge          ....    0
 Multiplicity           Mult            ....    1
 Number of Electrons    NEL             ....   50
 Basis Dimension        Dim             ....  374

ORBITAL ENERGIES
----------------

  NO   OCC          E(Eh)            E(eV)
   0   2.0000    -104.865262     -2853.5289
   1   2.0000    -104.865262     -2853.5288
   2   2.0000     -26.342480      -716.8153
   3   2.0000     -11.463875      -311.9479
   4   2.0000     -10.590789      -288.1900
   5   2.0000     -10.590780      -288.1898
   6   2.0000      -8.057776      -219.2632
   7   2.0000      -8.057774      -219.2632
   8   2.0000      -8.055923      -219.2128
   9   2.0000      -8.055922      -219.2128
  10   2.0000      -8.055865      -219.2112
  11   2.0000      -8.055864      -219.2112
  12   2.0000      -1.667140       -45.3652
  13   2.0000      -1.196607       -32.5613
  14   2.0000      -1.116286       -30.3757
  15   2.0000      -0.920337       -25.0436
  16   2.0000      -0.780024       -21.2255
  17   2.0000      -0.740616       -20.1532
  18   2.0000      -0.723854       -19.6971
  19   2.0000      -0.604563       -16.4510
  20   2.0000      -0.570998       -15.5376
  21   2.0000      -0.505018       -13.7422
  22   2.0000      -0.483771       -13.1641
  23   2.0000      -0.477162       -12.9842
  24   2.0000      -0.462812       -12.5938
  25   0.0000       0.027950         0.7605
  26   0.0000       0.053325         1.4510
  27   0.0000       0.055688         1.5153
  28   0.0000       0.071207         1.9376
  29   0.0000       0.093390         2.5413

MULLIKEN ATOMIC CHARGES
-----------------------
   0 C :    0.313383
   1 H :    0.421264
   2 F :   -0.502060
   3 Cl:   -0.116293
   4 Cl:   -0.116293
Sum of atomic charges:   -0.0000000

LOEWDIN ATOMIC CHARGES
----------------------
   0 C :   -1.969958
   1 H :   -0.626703
   2 F :    0.621298
   3 Cl:    0.987682
   4 Cl:    0.987682

  Mayer bond orders larger than 0.100000
B(  0-C ,  1-H ) :   0.7388 B(  0-C ,  2-F ) :   0.6667 B(  0-C ,  3-Cl) :   0.9788
B(  0-C ,  4-Cl) :   0.9788

MP2 TOTAL ENERGY:    -1057.860322986 Eh
FINAL SINGLE POINT ENERGY     -1057.860322985590

DIPOLE MOMENT
-------------
                                X             Y             Z
Electronic contribution:      0.81669      -0.85765      -0.00000
Nuclear contribution   :     -1.33666       1.08405       0.00000
                        -----------------------------------------
Total Dipole Moment    :     -0.51997       0.22640      -0.00000
                        -----------------------------------------
Magnitude (a.u.)       :      0.56712
Magnitude (Debye)      :      1.44151

Rotational constants in cm-1:     0.230242     0.105855     0.075830
Rotational constants in MHz :  6902.484341  3173.450156  2273.336035

                             ****ORCA TERMINATED NORMALLY****
TOTAL RUN TIME: 0 days 0 hours 2 minutes 0 seconds 471 msec
