                         Program Version 5.0.4 -  RELEASE  -
|  1> !ri-mp2 aug-cc-pvqz aug-cc-pvqz/c tightscf
|  2> %pal nprocs 16 end
|  3> %maxcore 3800
|  4>
|  5> * xyz 0 1
|  6> O      0.573550   -0.456962   -0.218509
|  7> O     -0.573550    0.456962   -0.218509
|  8> C     -0.080170    1.796241   -0.003020
|  9> C      0.884776    2.195036   -1.121036
| 10> C     -1.367264    2.619106   -0.073034
| 11> C      0.573550    1.917363    1.374169
| 12> C      0.080170   -1.796241   -0.003020
| 13> C     -0.884776   -2.195036   -1.121036
| 14> C      1.367264   -2.619106   -0.073034
| 15> C     -0.573550   -1.917363    1.374169
| 16> H      0.409795    2.068957   -2.094034
| 17> H      1.176355    3.240428   -1.011020
| 18> H      1.784373    1.583641   -1.095314
| 19> H     -2.069771    2.304245    0.698415
| 20> H     -1.138092    3.673801    0.079206
| 21> H     -1.845273    2.506130   -1.045680
| 22> H      1.459710    1.289466    1.438562
| 23> H      0.871203    2.950204    1.559960
| 24> H     -0.124150    1.615244    2.155502
| 25> H     -0.409795   -2.068957   -2.094034
| 26> H     -1.176355   -3.240428   -1.011020
| 27> H     -1.784373   -1.583641   -1.095314
| 28> H      2.069771   -2.304245    0.698415
| 29> H      1.138092   -3.673801    0.079206
| 30> H      1.845273   -2.506130   -1.045680
| 31> H     -1.459710   -1.289466    1.438562
| 32> H     -0.871203   -2.950204    1.559960
| 33> H      0.124150   -1.615244    2.155502
| 34> *
| 35>
| 36>                          ****END OF INPUT****

CARTESIAN COORDINATES (ANGSTROEM)
---------------------------------
  O      0.573550   -0.456962   -0.218509
  O     -0.573550    0.456962   -0.218509
  C     -0.080170    1.796241   -0.003020
  C      0.884776    2.195036   -1.121036
  C     -1.367264    2.619106   -0.073034
  C      0.573550    1.917363    1.374169
  C      0.080170   -1.796241   -0.003020
  C     -0.884776   -2.195036   -1.121036
  C      1.367264   -2.619106   -0.073034
  C     -0.573550   -1.917363    1.374169
  H      0.409795    2.068957   -2.094034
  H      1.176355    3.240428   -1.011020
  H      1.784373    1.583641   -1.095314
  H     -2.069771    2.304245    0.698415
  H     -1.138092    3.673801    0.079206
  H     -1.845273    2.506130   -1.045680
  H      1.459710    1.289466    1.438562
  H      0.871203    2.950204    1.559960
  H     -0.124150    1.615244    2.155502
  H     -0.409795   -2.068957   -2.094034
  H     -1.176355   -3.240428   -1.011020
  H     -1.784373   -1.583641   -1.095314
  H      2.069771   -2.304245    0.698415
  H      1.138092   -3.673801    0.079206
  H      1.845273   -2.506130   -1.045680
  H     -1.459710   -1.289466    1.438562
  H     -0.871203   -2.950204    1.559960
  H      0.124150   -1.615244    2.155502

 Total Charge           Charge          ....    0
 Multiplicity           Mult            ....    1
 Number of Electrons    NEL             ....   82
 Basis Dimension        Dim             .... 1628

ORBITAL ENERGIES
----------------

  NO   OCC          E(Eh)            E(eV)
   0   2.0000     -20.598079      -560.5022
   1   2.0000     -20.597795      -560.4945
   2   2.0000     -11.285338      -307.0896
   3   2.0000     -11.285334      -307.0896
   4   2.0000     -11.212073      -305.0960
   5   2.0000     -11.212073      -305.0960
   6   2.0000     -11.206872      -304.9545
   7   2.0000     -11.206872      -304.9545
   8   2.0000     -11.205359      -304.9133
   9   2.0000     -11.205358      -304.9133
  10   2.0000      -1.448628       -39.4192
  11   2.0000      -1.240138       -33.7459
  12   2.0000      -1.067124       -29.0379
  13   2.0000      -1.035764       -28.1846
  14   2.0000      -0.938975       -25.5508
  15   2.0000      -0.936576       -25.4855
  16   2.0000      -0.935303       -25.4509
  17   2.0000      -0.933429       -25.3999
  18   2.0000      -0.762914       -20.7599
  19   2.0000      -0.752972       -20.4894
  20   2.0000      -0.655612       -17.8401
  21   2.0000      -0.654487       -17.8095
  22   2.0000      -0.652871       -17.7655
  23   2.0000      -0.614105       -16.7107
  24   2.0000      -0.595825       -16.2132
  25   2.0000      -0.591014       -16.0823
  26   2.0000      -0.575480       -15.6596
  27   2.0000      -0.562697       -15.3118
  28   2.0000      -0.546531       -14.8719
  29   2.0000      -0.539356       -14.6766
  30   2.0000      -0.521272       -14.1845
  31   2.0000      -0.521113       -14.1802
  32   2.0000      -0.520601       -14.1663
  33   2.0000      -0.514468       -13.9994
  34   2.0000      -0.513302       -13.9677
  35   2.0000      -0.493796       -13.4369
  36   2.0000      -0.490772       -13.3546
  37   2.0000      -0.477410       -12.9910
  38   2.0000      -0.455150       -12.3853
  39   2.0000      -0.439900       -11.9703
  40   2.0000      -0.404579       -11.0092
  41   0.0000       0.026349         0.7170
  42   0.0000       0.029554         0.8042
  43   0.0000       0.031479         0.8566
  44   0.0000       0.031774         0.8646
  45   0.0000       0.042138         1.1466

MULLIKEN ATOMIC CHARGES
-----------------------
   0 O :   -0.636352
   1 O :   -0.636030
   2 C :    1.633374
   3 C :   -1.137377
   4 C :   -1.076993
   5 C :   -1.115770
   6 C :    1.633493
   7 C :   -1.137400
   8 C :   -1.077020
   9 C :   -1.115825
  10 H :    0.233766
  11 H :    0.308811
  12 H :    0.264048
  13 H :    0.234116
  14 H :    0.280561
  15 H :    0.239027
  16 H :    0.251822
  17 H :    0.275317
  18 H :    0.245450
  19 H :    0.233782
  20 H :    0.308820
  21 H :    0.264091
  22 H :    0.234192
  23 H :    0.280441
  24 H :    0.239002
  25 H :    0.251817
  26 H :    0.275380
  27 H :    0.245456
Sum of atomic charges:    0.0000000

LOEWDIN ATOMIC CHARGES
----------------------
   0 O :    0.605706
   1 O :    0.605706
   2 C :   -0.708125
   3 C :    0.892572
   4 C :    0.870816
   5 C :    0.890387
   6 C :   -0.708125
   7 C :    0.892572
   8 C :    0.870816
   9 C :    0.890387
  10 H :   -0.279407
  11 H :   -0.277976
  12 H :   -0.298955
  13 H :   -0.281064
  14 H :   -0.278749
  15 H :   -0.281114
  16 H :   -0.296489
  17 H :   -0.276668
  18 H :   -0.280935
  19 H :   -0.279407
  20 H :   -0.277976
  21 H :   -0.298955
  22 H :   -0.281064
  23 H :   -0.278749
  24 H :   -0.281114
  25 H :   -0.296489
  26 H :   -0.276668
  27 H :   -0.280935

  Mayer bond orders larger than 0.100000
B(  0-O ,  1-O ) :   0.4376 B(  2-C ,  3-C ) :   0.4972 B(  2-C ,  4-C ) :   0.2424
B(  2-C ,  5-C ) :   0.5730 B(  2-C , 10-H ) :  -0.1179 B(  2-C , 13-H ) :  -0.1468
B(  2-C , 14-H ) :  -0.1041 B(  2-C , 15-H ) :  -0.1118 B(  3-C ,  4-C ) :   0.1188
B(  3-C , 10-H ) :   1.0564 B(  3-C , 11-H ) :   0.9477 B(  3-C , 12-H ) :   0.9806
B(  4-C ,  5-C ) :   0.1095 B(  4-C , 13-H ) :   1.0616 B(  4-C , 14-H ) :   1.0042
B(  4-C , 15-H ) :   1.0455 B(  5-C , 16-H ) :   0.9878 B(  5-C , 17-H ) :   0.9910
B(  5-C , 18-H ) :   1.0054 B(  6-C ,  7-C ) :   0.4971 B(  6-C ,  8-C ) :   0.2423
B(  6-C ,  9-C ) :   0.5731 B(  6-C , 19-H ) :  -0.1179 B(  6-C , 22-H ) :  -0.1468
B(  6-C , 23-H ) :  -0.1041 B(  6-C , 24-H ) :  -0.1119 B(  7-C ,  8-C ) :   0.1188
B(  7-C , 19-H ) :   1.0564 B(  7-C , 20-H ) :   0.9477 B(  7-C , 21-H ) :   0.9805
B(  8-C ,  9-C ) :   0.1096 B(  8-C , 22-H ) :   1.0615 B(  8-C , 23-H ) :   1.0044
B(  8-C , 24-H ) :   1.0455 B(  9-C , 25-H ) :   0.9878 B(  9-C , 26-H ) :   0.9909
B(  9-C , 27-H ) :   1.0054

MP2 TOTAL ENERGY:     -465.289570441 Eh
FINAL SINGLE POINT ENERGY      -465.289570440905

DIPOLE MOMENT
-------------
                                X             Y             Z
Electronic contribution:      0.00000       0.00000      -1.25312
Nuclear contribution   :     -0.00000      -0.00000       1.43682
                        -----------------------------------------
Total Dipole Moment    :      0.00000       0.00000       0.18370
                        -----------------------------------------
Magnitude (a.u.)       :      0.18370
Magnitude (Debye)      :      0.46692

Rotational constants in cm-1:     0.074536     0.024843     0.024775
Rotational constants in MHz :  2234.542066   744.764519   742.740129

                             ****ORCA TERMINATED NORMALLY****
TOTAL RUN TIME: 0 days 3 hours 37 minutes 22 seconds 390 msec
