                         Program Version 5.0.4 -  RELEASE  -
|  1> !ri-mp2 aug-cc-pvqz aug-cc-pvqz/c tightscf
|  2> %pal nprocs 16 end
|  3>
|  4> * xyz 0 1
|  5> C      0.000000    1.856169   -0.553318
|  6> C      0.000000   -1.856169   -0.553318
|  7> C      0.000000    0.000000    0.918263
|  8> O     -0.768127    0.891716    0.154870
|  9> O      0.768127   -0.891716    0.154870
| 10> H      0.611878    2.448681    0.135651
| 11> H     -0.705463    2.511536   -1.058607
| 12> H      0.653146    1.386863   -1.291849
| 13> H     -0.653146   -1.386863   -1.291849
| 14> H     -0.611878   -2.448681    0.135651
| 15> H      0.705463   -2.511536   -1.058607
| 16> H      0.718837    0.541142    1.540958
| 17> H     -0.718837   -0.541142    1.540958
| 18> *
| 19>
| 20>                          ****END OF INPUT****

CARTESIAN COORDINATES (ANGSTROEM)
---------------------------------
  C      0.000000    1.856169   -0.553318
  C      0.000000   -1.856169   -0.553318
  C      0.000000    0.000000    0.918263
  O     -0.768127    0.891716    0.154870
  O      0.768127   -0.891716    0.154870
  H      0.611878    2.448681    0.135651
  H     -0.705463    2.511536   -1.058607
  H      0.653146    1.386863   -1.291849
  H     -0.653146   -1.386863   -1.291849
  H     -0.611878   -2.448681    0.135651
  H      0.705463   -2.511536   -1.058607
  H      0.718837    0.541142    1.540958
  H     -0.718837   -0.541142    1.540958

 Total Charge           Charge          ....    0
 Multiplicity           Mult            ....    1
 Number of Electrons    NEL             ....   42
 Basis Dimension        Dim             ....  768

ORBITAL ENERGIES
----------------

  NO   OCC          E(Eh)            E(eV)
   0   2.0000     -20.559253      -559.4457
   1   2.0000     -20.559235      -559.4452
   2   2.0000     -11.325014      -308.1693
   3   2.0000     -11.269126      -306.6485
   4   2.0000     -11.269126      -306.6485
   5   2.0000      -1.411824       -38.4177
   6   2.0000      -1.344043       -36.5733
   7   2.0000      -0.980641       -26.6846
   8   2.0000      -0.932171       -25.3657
   9   2.0000      -0.839935       -22.8558
  10   2.0000      -0.691917       -18.8280
  11   2.0000      -0.689004       -18.7487
  12   2.0000      -0.673999       -18.3404
  13   2.0000      -0.610260       -16.6060
  14   2.0000      -0.602237       -16.3877
  15   2.0000      -0.574858       -15.6427
  16   2.0000      -0.530442       -14.4341
  17   2.0000      -0.522091       -14.2068
  18   2.0000      -0.464681       -12.6446
  19   2.0000      -0.443146       -12.0586
  20   2.0000      -0.442237       -12.0339
  21   0.0000       0.027692         0.7535
  22   0.0000       0.034192         0.9304
  23   0.0000       0.036725         0.9993
  24   0.0000       0.039347         1.0707
  25   0.0000       0.052663         1.4330

MULLIKEN ATOMIC CHARGES
-----------------------
   0 C :   -0.608110
   1 C :   -0.608110
   2 C :    0.222254
   3 O :   -0.803950
   4 O :   -0.803950
   5 H :    0.253336
   6 H :    0.405553
   7 H :    0.288482
   8 H :    0.288482
   9 H :    0.253336
  10 H :    0.405553
  11 H :    0.353562
  12 H :    0.353562
Sum of atomic charges:   -0.0000000

LOEWDIN ATOMIC CHARGES
----------------------
   0 C :    0.567361
   1 C :    0.567361
   2 C :   -0.235804
   3 O :    0.857666
   4 O :    0.857666
   5 H :   -0.314067
   6 H :   -0.328175
   7 H :   -0.314830
   8 H :   -0.314830
   9 H :   -0.314067
  10 H :   -0.328175
  11 H :   -0.350052
  12 H :   -0.350052

  Mayer bond orders larger than 0.100000
B(  0-C ,  3-O ) :   0.8726 B(  0-C ,  5-H ) :   0.9257 B(  0-C ,  6-H ) :   0.8584
B(  0-C ,  7-H ) :   0.8993 B(  1-C ,  4-O ) :   0.8726 B(  1-C ,  8-H ) :   0.8993
B(  1-C ,  9-H ) :   0.9257 B(  1-C , 10-H ) :   0.8584 B(  2-C ,  3-O ) :   0.7468
B(  2-C ,  4-O ) :   0.7468 B(  2-C , 11-H ) :   0.8339 B(  2-C , 12-H ) :   0.8339

MP2 TOTAL ENERGY:     -269.159869773 Eh
FINAL SINGLE POINT ENERGY      -269.159869772884

DIPOLE MOMENT
-------------
                                X             Y             Z
Electronic contribution:      0.00000      -0.00000       1.32964
Nuclear contribution   :      0.00000      -0.00000      -1.39194
                        -----------------------------------------
Total Dipole Moment    :      0.00000      -0.00000      -0.06229
                        -----------------------------------------
Magnitude (a.u.)       :      0.06229
Magnitude (Debye)      :      0.15834

Rotational constants in cm-1:     0.352085     0.105347     0.099462
Rotational constants in MHz : 10555.250706  3158.232633  2981.786166

                             ****ORCA TERMINATED NORMALLY****
TOTAL RUN TIME: 0 days 0 hours 16 minutes 31 seconds 834 msec
