                         Program Version 5.0.4 -  RELEASE  -
|  1> !ri-mp2 aug-cc-pvqz aug-cc-pvqz/c tightscf
|  2> %pal nprocs 16 end
|  3> %maxcore 3800
|  4>
|  5> * xyz 0 1
|  6> C      0.002905   -0.287931    3.765494
|  7> C      0.002905   -0.287931   -3.765494
|  8> C      0.002905    0.516132    2.466843
|  9> C      0.002905    0.516132   -2.466843
| 10> C      0.019045   -0.366124    1.223486
| 11> C      0.019045   -0.366124   -1.223486
| 12> N      0.041090    0.425929    0.000000
| 13> H     -0.869191   -0.941707    3.829272
| 14> H      0.892625   -0.916399    3.840202
| 15> H     -0.011524    0.368209    4.636319
| 16> H      0.892625   -0.916399   -3.840202
| 17> H     -0.869191   -0.941707   -3.829272
| 18> H     -0.011524    0.368209   -4.636319
| 19> H      0.868617    1.180978    2.434926
| 20> H     -0.882182    1.160098    2.437277
| 21> H     -0.882182    1.160098   -2.437277
| 22> H      0.868617    1.180978   -2.434926
| 23> H     -0.839000   -1.059882    1.257260
| 24> H      0.917482   -0.990937    1.233278
| 25> H      0.917482   -0.990937   -1.233278
| 26> H     -0.839000   -1.059882   -1.257260
| 27> H     -0.739557    1.072851    0.000000
| 28> *
| 29>
| 30>                          ****END OF INPUT****

CARTESIAN COORDINATES (ANGSTROEM)
---------------------------------
  C      0.002905   -0.287931    3.765494
  C      0.002905   -0.287931   -3.765494
  C      0.002905    0.516132    2.466843
  C      0.002905    0.516132   -2.466843
  C      0.019045   -0.366124    1.223486
  C      0.019045   -0.366124   -1.223486
  N      0.041090    0.425929    0.000000
  H     -0.869191   -0.941707    3.829272
  H      0.892625   -0.916399    3.840202
  H     -0.011524    0.368209    4.636319
  H      0.892625   -0.916399   -3.840202
  H     -0.869191   -0.941707   -3.829272
  H     -0.011524    0.368209   -4.636319
  H      0.868617    1.180978    2.434926
  H     -0.882182    1.160098    2.437277
  H     -0.882182    1.160098   -2.437277
  H      0.868617    1.180978   -2.434926
  H     -0.839000   -1.059882    1.257260
  H      0.917482   -0.990937    1.233278
  H      0.917482   -0.990937   -1.233278
  H     -0.839000   -1.059882   -1.257260
  H     -0.739557    1.072851    0.000000

 Total Charge           Charge          ....    0
 Multiplicity           Mult            ....    1
 Number of Electrons    NEL             ....   58
 Basis Dimension        Dim             .... 1250

ORBITAL ENERGIES
----------------

  NO   OCC          E(Eh)            E(eV)
   0   2.0000     -15.532837      -422.6700
   1   2.0000     -11.239891      -305.8530
   2   2.0000     -11.239874      -305.8525
   3   2.0000     -11.214436      -305.1603
   4   2.0000     -11.214436      -305.1603
   5   2.0000     -11.210193      -305.0449
   6   2.0000     -11.210193      -305.0449
   7   2.0000      -1.201638       -32.6982
   8   2.0000      -1.058067       -28.7915
   9   2.0000      -1.025031       -27.8925
  10   2.0000      -0.926189       -25.2029
  11   2.0000      -0.866962       -23.5912
  12   2.0000      -0.808739       -22.0069
  13   2.0000      -0.791722       -21.5438
  14   2.0000      -0.665986       -18.1224
  15   2.0000      -0.624905       -17.0045
  16   2.0000      -0.613865       -16.7041
  17   2.0000      -0.612661       -16.6713
  18   2.0000      -0.572037       -15.5659
  19   2.0000      -0.561832       -15.2882
  20   2.0000      -0.528000       -14.3676
  21   2.0000      -0.527432       -14.3521
  22   2.0000      -0.516316       -14.0497
  23   2.0000      -0.485347       -13.2070
  24   2.0000      -0.482085       -13.1182
  25   2.0000      -0.473787       -12.8924
  26   2.0000      -0.465156       -12.6575
  27   2.0000      -0.452546       -12.3144
  28   2.0000      -0.363532        -9.8922
  29   0.0000       0.026108         0.7104
  30   0.0000       0.027398         0.7455
  31   0.0000       0.032040         0.8719
  32   0.0000       0.034439         0.9371
  33   0.0000       0.041684         1.1343

MULLIKEN ATOMIC CHARGES
-----------------------
   0 C :   -0.876347
   1 C :   -0.876346
   2 C :   -0.439901
   3 C :   -0.439911
   4 C :   -0.118391
   5 C :   -0.118395
   6 N :   -0.583253
   7 H :    0.231536
   8 H :    0.227649
   9 H :    0.265524
  10 H :    0.227648
  11 H :    0.231534
  12 H :    0.265527
  13 H :    0.245412
  14 H :    0.213550
  15 H :    0.213547
  16 H :    0.245414
  17 H :    0.192726
  18 H :    0.236834
  19 H :    0.236829
  20 H :    0.192720
  21 H :    0.226094
Sum of atomic charges:   -0.0000000

LOEWDIN ATOMIC CHARGES
----------------------
   0 C :    0.923232
   1 C :    0.923232
   2 C :    0.501881
   3 C :    0.501881
   4 C :    0.338911
   5 C :    0.338911
   6 N :    0.908666
   7 H :   -0.286170
   8 H :   -0.285074
   9 H :   -0.285452
  10 H :   -0.285074
  11 H :   -0.286170
  12 H :   -0.285452
  13 H :   -0.274727
  14 H :   -0.275611
  15 H :   -0.275611
  16 H :   -0.274727
  17 H :   -0.265363
  18 H :   -0.287309
  19 H :   -0.287309
  20 H :   -0.265363
  21 H :   -0.517298

  Mayer bond orders larger than 0.100000
B(  0-C ,  2-C ) :   1.0249 B(  0-C ,  7-H ) :   0.9385 B(  0-C ,  8-H ) :   0.9552
B(  0-C ,  9-H ) :   1.0175 B(  1-C ,  3-C ) :   1.0249 B(  1-C , 10-H ) :   0.9552
B(  1-C , 11-H ) :   0.9385 B(  1-C , 12-H ) :   1.0175 B(  2-C ,  4-C ) :   0.8534
B(  2-C ,  9-H ) :  -0.1061 B(  2-C , 13-H ) :   0.8749 B(  2-C , 14-H ) :   0.8844
B(  3-C ,  5-C ) :   0.8534 B(  3-C , 12-H ) :  -0.1061 B(  3-C , 15-H ) :   0.8844
B(  3-C , 16-H ) :   0.8749 B(  4-C ,  6-N ) :   0.9477 B(  4-C , 17-H ) :   0.9284
B(  4-C , 18-H ) :   0.8985 B(  5-C ,  6-N ) :   0.9477 B(  5-C , 19-H ) :   0.8985
B(  5-C , 20-H ) :   0.9284 B(  6-N , 21-H ) :   0.9447

MP2 TOTAL ENERGY:     -291.871171890 Eh
FINAL SINGLE POINT ENERGY      -291.871171890292

DIPOLE MOMENT
-------------
                                X             Y             Z
Electronic contribution:      0.30383       1.30525       0.00000
Nuclear contribution   :     -0.63043      -1.42513       0.00000
                        -----------------------------------------
Total Dipole Moment    :     -0.32660      -0.11988       0.00000
                        -----------------------------------------
Magnitude (a.u.)       :      0.34790
Magnitude (Debye)      :      0.88430

Rotational constants in cm-1:     0.435205     0.025333     0.024631
Rotational constants in MHz : 13047.118550   759.465623   738.423512

                             ****ORCA TERMINATED NORMALLY****
TOTAL RUN TIME: 0 days 0 hours 52 minutes 17 seconds 484 msec
