                         Program Version 5.0.4 -  RELEASE  -
|  1> !ri-mp2 aug-cc-pvqz aug-cc-pvqz/c tightscf
|  2> %pal nprocs 16 end
|  3>
|  4> * xyz 0 1
|  5> C     -1.173933   -0.086028   -0.010331
|  6> C     -0.518527    1.277829   -0.187572
|  7> H     -1.108936    2.034769    0.327755
|  8> H     -0.554216    1.502662   -1.257211
|  9> C      0.925632    1.196028    0.287908
| 10> H      1.002801    1.342170    1.364887
| 11> H      1.581138    1.908061   -0.205713
| 12> C     -0.148546   -1.207971    0.168542
| 13> S      1.503686   -0.500212   -0.148246
| 14> H     -0.361635   -2.019932   -0.522700
| 15> O     -2.361719   -0.281087   -0.009054
| 16> H     -0.232119   -1.594793    1.186057
| 17> *
| 18>
| 19>                          ****END OF INPUT****

CARTESIAN COORDINATES (ANGSTROEM)
---------------------------------
  C     -1.173933   -0.086028   -0.010331
  C     -0.518527    1.277829   -0.187572
  H     -1.108936    2.034769    0.327755
  H     -0.554216    1.502662   -1.257211
  C      0.925632    1.196028    0.287908
  H      1.002801    1.342170    1.364887
  H      1.581138    1.908061   -0.205713
  C     -0.148546   -1.207971    0.168542
  S      1.503686   -0.500212   -0.148246
  H     -0.361635   -2.019932   -0.522700
  O     -2.361719   -0.281087   -0.009054
  H     -0.232119   -1.594793    1.186057

 Total Charge           Charge          ....    0
 Multiplicity           Mult            ....    1
 Number of Electrons    NEL             ....   54
 Basis Dimension        Dim             ....  760

ORBITAL ENERGIES
----------------

  NO   OCC          E(Eh)            E(eV)
   0   2.0000     -91.959709     -2502.3509
   1   2.0000     -20.557061      -559.3861
   2   2.0000     -11.346188      -308.7455
   3   2.0000     -11.276356      -306.8452
   4   2.0000     -11.273314      -306.7625
   5   2.0000     -11.253839      -306.2325
   6   2.0000      -8.961389      -243.8518
   7   2.0000      -6.642774      -180.7591
   8   2.0000      -6.642032      -180.7389
   9   2.0000      -6.641044      -180.7120
  10   2.0000      -1.403410       -38.1887
  11   2.0000      -1.132820       -30.8256
  12   2.0000      -1.012977       -27.5645
  13   2.0000      -0.952372       -25.9154
  14   2.0000      -0.822080       -22.3699
  15   2.0000      -0.751339       -20.4450
  16   2.0000      -0.673302       -18.3215
  17   2.0000      -0.666180       -18.1277
  18   2.0000      -0.618507       -16.8304
  19   2.0000      -0.608605       -16.5610
  20   2.0000      -0.565982       -15.4012
  21   2.0000      -0.561927       -15.2908
  22   2.0000      -0.511706       -13.9242
  23   2.0000      -0.495381       -13.4800
  24   2.0000      -0.460314       -12.5258
  25   2.0000      -0.414539       -11.2802
  26   2.0000      -0.355558        -9.6752
  27   0.0000       0.023989         0.6528
  28   0.0000       0.031869         0.8672
  29   0.0000       0.033776         0.9191
  30   0.0000       0.039030         1.0621
  31   0.0000       0.049872         1.3571

MULLIKEN ATOMIC CHARGES
-----------------------
   0 C :    0.903826
   1 C :   -0.516945
   2 H :    0.300308
   3 H :    0.276999
   4 C :   -0.612040
   5 H :    0.212763
   6 H :    0.375878
   7 C :   -0.682943
   8 S :   -0.071364
   9 H :    0.366429
  10 O :   -0.825245
  11 H :    0.272334
Sum of atomic charges:   -0.0000000

LOEWDIN ATOMIC CHARGES
----------------------
   0 C :   -0.722795
   1 C :    0.404068
   2 H :   -0.288345
   3 H :   -0.291768
   4 C :    0.169275
   5 H :   -0.346152
   6 H :   -0.358174
   7 C :    0.129645
   8 S :    1.317912
   9 H :   -0.375289
  10 O :    0.723238
  11 H :   -0.361617

  Mayer bond orders larger than 0.100000
B(  0-C ,  1-C ) :   0.9591 B(  0-C ,  7-C ) :   0.9420 B(  0-C , 10-O ) :   1.1761
B(  1-C ,  2-H ) :   0.8744 B(  1-C ,  3-H ) :   0.8438 B(  1-C ,  4-C ) :   1.0196
B(  1-C , 10-O ) :   0.1376 B(  4-C ,  5-H ) :   0.9364 B(  4-C ,  6-H ) :   0.8361
B(  4-C ,  8-S ) :   0.9560 B(  7-C ,  8-S ) :   1.0207 B(  7-C ,  9-H ) :   0.8361
B(  7-C , 10-O ) :   0.1288 B(  7-C , 11-H ) :   0.8898

MP2 TOTAL ENERGY:     -628.620751455 Eh
FINAL SINGLE POINT ENERGY      -628.620751455348

DIPOLE MOMENT
-------------
                                X             Y             Z
Electronic contribution:      0.42679      -2.58742      -0.69833
Nuclear contribution   :      0.24165       3.16103       0.89105
                        -----------------------------------------
Total Dipole Moment    :      0.66844       0.57361       0.19272
                        -----------------------------------------
Magnitude (a.u.)       :      0.90165
Magnitude (Debye)      :      2.29182

Rotational constants in cm-1:     0.187466     0.082171     0.060302
Rotational constants in MHz :  5620.103950  2463.413476  1807.794519

                             ****ORCA TERMINATED NORMALLY****
TOTAL RUN TIME: 0 days 0 hours 20 minutes 45 seconds 803 msec
