                         Program Version 5.0.4 -  RELEASE  -
|  1> !ri-mp2 aug-cc-pvqz aug-cc-pvqz/c tightscf
|  2> %pal nprocs 16 end
|  3>
|  4> * xyz 0 1
|  5> C      0.000000    0.000000    0.599276
|  6> C      0.000000    0.000000   -0.599276
|  7> Cl     0.000000    0.000000    2.241149
|  8> Cl     0.000000    0.000000   -2.241149
|  9> *
| 10>
| 11>                          ****END OF INPUT****

CARTESIAN COORDINATES (ANGSTROEM)
---------------------------------
  C      0.000000    0.000000    0.599276
  C      0.000000    0.000000   -0.599276
  Cl     0.000000    0.000000    2.241149
  Cl     0.000000    0.000000   -2.241149

 Total Charge           Charge          ....    0
 Multiplicity           Mult            ....    1
 Number of Electrons    NEL             ....   46
 Basis Dimension        Dim             ....  328

ORBITAL ENERGIES
----------------

  NO   OCC          E(Eh)            E(eV)
   0   2.0000    -104.894406     -2854.3219
   1   2.0000    -104.894406     -2854.3219
   2   2.0000     -11.305744      -307.6449
   3   2.0000     -11.301910      -307.5406
   4   2.0000     -10.618207      -288.9361
   5   2.0000     -10.618206      -288.9361
   6   2.0000      -8.085678      -220.0225
   7   2.0000      -8.085678      -220.0225
   8   2.0000      -8.083366      -219.9596
   9   2.0000      -8.083366      -219.9596
  10   2.0000      -8.083366      -219.9596
  11   2.0000      -8.083366      -219.9596
  12   2.0000      -1.207287       -32.8520
  13   2.0000      -1.184205       -32.2239
  14   2.0000      -1.015588       -27.6356
  15   2.0000      -0.717793       -19.5321
  16   2.0000      -0.668107       -18.1801
  17   2.0000      -0.576415       -15.6851
  18   2.0000      -0.576415       -15.6851
  19   2.0000      -0.528104       -14.3704
  20   2.0000      -0.528104       -14.3704
  21   2.0000      -0.384310       -10.4576
  22   2.0000      -0.384310       -10.4576
  23   0.0000       0.040246         1.0951
  24   0.0000       0.047418         1.2903
  25   0.0000       0.079076         2.1518
  26   0.0000       0.084529         2.3001
  27   0.0000       0.084529         2.3001

MULLIKEN ATOMIC CHARGES
-----------------------
   0 C :    0.016164
   1 C :    0.016164
   2 Cl:   -0.016164
   3 Cl:   -0.016164
Sum of atomic charges:   -0.0000000

LOEWDIN ATOMIC CHARGES
----------------------
   0 C :   -1.056055
   1 C :   -1.056055
   2 Cl:    1.056055
   3 Cl:    1.056055

  Mayer bond orders larger than 0.100000
B(  0-C ,  1-C ) :   2.6541 B(  0-C ,  2-Cl) :   0.9185 B(  1-C ,  3-Cl) :   0.9185

MP2 TOTAL ENERGY:     -995.447472073 Eh
FINAL SINGLE POINT ENERGY      -995.447472073397

DIPOLE MOMENT
-------------
                                X             Y             Z
Electronic contribution:     -0.00000       0.00000       0.00000
Nuclear contribution   :      0.00000       0.00000       0.00000
                        -----------------------------------------
Total Dipole Moment    :     -0.00000       0.00000       0.00000
                        -----------------------------------------
Magnitude (a.u.)       :      0.00000
Magnitude (Debye)      :      0.00000

Rotational constants in cm-1:     0.000000     0.046214     0.046214
Rotational constants in MHz :     0.000000  1385.474005  1385.474005

                             ****ORCA TERMINATED NORMALLY****
TOTAL RUN TIME: 0 days 0 hours 1 minutes 24 seconds 762 msec
