                         Program Version 5.0.4 -  RELEASE  -
|  1> !ri-mp2 aug-cc-pvqz aug-cc-pvqz/c tightscf
|  2> %pal nprocs 16 end
|  3>
|  4> * xyz 0 1
|  5> C     0.000000     0.000000    0.550170
|  6> N     0.000000     1.261601   -0.185123
|  7> N     0.000000    -1.261601   -0.185123
|  8> H     0.876907     0.000000    1.198167
|  9> H    -0.876907     0.000000    1.198167
| 10> H     0.817663     1.348464   -0.776410
| 11> H    -0.817663     1.348464   -0.776410
| 12> H    -0.817663    -1.348464   -0.776410
| 13> H     0.817663    -1.348464   -0.776410
| 14> *
| 15>
| 16>                          ****END OF INPUT****

CARTESIAN COORDINATES (ANGSTROEM)
---------------------------------
  C      0.000000    0.000000    0.550170
  N      0.000000    1.261601   -0.185123
  N      0.000000   -1.261601   -0.185123
  H      0.876907    0.000000    1.198167
  H     -0.876907    0.000000    1.198167
  H      0.817663    1.348464   -0.776410
  H     -0.817663    1.348464   -0.776410
  H     -0.817663   -1.348464   -0.776410
  H      0.817663   -1.348464   -0.776410

 Total Charge           Charge          ....    0
 Multiplicity           Mult            ....    1
 Number of Electrons    NEL             ....   26
 Basis Dimension        Dim             ....  516

ORBITAL ENERGIES
----------------

  NO   OCC          E(Eh)            E(eV)
   0   2.0000     -15.539610      -422.8543
   1   2.0000     -15.539588      -422.8537
   2   2.0000     -11.274912      -306.8060
   3   2.0000      -1.212632       -32.9974
   4   2.0000      -1.123383       -30.5688
   5   2.0000      -0.869906       -23.6713
   6   2.0000      -0.699121       -19.0241
   7   2.0000      -0.628214       -17.0946
   8   2.0000      -0.623878       -16.9766
   9   2.0000      -0.575558       -15.6617
  10   2.0000      -0.505574       -13.7574
  11   2.0000      -0.438725       -11.9383
  12   2.0000      -0.379366       -10.3231
  13   0.0000       0.023495         0.6393
  14   0.0000       0.035396         0.9632
  15   0.0000       0.040432         1.1002
  16   0.0000       0.040786         1.1098
  17   0.0000       0.059894         1.6298

MULLIKEN ATOMIC CHARGES
-----------------------
   0 C :   -0.209467
   1 N :   -0.700906
   2 N :   -0.700906
   3 H :    0.304654
   4 H :    0.304654
   5 H :    0.250493
   6 H :    0.250493
   7 H :    0.250493
   8 H :    0.250493
Sum of atomic charges:    0.0000000

LOEWDIN ATOMIC CHARGES
----------------------
   0 C :    0.194108
   1 N :    1.270868
   2 N :    1.270868
   3 H :   -0.323124
   4 H :   -0.323124
   5 H :   -0.522399
   6 H :   -0.522399
   7 H :   -0.522399
   8 H :   -0.522399

  Mayer bond orders larger than 0.100000
B(  0-C ,  1-N ) :   0.9497 B(  0-C ,  2-N ) :   0.9497 B(  0-C ,  3-H ) :   0.9051
B(  0-C ,  4-H ) :   0.9051 B(  1-N ,  5-H ) :   0.9161 B(  1-N ,  6-H ) :   0.9161
B(  2-N ,  7-H ) :   0.9161 B(  2-N ,  8-H ) :   0.9161

MP2 TOTAL ENERGY:     -150.979124124 Eh
FINAL SINGLE POINT ENERGY      -150.979124123797

DIPOLE MOMENT
-------------
                                X             Y             Z
Electronic contribution:     -0.00000       0.00000       0.03951
Nuclear contribution   :      0.00000       0.00000      -0.75405
                        -----------------------------------------
Total Dipole Moment    :     -0.00000       0.00000      -0.71454
                        -----------------------------------------
Magnitude (a.u.)       :      0.71454
Magnitude (Debye)      :      1.81621

Rotational constants in cm-1:     1.190897     0.300142     0.272648
Rotational constants in MHz : 35702.199992  8998.017120  8173.796231

                             ****ORCA TERMINATED NORMALLY****
TOTAL RUN TIME: 0 days 0 hours 3 minutes 5 seconds 10 msec
