                         Program Version 5.0.4 -  RELEASE  -
|  1> !ri-mp2 aug-cc-pvqz aug-cc-pvqz/c tightscf
|  2> %pal nprocs 16 end
|  3>
|  4> * xyz 0 1
|  5> S      0.000000    0.000000    1.056821
|  6> S      0.000000    1.684277   -0.162632
|  7> S      0.000000   -1.684277   -0.162632
|  8> C      1.760232    1.865036   -0.616415
|  9> C     -1.760232   -1.865036   -0.616415
| 10> H      1.824265    2.768057   -1.223005
| 11> H     -1.824265   -2.768057   -1.223005
| 12> H      2.373978    1.976752    0.273229
| 13> H      2.086891    1.011010   -1.204189
| 14> H     -2.373978   -1.976752    0.273229
| 15> H     -2.086891   -1.011010   -1.204189
| 16> *
| 17>
| 18>                          ****END OF INPUT****

CARTESIAN COORDINATES (ANGSTROEM)
---------------------------------
  S      0.000000    0.000000    1.056821
  S      0.000000    1.684277   -0.162632
  S      0.000000   -1.684277   -0.162632
  C      1.760232    1.865036   -0.616415
  C     -1.760232   -1.865036   -0.616415
  H      1.824265    2.768057   -1.223005
  H     -1.824265   -2.768057   -1.223005
  H      2.373978    1.976752    0.273229
  H      2.086891    1.011010   -1.204189
  H     -2.373978   -1.976752    0.273229
  H     -2.086891   -1.011010   -1.204189

 Total Charge           Charge          ....    0
 Multiplicity           Mult            ....    1
 Number of Electrons    NEL             ....   66
 Basis Dimension        Dim             ....  688

ORBITAL ENERGIES
----------------

  NO   OCC          E(Eh)            E(eV)
   0   2.0000     -91.998151     -2503.3969
   1   2.0000     -91.978738     -2502.8687
   2   2.0000     -91.978738     -2502.8687
   3   2.0000     -11.260670      -306.4184
   4   2.0000     -11.260670      -306.4184
   5   2.0000      -8.995631      -244.7836
   6   2.0000      -8.978284      -244.3115
   7   2.0000      -8.978277      -244.3113
   8   2.0000      -6.676566      -181.6786
   9   2.0000      -6.675419      -181.6474
  10   2.0000      -6.674546      -181.6236
  11   2.0000      -6.659540      -181.2153
  12   2.0000      -6.659539      -181.2153
  13   2.0000      -6.658377      -181.1837
  14   2.0000      -6.658377      -181.1837
  15   2.0000      -6.657599      -181.1625
  16   2.0000      -6.657599      -181.1625
  17   2.0000      -1.089333       -29.6422
  18   2.0000      -1.038608       -28.2620
  19   2.0000      -0.959463       -26.1083
  20   2.0000      -0.866930       -23.5904
  21   2.0000      -0.773661       -21.0524
  22   2.0000      -0.608428       -16.5562
  23   2.0000      -0.602945       -16.4070
  24   2.0000      -0.595262       -16.1979
  25   2.0000      -0.591603       -16.0983
  26   2.0000      -0.547365       -14.8945
  27   2.0000      -0.497571       -13.5396
  28   2.0000      -0.476155       -12.9568
  29   2.0000      -0.463174       -12.6036
  30   2.0000      -0.368319       -10.0225
  31   2.0000      -0.360211        -9.8018
  32   2.0000      -0.352589        -9.5944
  33   0.0000       0.027227         0.7409
  34   0.0000       0.030766         0.8372
  35   0.0000       0.040037         1.0895
  36   0.0000       0.040231         1.0948
  37   0.0000       0.048776         1.3273

MULLIKEN ATOMIC CHARGES
-----------------------
   0 S :   -0.110270
   1 S :    0.021736
   2 S :    0.021736
   3 C :   -0.872927
   4 C :   -0.872927
   5 H :    0.340157
   6 H :    0.340157
   7 H :    0.279417
   8 H :    0.286752
   9 H :    0.279417
  10 H :    0.286752
Sum of atomic charges:   -0.0000000

LOEWDIN ATOMIC CHARGES
----------------------
   0 S :    0.192157
   1 S :    0.660180
   2 S :    0.660180
   3 C :    0.446942
   4 C :    0.446942
   5 H :   -0.406185
   6 H :   -0.406185
   7 H :   -0.397947
   8 H :   -0.399069
   9 H :   -0.397947
  10 H :   -0.399069

  Mayer bond orders larger than 0.100000
B(  0-S ,  1-S ) :   1.1011 B(  0-S ,  2-S ) :   1.1011 B(  1-S ,  3-C ) :   0.9799
B(  2-S ,  4-C ) :   0.9799 B(  3-C ,  5-H ) :   0.8547 B(  3-C ,  7-H ) :   0.9206
B(  3-C ,  8-H ) :   0.9002 B(  4-C ,  6-H ) :   0.8547 B(  4-C ,  9-H ) :   0.9206
B(  4-C , 10-H ) :   0.9002

MP2 TOTAL ENERGY:    -1272.886083882 Eh
FINAL SINGLE POINT ENERGY     -1272.886083881833

DIPOLE MOMENT
-------------
                                X             Y             Z
Electronic contribution:      0.00000       0.00000       3.73757
Nuclear contribution   :     -0.00000       0.00000      -4.25171
                        -----------------------------------------
Total Dipole Moment    :      0.00000       0.00000      -0.51414
                        -----------------------------------------
Magnitude (a.u.)       :      0.51414
Magnitude (Debye)      :      1.30684

Rotational constants in cm-1:     0.154884     0.043400     0.042991
Rotational constants in MHz :  4643.307860  1301.104135  1288.845037

                             ****ORCA TERMINATED NORMALLY****
TOTAL RUN TIME: 0 days 0 hours 12 minutes 30 seconds 58 msec
