                         Program Version 5.0.4 -  RELEASE  -
|  1> !ri-mp2 aug-cc-pvqz aug-cc-pvqz/c tightscf
|  2> %pal nprocs 16 end
|  3>
|  4> * xyz 0 1
|  5> C      0.392398   -0.014823    0.000000
|  6> C     -0.171128    1.398319    0.000000
|  7> H      1.474917   -0.012492    0.000000
|  8> Cl    -0.171128   -0.843017    1.485142
|  9> Cl    -0.171128   -0.843017   -1.485142
| 10> O      0.536130    2.365239    0.000000
| 11> H     -1.273222    1.452187    0.000000
| 12> *
| 13>
| 14>                          ****END OF INPUT****

CARTESIAN COORDINATES (ANGSTROEM)
---------------------------------
  C      0.392398   -0.014823    0.000000
  C     -0.171128    1.398319    0.000000
  H      1.474917   -0.012492    0.000000
  Cl    -0.171128   -0.843017    1.485142
  Cl    -0.171128   -0.843017   -1.485142
  O      0.536130    2.365239    0.000000
  H     -1.273222    1.452187    0.000000

 Total Charge           Charge          ....    0
 Multiplicity           Mult            ....    1
 Number of Electrons    NEL             ....   56
 Basis Dimension        Dim             ....  500

ORBITAL ENERGIES
----------------

  NO   OCC          E(Eh)            E(eV)
   0   2.0000    -104.869467     -2853.6433
   1   2.0000    -104.869467     -2853.6433
   2   2.0000     -20.596003      -560.4457
   3   2.0000     -11.391355      -309.9745
   4   2.0000     -11.371374      -309.4308
   5   2.0000     -10.594623      -288.2943
   6   2.0000     -10.594616      -288.2941
   7   2.0000      -8.061616      -219.3677
   8   2.0000      -8.061615      -219.3677
   9   2.0000      -8.059785      -219.3179
  10   2.0000      -8.059784      -219.3179
  11   2.0000      -8.059725      -219.3163
  12   2.0000      -8.059724      -219.3163
  13   2.0000      -1.437399       -39.1136
  14   2.0000      -1.214422       -33.0461
  15   2.0000      -1.115611       -30.3573
  16   2.0000      -0.966908       -26.3109
  17   2.0000      -0.838415       -22.8144
  18   2.0000      -0.701261       -19.0823
  19   2.0000      -0.691793       -18.8247
  20   2.0000      -0.626129       -17.0378
  21   2.0000      -0.625068       -17.0090
  22   2.0000      -0.549061       -14.9407
  23   2.0000      -0.514293       -13.9946
  24   2.0000      -0.492124       -13.3914
  25   2.0000      -0.479664       -13.0523
  26   2.0000      -0.466898       -12.7049
  27   2.0000      -0.447423       -12.1750
  28   0.0000       0.030712         0.8357
  29   0.0000       0.033448         0.9102
  30   0.0000       0.051158         1.3921
  31   0.0000       0.053452         1.4545
  32   0.0000       0.074323         2.0224

MULLIKEN ATOMIC CHARGES
-----------------------
   0 C :   -0.042057
   1 C :    0.272939
   2 H :    0.412009
   3 Cl:   -0.223609
   4 Cl:   -0.223609
   5 O :   -0.683859
   6 H :    0.488186
Sum of atomic charges:    0.0000000

LOEWDIN ATOMIC CHARGES
----------------------
   0 C :   -1.330763
   1 C :   -0.542327
   2 H :   -0.565982
   3 Cl:    1.073286
   4 Cl:    1.073286
   5 O :    0.696662
   6 H :   -0.404161

  Mayer bond orders larger than 0.100000
B(  0-C ,  1-C ) :   0.9374 B(  0-C ,  2-H ) :   0.7579 B(  0-C ,  3-Cl) :   0.8843
B(  0-C ,  4-Cl) :   0.8843 B(  1-C ,  5-O ) :   1.7047 B(  1-C ,  6-H ) :   0.7262

MP2 TOTAL ENERGY:    -1071.869511324 Eh
FINAL SINGLE POINT ENERGY     -1071.869511324259

DIPOLE MOMENT
-------------
                                X             Y             Z
Electronic contribution:     -0.85416      -4.03488       0.00000
Nuclear contribution   :      0.65165       3.62153       0.00000
                        -----------------------------------------
Total Dipole Moment    :     -0.20251      -0.41335       0.00000
                        -----------------------------------------
Magnitude (a.u.)       :      0.46029
Magnitude (Debye)      :      1.16997

Rotational constants in cm-1:     0.102234     0.094666     0.051715
Rotational constants in MHz :  3064.893123  2838.005765  1550.387788

                             ****ORCA TERMINATED NORMALLY****
TOTAL RUN TIME: 0 days 0 hours 5 minutes 31 seconds 473 msec
