                         Program Version 5.0.4 -  RELEASE  -
|  1> !ri-mp2 aug-cc-pvqz aug-cc-pvqz/c tightscf
|  2> %pal nprocs 16 end
|  3> %maxcore 3800
|  4>
|  5> * xyz 0 1
|  6> C     -1.682099    0.843342    1.108925
|  7> C     -2.329448   -0.758201   -0.729885
|  8> C      1.677526    1.040130   -0.932617
|  9> C      2.330696   -0.886661    0.546317
| 10> C     -1.240487    0.173905   -0.201334
| 11> C      1.245402    0.137972    0.223722
| 12> N      0.012917   -0.583301   -0.108885
| 13> H     -2.599081    1.417126    0.962026
| 14> H     -1.878405    0.091069    1.877487
| 15> H     -0.925163    1.527203    1.493070
| 16> H     -2.033698   -1.190788   -1.684763
| 17> H     -3.272260   -0.225869   -0.861804
| 18> H     -2.508153   -1.577776   -0.028379
| 19> H      2.612240    1.547255   -0.688563
| 20> H      1.827598    0.448053   -1.836881
| 21> H      0.936364    1.809119   -1.150478
| 22> H      2.039406   -1.518516    1.388533
| 23> H      3.264720   -0.390727    0.811648
| 24> H      2.513905   -1.532110   -0.314411
| 25> H     -1.083299    0.957612   -0.946157
| 26> H      1.117881    0.773535    1.113812
| 27> H     -0.112018   -1.354992    0.536287
| 28> *
| 29>
| 30>                          ****END OF INPUT****

CARTESIAN COORDINATES (ANGSTROEM)
---------------------------------
  C     -1.682099    0.843342    1.108925
  C     -2.329448   -0.758201   -0.729885
  C      1.677526    1.040130   -0.932617
  C      2.330696   -0.886661    0.546317
  C     -1.240487    0.173905   -0.201334
  C      1.245402    0.137972    0.223722
  N      0.012917   -0.583301   -0.108885
  H     -2.599081    1.417126    0.962026
  H     -1.878405    0.091069    1.877487
  H     -0.925163    1.527203    1.493070
  H     -2.033698   -1.190788   -1.684763
  H     -3.272260   -0.225869   -0.861804
  H     -2.508153   -1.577776   -0.028379
  H      2.612240    1.547255   -0.688563
  H      1.827598    0.448053   -1.836881
  H      0.936364    1.809119   -1.150478
  H      2.039406   -1.518516    1.388533
  H      3.264720   -0.390727    0.811648
  H      2.513905   -1.532110   -0.314411
  H     -1.083299    0.957612   -0.946157
  H      1.117881    0.773535    1.113812
  H     -0.112018   -1.354992    0.536287

 Total Charge           Charge          ....    0
 Multiplicity           Mult            ....    1
 Number of Electrons    NEL             ....   58
 Basis Dimension        Dim             .... 1250

ORBITAL ENERGIES
----------------

  NO   OCC          E(Eh)            E(eV)
   0   2.0000     -15.529160      -422.5699
   1   2.0000     -11.248353      -306.0833
   2   2.0000     -11.248007      -306.0738
   3   2.0000     -11.208294      -304.9932
   4   2.0000     -11.207527      -304.9723
   5   2.0000     -11.205634      -304.9208
   6   2.0000     -11.204429      -304.8880
   7   2.0000      -1.204396       -32.7733
   8   2.0000      -1.057485       -28.7756
   9   2.0000      -0.984718       -26.7956
  10   2.0000      -0.929998       -25.3065
  11   2.0000      -0.928368       -25.2622
  12   2.0000      -0.802761       -21.8442
  13   2.0000      -0.769596       -20.9418
  14   2.0000      -0.662241       -18.0205
  15   2.0000      -0.624397       -16.9907
  16   2.0000      -0.613599       -16.6969
  17   2.0000      -0.591499       -16.0955
  18   2.0000      -0.559783       -15.2325
  19   2.0000      -0.554768       -15.0960
  20   2.0000      -0.536494       -14.5987
  21   2.0000      -0.533183       -14.5087
  22   2.0000      -0.520346       -14.1593
  23   2.0000      -0.496749       -13.5172
  24   2.0000      -0.492478       -13.4010
  25   2.0000      -0.474937       -12.9237
  26   2.0000      -0.464119       -12.6293
  27   2.0000      -0.457095       -12.4382
  28   2.0000      -0.358134        -9.7453
  29   0.0000       0.025724         0.7000
  30   0.0000       0.030738         0.8364
  31   0.0000       0.031920         0.8686
  32   0.0000       0.033333         0.9070
  33   0.0000       0.044689         1.2161

MULLIKEN ATOMIC CHARGES
-----------------------
   0 C :   -0.957916
   1 C :   -0.943796
   2 C :   -0.951674
   3 C :   -0.936882
   4 C :    0.267421
   5 C :    0.248278
   6 N :   -0.419877
   7 H :    0.309536
   8 H :    0.191511
   9 H :    0.255869
  10 H :    0.242053
  11 H :    0.275475
  12 H :    0.176430
  13 H :    0.298196
  14 H :    0.236903
  15 H :    0.228781
  16 H :    0.233958
  17 H :    0.288163
  18 H :    0.198016
  19 H :    0.342416
  20 H :    0.287056
  21 H :    0.130083
Sum of atomic charges:    0.0000000

LOEWDIN ATOMIC CHARGES
----------------------
   0 C :    0.933744
   1 C :    0.916552
   2 C :    0.922490
   3 C :    0.915160
   4 C :   -0.047137
   5 C :   -0.058350
   6 N :    0.914210
   7 H :   -0.277074
   8 H :   -0.274816
   9 H :   -0.295270
  10 H :   -0.277526
  11 H :   -0.280283
  12 H :   -0.280217
  13 H :   -0.278019
  14 H :   -0.273511
  15 H :   -0.291353
  16 H :   -0.275945
  17 H :   -0.278893
  18 H :   -0.276098
  19 H :   -0.315843
  20 H :   -0.293328
  21 H :   -0.528494

  Mayer bond orders larger than 0.100000
B(  0-C ,  4-C ) :   0.7404 B(  0-C ,  7-H ) :   0.9503 B(  0-C ,  8-H ) :   0.9843
B(  0-C ,  9-H ) :   0.9993 B(  1-C ,  4-C ) :   0.5478 B(  1-C , 10-H ) :   1.0199
B(  1-C , 11-H ) :   1.0223 B(  1-C , 12-H ) :   1.0229 B(  2-C ,  3-C ) :   0.1113
B(  2-C ,  5-C ) :   0.7465 B(  2-C , 13-H ) :   0.9542 B(  2-C , 14-H ) :   0.9602
B(  2-C , 15-H ) :   1.0180 B(  3-C ,  5-C ) :   0.6223 B(  3-C , 16-H ) :   1.0039
B(  3-C , 17-H ) :   1.0065 B(  3-C , 18-H ) :   1.0228 B(  4-C ,  6-N ) :   0.6500
B(  4-C , 11-H ) :  -0.1025 B(  4-C , 19-H ) :   0.8669 B(  5-C ,  6-N ) :   0.5819
B(  5-C , 20-H ) :   0.9236 B(  6-N , 21-H ) :   1.0255

MP2 TOTAL ENERGY:     -291.878742809 Eh
FINAL SINGLE POINT ENERGY      -291.878742809430

DIPOLE MOMENT
-------------
                                X             Y             Z
Electronic contribution:      0.05387      -0.68728      -0.39364
Nuclear contribution   :     -0.10752       0.83614       0.72206
                        -----------------------------------------
Total Dipole Moment    :     -0.05366       0.14887       0.32842
                        -----------------------------------------
Magnitude (a.u.)       :      0.36455
Magnitude (Debye)      :      0.92662

Rotational constants in cm-1:     0.137162     0.046846     0.045742
Rotational constants in MHz :  4112.015030  1404.393266  1371.322476

                             ****ORCA TERMINATED NORMALLY****
TOTAL RUN TIME: 0 days 1 hours 1 minutes 38 seconds 549 msec
