                         Program Version 5.0.4 -  RELEASE  -
|  1> !ri-mp2 aug-cc-pvqz aug-cc-pvqz/c tightscf
|  2> %pal nprocs 16 end
|  3>
|  4> * xyz 0 1
|  5> C     0.000000     1.175422   -0.194884
|  6> C     0.000000    -1.175422   -0.194884
|  7> O     0.000000     0.000000    0.586687
|  8> H     0.890246     1.231929   -0.833515
|  9> H     0.000000     2.021254    0.489588
| 10> H    -0.890246     1.231929   -0.833515
| 11> H     0.890246    -1.231929   -0.833515
| 12> H    -0.890246    -1.231929   -0.833515
| 13> H     0.000000    -2.021254    0.489588
| 14> *
| 15>
| 16>                          ****END OF INPUT****

CARTESIAN COORDINATES (ANGSTROEM)
---------------------------------
  C      0.000000    1.175422   -0.194884
  C      0.000000   -1.175422   -0.194884
  O      0.000000    0.000000    0.586687
  H      0.890246    1.231929   -0.833515
  H      0.000000    2.021254    0.489588
  H     -0.890246    1.231929   -0.833515
  H      0.890246   -1.231929   -0.833515
  H     -0.890246   -1.231929   -0.833515
  H      0.000000   -2.021254    0.489588

 Total Charge           Charge          ....    0
 Multiplicity           Mult            ....    1
 Number of Electrons    NEL             ....   26
 Basis Dimension        Dim             ....  516

ORBITAL ENERGIES
----------------

  NO   OCC          E(Eh)            E(eV)
   0   2.0000     -20.553342      -559.2849
   1   2.0000     -11.268308      -306.6263
   2   2.0000     -11.268288      -306.6257
   3   2.0000      -1.370681       -37.2981
   4   2.0000      -0.968740       -26.3607
   5   2.0000      -0.873462       -23.7681
   6   2.0000      -0.658027       -17.9058
   7   2.0000      -0.649478       -17.6732
   8   2.0000      -0.639487       -17.4013
   9   2.0000      -0.550678       -14.9847
  10   2.0000      -0.527691       -14.3592
  11   2.0000      -0.480370       -13.0715
  12   2.0000      -0.424529       -11.5520
  13   0.0000       0.027055         0.7362
  14   0.0000       0.036369         0.9897
  15   0.0000       0.041177         1.1205
  16   0.0000       0.042807         1.1649
  17   0.0000       0.056960         1.5500

MULLIKEN ATOMIC CHARGES
-----------------------
   0 C :   -0.532925
   1 C :   -0.532925
   2 O :   -0.689213
   3 H :    0.240574
   4 H :    0.396383
   5 H :    0.240574
   6 H :    0.240574
   7 H :    0.240574
   8 H :    0.396383
Sum of atomic charges:   -0.0000000

LOEWDIN ATOMIC CHARGES
----------------------
   0 C :    0.541262
   1 C :    0.541262
   2 O :    0.841543
   3 H :   -0.315204
   4 H :   -0.331625
   5 H :   -0.315204
   6 H :   -0.315204
   7 H :   -0.315204
   8 H :   -0.331625

  Mayer bond orders larger than 0.100000
B(  0-C ,  2-O ) :   0.8791 B(  0-C ,  3-H ) :   0.9242 B(  0-C ,  4-H ) :   0.8483
B(  0-C ,  5-H ) :   0.9242 B(  1-C ,  2-O ) :   0.8791 B(  1-C ,  6-H ) :   0.9242
B(  1-C ,  7-H ) :   0.9242 B(  1-C ,  8-H ) :   0.8483

MP2 TOTAL ENERGY:     -154.782812616 Eh
FINAL SINGLE POINT ENERGY      -154.782812616050

DIPOLE MOMENT
-------------
                                X             Y             Z
Electronic contribution:     -0.00000       0.00000       1.91623
Nuclear contribution   :      0.00000       0.00000      -2.48621
                        -----------------------------------------
Total Dipole Moment    :     -0.00000       0.00000      -0.56998
                        -----------------------------------------
Magnitude (a.u.)       :      0.56998
Magnitude (Debye)      :      1.44878

Rotational constants in cm-1:     1.318937     0.332235     0.295073
Rotational constants in MHz : 39540.748801  9960.144086  8846.071889

                             ****ORCA TERMINATED NORMALLY****
TOTAL RUN TIME: 0 days 0 hours 4 minutes 32 seconds 88 msec
