                         Program Version 5.0.4 -  RELEASE  -
|  1> !ri-mp2 aug-cc-pvqz aug-cc-pvqz/c tightscf
|  2> %pal nprocs 16 end
|  3> %maxcore 3800
|  4>
|  5> * xyz 0 1
|  6> C      1.306354    0.956233   -0.134176
|  7> C     -1.044968    0.127302    0.167328
|  8> C      3.886887   -1.608049   -0.254851
|  9> C     -4.599276   -0.443312   -0.394492
| 10> C     -0.088316    0.906240   -0.718617
| 11> C      3.316527   -0.269540    0.153530
| 12> C     -3.305169   -0.571942    0.375011
| 13> O      1.744359    1.881556    0.499819
| 14> O     -0.757253   -0.411532    1.203966
| 15> O      1.990697   -0.161001   -0.420971
| 16> O     -2.276334    0.126892   -0.371097
| 17> H      4.887123   -1.722217    0.164487
| 18> H      3.266466   -2.424893    0.112600
| 19> H      3.960144   -1.689656   -1.339244
| 20> H     -5.395469   -0.960067    0.142386
| 21> H     -4.886137    0.601847   -0.507648
| 22> H     -4.512178   -0.886897   -1.386071
| 23> H     -0.462283    1.922798   -0.825864
| 24> H     -0.078310    0.440983   -1.704161
| 25> H      3.919903    0.562400   -0.209284
| 26> H      3.228446   -0.173746    1.235219
| 27> H     -2.999534   -1.611161    0.493470
| 28> H     -3.372156   -0.128302    1.367982
| 29> *
| 30>
| 31>                          ****END OF INPUT****

CARTESIAN COORDINATES (ANGSTROEM)
---------------------------------
  C      1.306354    0.956233   -0.134176
  C     -1.044968    0.127302    0.167328
  C      3.886887   -1.608049   -0.254851
  C     -4.599276   -0.443312   -0.394492
  C     -0.088316    0.906240   -0.718617
  C      3.316527   -0.269540    0.153530
  C     -3.305169   -0.571942    0.375011
  O      1.744359    1.881556    0.499819
  O     -0.757253   -0.411532    1.203966
  O      1.990697   -0.161001   -0.420971
  O     -2.276334    0.126892   -0.371097
  H      4.887123   -1.722217    0.164487
  H      3.266466   -2.424893    0.112600
  H      3.960144   -1.689656   -1.339244
  H     -5.395469   -0.960067    0.142386
  H     -4.886137    0.601847   -0.507648
  H     -4.512178   -0.886897   -1.386071
  H     -0.462283    1.922798   -0.825864
  H     -0.078310    0.440983   -1.704161
  H      3.919903    0.562400   -0.209284
  H      3.228446   -0.173746    1.235219
  H     -2.999534   -1.611161    0.493470
  H     -3.372156   -0.128302    1.367982

 Total Charge           Charge          ....    0
 Multiplicity           Mult            ....    1
 Number of Electrons    NEL             ....   86
 Basis Dimension        Dim             .... 1432

ORBITAL ENERGIES
----------------

  NO   OCC          E(Eh)            E(eV)
   0   2.0000     -20.606891      -560.7420
   1   2.0000     -20.599285      -560.5350
   2   2.0000     -20.551570      -559.2366
   3   2.0000     -20.543610      -559.0200
   4   2.0000     -11.392593      -310.0082
   5   2.0000     -11.382883      -309.7440
   6   2.0000     -11.295236      -307.3590
   7   2.0000     -11.287474      -307.1478
   8   2.0000     -11.263585      -306.4977
   9   2.0000     -11.229478      -305.5696
  10   2.0000     -11.222953      -305.3921
  11   2.0000      -1.468970       -39.9727
  12   2.0000      -1.458854       -39.6974
  13   2.0000      -1.368979       -37.2518
  14   2.0000      -1.360662       -37.0255
  15   2.0000      -1.081191       -29.4207
  16   2.0000      -1.047080       -28.4925
  17   2.0000      -1.018888       -27.7254
  18   2.0000      -0.892724       -24.2922
  19   2.0000      -0.861814       -23.4511
  20   2.0000      -0.799448       -21.7541
  21   2.0000      -0.775564       -21.1042
  22   2.0000      -0.717125       -19.5140
  23   2.0000      -0.706103       -19.2141
  24   2.0000      -0.693660       -18.8755
  25   2.0000      -0.681639       -18.5483
  26   2.0000      -0.674708       -18.3597
  27   2.0000      -0.652288       -17.7497
  28   2.0000      -0.620789       -16.8925
  29   2.0000      -0.591922       -16.1070
  30   2.0000      -0.571431       -15.5494
  31   2.0000      -0.566894       -15.4260
  32   2.0000      -0.565790       -15.3959
  33   2.0000      -0.554500       -15.0887
  34   2.0000      -0.541682       -14.7399
  35   2.0000      -0.520641       -14.1674
  36   2.0000      -0.513494       -13.9729
  37   2.0000      -0.512578       -13.9479
  38   2.0000      -0.508397       -13.8342
  39   2.0000      -0.469228       -12.7684
  40   2.0000      -0.461352       -12.5540
  41   2.0000      -0.456656       -12.4262
  42   2.0000      -0.450098       -12.2478
  43   0.0000       0.022732         0.6186
  44   0.0000       0.027440         0.7467
  45   0.0000       0.030788         0.8378
  46   0.0000       0.034191         0.9304
  47   0.0000       0.040052         1.0899

MULLIKEN ATOMIC CHARGES
-----------------------
   0 C :    1.257746
   1 C :    1.156086
   2 C :   -0.863000
   3 C :   -0.823786
   4 C :   -0.612258
   5 C :   -0.166322
   6 C :   -0.097425
   7 O :   -0.873972
   8 O :   -0.816538
   9 O :   -0.783910
  10 O :   -0.775064
  11 H :    0.282563
  12 H :    0.244103
  13 H :    0.238114
  14 H :    0.272156
  15 H :    0.235774
  16 H :    0.235793
  17 H :    0.355688
  18 H :    0.347295
  19 H :    0.301317
  20 H :    0.296968
  21 H :    0.292382
  22 H :    0.296290
Sum of atomic charges:    0.0000000

LOEWDIN ATOMIC CHARGES
----------------------
   0 C :   -1.105795
   1 C :   -1.064831
   2 C :    0.914746
   3 C :    0.914871
   4 C :    0.403072
   5 C :    0.168069
   6 C :    0.169002
   7 O :    0.727111
   8 O :    0.733636
   9 O :    0.865498
  10 O :    0.863120
  11 H :   -0.290515
  12 H :   -0.289983
  13 H :   -0.290755
  14 H :   -0.290167
  15 H :   -0.290096
  16 H :   -0.290285
  17 H :   -0.318933
  18 H :   -0.308241
  19 H :   -0.305008
  20 H :   -0.304321
  21 H :   -0.304975
  22 H :   -0.305221

  Mayer bond orders larger than 0.100000
B(  0-C ,  1-C ) :  -0.1727 B(  0-C ,  4-C ) :   1.1639 B(  0-C ,  7-O ) :   1.1024
B(  0-C ,  9-O ) :   1.0015 B(  1-C ,  4-C ) :   0.9155 B(  1-C ,  8-O ) :   1.3549
B(  1-C , 10-O ) :   1.0073 B(  2-C ,  5-C ) :   0.9541 B(  2-C , 11-H ) :   0.9826
B(  2-C , 12-H ) :   0.9323 B(  2-C , 13-H ) :   0.9415 B(  3-C ,  6-C ) :   0.9482
B(  3-C , 14-H ) :   0.9920 B(  3-C , 15-H ) :   0.9408 B(  3-C , 16-H ) :   0.9400
B(  4-C ,  7-O ) :   0.1612 B(  4-C ,  8-O ) :   0.1094 B(  4-C , 17-H ) :   0.8674
B(  4-C , 18-H ) :   0.8559 B(  5-C ,  7-O ) :   0.1383 B(  5-C ,  9-O ) :   0.8496
B(  5-C , 19-H ) :   0.8549 B(  5-C , 20-H ) :   0.8568 B(  6-C , 10-O ) :   0.8086
B(  6-C , 21-H ) :   0.8552 B(  6-C , 22-H ) :   0.8511

MP2 TOTAL ENERGY:     -574.064619209 Eh
FINAL SINGLE POINT ENERGY      -574.064619209322

DIPOLE MOMENT
-------------
                                X             Y             Z
Electronic contribution:      1.88677       5.48372       1.55827
Nuclear contribution   :     -2.45336      -6.09706      -2.46227
                        -----------------------------------------
Total Dipole Moment    :     -0.56659      -0.61333      -0.90399
                        -----------------------------------------
Magnitude (a.u.)       :      1.23061
Magnitude (Debye)      :      3.12796

Rotational constants in cm-1:     0.086588     0.014494     0.013509
Rotational constants in MHz :  2595.843336   434.522755   404.994905

                             ****ORCA TERMINATED NORMALLY****
TOTAL RUN TIME: 0 days 1 hours 41 minutes 27 seconds 793 msec
