                         Program Version 5.0.4 -  RELEASE  -
|  1> !ri-mp2 aug-cc-pvqz aug-cc-pvqz/c tightscf
|  2> %pal nprocs 16 end
|  3>
|  4> * xyz 0 1
|  5> C      0.026505   -0.221412    1.216049
|  6> C      0.026505   -0.221412   -1.216049
|  7> N      0.026505    0.577608    0.000000
|  8> H     -0.798102   -0.949693    1.270491
|  9> H     -0.034174    0.431778    2.086295
| 10> H      0.962937   -0.778731    1.284180
| 11> H     -0.034174    0.431778   -2.086295
| 12> H     -0.798102   -0.949693   -1.270491
| 13> H      0.962937   -0.778731   -1.284180
| 14> H     -0.764915    1.206982    0.000000
| 15> *
| 16>
| 17>                          ****END OF INPUT****

CARTESIAN COORDINATES (ANGSTROEM)
---------------------------------
  C      0.026505   -0.221412    1.216049
  C      0.026505   -0.221412   -1.216049
  N      0.026505    0.577608    0.000000
  H     -0.798102   -0.949693    1.270491
  H     -0.034174    0.431778    2.086295
  H      0.962937   -0.778731    1.284180
  H     -0.034174    0.431778   -2.086295
  H     -0.798102   -0.949693   -1.270491
  H      0.962937   -0.778731   -1.284180
  H     -0.764915    1.206982    0.000000

 Total Charge           Charge          ....    0
 Multiplicity           Mult            ....    1
 Number of Electrons    NEL             ....   26
 Basis Dimension        Dim             ....  562

ORBITAL ENERGIES
----------------

  NO   OCC          E(Eh)            E(eV)
   0   2.0000     -15.538401      -422.8214
   1   2.0000     -11.238729      -305.8214
   2   2.0000     -11.238712      -305.8209
   3   2.0000      -1.196189       -32.5499
   4   2.0000      -0.945478       -25.7278
   5   2.0000      -0.852560       -23.1993
   6   2.0000      -0.659681       -17.9508
   7   2.0000      -0.611095       -16.6287
   8   2.0000      -0.590704       -16.0739
   9   2.0000      -0.538061       -14.6414
  10   2.0000      -0.510400       -13.8887
  11   2.0000      -0.506758       -13.7896
  12   2.0000      -0.366746        -9.9797
  13   0.0000       0.026812         0.7296
  14   0.0000       0.036753         1.0001
  15   0.0000       0.038059         1.0356
  16   0.0000       0.041857         1.1390
  17   0.0000       0.057278         1.5586

MULLIKEN ATOMIC CHARGES
-----------------------
   0 C :   -0.731402
   1 C :   -0.731402
   2 N :   -0.422963
   3 H :    0.233920
   4 H :    0.331688
   5 H :    0.275604
   6 H :    0.331688
   7 H :    0.233920
   8 H :    0.275604
   9 H :    0.203344
Sum of atomic charges:   -0.0000000

LOEWDIN ATOMIC CHARGES
----------------------
   0 C :    0.735708
   1 C :    0.735708
   2 N :    0.849908
   3 H :   -0.286764
   4 H :   -0.303724
   5 H :   -0.307240
   6 H :   -0.303724
   7 H :   -0.286764
   8 H :   -0.307240
   9 H :   -0.525866

  Mayer bond orders larger than 0.100000
B(  0-C ,  2-N ) :   0.9230 B(  0-C ,  3-H ) :   0.9468 B(  0-C ,  4-H ) :   0.9104
B(  0-C ,  5-H ) :   0.9205 B(  1-C ,  2-N ) :   0.9230 B(  1-C ,  6-H ) :   0.9104
B(  1-C ,  7-H ) :   0.9468 B(  1-C ,  8-H ) :   0.9205 B(  2-N ,  9-H ) :   0.9470

MP2 TOTAL ENERGY:     -134.921027383 Eh
FINAL SINGLE POINT ENERGY      -134.921027382940

DIPOLE MOMENT
-------------
                                X             Y             Z
Electronic contribution:      0.16286       1.32912       0.00000
Nuclear contribution   :     -0.54526      -1.49779       0.00000
                        -----------------------------------------
Total Dipole Moment    :     -0.38240      -0.16867       0.00000
                        -----------------------------------------
Magnitude (a.u.)       :      0.41794
Magnitude (Debye)      :      1.06232

Rotational constants in cm-1:     1.165750     0.309133     0.273298
Rotational constants in MHz : 34948.293758  9267.570308  8193.266678

                             ****ORCA TERMINATED NORMALLY****
TOTAL RUN TIME: 0 days 0 hours 4 minutes 52 seconds 273 msec
