                         Program Version 5.0.4 -  RELEASE  -
|  1> !ri-mp2 aug-cc-pvqz aug-cc-pvqz/c tightscf
|  2> %pal nprocs 16 end
|  3>
|  4> * xyz 0 1
|  5> O    -0.437201     0.587681    0.000000
|  6> O     0.437201    -0.587681    0.000000
|  7> C    -0.437201    -1.696109    0.000000
|  8> H    -1.064231    -1.705853    0.894667
|  9> C     0.437201     1.696109    0.000000
| 10> H     1.064231     1.705853   -0.894667
| 11> H     1.064231     1.705853    0.894667
| 12> H    -0.218746     2.566214    0.000000
| 13> H     0.218746    -2.566214    0.000000
| 14> H    -1.064231    -1.705853   -0.894667
| 15> *
| 16>
| 17>                          ****END OF INPUT****

CARTESIAN COORDINATES (ANGSTROEM)
---------------------------------
  O     -0.437201    0.587681    0.000000
  O      0.437201   -0.587681    0.000000
  C     -0.437201   -1.696109    0.000000
  H     -1.064231   -1.705853    0.894667
  C      0.437201    1.696109    0.000000
  H      1.064231    1.705853   -0.894667
  H      1.064231    1.705853    0.894667
  H     -0.218746    2.566214    0.000000
  H      0.218746   -2.566214    0.000000
  H     -1.064231   -1.705853   -0.894667

 Total Charge           Charge          ....    0
 Multiplicity           Mult            ....    1
 Number of Electrons    NEL             ....   34
 Basis Dimension        Dim             ....  596

ORBITAL ENERGIES
----------------

  NO   OCC          E(Eh)            E(eV)
   0   2.0000     -20.615002      -560.9627
   1   2.0000     -20.614717      -560.9550
   2   2.0000     -11.273693      -306.7728
   3   2.0000     -11.273690      -306.7727
   4   2.0000      -1.465863       -39.8882
   5   2.0000      -1.242102       -33.7993
   6   2.0000      -0.926431       -25.2095
   7   2.0000      -0.903030       -24.5727
   8   2.0000      -0.682966       -18.5844
   9   2.0000      -0.672898       -18.3105
  10   2.0000      -0.663966       -18.0674
  11   2.0000      -0.606193       -16.4953
  12   2.0000      -0.561196       -15.2709
  13   2.0000      -0.551271       -15.0008
  14   2.0000      -0.500430       -13.6174
  15   2.0000      -0.488805       -13.3011
  16   2.0000      -0.421674       -11.4743
  17   0.0000       0.028012         0.7622
  18   0.0000       0.034886         0.9493
  19   0.0000       0.040103         1.0913
  20   0.0000       0.040512         1.1024
  21   0.0000       0.052517         1.4291

MULLIKEN ATOMIC CHARGES
-----------------------
   0 O :   -0.396754
   1 O :   -0.396754
   2 C :   -0.541879
   3 H :    0.272440
   4 C :   -0.541879
   5 H :    0.272440
   6 H :    0.272440
   7 H :    0.393753
   8 H :    0.393753
   9 H :    0.272440
Sum of atomic charges:    0.0000000

LOEWDIN ATOMIC CHARGES
----------------------
   0 O :    0.534850
   1 O :    0.534850
   2 C :    0.482157
   3 H :   -0.331324
   4 C :    0.482157
   5 H :   -0.331324
   6 H :   -0.331324
   7 H :   -0.354359
   8 H :   -0.354359
   9 H :   -0.331324

  Mayer bond orders larger than 0.100000
B(  0-O ,  1-O ) :   0.7402 B(  0-O ,  4-C ) :   0.8462 B(  1-O ,  2-C ) :   0.8462
B(  2-C ,  3-H ) :   0.9162 B(  2-C ,  8-H ) :   0.8491 B(  2-C ,  9-H ) :   0.9162
B(  4-C ,  5-H ) :   0.9162 B(  4-C ,  6-H ) :   0.9162 B(  4-C ,  7-H ) :   0.8491

MP2 TOTAL ENERGY:     -229.838741831 Eh
FINAL SINGLE POINT ENERGY      -229.838741830729

DIPOLE MOMENT
-------------
                                X             Y             Z
Electronic contribution:     -0.00000       0.00000       0.00000
Nuclear contribution   :      0.00000       0.00000       0.00000
                        -----------------------------------------
Total Dipole Moment    :     -0.00000       0.00000       0.00000
                        -----------------------------------------
Magnitude (a.u.)       :      0.00000
Magnitude (Debye)      :      0.00000

Rotational constants in cm-1:     1.059831     0.151753     0.139854
Rotational constants in MHz : 31772.924681  4549.441013  4192.719967

                             ****ORCA TERMINATED NORMALLY****
TOTAL RUN TIME: 0 days 0 hours 6 minutes 7 seconds 176 msec
