                         Program Version 5.0.4 -  RELEASE  -
|  1> !ri-mp2 aug-cc-pvqz aug-cc-pvqz/c tightscf
|  2> %pal nprocs 16 end
|  3>
|  4> * xyz 0 1
|  5> C      0.595129    1.129270    1.179795
|  6> C      0.595129    1.129270   -1.179795
|  7> C     -0.195354    0.681761    2.384225
|  8> C     -0.195354    0.681761   -2.384225
|  9> O     -0.097253    0.782414    0.000000
| 10> Cl    -0.195354   -1.116216    2.587045
| 11> Cl    -0.195354   -1.116216   -2.587045
| 12> H      0.715987    2.221674    1.242336
| 13> H      1.594518    0.679296    1.190046
| 14> H      1.594518    0.679296   -1.190046
| 15> H      0.715987    2.221674   -1.242336
| 16> H      0.235929    1.094093    3.292028
| 17> H     -1.235057    0.984758    2.300171
| 18> H     -1.235057    0.984758   -2.300171
| 19> H      0.235929    1.094093   -3.292028
| 20> *
| 21>
| 22>                          ****END OF INPUT****

CARTESIAN COORDINATES (ANGSTROEM)
---------------------------------
  C      0.595129    1.129270    1.179795
  C      0.595129    1.129270   -1.179795
  C     -0.195354    0.681761    2.384225
  C     -0.195354    0.681761   -2.384225
  O     -0.097253    0.782414    0.000000
  Cl    -0.195354   -1.116216    2.587045
  Cl    -0.195354   -1.116216   -2.587045
  H      0.715987    2.221674    1.242336
  H      1.594518    0.679296    1.190046
  H      1.594518    0.679296   -1.190046
  H      0.715987    2.221674   -1.242336
  H      0.235929    1.094093    3.292028
  H     -1.235057    0.984758    2.300171
  H     -1.235057    0.984758   -2.300171
  H      0.235929    1.094093   -3.292028

 Total Charge           Charge          ....    0
 Multiplicity           Mult            ....    1
 Number of Electrons    NEL             ....   74
 Basis Dimension        Dim             ....  936

ORBITAL ENERGIES
----------------

  NO   OCC          E(Eh)            E(eV)
   0   2.0000    -104.818481     -2852.2559
   1   2.0000    -104.818481     -2852.2559
   2   2.0000     -20.573477      -559.8328
   3   2.0000     -11.300496      -307.5021
   4   2.0000     -11.300478      -307.5016
   5   2.0000     -11.297637      -307.4243
   6   2.0000     -11.297635      -307.4243
   7   2.0000     -10.543795      -286.9113
   8   2.0000     -10.543795      -286.9113
   9   2.0000      -8.010845      -217.9862
  10   2.0000      -8.010845      -217.9862
  11   2.0000      -8.009207      -217.9416
  12   2.0000      -8.009207      -217.9416
  13   2.0000      -8.009164      -217.9404
  14   2.0000      -8.009164      -217.9404
  15   2.0000      -1.399287       -38.0765
  16   2.0000      -1.139320       -31.0025
  17   2.0000      -1.123970       -30.5848
  18   2.0000      -1.022735       -27.8300
  19   2.0000      -0.968911       -26.3654
  20   2.0000      -0.847912       -23.0729
  21   2.0000      -0.840250       -22.8644
  22   2.0000      -0.702197       -19.1078
  23   2.0000      -0.698794       -19.0151
  24   2.0000      -0.646594       -17.5947
  25   2.0000      -0.623676       -16.9711
  26   2.0000      -0.615159       -16.7393
  27   2.0000      -0.577212       -15.7067
  28   2.0000      -0.552497       -15.0342
  29   2.0000      -0.539749       -14.6873
  30   2.0000      -0.508058       -13.8249
  31   2.0000      -0.504086       -13.7169
  32   2.0000      -0.447244       -12.1701
  33   2.0000      -0.435990       -11.8639
  34   2.0000      -0.432137       -11.7590
  35   2.0000      -0.428870       -11.6701
  36   2.0000      -0.428720       -11.6661
  37   0.0000       0.020364         0.5541
  38   0.0000       0.027268         0.7420
  39   0.0000       0.032218         0.8767
  40   0.0000       0.040180         1.0934
  41   0.0000       0.046375         1.2619

MULLIKEN ATOMIC CHARGES
-----------------------
   0 C :    0.033507
   1 C :    0.033507
   2 C :   -0.448611
   3 C :   -0.448611
   4 O :   -0.790318
   5 Cl:   -0.343514
   6 Cl:   -0.343514
   7 H :    0.294171
   8 H :    0.291520
   9 H :    0.291520
  10 H :    0.294171
  11 H :    0.288767
  12 H :    0.279318
  13 H :    0.279318
  14 H :    0.288767
Sum of atomic charges:   -0.0000000

LOEWDIN ATOMIC CHARGES
----------------------
   0 C :    0.024241
   1 C :    0.024241
   2 C :   -0.142307
   3 C :   -0.142307
   4 O :    0.861804
   5 Cl:    1.112885
   6 Cl:    1.112885
   7 H :   -0.298499
   8 H :   -0.325282
   9 H :   -0.325282
  10 H :   -0.298499
  11 H :   -0.401621
  12 H :   -0.400319
  13 H :   -0.400319
  14 H :   -0.401621

  Mayer bond orders larger than 0.100000
B(  0-C ,  2-C ) :   0.9867 B(  0-C ,  4-O ) :   0.8841 B(  0-C ,  7-H ) :   0.8082
B(  0-C ,  8-H ) :   0.8394 B(  1-C ,  3-C ) :   0.9867 B(  1-C ,  4-O ) :   0.8841
B(  1-C ,  9-H ) :   0.8394 B(  1-C , 10-H ) :   0.8082 B(  2-C ,  5-Cl) :   0.8543
B(  2-C , 11-H ) :   0.9264 B(  2-C , 12-H ) :   0.8722 B(  3-C ,  6-Cl) :   0.8543
B(  3-C , 13-H ) :   0.8722 B(  3-C , 14-H ) :   0.9264

MP2 TOTAL ENERGY:    -1151.541584916 Eh
FINAL SINGLE POINT ENERGY     -1151.541584916167

DIPOLE MOMENT
-------------
                                X             Y             Z
Electronic contribution:     -2.58564     -10.89297      -0.00000
Nuclear contribution   :      3.09045      12.79430      -0.00000
                        -----------------------------------------
Total Dipole Moment    :      0.50481       1.90133      -0.00000
                        -----------------------------------------
Magnitude (a.u.)       :      1.96720
Magnitude (Debye)      :      5.00023

Rotational constants in cm-1:     0.096028     0.024153     0.019982
Rotational constants in MHz :  2878.853496   724.078541   599.039868

                             ****ORCA TERMINATED NORMALLY****
TOTAL RUN TIME: 0 days 0 hours 33 minutes 13 seconds 174 msec
