                         Program Version 5.0.4 -  RELEASE  -
|  1> !ri-mp2 aug-cc-pvqz aug-cc-pvqz/c tightscf
|  2> %pal nprocs 16 end
|  3>
|  4> * xyz 0 1
|  5> C     0.000000     2.726159    0.135205
|  6> C     0.000000    -2.726159    0.135205
|  7> C     0.000000     1.403492   -0.620064
|  8> C     0.000000    -1.403492   -0.620064
|  9> S     0.000000     0.000000    0.556153
| 10> H    -0.882330     2.818735    0.768807
| 11> H     0.882330     2.818735    0.768807
| 12> H     0.000000     3.560604   -0.567621
| 13> H     0.882330    -2.818735    0.768807
| 14> H    -0.882330    -2.818735    0.768807
| 15> H     0.000000    -3.560604   -0.567621
| 16> H     0.883227     1.323432   -1.255033
| 17> H    -0.883227     1.323432   -1.255033
| 18> H    -0.883227    -1.323432   -1.255033
| 19> H     0.883227    -1.323432   -1.255033
| 20> *
| 21>
| 22>                          ****END OF INPUT****

CARTESIAN COORDINATES (ANGSTROEM)
---------------------------------
  C      0.000000    2.726159    0.135205
  C      0.000000   -2.726159    0.135205
  C      0.000000    1.403492   -0.620064
  C      0.000000   -1.403492   -0.620064
  S      0.000000    0.000000    0.556153
  H     -0.882330    2.818735    0.768807
  H      0.882330    2.818735    0.768807
  H      0.000000    3.560604   -0.567621
  H      0.882330   -2.818735    0.768807
  H     -0.882330   -2.818735    0.768807
  H      0.000000   -3.560604   -0.567621
  H      0.883227    1.323432   -1.255033
  H     -0.883227    1.323432   -1.255033
  H     -0.883227   -1.323432   -1.255033
  H      0.883227   -1.323432   -1.255033

 Total Charge           Charge          ....    0
 Multiplicity           Mult            ....    1
 Number of Electrons    NEL             ....   50
 Basis Dimension        Dim             ....  864

ORBITAL ENERGIES
----------------

  NO   OCC          E(Eh)            E(eV)
   0   2.0000     -91.933657     -2501.6420
   1   2.0000     -11.252754      -306.2030
   2   2.0000     -11.252745      -306.2028
   3   2.0000     -11.220585      -305.3276
   4   2.0000     -11.220584      -305.3276
   5   2.0000      -8.935529      -243.1481
   6   2.0000      -6.617038      -180.0588
   7   2.0000      -6.616203      -180.0360
   8   2.0000      -6.615311      -180.0118
   9   2.0000      -1.080851       -29.4114
  10   2.0000      -1.031688       -28.0737
  11   2.0000      -0.927031       -25.2258
  12   2.0000      -0.836646       -22.7663
  13   2.0000      -0.783483       -21.3197
  14   2.0000      -0.634674       -17.2704
  15   2.0000      -0.613466       -16.6933
  16   2.0000      -0.608698       -16.5635
  17   2.0000      -0.563856       -15.3433
  18   2.0000      -0.543836       -14.7985
  19   2.0000      -0.516539       -14.0558
  20   2.0000      -0.516026       -14.0418
  21   2.0000      -0.498093       -13.5538
  22   2.0000      -0.454700       -12.3730
  23   2.0000      -0.420607       -11.4453
  24   2.0000      -0.331852        -9.0302
  25   0.0000       0.026726         0.7273
  26   0.0000       0.028864         0.7854
  27   0.0000       0.036209         0.9853
  28   0.0000       0.036299         0.9878
  29   0.0000       0.047868         1.3026

MULLIKEN ATOMIC CHARGES
-----------------------
   0 C :   -0.850295
   1 C :   -0.850295
   2 C :   -0.417479
   3 C :   -0.417479
   4 S :   -0.042758
   5 H :    0.246144
   6 H :    0.246144
   7 H :    0.273821
   8 H :    0.246144
   9 H :    0.246144
  10 H :    0.273821
  11 H :    0.261522
  12 H :    0.261522
  13 H :    0.261522
  14 H :    0.261522
Sum of atomic charges:   -0.0000000

LOEWDIN ATOMIC CHARGES
----------------------
   0 C :    0.818755
   1 C :    0.818755
   2 C :    0.139515
   3 C :    0.139515
   4 S :    1.328293
   5 H :   -0.307014
   6 H :   -0.307014
   7 H :   -0.292551
   8 H :   -0.307014
   9 H :   -0.307014
  10 H :   -0.292551
  11 H :   -0.357919
  12 H :   -0.357919
  13 H :   -0.357919
  14 H :   -0.357919

  Mayer bond orders larger than 0.100000
B(  0-C ,  2-C ) :   0.8669 B(  0-C ,  5-H ) :   0.9528 B(  0-C ,  6-H ) :   0.9528
B(  0-C ,  7-H ) :   0.9696 B(  1-C ,  3-C ) :   0.8669 B(  1-C ,  8-H ) :   0.9528
B(  1-C ,  9-H ) :   0.9528 B(  1-C , 10-H ) :   0.9696 B(  2-C ,  4-S ) :   0.9360
B(  2-C , 11-H ) :   0.8731 B(  2-C , 12-H ) :   0.8731 B(  3-C ,  4-S ) :   0.9360
B(  3-C , 13-H ) :   0.8731 B(  3-C , 14-H ) :   0.8731

MP2 TOTAL ENERGY:     -555.867731938 Eh
FINAL SINGLE POINT ENERGY      -555.867731937944

DIPOLE MOMENT
-------------
                                X             Y             Z
Electronic contribution:     -0.00000       0.00000       2.52011
Nuclear contribution   :      0.00000      -0.00000      -3.22505
                        -----------------------------------------
Total Dipole Moment    :     -0.00000       0.00000      -0.70494
                        -----------------------------------------
Magnitude (a.u.)       :      0.70494
Magnitude (Debye)      :      1.79182

Rotational constants in cm-1:     0.479534     0.056800     0.052783
Rotational constants in MHz : 14376.080150  1702.826552  1582.405191

                             ****ORCA TERMINATED NORMALLY****
TOTAL RUN TIME: 0 days 0 hours 21 minutes 12 seconds 5 msec
