                         Program Version 5.0.4 -  RELEASE  -
|  1> !ri-mp2 aug-cc-pvqz aug-cc-pvqz/c tightscf
|  2> %pal nprocs 16 end
|  3>
|  4> * xyz 0 1
|  5> C     -0.008620   -0.371616    2.458950
|  6> C     -0.008620   -0.371616   -2.458950
|  7> C     -0.008620    0.517598    1.223905
|  8> C     -0.008620    0.517598   -1.223905
|  9> N     -0.059012   -0.273364    0.000000
| 10> H     -0.896650   -1.003443    2.479604
| 11> H      0.868669   -1.022627    2.474208
| 12> H      0.011382    0.229192    3.368838
| 13> H      0.868669   -1.022627   -2.474208
| 14> H     -0.896650   -1.003443   -2.479604
| 15> H      0.011382    0.229192   -3.368838
| 16> H      0.867606    1.187009    1.250354
| 17> H     -0.889411    1.165441    1.236824
| 18> H     -0.889411    1.165441   -1.236824
| 19> H      0.867606    1.187009   -1.250354
| 20> H      0.696784   -0.949384    0.000000
| 21> *
| 22>
| 23>                          ****END OF INPUT****

CARTESIAN COORDINATES (ANGSTROEM)
---------------------------------
  C     -0.008620   -0.371616    2.458950
  C     -0.008620   -0.371616   -2.458950
  C     -0.008620    0.517598    1.223905
  C     -0.008620    0.517598   -1.223905
  N     -0.059012   -0.273364    0.000000
  H     -0.896650   -1.003443    2.479604
  H      0.868669   -1.022627    2.474208
  H      0.011382    0.229192    3.368838
  H      0.868669   -1.022627   -2.474208
  H     -0.896650   -1.003443   -2.479604
  H      0.011382    0.229192   -3.368838
  H      0.867606    1.187009    1.250354
  H     -0.889411    1.165441    1.236824
  H     -0.889411    1.165441   -1.236824
  H      0.867606    1.187009   -1.250354
  H      0.696784   -0.949384    0.000000

 Total Charge           Charge          ....    0
 Multiplicity           Mult            ....    1
 Number of Electrons    NEL             ....   42
 Basis Dimension        Dim             ....  906

ORBITAL ENERGIES
----------------

  NO   OCC          E(Eh)            E(eV)
   0   2.0000     -15.533572      -422.6900
   1   2.0000     -11.242708      -305.9296
   2   2.0000     -11.242691      -305.9292
   3   2.0000     -11.209548      -305.0273
   4   2.0000     -11.209547      -305.0273
   5   2.0000      -1.201732       -32.7008
   6   2.0000      -1.026799       -27.9406
   7   2.0000      -0.962076       -26.1794
   8   2.0000      -0.830026       -22.5862
   9   2.0000      -0.819213       -22.2919
  10   2.0000      -0.658745       -17.9254
  11   2.0000      -0.626868       -17.0580
  12   2.0000      -0.597456       -16.2576
  13   2.0000      -0.589030       -16.0283
  14   2.0000      -0.552697       -15.0397
  15   2.0000      -0.520287       -14.1577
  16   2.0000      -0.507605       -13.8126
  17   2.0000      -0.488830       -13.3017
  18   2.0000      -0.482029       -13.1167
  19   2.0000      -0.474922       -12.9233
  20   2.0000      -0.364269        -9.9123
  21   0.0000       0.026979         0.7341
  22   0.0000       0.031528         0.8579
  23   0.0000       0.034093         0.9277
  24   0.0000       0.036580         0.9954
  25   0.0000       0.048058         1.3077

MULLIKEN ATOMIC CHARGES
-----------------------
   0 C :   -0.880310
   1 C :   -0.880311
   2 C :   -0.216274
   3 C :   -0.216273
   4 N :   -0.495934
   5 H :    0.229580
   6 H :    0.214045
   7 H :    0.286148
   8 H :    0.214045
   9 H :    0.229580
  10 H :    0.286148
  11 H :    0.227693
  12 H :    0.274106
  13 H :    0.274106
  14 H :    0.227693
  15 H :    0.225958
Sum of atomic charges:    0.0000000

LOEWDIN ATOMIC CHARGES
----------------------
   0 C :    0.918282
   1 C :    0.918282
   2 C :    0.330307
   3 C :    0.330307
   4 N :    0.885914
   5 H :   -0.287124
   6 H :   -0.288170
   7 H :   -0.288254
   8 H :   -0.288170
   9 H :   -0.287124
  10 H :   -0.288254
  11 H :   -0.271900
  12 H :   -0.294167
  13 H :   -0.294167
  14 H :   -0.271900
  15 H :   -0.523860

  Mayer bond orders larger than 0.100000
B(  0-C ,  2-C ) :   0.9128 B(  0-C ,  5-H ) :   0.9566 B(  0-C ,  6-H ) :   0.9558
B(  0-C ,  7-H ) :   0.9890 B(  1-C ,  3-C ) :   0.9128 B(  1-C ,  8-H ) :   0.9558
B(  1-C ,  9-H ) :   0.9566 B(  1-C , 10-H ) :   0.9890 B(  2-C ,  4-N ) :   0.8615
B(  2-C , 11-H ) :   0.9034 B(  2-C , 12-H ) :   0.8848 B(  3-C ,  4-N ) :   0.8615
B(  3-C , 13-H ) :   0.8848 B(  3-C , 14-H ) :   0.9034 B(  4-N , 15-H ) :   0.9241

MP2 TOTAL ENERGY:     -213.399196821 Eh
FINAL SINGLE POINT ENERGY      -213.399196820733

DIPOLE MOMENT
-------------
                                X             Y             Z
Electronic contribution:     -0.32796      -0.00332      -0.00000
Nuclear contribution   :      0.66826       0.17273      -0.00000
                        -----------------------------------------
Total Dipole Moment    :      0.34030       0.16940      -0.00000
                        -----------------------------------------
Magnitude (a.u.)       :      0.38013
Magnitude (Debye)      :      0.96622

Rotational constants in cm-1:     0.595214     0.069700     0.065689
Rotational constants in MHz : 17844.066328  2089.552977  1969.306622

                             ****ORCA TERMINATED NORMALLY****
TOTAL RUN TIME: 0 days 0 hours 19 minutes 32 seconds 411 msec
