                         Program Version 5.0.4 -  RELEASE  -
|  1> !ri-mp2 aug-cc-pvqz aug-cc-pvqz/c tightscf
|  2> %pal nprocs 16 end
|  3>
|  4> * xyz 0 1
|  5> N     -1.948870   -0.047511    0.054375
|  6> N      1.948870   -0.047536   -0.054353
|  7> C     -0.602828    0.001551    0.003804
|  8> C      0.602828    0.001550   -0.003806
|  9> H     -2.420980   -0.433572   -0.748716
| 10> H     -2.421589    0.756865    0.436515
| 11> H      2.420977   -0.433234    0.748914
| 12> H      2.421590    0.756668   -0.436853
| 13> *
| 14>
| 15>                          ****END OF INPUT****

CARTESIAN COORDINATES (ANGSTROEM)
---------------------------------
  N     -1.948870   -0.047511    0.054375
  N      1.948870   -0.047536   -0.054353
  C     -0.602828    0.001551    0.003804
  C      0.602828    0.001550   -0.003806
  H     -2.420980   -0.433572   -0.748716
  H     -2.421589    0.756865    0.436515
  H      2.420977   -0.433234    0.748914
  H      2.421590    0.756668   -0.436853

 Total Charge           Charge          ....    0
 Multiplicity           Mult            ....    1
 Number of Electrons    NEL             ....   30
 Basis Dimension        Dim             ....  504

ORBITAL ENERGIES
----------------

  NO   OCC          E(Eh)            E(eV)
   0   2.0000     -15.576284      -423.8522
   1   2.0000     -15.576283      -423.8522
   2   2.0000     -11.234646      -305.7103
   3   2.0000     -11.230989      -305.6107
   4   2.0000      -1.217640       -33.1337
   5   2.0000      -1.203029       -32.7361
   6   2.0000      -0.969917       -26.3928
   7   2.0000      -0.748437       -20.3660
   8   2.0000      -0.696249       -18.9459
   9   2.0000      -0.691100       -18.8058
  10   2.0000      -0.690711       -18.7952
  11   2.0000      -0.506369       -13.7790
  12   2.0000      -0.505427       -13.7534
  13   2.0000      -0.328276        -8.9328
  14   2.0000      -0.328024        -8.9260
  15   0.0000       0.022464         0.6113
  16   0.0000       0.029155         0.7934
  17   0.0000       0.043955         1.1961
  18   0.0000       0.043996         1.1972
  19   0.0000       0.082648         2.2490

MULLIKEN ATOMIC CHARGES
-----------------------
   0 N :   -0.882543
   1 N :   -0.882542
   2 C :    0.234008
   3 C :    0.234008
   4 H :    0.323769
   5 H :    0.324765
   6 H :    0.323769
   7 H :    0.324765
Sum of atomic charges:    0.0000000

LOEWDIN ATOMIC CHARGES
----------------------
   0 N :    1.135994
   1 N :    1.135994
   2 C :   -0.068976
   3 C :   -0.068976
   4 H :   -0.533102
   5 H :   -0.533916
   6 H :   -0.533102
   7 H :   -0.533916

  Mayer bond orders larger than 0.100000
B(  0-N ,  2-C ) :   0.9991 B(  0-N ,  4-H ) :   0.8729 B(  0-N ,  5-H ) :   0.8694
B(  1-N ,  3-C ) :   0.9991 B(  1-N ,  6-H ) :   0.8729 B(  1-N ,  7-H ) :   0.8694
B(  2-C ,  3-C ) :   2.7638

MP2 TOTAL ENERGY:     -187.744033492 Eh
FINAL SINGLE POINT ENERGY      -187.744033491538

DIPOLE MOMENT
-------------
                                X             Y             Z
Electronic contribution:      0.00000      -0.14814       0.00003
Nuclear contribution   :     -0.00000       0.64933      -0.00014
                        -----------------------------------------
Total Dipole Moment    :     -0.00000       0.50119      -0.00011
                        -----------------------------------------
Magnitude (a.u.)       :      0.50119
Magnitude (Debye)      :      1.27391

Rotational constants in cm-1:     5.316529     0.120098     0.120092
Rotational constants in MHz : 159385.534109  3600.453332  3600.257975

                             ****ORCA TERMINATED NORMALLY****
TOTAL RUN TIME: 0 days 0 hours 3 minutes 26 seconds 901 msec
