                         Program Version 5.0.4 -  RELEASE  -
|  1> !ri-mp2 aug-cc-pvqz aug-cc-pvqz/c tightscf
|  2> %pal nprocs 16 end
|  3> %maxcore 3800
|  4>
|  5> * xyz 0 1
|  6> C     -1.420834    0.793414   -0.007311
|  7> S      0.000000   -0.346947   -0.000010
|  8> C     -2.762715    0.095086    0.252798
|  9> C      1.420834    0.793414    0.007287
| 10> O     -0.034424   -1.089441    1.260830
| 11> O      0.034424   -1.089442   -1.260849
| 12> C     -3.806859    1.145917    0.648578
| 13> C     -3.239642   -0.730464   -0.945570
| 14> C      2.762718    0.095073   -0.252778
| 15> C      3.806866    1.145882   -0.648603
| 16> C      3.239634   -0.730417    0.945635
| 17> H     -1.201428    1.513412    0.781999
| 18> H     -1.403435    1.302515   -0.971723
| 19> H     -2.618202   -0.575090    1.103169
| 20> H      1.201441    1.513390   -0.782045
| 21> H      1.403420    1.302541    0.971685
| 22> H     -4.763693    0.667778    0.861289
| 23> H     -3.504390    1.699334    1.539005
| 24> H     -3.969663    1.865389   -0.157619
| 25> H     -3.398705   -0.091329   -1.817765
| 26> H     -2.520753   -1.498674   -1.222382
| 27> H     -4.188123   -1.215944   -0.712598
| 28> H      2.618210   -0.575147   -1.103115
| 29> H      4.763704    0.667732   -0.861274
| 30> H      3.504408    1.699247   -1.539066
| 31> H      3.969659    1.865400    0.157555
| 32> H      3.398692   -0.091241    1.817801
| 33> H      2.520742   -1.498613    1.222481
| 34> H      4.188116   -1.215910    0.712694
| 35> *
| 36>
| 37>                          ****END OF INPUT****

CARTESIAN COORDINATES (ANGSTROEM)
---------------------------------
  C     -1.420834    0.793414   -0.007311
  S      0.000000   -0.346947   -0.000010
  C     -2.762715    0.095086    0.252798
  C      1.420834    0.793414    0.007287
  O     -0.034424   -1.089441    1.260830
  O      0.034424   -1.089442   -1.260849
  C     -3.806859    1.145917    0.648578
  C     -3.239642   -0.730464   -0.945570
  C      2.762718    0.095073   -0.252778
  C      3.806866    1.145882   -0.648603
  C      3.239634   -0.730417    0.945635
  H     -1.201428    1.513412    0.781999
  H     -1.403435    1.302515   -0.971723
  H     -2.618202   -0.575090    1.103169
  H      1.201441    1.513390   -0.782045
  H      1.403420    1.302541    0.971685
  H     -4.763693    0.667778    0.861289
  H     -3.504390    1.699334    1.539005
  H     -3.969663    1.865389   -0.157619
  H     -3.398705   -0.091329   -1.817765
  H     -2.520753   -1.498674   -1.222382
  H     -4.188123   -1.215944   -0.712598
  H      2.618210   -0.575147   -1.103115
  H      4.763704    0.667732   -0.861274
  H      3.504408    1.699247   -1.539066
  H      3.969659    1.865400    0.157555
  H      3.398692   -0.091241    1.817801
  H      2.520742   -1.498613    1.222481
  H      4.188116   -1.215910    0.712694

 Total Charge           Charge          ....    0
 Multiplicity           Mult            ....    1
 Number of Electrons    NEL             ....   98
 Basis Dimension        Dim             .... 1712

ORBITAL ENERGIES
----------------

  NO   OCC          E(Eh)            E(eV)
   0   2.0000     -92.161159     -2507.8326
   1   2.0000     -20.532114      -558.7072
   2   2.0000     -20.532093      -558.7067
   3   2.0000     -11.272228      -306.7329
   4   2.0000     -11.272212      -306.7325
   5   2.0000     -11.246284      -306.0269
   6   2.0000     -11.246283      -306.0269
   7   2.0000     -11.224792      -305.4421
   8   2.0000     -11.224792      -305.4421
   9   2.0000     -11.211995      -305.0939
  10   2.0000     -11.211995      -305.0939
  11   2.0000      -9.131684      -248.4857
  12   2.0000      -6.816717      -185.4923
  13   2.0000      -6.816242      -185.4794
  14   2.0000      -6.815875      -185.4694
  15   2.0000      -1.429893       -38.9094
  16   2.0000      -1.319572       -35.9074
  17   2.0000      -1.114950       -30.3393
  18   2.0000      -1.106046       -30.0970
  19   2.0000      -1.017395       -27.6847
  20   2.0000      -0.960491       -26.1363
  21   2.0000      -0.938826       -25.5467
  22   2.0000      -0.938754       -25.5448
  23   2.0000      -0.832483       -22.6530
  24   2.0000      -0.785513       -21.3749
  25   2.0000      -0.777692       -21.1621
  26   2.0000      -0.688185       -18.7265
  27   2.0000      -0.666748       -18.1431
  28   2.0000      -0.666243       -18.1294
  29   2.0000      -0.633895       -17.2492
  30   2.0000      -0.621139       -16.9021
  31   2.0000      -0.609297       -16.5798
  32   2.0000      -0.603056       -16.4100
  33   2.0000      -0.590619       -16.0715
  34   2.0000      -0.580233       -15.7889
  35   2.0000      -0.553997       -15.0750
  36   2.0000      -0.549765       -14.9599
  37   2.0000      -0.539148       -14.6709
  38   2.0000      -0.538137       -14.6434
  39   2.0000      -0.512234       -13.9386
  40   2.0000      -0.498610       -13.5679
  41   2.0000      -0.496581       -13.5127
  42   2.0000      -0.483748       -13.1634
  43   2.0000      -0.481707       -13.1079
  44   2.0000      -0.481035       -13.0896
  45   2.0000      -0.479185       -13.0393
  46   2.0000      -0.464901       -12.6506
  47   2.0000      -0.457738       -12.4557
  48   2.0000      -0.413382       -11.2487
  49   0.0000       0.019344         0.5264
  50   0.0000       0.024762         0.6738
  51   0.0000       0.030050         0.8177
  52   0.0000       0.031021         0.8441
  53   0.0000       0.039120         1.0645

MULLIKEN ATOMIC CHARGES
-----------------------
   0 C :   -0.567904
   1 S :    2.864788
   2 C :    0.162775
   3 C :   -0.567989
   4 O :   -1.418453
   5 O :   -1.418484
   6 C :   -0.974902
   7 C :   -1.005590
   8 C :    0.162567
   9 C :   -0.974852
  10 C :   -1.005529
  11 H :    0.370934
  12 H :    0.285034
  13 H :    0.284245
  14 H :    0.370933
  15 H :    0.285081
  16 H :    0.267922
  17 H :    0.245339
  18 H :    0.189341
  19 H :    0.183140
  20 H :    0.268697
  21 H :    0.277119
  22 H :    0.284206
  23 H :    0.267977
  24 H :    0.245327
  25 H :    0.189330
  26 H :    0.183140
  27 H :    0.268702
  28 H :    0.277104
Sum of atomic charges:   -0.0000000

LOEWDIN ATOMIC CHARGES
----------------------
   0 C :    0.426570
   1 S :   -0.120279
   2 C :    0.068582
   3 C :    0.426571
   4 O :    0.340965
   5 O :    0.340964
   6 C :    0.925960
   7 C :    0.919602
   8 C :    0.068582
   9 C :    0.925960
  10 C :    0.919602
  11 H :   -0.324026
  12 H :   -0.307392
  13 H :   -0.304801
  14 H :   -0.324027
  15 H :   -0.307392
  16 H :   -0.275308
  17 H :   -0.275425
  18 H :   -0.272917
  19 H :   -0.274144
  20 H :   -0.312886
  21 H :   -0.274640
  22 H :   -0.304802
  23 H :   -0.275307
  24 H :   -0.275424
  25 H :   -0.272917
  26 H :   -0.274143
  27 H :   -0.312887
  28 H :   -0.274640

  Mayer bond orders larger than 0.100000
B(  0-C ,  1-S ) :   1.0083 B(  0-C ,  2-C ) :   0.7098 B(  0-C , 11-H ) :   0.8242
B(  0-C , 12-H ) :   0.8615 B(  1-S ,  3-C ) :   1.0082 B(  1-S ,  4-O ) :   0.6949
B(  1-S ,  5-O ) :   0.6949 B(  2-C ,  6-C ) :   0.6931 B(  2-C ,  7-C ) :   0.6235
B(  2-C , 13-H ) :   0.8732 B(  2-C , 16-H ) :  -0.1130 B(  3-C ,  8-C ) :   0.7099
B(  3-C , 14-H ) :   0.8242 B(  3-C , 15-H ) :   0.8614 B(  6-C ,  7-C ) :   0.1334
B(  6-C , 16-H ) :   1.0455 B(  6-C , 17-H ) :   0.9925 B(  6-C , 18-H ) :   1.0236
B(  7-C , 19-H ) :   1.0184 B(  7-C , 20-H ) :   0.9616 B(  7-C , 21-H ) :   1.0248
B(  8-C ,  9-C ) :   0.6932 B(  8-C , 10-C ) :   0.6236 B(  8-C , 22-H ) :   0.8733
B(  8-C , 23-H ) :  -0.1130 B(  9-C , 10-C ) :   0.1334 B(  9-C , 23-H ) :   1.0455
B(  9-C , 24-H ) :   0.9926 B(  9-C , 25-H ) :   1.0236 B( 10-C , 26-H ) :   1.0183
B( 10-C , 27-H ) :   0.9615 B( 10-C , 28-H ) :   1.0249

MP2 TOTAL ENERGY:     -863.112624435 Eh
FINAL SINGLE POINT ENERGY      -863.112624434715

DIPOLE MOMENT
-------------
                                X             Y             Z
Electronic contribution:      0.00000      -5.73876      -0.00009
Nuclear contribution   :     -0.00000       7.54739       0.00009
                        -----------------------------------------
Total Dipole Moment    :     -0.00000       1.80863       0.00000
                        -----------------------------------------
Magnitude (a.u.)       :      1.80863
Magnitude (Debye)      :      4.59717

Rotational constants in cm-1:     0.070890     0.014877     0.014560
Rotational constants in MHz :  2125.240204   445.989888   436.509414

                             ****ORCA TERMINATED NORMALLY****
TOTAL RUN TIME: 0 days 3 hours 33 minutes 32 seconds 213 msec
