                         Program Version 5.0.4 -  RELEASE  -
|  1> !ri-mp2 aug-cc-pvqz aug-cc-pvqz/c tightscf
|  2> %pal nprocs 16 end
|  3>
|  4> * xyz 0 1
|  5> S      0.000000   -0.857107   -0.318004
|  6> O      0.000000   -1.053613    1.137761
|  7> O      1.279962    0.121780   -0.679264
|  8> O     -1.279962    0.121780   -0.679265
|  9> C      1.785232    1.045978    0.304035
| 10> C     -1.785232    1.045978    0.304035
| 11> H      2.837899    1.182815    0.071216
| 12> H     -2.837900    1.182815    0.071215
| 13> H      1.263493    1.999548    0.224505
| 14> H      1.675420    0.638837    1.307173
| 15> H     -1.675421    0.638836    1.307172
| 16> H     -1.263493    1.999547    0.224506
| 17> *
| 18>
| 19>                          ****END OF INPUT****

CARTESIAN COORDINATES (ANGSTROEM)
---------------------------------
  S      0.000000   -0.857107   -0.318004
  O      0.000000   -1.053613    1.137761
  O      1.279962    0.121780   -0.679264
  O     -1.279962    0.121780   -0.679265
  C      1.785232    1.045978    0.304035
  C     -1.785232    1.045978    0.304035
  H      2.837899    1.182815    0.071216
  H     -2.837900    1.182815    0.071215
  H      1.263493    1.999548    0.224505
  H      1.675420    0.638837    1.307173
  H     -1.675421    0.638836    1.307172
  H     -1.263493    1.999547    0.224506

 Total Charge           Charge          ....    0
 Multiplicity           Mult            ....    1
 Number of Electrons    NEL             ....   58
 Basis Dimension        Dim             ....  760

ORBITAL ENERGIES
----------------

  NO   OCC          E(Eh)            E(eV)
   0   2.0000     -92.161931     -2507.8536
   1   2.0000     -20.604716      -560.6828
   2   2.0000     -20.604700      -560.6824
   3   2.0000     -20.548990      -559.1665
   4   2.0000     -11.293112      -307.3012
   5   2.0000     -11.293111      -307.3012
   6   2.0000      -9.135508      -248.5898
   7   2.0000      -6.817291      -185.5079
   8   2.0000      -6.816937      -185.4983
   9   2.0000      -6.814679      -185.4369
  10   2.0000      -1.463241       -39.8168
  11   2.0000      -1.380839       -37.5745
  12   2.0000      -1.346590       -36.6426
  13   2.0000      -1.007537       -27.4165
  14   2.0000      -0.951148       -25.8821
  15   2.0000      -0.841979       -22.9114
  16   2.0000      -0.723945       -19.6995
  17   2.0000      -0.700669       -19.0662
  18   2.0000      -0.675180       -18.3726
  19   2.0000      -0.650869       -17.7110
  20   2.0000      -0.635419       -17.2906
  21   2.0000      -0.633324       -17.2336
  22   2.0000      -0.566327       -15.4105
  23   2.0000      -0.541072       -14.7233
  24   2.0000      -0.525427       -14.2976
  25   2.0000      -0.506489       -13.7823
  26   2.0000      -0.482448       -13.1281
  27   2.0000      -0.470868       -12.8130
  28   2.0000      -0.427973       -11.6457
  29   0.0000       0.023949         0.6517
  30   0.0000       0.031192         0.8488
  31   0.0000       0.041884         1.1397
  32   0.0000       0.043633         1.1873
  33   0.0000       0.056243         1.5305

MULLIKEN ATOMIC CHARGES
-----------------------
   0 S :    1.660146
   1 O :   -1.079579
   2 O :   -0.718245
   3 O :   -0.718245
   4 C :   -0.662199
   5 C :   -0.662199
   6 H :    0.517086
   7 H :    0.517085
   8 H :    0.266365
   9 H :    0.306709
  10 H :    0.306709
  11 H :    0.266366
Sum of atomic charges:    0.0000000

LOEWDIN ATOMIC CHARGES
----------------------
   0 S :    0.075600
   1 O :    0.123868
   2 O :    0.470667
   3 O :    0.470667
   4 C :    0.482695
   5 C :    0.482696
   6 H :   -0.334787
   7 H :   -0.334786
   8 H :   -0.333503
   9 H :   -0.384807
  10 H :   -0.384808
  11 H :   -0.333504

  Mayer bond orders larger than 0.100000
B(  0-S ,  1-O ) :   1.4821 B(  0-S ,  2-O ) :   0.7443 B(  0-S ,  3-O ) :   0.7443
B(  2-O ,  4-C ) :   0.8221 B(  3-O ,  5-C ) :   0.8221 B(  4-C ,  6-H ) :   0.7167
B(  4-C ,  8-H ) :   0.9145 B(  4-C ,  9-H ) :   0.8886 B(  5-C ,  7-H ) :   0.7167
B(  5-C , 10-H ) :   0.8886 B(  5-C , 11-H ) :   0.9145

MP2 TOTAL ENERGY:     -702.811871541 Eh
FINAL SINGLE POINT ENERGY      -702.811871541385

DIPOLE MOMENT
-------------
                                X             Y             Z
Electronic contribution:      0.00000      -6.54079      -3.09432
Nuclear contribution   :     -0.00000       7.57274       3.17715
                        -----------------------------------------
Total Dipole Moment    :     -0.00000       1.03195       0.08283
                        -----------------------------------------
Magnitude (a.u.)       :      1.03527
Magnitude (Debye)      :      2.63144

Rotational constants in cm-1:     0.136335     0.085030     0.072170
Rotational constants in MHz :  4087.234852  2549.135686  2163.590000

                             ****ORCA TERMINATED NORMALLY****
TOTAL RUN TIME: 0 days 0 hours 17 minutes 48 seconds 573 msec
