                         Program Version 5.0.4 -  RELEASE  -
|  1> !ri-mp2 aug-cc-pvqz aug-cc-pvqz/c tightscf
|  2> %pal nprocs 16 end
|  3> %maxcore 3800
|  4>
|  5> * xyz 0 1
|  6> S      0.000000    1.198969   -1.022088
|  7> O     -0.000019    2.525292   -0.313898
|  8> C     -1.379883    0.233902   -0.310543
|  9> C     -1.827639   -0.916094   -0.948304
| 10> C     -2.903944   -1.613131   -0.411977
| 11> C     -3.530081   -1.148516    0.740491
| 12> C     -3.084519    0.016906    1.355299
| 13> C     -2.005880    0.718377    0.827890
| 14> C      1.379888    0.233926   -0.310531
| 15> C      2.005793    0.718340    0.827976
| 16> C      3.084431    0.016873    1.355398
| 17> C      3.530079   -1.148482    0.740528
| 18> C      2.904037   -1.613032   -0.412019
| 19> C      1.827738   -0.915998   -0.948359
| 20> H     -1.351533   -1.264663   -1.855542
| 21> H     -3.259487   -2.510929   -0.899140
| 22> H     -4.371765   -1.688895    1.151883
| 23> H     -3.580077    0.384290    2.243835
| 24> H     -1.652216    1.637972    1.273661
| 25> H      1.652066    1.637890    1.273792
| 26> H      3.579920    0.384210    2.243992
| 27> H      4.371760   -1.688857    1.151931
| 28> H      3.259655   -2.510772   -0.899234
| 29> H      1.351714   -1.264502   -1.855665
| 30> *
| 31>
| 32>                          ****END OF INPUT****

CARTESIAN COORDINATES (ANGSTROEM)
---------------------------------
  S      0.000000    1.198969   -1.022088
  O     -0.000019    2.525292   -0.313898
  C     -1.379883    0.233902   -0.310543
  C     -1.827639   -0.916094   -0.948304
  C     -2.903944   -1.613131   -0.411977
  C     -3.530081   -1.148516    0.740491
  C     -3.084519    0.016906    1.355299
  C     -2.005880    0.718377    0.827890
  C      1.379888    0.233926   -0.310531
  C      2.005793    0.718340    0.827976
  C      3.084431    0.016873    1.355398
  C      3.530079   -1.148482    0.740528
  C      2.904037   -1.613032   -0.412019
  C      1.827738   -0.915998   -0.948359
  H     -1.351533   -1.264663   -1.855542
  H     -3.259487   -2.510929   -0.899140
  H     -4.371765   -1.688895    1.151883
  H     -3.580077    0.384290    2.243835
  H     -1.652216    1.637972    1.273661
  H      1.652066    1.637890    1.273792
  H      3.579920    0.384210    2.243992
  H      4.371760   -1.688857    1.151931
  H      3.259655   -2.510772   -0.899234
  H      1.351714   -1.264502   -1.855665

 Total Charge           Charge          ....    0
 Multiplicity           Mult            ....    1
 Number of Electrons    NEL             ....  106
 Basis Dimension        Dim             .... 1584

ORBITAL ENERGIES
----------------

  NO   OCC          E(Eh)            E(eV)
   0   2.0000     -92.076063     -2505.5171
   1   2.0000     -20.509722      -558.0979
   2   2.0000     -11.269954      -306.6710
   3   2.0000     -11.269946      -306.6708
   4   2.0000     -11.255544      -306.2789
   5   2.0000     -11.255543      -306.2789
   6   2.0000     -11.249290      -306.1087
   7   2.0000     -11.249290      -306.1087
   8   2.0000     -11.248120      -306.0769
   9   2.0000     -11.248119      -306.0769
  10   2.0000     -11.247326      -306.0553
  11   2.0000     -11.247325      -306.0553
  12   2.0000     -11.245837      -306.0148
  13   2.0000     -11.245836      -306.0148
  14   2.0000      -9.062538      -246.6042
  15   2.0000      -6.744513      -183.5275
  16   2.0000      -6.744418      -183.5249
  17   2.0000      -6.743090      -183.4888
  18   2.0000      -1.338877       -36.4327
  19   2.0000      -1.175251       -31.9802
  20   2.0000      -1.169666       -31.8282
  21   2.0000      -1.061893       -28.8956
  22   2.0000      -1.033273       -28.1168
  23   2.0000      -1.032128       -28.0856
  24   2.0000      -1.030899       -28.0522
  25   2.0000      -0.927422       -25.2364
  26   2.0000      -0.847759       -23.0687
  27   2.0000      -0.842647       -22.9296
  28   2.0000      -0.834699       -22.7133
  29   2.0000      -0.797168       -21.6921
  30   2.0000      -0.723606       -19.6903
  31   2.0000      -0.710585       -19.3360
  32   2.0000      -0.652392       -17.7525
  33   2.0000      -0.649889       -17.6844
  34   2.0000      -0.641284       -17.4502
  35   2.0000      -0.640969       -17.4417
  36   2.0000      -0.609971       -16.5982
  37   2.0000      -0.609138       -16.5755
  38   2.0000      -0.602013       -16.3816
  39   2.0000      -0.601234       -16.3604
  40   2.0000      -0.547927       -14.9099
  41   2.0000      -0.531890       -14.4735
  42   2.0000      -0.526043       -14.3144
  43   2.0000      -0.517090       -14.0707
  44   2.0000      -0.511233       -13.9114
  45   2.0000      -0.509980       -13.8773
  46   2.0000      -0.509451       -13.8629
  47   2.0000      -0.427544       -11.6341
  48   2.0000      -0.402746       -10.9593
  49   2.0000      -0.355312        -9.6685
  50   2.0000      -0.349190        -9.5019
  51   2.0000      -0.345866        -9.4115
  52   2.0000      -0.342706        -9.3255
  53   0.0000       0.020204         0.5498
  54   0.0000       0.023483         0.6390
  55   0.0000       0.026019         0.7080
  56   0.0000       0.034362         0.9350
  57   0.0000       0.034583         0.9410

MULLIKEN ATOMIC CHARGES
-----------------------
   0 S :    1.457535
   1 O :   -1.307969
   2 C :    0.117137
   3 C :   -0.314565
   4 C :   -0.308572
   5 C :   -0.330510
   6 C :   -0.328493
   7 C :   -0.468471
   8 C :    0.117584
   9 C :   -0.468940
  10 C :   -0.328156
  11 C :   -0.330766
  12 C :   -0.308381
  13 C :   -0.315330
  14 H :    0.356125
  15 H :    0.239050
  16 H :    0.356336
  17 H :    0.236193
  18 H :    0.371114
  19 H :    0.371069
  20 H :    0.236119
  21 H :    0.356335
  22 H :    0.239054
  23 H :    0.356500
Sum of atomic charges:   -0.0000000

LOEWDIN ATOMIC CHARGES
----------------------
   0 S :    0.701682
   1 O :    0.122364
   2 C :   -0.311447
   3 C :    0.259637
   4 C :    0.342912
   5 C :    0.343017
   6 C :    0.351395
   7 C :    0.266570
   8 C :   -0.311454
   9 C :    0.266572
  10 C :    0.351397
  11 C :    0.343017
  12 C :    0.342912
  13 C :    0.259634
  14 H :   -0.336542
  15 H :   -0.321097
  16 H :   -0.320983
  17 H :   -0.319944
  18 H :   -0.365541
  19 H :   -0.365533
  20 H :   -0.319944
  21 H :   -0.320983
  22 H :   -0.321097
  23 H :   -0.336542

  Mayer bond orders larger than 0.100000
B(  0-S ,  1-O ) :   1.1414 B(  0-S ,  2-C ) :   0.7933 B(  0-S ,  3-C ) :  -0.2531
B(  0-S ,  7-C ) :  -0.1020 B(  0-S ,  8-C ) :   0.7930 B(  0-S ,  9-C ) :  -0.1020
B(  0-S , 13-C ) :  -0.2530 B(  1-O ,  2-C ) :  -0.2008 B(  1-O ,  8-C ) :  -0.2007
B(  2-C ,  3-C ) :   0.8887 B(  2-C ,  4-C ) :  -0.3759 B(  2-C ,  6-C ) :  -0.3450
B(  2-C ,  7-C ) :   1.0538 B(  2-C , 14-H ) :  -0.1034 B(  3-C ,  4-C ) :   1.3913
B(  3-C ,  6-C ) :   0.1183 B(  3-C , 14-H ) :   0.8933 B(  3-C , 15-H ) :  -0.1139
B(  4-C ,  5-C ) :   1.1606 B(  4-C ,  7-C ) :   0.1233 B(  4-C , 15-H ) :   1.1238
B(  5-C ,  6-C ) :   1.1647 B(  5-C , 15-H ) :  -0.1002 B(  5-C , 16-H ) :   0.9825
B(  6-C ,  7-C ) :   1.3306 B(  6-C , 17-H ) :   1.1391 B(  7-C , 17-H ) :  -0.1307
B(  7-C , 18-H ) :   0.8661 B(  8-C ,  9-C ) :   1.0546 B(  8-C , 10-C ) :  -0.3454
B(  8-C , 12-C ) :  -0.3763 B(  8-C , 13-C ) :   0.8891 B(  8-C , 23-H ) :  -0.1032
B(  9-C , 10-C ) :   1.3306 B(  9-C , 12-C ) :   0.1232 B(  9-C , 19-H ) :   0.8660
B(  9-C , 20-H ) :  -0.1306 B( 10-C , 11-C ) :   1.1649 B( 10-C , 13-C ) :   0.1182
B( 10-C , 20-H ) :   1.1391 B( 11-C , 12-C ) :   1.1605 B( 11-C , 21-H ) :   0.9825
B( 11-C , 22-H ) :  -0.1003 B( 12-C , 13-C ) :   1.3920 B( 12-C , 22-H ) :   1.1236
B( 13-C , 22-H ) :  -0.1135 B( 13-C , 23-H ) :   0.8926

MP2 TOTAL ENERGY:     -935.299166868 Eh
FINAL SINGLE POINT ENERGY      -935.299166868281

DIPOLE MOMENT
-------------
                                X             Y             Z
Electronic contribution:     -0.00000       5.01778      -3.58910
Nuclear contribution   :      0.00004      -6.77274       3.79519
                        -----------------------------------------
Total Dipole Moment    :      0.00003      -1.75496       0.20609
                        -----------------------------------------
Magnitude (a.u.)       :      1.76702
Magnitude (Debye)      :      4.49141

Rotational constants in cm-1:     0.036271     0.013947     0.012466
Rotational constants in MHz :  1087.377472   418.132866   373.724652

                             ****ORCA TERMINATED NORMALLY****
TOTAL RUN TIME: 0 days 4 hours 12 minutes 52 seconds 6 msec
