                         Program Version 5.0.4 -  RELEASE  -
|  1> !ri-mp2 aug-cc-pvqz aug-cc-pvqz/c tightscf
|  2> %pal nprocs 16 end
|  3>
|  4> * xyz 0 1
|  5> C     -1.974833    0.997968    0.019134
|  6> N     -1.035538   -0.121579   -0.049562
|  7> C     -1.596834   -1.468210    0.005922
|  8> C      0.285310    0.130885   -0.019832
|  9> S      1.322882   -1.336523    0.009919
| 10> S      0.951587    1.656130    0.001950
| 11> H     -1.857982    1.544153    0.955692
| 12> H     -1.791240    1.695551   -0.795852
| 13> H     -2.985427    0.605274   -0.050728
| 14> H     -0.950304   -2.175190   -0.507850
| 15> H     -1.737185   -1.803323    1.037130
| 16> H     -2.560576   -1.471415   -0.497443
| 17> H      2.458114   -0.621579   -0.015256
| 18> *
| 19>
| 20>                          ****END OF INPUT****

CARTESIAN COORDINATES (ANGSTROEM)
---------------------------------
  C     -1.974833    0.997968    0.019134
  N     -1.035538   -0.121579   -0.049562
  C     -1.596834   -1.468210    0.005922
  C      0.285310    0.130885   -0.019832
  S      1.322882   -1.336523    0.009919
  S      0.951587    1.656130    0.001950
  H     -1.857982    1.544153    0.955692
  H     -1.791240    1.695551   -0.795852
  H     -2.985427    0.605274   -0.050728
  H     -0.950304   -2.175190   -0.507850
  H     -1.737185   -1.803323    1.037130
  H     -2.560576   -1.471415   -0.497443
  H      2.458114   -0.621579   -0.015256

 Total Charge           Charge          ....    0
 Multiplicity           Mult            ....    1
 Number of Electrons    NEL             ....   64
 Basis Dimension        Dim             ....  810

ORBITAL ENERGIES
----------------

  NO   OCC          E(Eh)            E(eV)
   0   2.0000     -91.983983     -2503.0114
   1   2.0000     -91.898216     -2500.6776
   2   2.0000     -15.624371      -425.1608
   3   2.0000     -11.373706      -309.4943
   4   2.0000     -11.285404      -307.0914
   5   2.0000     -11.269805      -306.6670
   6   2.0000      -8.986760      -244.5422
   7   2.0000      -8.902572      -242.2513
   8   2.0000      -6.668153      -181.4497
   9   2.0000      -6.667280      -181.4259
  10   2.0000      -6.666454      -181.4034
  11   2.0000      -6.584214      -179.1656
  12   2.0000      -6.582598      -179.1216
  13   2.0000      -6.581952      -179.1040
  14   2.0000      -1.304575       -35.4993
  15   2.0000      -1.072271       -29.1780
  16   2.0000      -1.008684       -27.4477
  17   2.0000      -0.950149       -25.8549
  18   2.0000      -0.916433       -24.9374
  19   2.0000      -0.750249       -20.4153
  20   2.0000      -0.669966       -18.2307
  21   2.0000      -0.667978       -18.1766
  22   2.0000      -0.634869       -17.2757
  23   2.0000      -0.584581       -15.9073
  24   2.0000      -0.572652       -15.5827
  25   2.0000      -0.559295       -15.2192
  26   2.0000      -0.544751       -14.8234
  27   2.0000      -0.495284       -13.4774
  28   2.0000      -0.479620       -13.0511
  29   2.0000      -0.388712       -10.5774
  30   2.0000      -0.327795        -8.9197
  31   2.0000      -0.323508        -8.8031
  32   0.0000       0.019962         0.5432
  33   0.0000       0.031881         0.8675
  34   0.0000       0.033845         0.9210
  35   0.0000       0.038350         1.0435
  36   0.0000       0.048109         1.3091

MULLIKEN ATOMIC CHARGES
-----------------------
   0 C :   -0.795226
   1 N :   -0.081219
   2 C :   -0.778810
   3 C :   -0.067960
   4 S :    0.024692
   5 S :   -0.234658
   6 H :    0.317469
   7 H :    0.313454
   8 H :    0.355430
   9 H :    0.309877
  10 H :    0.307083
  11 H :    0.310690
  12 H :    0.019179
Sum of atomic charges:    0.0000000

LOEWDIN ATOMIC CHARGES
----------------------
   0 C :    0.695823
   1 N :    0.231774
   2 C :    0.714401
   3 C :   -1.423130
   4 S :    1.539492
   5 S :    0.971329
   6 H :   -0.301269
   7 H :   -0.323568
   8 H :   -0.310199
   9 H :   -0.402809
  10 H :   -0.260718
  11 H :   -0.298426
  12 H :   -0.832698

  Mayer bond orders larger than 0.100000
B(  0-C ,  1-N ) :   0.7903 B(  0-C ,  6-H ) :   0.9104 B(  0-C ,  7-H ) :   0.9371
B(  0-C ,  8-H ) :   0.8475 B(  1-N ,  2-C ) :   0.7950 B(  1-N ,  3-C ) :   1.0657
B(  1-N ,  4-S ) :  -0.1216 B(  2-C ,  9-H ) :   0.9095 B(  2-C , 10-H ) :   0.9319
B(  2-C , 11-H ) :   0.9393 B(  3-C ,  4-S ) :   0.9084 B(  3-C ,  5-S ) :   1.4880
B(  3-C , 12-H ) :  -0.1210 B(  4-S , 12-H ) :   1.1194

MP2 TOTAL ENERGY:     -968.446037489 Eh
FINAL SINGLE POINT ENERGY      -968.446037488884

DIPOLE MOMENT
-------------
                                X             Y             Z
Electronic contribution:      8.14229       1.07003      -0.12291
Nuclear contribution   :     -9.42097      -2.21829       0.12398
                        -----------------------------------------
Total Dipole Moment    :     -1.27868      -1.14826       0.00107
                        -----------------------------------------
Magnitude (a.u.)       :      1.71858
Magnitude (Debye)      :      4.36828

Rotational constants in cm-1:     0.083076     0.078988     0.041123
Rotational constants in MHz :  2490.552895  2367.989346  1232.826987

                             ****ORCA TERMINATED NORMALLY****
TOTAL RUN TIME: 0 days 0 hours 19 minutes 56 seconds 998 msec
