                         Program Version 5.0.4 -  RELEASE  -
|  1> !ri-mp2 aug-cc-pvqz aug-cc-pvqz/c tightscf
|  2> %pal nprocs 16 end
|  3>
|  4> * xyz 0 1
|  5> Cl    0.000000     1.489376   -0.216532
|  6> Cl    0.000000    -1.489376   -0.216532
|  7> C     0.000000     0.000000    0.769333
|  8> H    -0.896869     0.000000    1.373046
|  9> H     0.896869     0.000000    1.373046
| 10> *
| 11>
| 12>                          ****END OF INPUT****

CARTESIAN COORDINATES (ANGSTROEM)
---------------------------------
  Cl     0.000000    1.489376   -0.216532
  Cl     0.000000   -1.489376   -0.216532
  C      0.000000    0.000000    0.769333
  H     -0.896869    0.000000    1.373046
  H      0.896869    0.000000    1.373046

 Total Charge           Charge          ....    0
 Multiplicity           Mult            ....    1
 Number of Electrons    NEL             ....   42
 Basis Dimension        Dim             ....  340

ORBITAL ENERGIES
----------------

  NO   OCC          E(Eh)            E(eV)
   0   2.0000    -104.848763     -2853.0799
   1   2.0000    -104.848763     -2853.0799
   2   2.0000     -11.367273      -309.3192
   3   2.0000     -10.574010      -287.7334
   4   2.0000     -10.574002      -287.7332
   5   2.0000      -8.041048      -218.8080
   6   2.0000      -8.041046      -218.8080
   7   2.0000      -8.039278      -218.7599
   8   2.0000      -8.039277      -218.7599
   9   2.0000      -8.039190      -218.7575
  10   2.0000      -8.039189      -218.7575
  11   2.0000      -1.186905       -32.2973
  12   2.0000      -1.094914       -29.7941
  13   2.0000      -0.898736       -24.4558
  14   2.0000      -0.677483       -18.4352
  15   2.0000      -0.612478       -16.6664
  16   2.0000      -0.582475       -15.8500
  17   2.0000      -0.474179       -12.9031
  18   2.0000      -0.470606       -12.8059
  19   2.0000      -0.449194       -12.2232
  20   2.0000      -0.447877       -12.1874
  21   0.0000       0.026317         0.7161
  22   0.0000       0.038390         1.0447
  23   0.0000       0.054253         1.4763
  24   0.0000       0.056053         1.5253
  25   0.0000       0.095978         2.6117

MULLIKEN ATOMIC CHARGES
-----------------------
   0 Cl:   -0.161286
   1 Cl:   -0.161286
   2 C :   -0.417652
   3 H :    0.370112
   4 H :    0.370112
Sum of atomic charges:    0.0000000

LOEWDIN ATOMIC CHARGES
----------------------
   0 Cl:    1.006479
   1 Cl:    1.006479
   2 C :   -0.901007
   3 H :   -0.555975
   4 H :   -0.555975

  Mayer bond orders larger than 0.100000
B(  0-Cl,  2-C ) :   0.9369 B(  1-Cl,  2-C ) :   0.9369 B(  2-C ,  3-H ) :   0.8170
B(  2-C ,  4-H ) :   0.8170

MP2 TOTAL ENERGY:     -958.697184543 Eh
FINAL SINGLE POINT ENERGY      -958.697184542771

DIPOLE MOMENT
-------------
                                X             Y             Z
Electronic contribution:     -0.00000       0.00000      -2.39542
Nuclear contribution   :      0.00000       0.00000       3.12576
                        -----------------------------------------
Total Dipole Moment    :     -0.00000       0.00000       0.73034
                        -----------------------------------------
Magnitude (a.u.)       :      0.73034
Magnitude (Debye)      :      1.85637

Rotational constants in cm-1:     1.072093     0.106084     0.098359
Rotational constants in MHz : 32140.526339  3180.323379  2948.727174

                             ****ORCA TERMINATED NORMALLY****
TOTAL RUN TIME: 0 days 0 hours 1 minutes 40 seconds 935 msec
