                         Program Version 5.0.4 -  RELEASE  -
|  1> !ri-mp2 aug-cc-pvqz aug-cc-pvqz/c tightscf
|  2> %pal nprocs 16 end
|  3>
|  4> * xyz 0 1
|  5> S     -0.802200    0.738403    0.006465
|  6> S     -2.555014   -0.375391   -0.096171
|  7> O      2.866754   -0.880415   -0.028233
|  8> O      2.068290    1.188928    0.002883
|  9> C      0.458292   -0.598704    0.045623
| 10> C      1.844967    0.013992    0.003269
| 11> H      0.311493   -1.260107   -0.808448
| 12> H      0.346394   -1.185656    0.958254
| 13> H      2.539718   -1.788027   -0.031196
| 14> H     -2.782096   -0.534219    1.226126
| 15> *
| 16>
| 17>                          ****END OF INPUT****

CARTESIAN COORDINATES (ANGSTROEM)
---------------------------------
  S     -0.802200    0.738403    0.006465
  S     -2.555014   -0.375391   -0.096171
  O      2.866754   -0.880415   -0.028233
  O      2.068290    1.188928    0.002883
  C      0.458292   -0.598704    0.045623
  C      1.844967    0.013992    0.003269
  H      0.311493   -1.260107   -0.808448
  H      0.346394   -1.185656    0.958254
  H      2.539718   -1.788027   -0.031196
  H     -2.782096   -0.534219    1.226126

 Total Charge           Charge          ....    0
 Multiplicity           Mult            ....    1
 Number of Electrons    NEL             ....   64
 Basis Dimension        Dim             ....  672

ORBITAL ENERGIES
----------------

  NO   OCC          E(Eh)            E(eV)
   0   2.0000     -91.998239     -2503.3993
   1   2.0000     -91.994853     -2503.3072
   2   2.0000     -20.627650      -561.3069
   3   2.0000     -20.561546      -559.5081
   4   2.0000     -11.406091      -310.3755
   5   2.0000     -11.303280      -307.5779
   6   2.0000      -8.996978      -244.8202
   7   2.0000      -8.995012      -244.7667
   8   2.0000      -6.678026      -181.7183
   9   2.0000      -6.676934      -181.6886
  10   2.0000      -6.676259      -181.6703
  11   2.0000      -6.675838      -181.6588
  12   2.0000      -6.675326      -181.6449
  13   2.0000      -6.674406      -181.6198
  14   2.0000      -1.477100       -40.1939
  15   2.0000      -1.383755       -37.6539
  16   2.0000      -1.101521       -29.9739
  17   2.0000      -1.009949       -27.4821
  18   2.0000      -0.874199       -23.7882
  19   2.0000      -0.831991       -22.6396
  20   2.0000      -0.738328       -20.0909
  21   2.0000      -0.680443       -18.5158
  22   2.0000      -0.675105       -18.3705
  23   2.0000      -0.621041       -16.8994
  24   2.0000      -0.602865       -16.4048
  25   2.0000      -0.572404       -15.5759
  26   2.0000      -0.527676       -14.3588
  27   2.0000      -0.498140       -13.5551
  28   2.0000      -0.475890       -12.9496
  29   2.0000      -0.468748       -12.7553
  30   2.0000      -0.389280       -10.5928
  31   2.0000      -0.378233       -10.2922
  32   0.0000       0.014924         0.4061
  33   0.0000       0.027748         0.7551
  34   0.0000       0.034876         0.9490
  35   0.0000       0.049545         1.3482
  36   0.0000       0.051135         1.3915

MULLIKEN ATOMIC CHARGES
-----------------------
   0 S :    0.031076
   1 S :   -0.236174
   2 O :   -0.719887
   3 O :   -0.709608
   4 C :   -0.526295
   5 C :    1.103703
   6 H :    0.276787
   7 H :    0.279262
   8 H :    0.375178
   9 H :    0.125957
Sum of atomic charges:    0.0000000

LOEWDIN ATOMIC CHARGES
----------------------
   0 S :    0.713805
   1 S :    1.017994
   2 O :    1.240265
   3 O :    0.653184
   4 C :   -0.012669
   5 C :   -1.130582
   6 H :   -0.397133
   7 H :   -0.385394
   8 H :   -0.813500
   9 H :   -0.885971

  Mayer bond orders larger than 0.100000
B(  0-S ,  1-S ) :   1.1500 B(  0-S ,  4-C ) :   0.8893 B(  1-S ,  9-H ) :   0.9661
B(  2-O ,  5-C ) :   0.7996 B(  2-O ,  8-H ) :   0.8404 B(  3-O ,  5-C ) :   1.5455
B(  4-C ,  5-C ) :   1.0172 B(  4-C ,  6-H ) :   0.8900 B(  4-C ,  7-H ) :   0.8794

MP2 TOTAL ENERGY:    -1024.250808445 Eh
FINAL SINGLE POINT ENERGY     -1024.250808445003

DIPOLE MOMENT
-------------
                                X             Y             Z
Electronic contribution:     -1.13568       2.76229      -0.94352
Nuclear contribution   :      0.57779      -4.62150       1.30398
                        -----------------------------------------
Total Dipole Moment    :     -0.55789      -1.85921       0.36045
                        -----------------------------------------
Magnitude (a.u.)       :      1.97429
Magnitude (Debye)      :      5.01825

Rotational constants in cm-1:     0.237325     0.034318     0.030348
Rotational constants in MHz :  7114.824296  1028.817863   909.814518

                             ****ORCA TERMINATED NORMALLY****
TOTAL RUN TIME: 0 days 0 hours 15 minutes 52 seconds 10 msec
