                         Program Version 5.0.4 -  RELEASE  -
|  1> !ri-mp2 aug-cc-pvqz aug-cc-pvqz/c tightscf
|  2> %pal nprocs 16 end
|  3>
|  4> * xyz 0 1
|  5> C     0.000000     0.000000    0.828233
|  6> C     0.000000     1.221205    0.021726
|  7> C     0.000000    -1.221205    0.021726
|  8> H     0.879349     0.000000    1.476388
|  9> H    -0.879349     0.000000    1.476388
| 10> N     0.000000     2.195867   -0.584492
| 11> N     0.000000    -2.195867   -0.584492
| 12> *
| 13>
| 14>                          ****END OF INPUT****

CARTESIAN COORDINATES (ANGSTROEM)
---------------------------------
  C      0.000000    0.000000    0.828233
  C      0.000000    1.221205    0.021726
  C      0.000000   -1.221205    0.021726
  H      0.879349    0.000000    1.476388
  H     -0.879349    0.000000    1.476388
  N      0.000000    2.195867   -0.584492
  N      0.000000   -2.195867   -0.584492

 Total Charge           Charge          ....    0
 Multiplicity           Mult            ....    1
 Number of Electrons    NEL             ....   34
 Basis Dimension        Dim             ....  492

ORBITAL ENERGIES
----------------

  NO   OCC          E(Eh)            E(eV)
   0   2.0000     -15.603760      -424.5999
   1   2.0000     -15.603759      -424.5999
   2   2.0000     -11.358731      -309.0868
   3   2.0000     -11.308668      -307.7245
   4   2.0000     -11.308657      -307.7242
   5   2.0000      -1.264124       -34.3986
   6   2.0000      -1.250356       -34.0239
   7   2.0000      -1.114720       -30.3331
   8   2.0000      -0.794619       -21.6227
   9   2.0000      -0.733722       -19.9656
  10   2.0000      -0.698978       -19.0202
  11   2.0000      -0.593317       -16.1450
  12   2.0000      -0.588053       -16.0017
  13   2.0000      -0.512189       -13.9374
  14   2.0000      -0.508266       -13.8306
  15   2.0000      -0.497049       -13.5254
  16   2.0000      -0.486331       -13.2337
  17   0.0000       0.013761         0.3744
  18   0.0000       0.030212         0.8221
  19   0.0000       0.047068         1.2808
  20   0.0000       0.050610         1.3772
  21   0.0000       0.079390         2.1603

MULLIKEN ATOMIC CHARGES
-----------------------
   0 C :   -0.314732
   1 C :    0.381792
   2 C :    0.381792
   3 H :    0.342668
   4 H :    0.342668
   5 N :   -0.567094
   6 N :   -0.567094
Sum of atomic charges:   -0.0000000

LOEWDIN ATOMIC CHARGES
----------------------
   0 C :    0.354463
   1 C :   -0.273217
   2 C :   -0.273217
   3 H :   -0.323616
   4 H :   -0.323616
   5 N :    0.419602
   6 N :    0.419602

  Mayer bond orders larger than 0.100000
B(  0-C ,  1-C ) :   1.0370 B(  0-C ,  2-C ) :   1.0370 B(  0-C ,  3-H ) :   0.8405
B(  0-C ,  4-H ) :   0.8405 B(  1-C ,  2-C ) :  -0.1328 B(  1-C ,  5-N ) :   2.6172
B(  2-C ,  6-N ) :   2.6172

MP2 TOTAL ENERGY:     -224.627375007 Eh
FINAL SINGLE POINT ENERGY      -224.627375006941

DIPOLE MOMENT
-------------
                                X             Y             Z
Electronic contribution:     -0.00000      -0.00000      -1.24873
Nuclear contribution   :      0.00000       0.00000       2.84743
                        -----------------------------------------
Total Dipole Moment    :     -0.00000      -0.00000       1.59870
                        -----------------------------------------
Magnitude (a.u.)       :      1.59870
Magnitude (Debye)      :      4.06357

Rotational constants in cm-1:     0.712965     0.097747     0.087350
Rotational constants in MHz : 21374.153835  2930.369942  2618.691077

                             ****ORCA TERMINATED NORMALLY****
TOTAL RUN TIME: 0 days 0 hours 3 minutes 2 seconds 854 msec
