                         Program Version 5.0.4 -  RELEASE  -
|  1> !ri-mp2 aug-cc-pvqz aug-cc-pvqz/c tightscf
|  2> %pal nprocs 16 end
|  3>
|  4> * xyz 0 1
|  5> C     -0.259600   -0.785887    1.366100
|  6> C     -0.259600   -0.785887   -1.366100
|  7> O      1.100868    1.072126    0.000000
|  8> S     -0.259600    0.429008    0.000000
|  9> H     -0.208786   -0.213648    2.289139
| 10> H      0.618458   -1.422179    1.270379
| 11> H     -1.178748   -1.369415    1.337781
| 12> H     -1.178748   -1.369415   -1.337781
| 13> H      0.618458   -1.422179   -1.270379
| 14> H     -0.208786   -0.213648   -2.289139
| 15> *
| 16>
| 17>                          ****END OF INPUT****

CARTESIAN COORDINATES (ANGSTROEM)
---------------------------------
  C     -0.259600   -0.785887    1.366100
  C     -0.259600   -0.785887   -1.366100
  O      1.100868    1.072126    0.000000
  S     -0.259600    0.429008    0.000000
  H     -0.208786   -0.213648    2.289139
  H      0.618458   -1.422179    1.270379
  H     -1.178748   -1.369415    1.337781
  H     -1.178748   -1.369415   -1.337781
  H      0.618458   -1.422179   -1.270379
  H     -0.208786   -0.213648   -2.289139

 Total Charge           Charge          ....    0
 Multiplicity           Mult            ....    1
 Number of Electrons    NEL             ....   42
 Basis Dimension        Dim             ....  600

ORBITAL ENERGIES
----------------

  NO   OCC          E(Eh)            E(eV)
   0   2.0000     -92.067401     -2505.2814
   1   2.0000     -20.501654      -557.8784
   2   2.0000     -11.263422      -306.4933
   3   2.0000     -11.263410      -306.4930
   4   2.0000      -9.054237      -246.3783
   5   2.0000      -6.736369      -183.3059
   6   2.0000      -6.736081      -183.2981
   7   2.0000      -6.734748      -183.2618
   8   2.0000      -1.328390       -36.1473
   9   2.0000      -1.058461       -28.8022
  10   2.0000      -0.975276       -26.5386
  11   2.0000      -0.817897       -22.2561
  12   2.0000      -0.640282       -17.4230
  13   2.0000      -0.626362       -17.0442
  14   2.0000      -0.620017       -16.8715
  15   2.0000      -0.588548       -16.0152
  16   2.0000      -0.561210       -15.2713
  17   2.0000      -0.545597       -14.8465
  18   2.0000      -0.514257       -13.9936
  19   2.0000      -0.417334       -11.3562
  20   2.0000      -0.368421       -10.0253
  21   0.0000       0.021243         0.5781
  22   0.0000       0.031514         0.8575
  23   0.0000       0.037547         1.0217
  24   0.0000       0.042275         1.1504
  25   0.0000       0.053187         1.4473

MULLIKEN ATOMIC CHARGES
-----------------------
   0 C :   -1.006232
   1 C :   -1.006232
   2 O :   -1.147647
   3 S :    1.140346
   4 H :    0.390767
   5 H :    0.303385
   6 H :    0.315731
   7 H :    0.315731
   8 H :    0.303385
   9 H :    0.390767
Sum of atomic charges:    0.0000000

LOEWDIN ATOMIC CHARGES
----------------------
   0 C :    0.721630
   1 C :    0.721630
   2 O :    0.053794
   3 S :    0.646936
   4 H :   -0.364086
   5 H :   -0.352911
   6 H :   -0.354998
   7 H :   -0.354998
   8 H :   -0.352911
   9 H :   -0.364086

  Mayer bond orders larger than 0.100000
B(  0-C ,  3-S ) :   0.9754 B(  0-C ,  4-H ) :   0.8407 B(  0-C ,  5-H ) :   0.8814
B(  0-C ,  6-H ) :   0.8887 B(  1-C ,  3-S ) :   0.9754 B(  1-C ,  7-H ) :   0.8887
B(  1-C ,  8-H ) :   0.8814 B(  1-C ,  9-H ) :   0.8407 B(  2-O ,  3-S ) :   1.2320

MP2 TOTAL ENERGY:     -552.518355751 Eh
FINAL SINGLE POINT ENERGY      -552.518355750585

DIPOLE MOMENT
-------------
                                X             Y             Z
Electronic contribution:      0.37641       4.64367      -0.00000
Nuclear contribution   :     -1.52731      -6.06449      -0.00000
                        -----------------------------------------
Total Dipole Moment    :     -1.15090      -1.42081      -0.00000
                        -----------------------------------------
Magnitude (a.u.)       :      1.82846
Magnitude (Debye)      :      4.64758

Rotational constants in cm-1:     0.229602     0.224354     0.137283
Rotational constants in MHz :  6883.295052  6725.974372  4115.632158

                             ****ORCA TERMINATED NORMALLY****
TOTAL RUN TIME: 0 days 0 hours 11 minutes 11 seconds 873 msec
