                         Program Version 5.0.4 -  RELEASE  -
|  1> !ri-mp2 aug-cc-pvqz aug-cc-pvqz/c tightscf
|  2> %pal nprocs 16 end
|  3>
|  4> * xyz 0 1
|  5> C      0.000000    0.000000    0.591567
|  6> C      0.000000    0.000000   -0.591567
|  7> F      0.000000    0.000000    1.877004
|  8> F      0.000000    0.000000   -1.877004
|  9> *
| 10>
| 11>                          ****END OF INPUT****

CARTESIAN COORDINATES (ANGSTROEM)
---------------------------------
  C      0.000000    0.000000    0.591567
  C      0.000000    0.000000   -0.591567
  F      0.000000    0.000000    1.877004
  F      0.000000    0.000000   -1.877004

 Total Charge           Charge          ....    0
 Multiplicity           Mult            ....    1
 Number of Electrons    NEL             ....   30
 Basis Dimension        Dim             ....  320

ORBITAL ENERGIES
----------------

  NO   OCC          E(Eh)            E(eV)
   0   2.0000     -26.383145      -717.9219
   1   2.0000     -26.383144      -717.9218
   2   2.0000     -11.347151      -308.7717
   3   2.0000     -11.342990      -308.6584
   4   2.0000      -1.703461       -46.3535
   5   2.0000      -1.701521       -46.3007
   6   2.0000      -1.075320       -29.2610
   7   2.0000      -0.874926       -23.8079
   8   2.0000      -0.832676       -22.6583
   9   2.0000      -0.770424       -20.9643
  10   2.0000      -0.770424       -20.9643
  11   2.0000      -0.751451       -20.4480
  12   2.0000      -0.751451       -20.4480
  13   2.0000      -0.427995       -11.6463
  14   2.0000      -0.427995       -11.6463
  15   0.0000       0.046688         1.2704
  16   0.0000       0.046798         1.2734
  17   0.0000       0.071293         1.9400
  18   0.0000       0.071293         1.9400
  19   0.0000       0.090857         2.4723

MULLIKEN ATOMIC CHARGES
-----------------------
   0 C :    0.517820
   1 C :    0.517820
   2 F :   -0.517820
   3 F :   -0.517820
Sum of atomic charges:    0.0000000

LOEWDIN ATOMIC CHARGES
----------------------
   0 C :   -0.670048
   1 C :   -0.670048
   2 F :    0.670048
   3 F :    0.670048

  Mayer bond orders larger than 0.100000
B(  0-C ,  1-C ) :   2.9015 B(  0-C ,  2-F ) :   0.6684 B(  0-C ,  3-F ) :   0.1425
B(  1-C ,  2-F ) :   0.1425 B(  1-C ,  3-F ) :   0.6684

MP2 TOTAL ENERGY:     -275.453182124 Eh
FINAL SINGLE POINT ENERGY      -275.453182123590

DIPOLE MOMENT
-------------
                                X             Y             Z
Electronic contribution:      0.00000      -0.00000       0.00000
Nuclear contribution   :      0.00000       0.00000       0.00000
                        -----------------------------------------
Total Dipole Moment    :      0.00000      -0.00000       0.00000
                        -----------------------------------------
Magnitude (a.u.)       :      0.00000
Magnitude (Debye)      :      0.00000

Rotational constants in cm-1:     0.000000     0.118489     0.118489
Rotational constants in MHz :     0.000000  3552.208308  3552.208308

                             ****ORCA TERMINATED NORMALLY****
TOTAL RUN TIME: 0 days 0 hours 1 minutes 16 seconds 470 msec
