                         Program Version 5.0.4 -  RELEASE  -
|  1> !ri-mp2 aug-cc-pvqz aug-cc-pvqz/c tightscf
|  2> %pal nprocs 16 end
|  3>
|  4> * xyz 0 1
|  5> C      0.340762    3.287075    0.629973
|  6> C     -0.340762   -3.287075    0.629973
|  7> C      0.695762    1.806304    0.586711
|  8> C     -0.695762   -1.806304    0.586711
|  9> S     -0.340762    0.974925   -0.694192
| 10> S      0.340762   -0.974925   -0.694192
| 11> H      0.525276    3.767942   -0.330968
| 12> H     -0.707346    3.438737    0.889650
| 13> H      0.949124    3.792561    1.381474
| 14> H     -0.525276   -3.767942   -0.330968
| 15> H      0.707346   -3.438737    0.889650
| 16> H     -0.949124   -3.792561    1.381474
| 17> H      0.508220    1.330131    1.547298
| 18> H      1.739469    1.654869    0.319514
| 19> H     -0.508220   -1.330131    1.547298
| 20> H     -1.739469   -1.654869    0.319514
| 21> *
| 22>
| 23>                          ****END OF INPUT****

CARTESIAN COORDINATES (ANGSTROEM)
---------------------------------
  C      0.340762    3.287075    0.629973
  C     -0.340762   -3.287075    0.629973
  C      0.695762    1.806304    0.586711
  C     -0.695762   -1.806304    0.586711
  S     -0.340762    0.974925   -0.694192
  S      0.340762   -0.974925   -0.694192
  H      0.525276    3.767942   -0.330968
  H     -0.707346    3.438737    0.889650
  H      0.949124    3.792561    1.381474
  H     -0.525276   -3.767942   -0.330968
  H      0.707346   -3.438737    0.889650
  H     -0.949124   -3.792561    1.381474
  H      0.508220    1.330131    1.547298
  H      1.739469    1.654869    0.319514
  H     -0.508220   -1.330131    1.547298
  H     -1.739469   -1.654869    0.319514

 Total Charge           Charge          ....    0
 Multiplicity           Mult            ....    1
 Number of Electrons    NEL             ....   66
 Basis Dimension        Dim             ....  948

ORBITAL ENERGIES
----------------

  NO   OCC          E(Eh)            E(eV)
   0   2.0000     -91.964815     -2502.4898
   1   2.0000     -91.964812     -2502.4898
   2   2.0000     -11.260175      -306.4050
   3   2.0000     -11.260175      -306.4049
   4   2.0000     -11.227862      -305.5257
   5   2.0000     -11.227862      -305.5257
   6   2.0000      -8.964657      -243.9407
   7   2.0000      -8.964469      -243.9356
   8   2.0000      -6.646058      -180.8484
   9   2.0000      -6.645709      -180.8389
  10   2.0000      -6.644752      -180.8129
  11   2.0000      -6.644696      -180.8114
  12   2.0000      -6.643961      -180.7914
  13   2.0000      -6.643961      -180.7914
  14   2.0000      -1.089957       -29.6592
  15   2.0000      -1.056835       -28.7579
  16   2.0000      -0.982331       -26.7306
  17   2.0000      -0.890021       -24.2187
  18   2.0000      -0.831104       -22.6155
  19   2.0000      -0.774758       -21.0822
  20   2.0000      -0.633535       -17.2394
  21   2.0000      -0.631354       -17.1800
  22   2.0000      -0.612766       -16.6742
  23   2.0000      -0.574120       -15.6226
  24   2.0000      -0.544452       -14.8153
  25   2.0000      -0.540485       -14.7073
  26   2.0000      -0.518071       -14.0974
  27   2.0000      -0.515451       -14.0261
  28   2.0000      -0.486659       -13.2427
  29   2.0000      -0.464378       -12.6364
  30   2.0000      -0.431952       -11.7540
  31   2.0000      -0.348911        -9.4943
  32   2.0000      -0.345629        -9.4050
  33   0.0000       0.025463         0.6929
  34   0.0000       0.028451         0.7742
  35   0.0000       0.034501         0.9388
  36   0.0000       0.037603         1.0232
  37   0.0000       0.045687         1.2432

MULLIKEN ATOMIC CHARGES
-----------------------
   0 C :   -0.849029
   1 C :   -0.849029
   2 C :   -0.383382
   3 C :   -0.383381
   4 S :   -0.127469
   5 S :   -0.127469
   6 H :    0.252427
   7 H :    0.260358
   8 H :    0.300495
   9 H :    0.252427
  10 H :    0.260358
  11 H :    0.300495
  12 H :    0.259658
  13 H :    0.286941
  14 H :    0.259658
  15 H :    0.286941
Sum of atomic charges:   -0.0000000

LOEWDIN ATOMIC CHARGES
----------------------
   0 C :    0.807852
   1 C :    0.807852
   2 C :    0.073433
   3 C :    0.073433
   4 S :    0.785388
   5 S :    0.785388
   6 H :   -0.309317
   7 H :   -0.308084
   8 H :   -0.292457
   9 H :   -0.309317
  10 H :   -0.308084
  11 H :   -0.292457
  12 H :   -0.375820
  13 H :   -0.380995
  14 H :   -0.375820
  15 H :   -0.380995

  Mayer bond orders larger than 0.100000
B(  0-C ,  2-C ) :   0.9393 B(  0-C ,  6-H ) :   0.9451 B(  0-C ,  7-H ) :   0.9371
B(  0-C ,  8-H ) :   0.9200 B(  1-C ,  3-C ) :   0.9393 B(  1-C ,  9-H ) :   0.9451
B(  1-C , 10-H ) :   0.9371 B(  1-C , 11-H ) :   0.9200 B(  2-C ,  4-S ) :   0.8629
B(  2-C , 12-H ) :   0.8860 B(  2-C , 13-H ) :   0.8719 B(  3-C ,  5-S ) :   0.8629
B(  3-C , 14-H ) :   0.8860 B(  3-C , 15-H ) :   0.8719 B(  4-S ,  5-S ) :   1.1402

MP2 TOTAL ENERGY:     -953.614387451 Eh
FINAL SINGLE POINT ENERGY      -953.614387451318

DIPOLE MOMENT
-------------
                                X             Y             Z
Electronic contribution:      0.00000       0.00000      -6.81672
Nuclear contribution   :      0.00000       0.00000       7.76381
                        -----------------------------------------
Total Dipole Moment    :      0.00000       0.00000       0.94709
                        -----------------------------------------
Magnitude (a.u.)       :      0.94709
Magnitude (Debye)      :      2.40732

Rotational constants in cm-1:     0.197079     0.032338     0.030451
Rotational constants in MHz :  5908.280506   969.482863   912.896750

                             ****ORCA TERMINATED NORMALLY****
TOTAL RUN TIME: 0 days 0 hours 31 minutes 44 seconds 936 msec
