                         Program Version 5.0.4 -  RELEASE  -
|  1> !ri-mp2 aug-cc-pvqz aug-cc-pvqz/c tightscf
|  2> %pal nprocs 16 end
|  3>
|  4> * xyz 0 1
|  5> S      1.785669    1.142219    0.000055
|  6> S      1.219674   -1.735364   -0.000051
|  7> N     -0.725832    0.098897   -0.000008
|  8> C      0.657309   -0.199787   -0.000005
|  9> C     -1.229803    1.357918   -0.000005
| 10> C     -1.636455   -0.913125   -0.000051
| 11> C     -1.716879    2.453129   -0.000088
| 12> C     -2.495073   -1.745684    0.000145
| 13> H      0.900322    2.162085    0.000064
| 14> H     -2.142646    3.424997   -0.000013
| 15> H     -3.236933   -2.503747   -0.000019
| 16> *
| 17>
| 18>                          ****END OF INPUT****

CARTESIAN COORDINATES (ANGSTROEM)
---------------------------------
  S      1.785669    1.142219    0.000055
  S      1.219674   -1.735364   -0.000051
  N     -0.725832    0.098897   -0.000008
  C      0.657309   -0.199787   -0.000005
  C     -1.229803    1.357918   -0.000005
  C     -1.636455   -0.913125   -0.000051
  C     -1.716879    2.453129   -0.000088
  C     -2.495073   -1.745684    0.000145
  H      0.900322    2.162085    0.000064
  H     -2.142646    3.424997   -0.000013
  H     -3.236933   -2.503747   -0.000019

 Total Charge           Charge          ....    0
 Multiplicity           Mult            ....    1
 Number of Electrons    NEL             ....   72
 Basis Dimension        Dim             ....  786

ORBITAL ENERGIES
----------------

  NO   OCC          E(Eh)            E(eV)
   0   2.0000     -92.004082     -2503.5584
   1   2.0000     -91.933246     -2501.6308
   2   2.0000     -15.693927      -427.0535
   3   2.0000     -11.406359      -310.3828
   4   2.0000     -11.307913      -307.7040
   5   2.0000     -11.290246      -307.2232
   6   2.0000     -11.264006      -306.5092
   7   2.0000     -11.247847      -306.0695
   8   2.0000      -9.006343      -245.0750
   9   2.0000      -8.937312      -243.1966
  10   2.0000      -6.687669      -181.9807
  11   2.0000      -6.686602      -181.9517
  12   2.0000      -6.685788      -181.9295
  13   2.0000      -6.618655      -180.1028
  14   2.0000      -6.617369      -180.0678
  15   2.0000      -6.616409      -180.0416
  16   2.0000      -1.360150       -37.0116
  17   2.0000      -1.115320       -30.3494
  18   2.0000      -1.072026       -29.1713
  19   2.0000      -1.027540       -27.9608
  20   2.0000      -0.983774       -26.7698
  21   2.0000      -0.857009       -23.3204
  22   2.0000      -0.849739       -23.1226
  23   2.0000      -0.736198       -20.0330
  24   2.0000      -0.720438       -19.6041
  25   2.0000      -0.683119       -18.5886
  26   2.0000      -0.654025       -17.7969
  27   2.0000      -0.542512       -14.7625
  28   2.0000      -0.527842       -14.3633
  29   2.0000      -0.476165       -12.9571
  30   2.0000      -0.453544       -12.3416
  31   2.0000      -0.442792       -12.0490
  32   2.0000      -0.421011       -11.4563
  33   2.0000      -0.376949       -10.2573
  34   2.0000      -0.350568        -9.5395
  35   2.0000      -0.343649        -9.3512
  36   0.0000       0.018817         0.5120
  37   0.0000       0.026170         0.7121
  38   0.0000       0.035067         0.9542
  39   0.0000       0.046450         1.2640
  40   0.0000       0.056938         1.5494

MULLIKEN ATOMIC CHARGES
-----------------------
   0 S :    0.175452
   1 S :   -0.095155
   2 N :   -0.263000
   3 C :   -0.259073
   4 C :    0.340403
   5 C :    0.269015
   6 C :   -0.519733
   7 C :   -0.477030
   8 H :    0.016487
   9 H :    0.398727
  10 H :    0.413907
Sum of atomic charges:    0.0000000

LOEWDIN ATOMIC CHARGES
----------------------
   0 S :    1.519393
   1 S :    0.999504
   2 N :    0.048648
   3 C :   -1.512614
   4 C :   -0.228253
   5 C :   -0.256412
   6 C :    0.588968
   7 C :    0.566594
   8 H :   -0.833896
   9 H :   -0.441170
  10 H :   -0.450763

  Mayer bond orders larger than 0.100000
B(  0-S ,  2-N ) :  -0.1208 B(  0-S ,  3-C ) :   0.9771 B(  0-S ,  8-H ) :   1.0022
B(  1-S ,  3-C ) :   1.6262 B(  1-S ,  5-C ) :   0.1084 B(  2-N ,  3-C ) :   1.0603
B(  2-N ,  4-C ) :   0.8596 B(  2-N ,  5-C ) :   0.8050 B(  2-N ,  6-C ) :  -0.2234
B(  2-N ,  7-C ) :  -0.2071 B(  4-C ,  6-C ) :   2.6592 B(  5-C ,  7-C ) :   2.6659
B(  6-C ,  9-H ) :   0.9343 B(  7-C , 10-H ) :   0.9139

MP2 TOTAL ENERGY:    -1041.959641050 Eh
FINAL SINGLE POINT ENERGY     -1041.959641050267

DIPOLE MOMENT
-------------
                                X             Y             Z
Electronic contribution:      3.52554      -1.76781      -0.00004
Nuclear contribution   :     -4.38230       2.97074       0.00003
                        -----------------------------------------
Total Dipole Moment    :     -0.85676       1.20293      -0.00001
                        -----------------------------------------
Magnitude (a.u.)       :      1.47685
Magnitude (Debye)      :      3.75385

Rotational constants in cm-1:     0.055702     0.049721     0.026271
Rotational constants in MHz :  1669.908751  1490.605498   787.585492

                             ****ORCA TERMINATED NORMALLY****
TOTAL RUN TIME: 0 days 0 hours 22 minutes 53 seconds 498 msec
