                         Program Version 5.0.4 -  RELEASE  -
|  1> !ri-mp2 aug-cc-pvqz aug-cc-pvqz/c tightscf
|  2> %pal nprocs 16 end
|  3>
|  4> * xyz 0 1
|  5> C     -0.123642    1.418300    0.182281
|  6> H     -0.576061    2.246214   -0.360785
|  7> H     -0.140157    1.675948    1.245871
|  8> C      1.285993    1.069039   -0.279367
|  9> H      2.029750    1.761665    0.115463
| 10> H      1.337092    1.113708   -1.368217
| 11> C      1.580762   -0.362867    0.182655
| 12> H      1.863237   -0.398574    1.234120
| 13> H      2.363223   -0.838008   -0.403468
| 14> C     -1.005756    0.186332    0.018862
| 15> O     -2.202205    0.172101   -0.051174
| 16> S      0.019776   -1.300161   -0.042511
| 17> *
| 18>
| 19>                          ****END OF INPUT****

CARTESIAN COORDINATES (ANGSTROEM)
---------------------------------
  C     -0.123642    1.418300    0.182281
  H     -0.576061    2.246214   -0.360785
  H     -0.140157    1.675948    1.245871
  C      1.285993    1.069039   -0.279367
  H      2.029750    1.761665    0.115463
  H      1.337092    1.113708   -1.368217
  C      1.580762   -0.362867    0.182655
  H      1.863237   -0.398574    1.234120
  H      2.363223   -0.838008   -0.403468
  C     -1.005756    0.186332    0.018862
  O     -2.202205    0.172101   -0.051174
  S      0.019776   -1.300161   -0.042511

 Total Charge           Charge          ....    0
 Multiplicity           Mult            ....    1
 Number of Electrons    NEL             ....   54
 Basis Dimension        Dim             ....  760

ORBITAL ENERGIES
----------------

  NO   OCC          E(Eh)            E(eV)
   0   2.0000     -91.967350     -2502.5588
   1   2.0000     -20.555274      -559.3374
   2   2.0000     -11.363152      -309.2071
   3   2.0000     -11.276710      -306.8549
   4   2.0000     -11.255512      -306.2781
   5   2.0000     -11.254861      -306.2603
   6   2.0000      -8.969910      -244.0837
   7   2.0000      -6.651035      -180.9839
   8   2.0000      -6.650400      -180.9666
   9   2.0000      -6.649580      -180.9443
  10   2.0000      -1.405239       -38.2385
  11   2.0000      -1.139389       -31.0043
  12   2.0000      -1.003864       -27.3165
  13   2.0000      -0.962815       -26.1995
  14   2.0000      -0.825492       -22.4628
  15   2.0000      -0.734115       -19.9763
  16   2.0000      -0.679717       -18.4961
  17   2.0000      -0.666045       -18.1240
  18   2.0000      -0.606500       -16.5037
  19   2.0000      -0.602083       -16.3835
  20   2.0000      -0.580612       -15.7993
  21   2.0000      -0.553181       -15.0528
  22   2.0000      -0.522857       -14.2277
  23   2.0000      -0.500523       -13.6199
  24   2.0000      -0.463550       -12.6138
  25   2.0000      -0.402911       -10.9638
  26   2.0000      -0.370402       -10.0792
  27   0.0000       0.020031         0.5451
  28   0.0000       0.030663         0.8344
  29   0.0000       0.031195         0.8489
  30   0.0000       0.040154         1.0926
  31   0.0000       0.050282         1.3682

MULLIKEN ATOMIC CHARGES
-----------------------
   0 C :   -0.484437
   1 H :    0.334367
   2 H :    0.246372
   3 C :   -0.473166
   4 H :    0.302617
   5 H :    0.258967
   6 C :   -0.543893
   7 H :    0.222978
   8 H :    0.322699
   9 C :    0.539173
  10 O :   -0.769934
  11 S :    0.044258
Sum of atomic charges:   -0.0000000

LOEWDIN ATOMIC CHARGES
----------------------
   0 C :    0.397818
   1 H :   -0.289869
   2 H :   -0.284030
   3 C :    0.417249
   4 H :   -0.265219
   5 H :   -0.283612
   6 C :    0.159984
   7 H :   -0.350506
   8 H :   -0.355120
   9 C :   -1.065540
  10 O :    0.603761
  11 S :    1.315081

  Mayer bond orders larger than 0.100000
B(  0-C ,  1-H ) :   0.8467 B(  0-C ,  2-H ) :   0.8770 B(  0-C ,  3-C ) :   0.9778
B(  0-C ,  9-C ) :   0.9867 B(  0-C , 10-O ) :   0.1494 B(  3-C ,  4-H ) :   0.8662
B(  3-C ,  5-H ) :   0.8784 B(  3-C ,  6-C ) :   1.0089 B(  6-C ,  7-H ) :   0.9368
B(  6-C ,  8-H ) :   0.8913 B(  6-C , 11-S ) :   0.9291 B(  9-C , 10-O ) :   1.3340
B(  9-C , 11-S ) :   1.1166

MP2 TOTAL ENERGY:     -628.636238917 Eh
FINAL SINGLE POINT ENERGY      -628.636238916873

DIPOLE MOMENT
-------------
                                X             Y             Z
Electronic contribution:     -5.09106      -4.83734      -0.30707
Nuclear contribution   :      6.79253       5.56346       0.46015
                        -----------------------------------------
Total Dipole Moment    :      1.70146       0.72612       0.15309
                        -----------------------------------------
Magnitude (a.u.)       :      1.85625
Magnitude (Debye)      :      4.71822

Rotational constants in cm-1:     0.147202     0.104084     0.064290
Rotational constants in MHz :  4413.001839  3120.355607  1927.354198

                             ****ORCA TERMINATED NORMALLY****
TOTAL RUN TIME: 0 days 0 hours 25 minutes 18 seconds 655 msec
