                         Program Version 5.0.4 -  RELEASE  -
|  1> !ri-mp2 aug-cc-pvqz aug-cc-pvqz/c tightscf
|  2> %pal nprocs 16 end
|  3>
|  4> * xyz 0 1
|  5> C      1.610605    1.384300    0.549759
|  6> H      2.332239    2.160342    0.292049
|  7> H      0.860212    1.834406    1.198917
|  8> H      2.129278    0.606001    1.108397
|  9> C     -2.280666    0.756806   -0.091466
| 10> H     -2.643528    0.312964   -1.019464
| 11> H     -3.146309    0.940646    0.545887
| 12> H     -1.838910    1.724439   -0.328261
| 13> C     -1.298769   -0.163282    0.619431
| 14> H     -1.776187   -1.092001    0.931530
| 15> H     -0.846975    0.288433    1.501243
| 16> C      0.999535    0.803974   -0.714910
| 17> H      0.322444    1.489329   -1.225847
| 18> S      0.072252   -0.774645   -0.452665
| 19> O      0.937001   -1.633899    0.435963
| 20> H      1.771453    0.510148   -1.426400
| 21> *
| 22>
| 23>                          ****END OF INPUT****

CARTESIAN COORDINATES (ANGSTROEM)
---------------------------------
  C      1.610605    1.384300    0.549759
  H      2.332239    2.160342    0.292049
  H      0.860212    1.834406    1.198917
  H      2.129278    0.606001    1.108397
  C     -2.280666    0.756806   -0.091466
  H     -2.643528    0.312964   -1.019464
  H     -3.146309    0.940646    0.545887
  H     -1.838910    1.724439   -0.328261
  C     -1.298769   -0.163282    0.619431
  H     -1.776187   -1.092001    0.931530
  H     -0.846975    0.288433    1.501243
  C      0.999535    0.803974   -0.714910
  H      0.322444    1.489329   -1.225847
  S      0.072252   -0.774645   -0.452665
  O      0.937001   -1.633899    0.435963
  H      1.771453    0.510148   -1.426400

 Total Charge           Charge          ....    0
 Multiplicity           Mult            ....    1
 Number of Electrons    NEL             ....   58
 Basis Dimension        Dim             ....  944

ORBITAL ENERGIES
----------------

  NO   OCC          E(Eh)            E(eV)
   0   2.0000     -92.056348     -2504.9806
   1   2.0000     -20.496212      -557.7303
   2   2.0000     -11.264409      -306.5201
   3   2.0000     -11.263644      -306.4993
   4   2.0000     -11.242071      -305.9123
   5   2.0000     -11.228562      -305.5447
   6   2.0000      -9.043924      -246.0977
   7   2.0000      -6.725930      -183.0218
   8   2.0000      -6.725651      -183.0143
   9   2.0000      -6.724381      -182.9797
  10   2.0000      -1.320885       -35.9431
  11   2.0000      -1.085170       -29.5290
  12   2.0000      -1.044645       -28.4262
  13   2.0000      -0.932281       -25.3686
  14   2.0000      -0.876678       -23.8556
  15   2.0000      -0.782328       -21.2882
  16   2.0000      -0.660610       -17.9761
  17   2.0000      -0.648559       -17.6482
  18   2.0000      -0.605718       -16.4824
  19   2.0000      -0.598737       -16.2925
  20   2.0000      -0.582757       -15.8576
  21   2.0000      -0.549859       -14.9624
  22   2.0000      -0.540282       -14.7018
  23   2.0000      -0.533860       -14.5271
  24   2.0000      -0.510113       -13.8809
  25   2.0000      -0.507615       -13.8129
  26   2.0000      -0.500186       -13.6107
  27   2.0000      -0.404085       -10.9957
  28   2.0000      -0.359195        -9.7742
  29   0.0000       0.021169         0.5760
  30   0.0000       0.027888         0.7589
  31   0.0000       0.031325         0.8524
  32   0.0000       0.036942         1.0052
  33   0.0000       0.046808         1.2737

MULLIKEN ATOMIC CHARGES
-----------------------
   0 C :   -0.889570
   1 H :    0.325075
   2 H :    0.214921
   3 H :    0.261274
   4 C :   -0.871433
   5 H :    0.232534
   6 H :    0.320667
   7 H :    0.244667
   8 C :   -0.500281
   9 H :    0.346549
  10 H :    0.311419
  11 C :   -0.481382
  12 H :    0.343090
  13 S :    1.029328
  14 O :   -1.224989
  15 H :    0.338131
Sum of atomic charges:   -0.0000000

LOEWDIN ATOMIC CHARGES
----------------------
   0 C :    0.869107
   1 H :   -0.282469
   2 H :   -0.302900
   3 H :   -0.314428
   4 C :    0.869984
   5 H :   -0.293400
   6 H :   -0.283435
   7 H :   -0.307508
   8 C :    0.324647
   9 H :   -0.355545
  10 H :   -0.352015
  11 C :    0.334208
  12 H :   -0.355933
  13 S :    0.719861
  14 O :    0.085526
  15 H :   -0.355699

  Mayer bond orders larger than 0.100000
B(  0-C ,  1-H ) :   0.8916 B(  0-C ,  2-H ) :   0.9712 B(  0-C ,  3-H ) :   0.9418
B(  0-C , 11-C ) :   0.9764 B(  4-C ,  5-H ) :   0.9591 B(  4-C ,  6-H ) :   0.9016
B(  4-C ,  7-H ) :   0.9523 B(  4-C ,  8-C ) :   0.9682 B(  8-C ,  9-H ) :   0.8274
B(  8-C , 10-H ) :   0.8654 B(  8-C , 13-S ) :   0.8734 B( 11-C , 12-H ) :   0.8505
B( 11-C , 13-S ) :   0.8662 B( 11-C , 14-O ) :  -0.1115 B( 11-C , 15-H ) :   0.8337
B( 13-S , 14-O ) :   1.2040

MP2 TOTAL ENERGY:     -630.992463346 Eh
FINAL SINGLE POINT ENERGY      -630.992463345808

DIPOLE MOMENT
-------------
                                X             Y             Z
Electronic contribution:      1.99037      -7.41212      -2.01754
Nuclear contribution   :     -2.89674       8.99967       1.64023
                        -----------------------------------------
Total Dipole Moment    :     -0.90637       1.58755      -0.37731
                        -----------------------------------------
Magnitude (a.u.)       :      1.86660
Magnitude (Debye)      :      4.74451

Rotational constants in cm-1:     0.112208     0.078899     0.057361
Rotational constants in MHz :  3363.914482  2365.329758  1719.648328

                             ****ORCA TERMINATED NORMALLY****
TOTAL RUN TIME: 0 days 0 hours 40 minutes 41 seconds 750 msec
