                         Program Version 5.0.4 -  RELEASE  -
|  1> !ri-mp2 aug-cc-pvqz aug-cc-pvqz/c tightscf
|  2> %pal nprocs 16 end
|  3> %maxcore 3800
|  4>
|  5> * xyz 0 1
|  6> C     2.789368     5.050688    0.000000
|  7> C    -2.789368    -5.050688    0.000000
|  8> C     2.800552     3.522861    0.000000
|  9> C    -2.800552    -3.522861    0.000000
| 10> C     1.400494     2.907631    0.000000
| 11> C    -1.400494    -2.907631    0.000000
| 12> C     1.400494     1.378640    0.000000
| 13> C    -1.400494    -1.378640    0.000000
| 14> C    -0.000057     0.764608    0.000000
| 15> C     0.000057    -0.764608    0.000000
| 16> H     3.801408     5.458123    0.000000
| 17> H     2.275152     5.441067    0.880579
| 18> H     2.275152     5.441067   -0.880579
| 19> H    -3.801408    -5.458123    0.000000
| 20> H    -2.275152    -5.441067   -0.880579
| 21> H    -2.275152    -5.441067    0.880579
| 22> H     3.351669     3.162311    0.873843
| 23> H     3.351669     3.162311   -0.873843
| 24> H    -3.351669    -3.162311    0.873843
| 25> H    -3.351669    -3.162311   -0.873843
| 26> H     0.848853     3.269313   -0.874391
| 27> H     0.848853     3.269313    0.874391
| 28> H    -0.848853    -3.269313   -0.874391
| 29> H    -0.848853    -3.269313    0.874391
| 30> H     1.952511     1.017990    0.874412
| 31> H     1.952511     1.017990   -0.874412
| 32> H    -1.952511    -1.017990    0.874412
| 33> H    -1.952511    -1.017990   -0.874412
| 34> H    -0.551998     1.125266   -0.874385
| 35> H    -0.551998     1.125266    0.874385
| 36> H     0.551998    -1.125266    0.874385
| 37> H     0.551998    -1.125266   -0.874385
| 38> *
| 39>
| 40>                          ****END OF INPUT****

CARTESIAN COORDINATES (ANGSTROEM)
---------------------------------
  C      2.789368    5.050688    0.000000
  C     -2.789368   -5.050688    0.000000
  C      2.800552    3.522861    0.000000
  C     -2.800552   -3.522861    0.000000
  C      1.400494    2.907631    0.000000
  C     -1.400494   -2.907631    0.000000
  C      1.400494    1.378640    0.000000
  C     -1.400494   -1.378640    0.000000
  C     -0.000057    0.764608    0.000000
  C      0.000057   -0.764608    0.000000
  H      3.801408    5.458123    0.000000
  H      2.275152    5.441067    0.880579
  H      2.275152    5.441067   -0.880579
  H     -3.801408   -5.458123    0.000000
  H     -2.275152   -5.441067   -0.880579
  H     -2.275152   -5.441067    0.880579
  H      3.351669    3.162311    0.873843
  H      3.351669    3.162311   -0.873843
  H     -3.351669   -3.162311    0.873843
  H     -3.351669   -3.162311   -0.873843
  H      0.848853    3.269313   -0.874391
  H      0.848853    3.269313    0.874391
  H     -0.848853   -3.269313   -0.874391
  H     -0.848853   -3.269313    0.874391
  H      1.952511    1.017990    0.874412
  H      1.952511    1.017990   -0.874412
  H     -1.952511   -1.017990    0.874412
  H     -1.952511   -1.017990   -0.874412
  H     -0.551998    1.125266   -0.874385
  H     -0.551998    1.125266    0.874385
  H      0.551998   -1.125266    0.874385
  H      0.551998   -1.125266   -0.874385

 Total Charge           Charge          ....    0
 Multiplicity           Mult            ....    1
 Number of Electrons    NEL             ....   82
 Basis Dimension        Dim             .... 1812

ORBITAL ENERGIES
----------------

  NO   OCC          E(Eh)            E(eV)
   0   2.0000     -11.212940      -305.1196
   1   2.0000     -11.212940      -305.1196
   2   2.0000     -11.211024      -305.0675
   3   2.0000     -11.210882      -305.0636
   4   2.0000     -11.210639      -305.0570
   5   2.0000     -11.210370      -305.0497
   6   2.0000     -11.210120      -305.0429
   7   2.0000     -11.209914      -305.0373
   8   2.0000     -11.207186      -304.9630
   9   2.0000     -11.207186      -304.9630
  10   2.0000      -1.092515       -29.7289
  11   2.0000      -1.072572       -29.1862
  12   2.0000      -1.039654       -28.2904
  13   2.0000      -0.995140       -27.0791
  14   2.0000      -0.941272       -25.6133
  15   2.0000      -0.881898       -23.9977
  16   2.0000      -0.825243       -22.4560
  17   2.0000      -0.789338       -21.4790
  18   2.0000      -0.784369       -21.3438
  19   2.0000      -0.780411       -21.2361
  20   2.0000      -0.657833       -17.9006
  21   2.0000      -0.640077       -17.4174
  22   2.0000      -0.612099       -16.6561
  23   2.0000      -0.592650       -16.1268
  24   2.0000      -0.584299       -15.8996
  25   2.0000      -0.576941       -15.6994
  26   2.0000      -0.569633       -15.5005
  27   2.0000      -0.539102       -14.6697
  28   2.0000      -0.538690       -14.6585
  29   2.0000      -0.533184       -14.5087
  30   2.0000      -0.504193       -13.7198
  31   2.0000      -0.502496       -13.6736
  32   2.0000      -0.477594       -12.9960
  33   2.0000      -0.476238       -12.9591
  34   2.0000      -0.473279       -12.8786
  35   2.0000      -0.462225       -12.5778
  36   2.0000      -0.460308       -12.5256
  37   2.0000      -0.456619       -12.4252
  38   2.0000      -0.456536       -12.4230
  39   2.0000      -0.453796       -12.3484
  40   2.0000      -0.422485       -11.4964
  41   0.0000       0.025922         0.7054
  42   0.0000       0.026750         0.7279
  43   0.0000       0.031247         0.8503
  44   0.0000       0.032398         0.8816
  45   0.0000       0.035010         0.9527

MULLIKEN ATOMIC CHARGES
-----------------------
   0 C :   -0.920741
   1 C :   -0.920767
   2 C :   -0.546920
   3 C :   -0.547002
   4 C :   -0.308148
   5 C :   -0.307826
   6 C :   -0.369092
   7 C :   -0.369061
   8 C :   -0.473857
   9 C :   -0.473833
  10 H :    0.267184
  11 H :    0.225793
  12 H :    0.225811
  13 H :    0.267166
  14 H :    0.225784
  15 H :    0.225815
  16 H :    0.224080
  17 H :    0.224171
  18 H :    0.224247
  19 H :    0.224104
  20 H :    0.232064
  21 H :    0.232411
  22 H :    0.232112
  23 H :    0.232321
  24 H :    0.252289
  25 H :    0.253085
  26 H :    0.252530
  27 H :    0.252793
  28 H :    0.240718
  29 H :    0.241110
  30 H :    0.240714
  31 H :    0.240942
Sum of atomic charges:    0.0000000

LOEWDIN ATOMIC CHARGES
----------------------
   0 C :    0.925750
   1 C :    0.925750
   2 C :    0.508480
   3 C :    0.508480
   4 C :    0.512797
   5 C :    0.512798
   6 C :    0.525588
   7 C :    0.525589
   8 C :    0.528610
   9 C :    0.528610
  10 H :   -0.285088
  11 H :   -0.285963
  12 H :   -0.285963
  13 H :   -0.285088
  14 H :   -0.285963
  15 H :   -0.285963
  16 H :   -0.273606
  17 H :   -0.273606
  18 H :   -0.273606
  19 H :   -0.273607
  20 H :   -0.268208
  21 H :   -0.268208
  22 H :   -0.268208
  23 H :   -0.268208
  24 H :   -0.265470
  25 H :   -0.265470
  26 H :   -0.265470
  27 H :   -0.265470
  28 H :   -0.264822
  29 H :   -0.264822
  30 H :   -0.264822
  31 H :   -0.264822

  Mayer bond orders larger than 0.100000
B(  0-C ,  2-C ) :   1.0647 B(  0-C ,  4-C ) :  -0.1504 B(  0-C , 10-H ) :   1.0289
B(  0-C , 11-H ) :   0.9568 B(  0-C , 12-H ) :   0.9567 B(  1-C ,  3-C ) :   1.0647
B(  1-C ,  5-C ) :  -0.1504 B(  1-C , 13-H ) :   1.0289 B(  1-C , 14-H ) :   0.9568
B(  1-C , 15-H ) :   0.9567 B(  2-C ,  4-C ) :   1.0274 B(  2-C ,  6-C ) :  -0.1363
B(  2-C , 10-H ) :  -0.1005 B(  2-C , 16-H ) :   0.8809 B(  2-C , 17-H ) :   0.8808
B(  3-C ,  5-C ) :   1.0272 B(  3-C ,  7-C ) :  -0.1361 B(  3-C , 13-H ) :  -0.1005
B(  3-C , 18-H ) :   0.8808 B(  3-C , 19-H ) :   0.8809 B(  4-C ,  6-C ) :   1.1197
B(  4-C ,  8-C ) :  -0.1722 B(  4-C , 20-H ) :   0.8553 B(  4-C , 21-H ) :   0.8550
B(  5-C ,  7-C ) :   1.1194 B(  5-C ,  9-C ) :  -0.1721 B(  5-C , 22-H ) :   0.8551
B(  5-C , 23-H ) :   0.8553 B(  6-C ,  8-C ) :   1.2264 B(  6-C ,  9-C ) :  -0.1807
B(  6-C , 24-H ) :   0.8306 B(  6-C , 25-H ) :   0.8306 B(  7-C ,  8-C ) :  -0.1806
B(  7-C ,  9-C ) :   1.2265 B(  7-C , 26-H ) :   0.8306 B(  7-C , 27-H ) :   0.8305
B(  8-C ,  9-C ) :   1.3031 B(  8-C , 28-H ) :   0.8320 B(  8-C , 29-H ) :   0.8319
B(  9-C , 30-H ) :   0.8319 B(  9-C , 31-H ) :   0.8321

MP2 TOTAL ENERGY:     -393.549646065 Eh
FINAL SINGLE POINT ENERGY      -393.549646064919

DIPOLE MOMENT
-------------
                                X             Y             Z
Electronic contribution:     -0.00000       0.00000      -0.00000
Nuclear contribution   :      0.00000       0.00000       0.00000
                        -----------------------------------------
Total Dipole Moment    :     -0.00000       0.00000      -0.00000
                        -----------------------------------------
Magnitude (a.u.)       :      0.00000
Magnitude (Debye)      :      0.00000

Rotational constants in cm-1:     0.285582     0.008420     0.008304
Rotational constants in MHz :  8561.522573   252.430045   248.933383

                             ****ORCA TERMINATED NORMALLY****
TOTAL RUN TIME: 0 days 3 hours 32 minutes 0 seconds 11 msec
