                         Program Version 5.0.4 -  RELEASE  -
|  1> !ri-mp2 aug-cc-pvqz aug-cc-pvqz/c tightscf
|  2> %pal nprocs 16 end
|  3>
|  4> * xyz 0 1
|  5> C     0.000000     0.728728    0.184208
|  6> C    -0.763274     1.830763   -0.441725
|  7> C     0.763274     1.830763   -0.441725
|  8> C     0.000000    -0.728728    0.184208
|  9> C     0.000000     0.000000    1.493939
| 10> C    -0.763274    -1.830763   -0.441725
| 11> C     0.763274    -1.830763   -0.441725
| 12> H    -1.265756     2.542902    0.199945
| 13> H    -1.265398     1.641386   -1.381956
| 14> H     1.265756     2.542902    0.199945
| 15> H     1.265398     1.641386   -1.381956
| 16> H    -0.913191     0.000000    2.077660
| 17> H     0.913191     0.000000    2.077660
| 18> H    -1.265398    -1.641386   -1.381956
| 19> H    -1.265756    -2.542902    0.199945
| 20> H     1.265398    -1.641386   -1.381956
| 21> H     1.265756    -2.542902    0.199945
| 22> *
| 23>
| 24>                          ****END OF INPUT****

CARTESIAN COORDINATES (ANGSTROEM)
---------------------------------
  C      0.000000    0.728728    0.184208
  C     -0.763274    1.830763   -0.441725
  C      0.763274    1.830763   -0.441725
  C      0.000000   -0.728728    0.184208
  C      0.000000    0.000000    1.493939
  C     -0.763274   -1.830763   -0.441725
  C      0.763274   -1.830763   -0.441725
  H     -1.265756    2.542902    0.199945
  H     -1.265398    1.641386   -1.381956
  H      1.265756    2.542902    0.199945
  H      1.265398    1.641386   -1.381956
  H     -0.913191    0.000000    2.077660
  H      0.913191    0.000000    2.077660
  H     -1.265398   -1.641386   -1.381956
  H     -1.265756   -2.542902    0.199945
  H      1.265398   -1.641386   -1.381956
  H      1.265756   -2.542902    0.199945

 Total Charge           Charge          ....    0
 Multiplicity           Mult            ....    1
 Number of Electrons    NEL             ....   52
 Basis Dimension        Dim             .... 1020

ORBITAL ENERGIES
----------------

  NO   OCC          E(Eh)            E(eV)
   0   2.0000     -11.234737      -305.7127
   1   2.0000     -11.233903      -305.6900
   2   2.0000     -11.223103      -305.3962
   3   2.0000     -11.222963      -305.3923
   4   2.0000     -11.222957      -305.3922
   5   2.0000     -11.222376      -305.3764
   6   2.0000     -11.222371      -305.3762
   7   2.0000      -1.187317       -32.3086
   8   2.0000      -1.113960       -30.3124
   9   2.0000      -1.025377       -27.9019
  10   2.0000      -0.830229       -22.5917
  11   2.0000      -0.816873       -22.2282
  12   2.0000      -0.783866       -21.3301
  13   2.0000      -0.716243       -19.4900
  14   2.0000      -0.665608       -18.1121
  15   2.0000      -0.644262       -17.5313
  16   2.0000      -0.633331       -17.2338
  17   2.0000      -0.603132       -16.4120
  18   2.0000      -0.516998       -14.0682
  19   2.0000      -0.511384       -13.9155
  20   2.0000      -0.509049       -13.8519
  21   2.0000      -0.457920       -12.4606
  22   2.0000      -0.445683       -12.1276
  23   2.0000      -0.391892       -10.6639
  24   2.0000      -0.386740       -10.5237
  25   2.0000      -0.379086       -10.3155
  26   0.0000       0.028274         0.7694
  27   0.0000       0.030325         0.8252
  28   0.0000       0.033385         0.9085
  29   0.0000       0.033641         0.9154
  30   0.0000       0.045232         1.2308

MULLIKEN ATOMIC CHARGES
-----------------------
   0 C :    0.271102
   1 C :   -0.754502
   2 C :   -0.754514
   3 C :    0.271175
   4 C :   -0.611094
   5 C :   -0.754524
   6 C :   -0.754517
   7 H :    0.305225
   8 H :    0.294540
   9 H :    0.305225
  10 H :    0.294547
  11 H :    0.343897
  12 H :    0.343902
  13 H :    0.294548
  14 H :    0.305219
  15 H :    0.294543
  16 H :    0.305230
Sum of atomic charges:    0.0000000

LOEWDIN ATOMIC CHARGES
----------------------
   0 C :   -0.221311
   1 C :    0.626946
   2 C :    0.626946
   3 C :   -0.221311
   4 C :    0.663545
   5 C :    0.626946
   6 C :    0.626946
   7 H :   -0.274087
   8 H :   -0.273420
   9 H :   -0.274087
  10 H :   -0.273420
  11 H :   -0.269340
  12 H :   -0.269340
  13 H :   -0.273420
  14 H :   -0.274087
  15 H :   -0.273420
  16 H :   -0.274087

  Mayer bond orders larger than 0.100000
B(  0-C ,  1-C ) :   0.6969 B(  0-C ,  2-C ) :   0.6969 B(  0-C ,  4-C ) :   0.8241
B(  0-C ,  5-C ) :  -0.1434 B(  0-C ,  6-C ) :  -0.1434 B(  1-C ,  2-C ) :   1.1186
B(  1-C ,  3-C ) :  -0.1434 B(  1-C ,  7-H ) :   0.9830 B(  1-C ,  8-H ) :   0.9485
B(  2-C ,  3-C ) :  -0.1434 B(  2-C ,  9-H ) :   0.9830 B(  2-C , 10-H ) :   0.9485
B(  3-C ,  4-C ) :   0.8240 B(  3-C ,  5-C ) :   0.6968 B(  3-C ,  6-C ) :   0.6969
B(  4-C , 11-H ) :   0.8937 B(  4-C , 12-H ) :   0.8936 B(  5-C ,  6-C ) :   1.1186
B(  5-C , 13-H ) :   0.9485 B(  5-C , 14-H ) :   0.9831 B(  6-C , 15-H ) :   0.9485
B(  6-C , 16-H ) :   0.9830

MP2 TOTAL ENERGY:     -272.122970209 Eh
FINAL SINGLE POINT ENERGY      -272.122970208541

DIPOLE MOMENT
-------------
                                X             Y             Z
Electronic contribution:     -0.00000      -0.00000       0.60151
Nuclear contribution   :     -0.00000       0.00000      -0.59403
                        -----------------------------------------
Total Dipole Moment    :     -0.00000      -0.00000       0.00748
                        -----------------------------------------
Magnitude (a.u.)       :      0.00748
Magnitude (Debye)      :      0.01901

Rotational constants in cm-1:     0.175338     0.066550     0.063788
Rotational constants in MHz :  5256.496589  1995.121547  1912.306653

                             ****ORCA TERMINATED NORMALLY****
TOTAL RUN TIME: 0 days 0 hours 56 minutes 3 seconds 511 msec
