                         Program Version 5.0.4 -  RELEASE  -
|  1> !ri-mp2 aug-cc-pvqz aug-cc-pvqz/c tightscf
|  2> %pal nprocs 16 end
|  3>
|  4> * xyz 0 1
|  5> O     -0.023151    1.622923   -0.280281
|  6> N     -2.199831   -0.919309   -0.166719
|  7> N      2.157942   -0.992833   -0.172002
|  8> C     -0.002614    0.387114    0.400860
|  9> C     -1.233688   -0.342601    0.060384
| 10> C      1.190268   -0.419958    0.063748
| 11> H      0.756685    2.130316   -0.026335
| 12> H     -0.002056    0.523963    1.489685
| 13> *
| 14>
| 15>                          ****END OF INPUT****

CARTESIAN COORDINATES (ANGSTROEM)
---------------------------------
  O     -0.023151    1.622923   -0.280281
  N     -2.199831   -0.919309   -0.166719
  N      2.157942   -0.992833   -0.172002
  C     -0.002614    0.387114    0.400860
  C     -1.233688   -0.342601    0.060384
  C      1.190268   -0.419958    0.063748
  H      0.756685    2.130316   -0.026335
  H     -0.002056    0.523963    1.489685

 Total Charge           Charge          ....    0
 Multiplicity           Mult            ....    1
 Number of Electrons    NEL             ....   42
 Basis Dimension        Dim             ....  572

ORBITAL ENERGIES
----------------

  NO   OCC          E(Eh)            E(eV)
   0   2.0000     -20.637289      -561.5692
   1   2.0000     -15.615415      -424.9170
   2   2.0000     -15.609807      -424.7645
   3   2.0000     -11.420915      -310.7789
   4   2.0000     -11.312517      -307.8292
   5   2.0000     -11.308515      -307.7203
   6   2.0000      -1.450219       -39.4625
   7   2.0000      -1.264964       -34.4214
   8   2.0000      -1.255298       -34.1584
   9   2.0000      -1.085707       -29.5436
  10   2.0000      -0.837820       -22.7982
  11   2.0000      -0.770431       -20.9645
  12   2.0000      -0.753648       -20.5078
  13   2.0000      -0.633857       -17.2481
  14   2.0000      -0.603476       -16.4214
  15   2.0000      -0.589677       -16.0459
  16   2.0000      -0.559285       -15.2189
  17   2.0000      -0.519272       -14.1301
  18   2.0000      -0.512508       -13.9461
  19   2.0000      -0.499779       -13.5997
  20   2.0000      -0.498484       -13.5644
  21   0.0000       0.011317         0.3080
  22   0.0000       0.029646         0.8067
  23   0.0000       0.048133         1.3098
  24   0.0000       0.050087         1.3629
  25   0.0000       0.071489         1.9453

MULLIKEN ATOMIC CHARGES
-----------------------
   0 O :   -0.714424
   1 N :   -0.560676
   2 N :   -0.570575
   3 C :    0.615993
   4 C :    0.252483
   5 C :    0.273703
   6 H :    0.340544
   7 H :    0.362952
Sum of atomic charges:   -0.0000000

LOEWDIN ATOMIC CHARGES
----------------------
   0 O :    1.261424
   1 N :    0.430196
   2 N :    0.425541
   3 C :   -0.406026
   4 C :   -0.305064
   5 C :   -0.291696
   6 H :   -0.767799
   7 H :   -0.346576

  Mayer bond orders larger than 0.100000
B(  0-O ,  3-C ) :   0.6301 B(  0-O ,  5-C ) :   0.1144 B(  0-O ,  6-H ) :   0.8970
B(  1-N ,  4-C ) :   2.6236 B(  2-N ,  5-C ) :   2.5986 B(  3-C ,  4-C ) :   0.9781
B(  3-C ,  5-C ) :   0.9536 B(  3-C ,  7-H ) :   0.8057 B(  4-C ,  5-C ) :  -0.1112

MP2 TOTAL ENERGY:     -299.760112254 Eh
FINAL SINGLE POINT ENERGY      -299.760112253852

DIPOLE MOMENT
-------------
                                X             Y             Z
Electronic contribution:     -0.20723      -1.25919      -0.40957
Nuclear contribution   :      0.72477       2.56513       1.40043
                        -----------------------------------------
Total Dipole Moment    :      0.51755       1.30594       0.99086
                        -----------------------------------------
Magnitude (a.u.)       :      1.71905
Magnitude (Debye)      :      4.36948

Rotational constants in cm-1:     0.200343     0.096218     0.068313
Rotational constants in MHz :  6006.125600  2884.550313  2047.962414

                             ****ORCA TERMINATED NORMALLY****
TOTAL RUN TIME: 0 days 0 hours 5 minutes 23 seconds 652 msec
