                         Program Version 5.0.4 -  RELEASE  -
|  1> !ri-mp2 aug-cc-pvqz aug-cc-pvqz/c tightscf
|  2> %pal nprocs 16 end
|  3>
|  4> * xyz 0 1
|  5> C      0.000100   -1.136474    0.000000
|  6> N      0.000000    0.155349    0.000000
|  7> N     -0.000113    1.287404    0.000000
|  8> H      0.000095   -1.640214    0.950280
|  9> H      0.000095   -1.640214   -0.950280
| 10> *
| 11>
| 12>                          ****END OF INPUT****

CARTESIAN COORDINATES (ANGSTROEM)
---------------------------------
  C      0.000100   -1.136474    0.000000
  N      0.000000    0.155349    0.000000
  N     -0.000113    1.287404    0.000000
  H      0.000095   -1.640214    0.950280
  H      0.000095   -1.640214   -0.950280

 Total Charge           Charge          ....    0
 Multiplicity           Mult            ....    1
 Number of Electrons    NEL             ....   22
 Basis Dimension        Dim             ....  332

ORBITAL ENERGIES
----------------

  NO   OCC          E(Eh)            E(eV)
   0   2.0000     -15.734446      -428.1560
   1   2.0000     -15.654415      -425.9783
   2   2.0000     -11.265241      -306.5428
   3   2.0000      -1.461254       -39.7628
   4   2.0000      -1.124515       -30.5996
   5   2.0000      -0.760160       -20.6850
   6   2.0000      -0.697117       -18.9695
   7   2.0000      -0.663080       -18.0433
   8   2.0000      -0.656819       -17.8730
   9   2.0000      -0.540870       -14.7178
  10   2.0000      -0.330687        -8.9985
  11   0.0000       0.026178         0.7123
  12   0.0000       0.036761         1.0003
  13   0.0000       0.059465         1.6181
  14   0.0000       0.060409         1.6438
  15   0.0000       0.088633         2.4118

MULLIKEN ATOMIC CHARGES
-----------------------
   0 C :   -0.724467
   1 N :    0.036662
   2 N :   -0.269810
   3 H :    0.478808
   4 H :    0.478808
Sum of atomic charges:   -0.0000000

LOEWDIN ATOMIC CHARGES
----------------------
   0 C :    0.513158
   1 N :   -0.021880
   2 N :    0.355640
   3 H :   -0.423459
   4 H :   -0.423459

  Mayer bond orders larger than 0.100000
B(  0-C ,  1-N ) :   1.3737 B(  0-C ,  2-N ) :   0.1542 B(  0-C ,  3-H ) :   0.7694
B(  0-C ,  4-H ) :   0.7694 B(  1-N ,  2-N ) :   2.1351

MP2 TOTAL ENERGY:     -148.515363415 Eh
FINAL SINGLE POINT ENERGY      -148.515363414763

DIPOLE MOMENT
-------------
                                X             Y             Z
Electronic contribution:     -0.00018       2.61211       0.00000
Nuclear contribution   :      0.00019      -3.21566       0.00000
                        -----------------------------------------
Total Dipole Moment    :      0.00001      -0.60354       0.00000
                        -----------------------------------------
Magnitude (a.u.)       :      0.60354
Magnitude (Debye)      :      1.53409

Rotational constants in cm-1:     9.259834     0.381062     0.366000
Rotational constants in MHz : 277602.834741 11423.953476 10972.415012

                             ****ORCA TERMINATED NORMALLY****
TOTAL RUN TIME: 0 days 0 hours 1 minutes 5 seconds 58 msec
