                         Program Version 5.0.4 -  RELEASE  -
|  1> !ri-mp2 aug-cc-pvqz aug-cc-pvqz/c tightscf
|  2> %pal nprocs 16 end
|  3>
|  4> * xyz 0 1
|  5> O     -0.037714   -1.357944    1.090603
|  6> O     -0.037714   -1.357944   -1.090603
|  7> H     -1.093723    1.213482    1.547438
|  8> H      0.276620    2.273597    1.142183
|  9> H      0.546613    0.777805    2.052059
| 10> C     -0.037714    1.240481    1.264007
| 11> H     -1.093723    1.213482   -1.547438
| 12> H      0.546613    0.777805   -2.052059
| 13> H      0.276620    2.273597   -1.142183
| 14> C     -0.037714    1.240481   -1.264007
| 15> N      0.022482   -0.802092    0.000000
| 16> N      0.205657    0.560886    0.000000
| 17> *
| 18>
| 19>                          ****END OF INPUT****

CARTESIAN COORDINATES (ANGSTROEM)
---------------------------------
  O     -0.037714   -1.357944    1.090603
  O     -0.037714   -1.357944   -1.090603
  H     -1.093723    1.213482    1.547438
  H      0.276620    2.273597    1.142183
  H      0.546613    0.777805    2.052059
  C     -0.037714    1.240481    1.264007
  H     -1.093723    1.213482   -1.547438
  H      0.546613    0.777805   -2.052059
  H      0.276620    2.273597   -1.142183
  C     -0.037714    1.240481   -1.264007
  N      0.022482   -0.802092    0.000000
  N      0.205657    0.560886    0.000000

 Total Charge           Charge          ....    0
 Multiplicity           Mult            ....    1
 Number of Electrons    NEL             ....   48
 Basis Dimension        Dim             ....  756

ORBITAL ENERGIES
----------------

  NO   OCC          E(Eh)            E(eV)
   0   2.0000     -20.590052      -560.2838
   1   2.0000     -20.590004      -560.2825
   2   2.0000     -15.877195      -432.0405
   3   2.0000     -15.648800      -425.8255
   4   2.0000     -11.283341      -307.0353
   5   2.0000     -11.283321      -307.0348
   6   2.0000      -1.617076       -44.0029
   7   2.0000      -1.398564       -38.0569
   8   2.0000      -1.295994       -35.2658
   9   2.0000      -1.011329       -27.5197
  10   2.0000      -1.003455       -27.3054
  11   2.0000      -0.820722       -22.3330
  12   2.0000      -0.769804       -20.9474
  13   2.0000      -0.751498       -20.4493
  14   2.0000      -0.734548       -19.9881
  15   2.0000      -0.639782       -17.4094
  16   2.0000      -0.634370       -17.2621
  17   2.0000      -0.604101       -16.4384
  18   2.0000      -0.589474       -16.0404
  19   2.0000      -0.567959       -15.4550
  20   2.0000      -0.509584       -13.8665
  21   2.0000      -0.483327       -13.1520
  22   2.0000      -0.458026       -12.4635
  23   2.0000      -0.417833       -11.3698
  24   0.0000       0.018890         0.5140
  25   0.0000       0.033003         0.8981
  26   0.0000       0.034764         0.9460
  27   0.0000       0.042239         1.1494
  28   0.0000       0.052000         1.4150

MULLIKEN ATOMIC CHARGES
-----------------------
   0 O :   -0.638702
   1 O :   -0.638702
   2 H :    0.314441
   3 H :    0.343537
   4 H :    0.330943
   5 C :   -0.798798
   6 H :    0.314441
   7 H :    0.330943
   8 H :    0.343537
   9 C :   -0.798798
  10 N :    1.115698
  11 N :   -0.218540
Sum of atomic charges:   -0.0000000

LOEWDIN ATOMIC CHARGES
----------------------
   0 O :    0.537487
   1 O :    0.537487
   2 H :   -0.271975
   3 H :   -0.307778
   4 H :   -0.327970
   5 C :    0.742528
   6 H :   -0.271975
   7 H :   -0.327970
   8 H :   -0.307778
   9 C :    0.742528
  10 N :   -0.991217
  11 N :    0.246633

  Mayer bond orders larger than 0.100000
B(  0-O , 10-N ) :   1.1435 B(  0-O , 11-N ) :   0.1695 B(  1-O , 10-N ) :   1.1435
B(  1-O , 11-N ) :   0.1695 B(  2-H ,  5-C ) :   0.9176 B(  3-H ,  5-C ) :   0.8815
B(  4-H ,  5-C ) :   0.9271 B(  5-C , 11-N ) :   0.8157 B(  6-H ,  9-C ) :   0.9176
B(  7-H ,  9-C ) :   0.9271 B(  8-H ,  9-C ) :   0.8815 B(  9-C , 11-N ) :   0.8157
B( 10-N , 11-N ) :   1.0507

MP2 TOTAL ENERGY:     -339.201202164 Eh
FINAL SINGLE POINT ENERGY      -339.201202163613

DIPOLE MOMENT
-------------
                                X             Y             Z
Electronic contribution:      0.49279      -6.55748      -0.00000
Nuclear contribution   :     -0.54122       8.49171      -0.00000
                        -----------------------------------------
Total Dipole Moment    :     -0.04843       1.93423      -0.00000
                        -----------------------------------------
Magnitude (a.u.)       :      1.93483
Magnitude (Debye)      :      4.91796

Rotational constants in cm-1:     0.175210     0.132683     0.078186
Rotational constants in MHz :  5252.648924  3977.747327  2343.959414

                             ****ORCA TERMINATED NORMALLY****
TOTAL RUN TIME: 0 days 0 hours 15 minutes 9 seconds 619 msec
