                         Program Version 5.0.4 -  RELEASE  -
|  1> !ri-mp2 aug-cc-pvqz aug-cc-pvqz/c tightscf
|  2> %pal nprocs 16 end
|  3>
|  4> * xyz 0 1
|  5> S      0.000000    0.000000    0.622694
|  6> C      0.000000    1.368102   -0.488687
|  7> C      0.000000   -1.368102   -0.488687
|  8> C      0.070431    2.637301   -0.102333
|  9> C     -0.070431   -2.637301   -0.102333
| 10> H     -0.074147    1.103676   -1.536088
| 11> H      0.074147   -1.103676   -1.536088
| 12> H      0.052949    3.429596   -0.836759
| 13> H      0.143817    2.926289    0.937418
| 14> H     -0.052949   -3.429596   -0.836759
| 15> H     -0.143817   -2.926289    0.937418
| 16> *
| 17>
| 18>                          ****END OF INPUT****

CARTESIAN COORDINATES (ANGSTROEM)
---------------------------------
  S      0.000000    0.000000    0.622694
  C      0.000000    1.368102   -0.488687
  C      0.000000   -1.368102   -0.488687
  C      0.070431    2.637301   -0.102333
  C     -0.070431   -2.637301   -0.102333
  H     -0.074147    1.103676   -1.536088
  H      0.074147   -1.103676   -1.536088
  H      0.052949    3.429596   -0.836759
  H      0.143817    2.926289    0.937418
  H     -0.052949   -3.429596   -0.836759
  H     -0.143817   -2.926289    0.937418

 Total Charge           Charge          ....    0
 Multiplicity           Mult            ....    1
 Number of Electrons    NEL             ....   46
 Basis Dimension        Dim             ....  680

ORBITAL ENERGIES
----------------

  NO   OCC          E(Eh)            E(eV)
   0   2.0000     -91.969020     -2502.6043
   1   2.0000     -11.273170      -306.7586
   2   2.0000     -11.273159      -306.7582
   3   2.0000     -11.232452      -305.6505
   4   2.0000     -11.232452      -305.6505
   5   2.0000      -8.971045      -244.1145
   6   2.0000      -6.652615      -181.0269
   7   2.0000      -6.651849      -181.0060
   8   2.0000      -6.651010      -180.9832
   9   2.0000      -1.110751       -30.2251
  10   2.0000      -1.051907       -28.6238
  11   2.0000      -0.945827       -25.7373
  12   2.0000      -0.787843       -21.4383
  13   2.0000      -0.766074       -20.8459
  14   2.0000      -0.660917       -17.9845
  15   2.0000      -0.639063       -17.3898
  16   2.0000      -0.580540       -15.7973
  17   2.0000      -0.578346       -15.7376
  18   2.0000      -0.507516       -13.8102
  19   2.0000      -0.483215       -13.1489
  20   2.0000      -0.452118       -12.3027
  21   2.0000      -0.401865       -10.9353
  22   2.0000      -0.302475        -8.2308
  23   0.0000       0.026602         0.7239
  24   0.0000       0.028311         0.7704
  25   0.0000       0.033649         0.9156
  26   0.0000       0.046045         1.2529
  27   0.0000       0.048630         1.3233

MULLIKEN ATOMIC CHARGES
-----------------------
   0 S :    0.581464
   1 C :   -0.707813
   2 C :   -0.707813
   3 C :   -0.742364
   4 C :   -0.742364
   5 H :    0.369546
   6 H :    0.369546
   7 H :    0.362195
   8 H :    0.427704
   9 H :    0.362195
  10 H :    0.427704
Sum of atomic charges:   -0.0000000

LOEWDIN ATOMIC CHARGES
----------------------
   0 S :    1.278300
   1 C :   -0.097475
   2 C :   -0.097475
   3 C :    0.662639
   4 C :    0.662639
   5 H :   -0.445194
   6 H :   -0.445194
   7 H :   -0.376397
   8 H :   -0.382723
   9 H :   -0.376397
  10 H :   -0.382723

  Mayer bond orders larger than 0.100000
B(  0-S ,  1-C ) :   0.8304 B(  0-S ,  2-C ) :   0.8304 B(  1-C ,  2-C ) :  -0.1555
B(  1-C ,  3-C ) :   1.5577 B(  1-C ,  5-H ) :   0.8856 B(  2-C ,  4-C ) :   1.5577
B(  2-C ,  6-H ) :   0.8856 B(  3-C ,  7-H ) :   0.9590 B(  3-C ,  8-H ) :   0.8204
B(  4-C ,  9-H ) :   0.9590 B(  4-C , 10-H ) :   0.8204

MP2 TOTAL ENERGY:     -553.412815607 Eh
FINAL SINGLE POINT ENERGY      -553.412815606704

DIPOLE MOMENT
-------------
                                X             Y             Z
Electronic contribution:     -0.00000      -0.00000       2.40187
Nuclear contribution   :      0.00000       0.00000      -2.89810
                        -----------------------------------------
Total Dipole Moment    :     -0.00000      -0.00000      -0.49623
                        -----------------------------------------
Magnitude (a.u.)       :      0.49623
Magnitude (Debye)      :      1.26132

Rotational constants in cm-1:     0.640428     0.065940     0.059809
Rotational constants in MHz : 19199.557486  1976.820353  1793.029699

                             ****ORCA TERMINATED NORMALLY****
TOTAL RUN TIME: 0 days 0 hours 12 minutes 39 seconds 355 msec
