                         Program Version 5.0.4 -  RELEASE  -
|  1> !ri-mp2 aug-cc-pvqz aug-cc-pvqz/c tightscf
|  2> %pal nprocs 16 end
|  3>
|  4> * xyz 0 1
|  5> C     0.000000     1.419305   -0.919648
|  6> C     0.000000    -1.419305   -0.919648
|  7> O    -1.263521     0.000000    0.917477
|  8> O     1.263521     0.000000    0.917477
|  9> S     0.000000     0.000000    0.188195
| 10> H     0.000000     2.292780   -0.271559
| 11> H     0.900388     1.399538   -1.527965
| 12> H    -0.900388     1.399538   -1.527965
| 13> H     0.900388    -1.399538   -1.527965
| 14> H     0.000000    -2.292780   -0.271559
| 15> H    -0.900388    -1.399538   -1.527965
| 16> *
| 17>
| 18>                          ****END OF INPUT****

CARTESIAN COORDINATES (ANGSTROEM)
---------------------------------
  C      0.000000    1.419305   -0.919648
  C      0.000000   -1.419305   -0.919648
  O     -1.263521    0.000000    0.917477
  O      1.263521    0.000000    0.917477
  S      0.000000    0.000000    0.188195
  H      0.000000    2.292780   -0.271559
  H      0.900388    1.399538   -1.527965
  H     -0.900388    1.399538   -1.527965
  H      0.900388   -1.399538   -1.527965
  H      0.000000   -2.292780   -0.271559
  H     -0.900388   -1.399538   -1.527965

 Total Charge           Charge          ....    0
 Multiplicity           Mult            ....    1
 Number of Electrons    NEL             ....   50
 Basis Dimension        Dim             ....  680

ORBITAL ENERGIES
----------------

  NO   OCC          E(Eh)            E(eV)
   0   2.0000     -92.175059     -2508.2109
   1   2.0000     -20.540874      -558.9456
   2   2.0000     -20.540854      -558.9451
   3   2.0000     -11.278913      -306.9148
   4   2.0000     -11.278898      -306.9144
   5   2.0000      -9.144562      -248.8362
   6   2.0000      -6.829972      -185.8530
   7   2.0000      -6.829265      -185.8337
   8   2.0000      -6.828836      -185.8221
   9   2.0000      -1.440957       -39.2104
  10   2.0000      -1.330001       -36.1912
  11   2.0000      -1.068237       -29.0682
  12   2.0000      -1.008007       -27.4293
  13   2.0000      -0.816475       -22.2174
  14   2.0000      -0.683342       -18.5947
  15   2.0000      -0.671558       -18.2740
  16   2.0000      -0.664268       -18.0756
  17   2.0000      -0.616989       -16.7891
  18   2.0000      -0.614108       -16.7107
  19   2.0000      -0.597611       -16.2618
  20   2.0000      -0.582467       -15.8497
  21   2.0000      -0.495176       -13.4744
  22   2.0000      -0.493853       -13.4384
  23   2.0000      -0.467395       -12.7185
  24   2.0000      -0.441058       -12.0018
  25   0.0000       0.018044         0.4910
  26   0.0000       0.030454         0.8287
  27   0.0000       0.034809         0.9472
  28   0.0000       0.042663         1.1609
  29   0.0000       0.051780         1.4090

MULLIKEN ATOMIC CHARGES
-----------------------
   0 C :   -1.011641
   1 C :   -1.011641
   2 O :   -1.236468
   3 O :   -1.236468
   4 S :    2.412153
   5 H :    0.371284
   6 H :    0.335374
   7 H :    0.335374
   8 H :    0.335374
   9 H :    0.371284
  10 H :    0.335374
Sum of atomic charges:   -0.0000000

LOEWDIN ATOMIC CHARGES
----------------------
   0 C :    0.825326
   1 C :    0.825326
   2 O :    0.283623
   3 O :    0.283623
   4 S :   -0.227288
   5 H :   -0.336520
   6 H :   -0.329392
   7 H :   -0.329392
   8 H :   -0.329392
   9 H :   -0.336520
  10 H :   -0.329392

  Mayer bond orders larger than 0.100000
B(  0-C ,  4-S ) :   0.8971 B(  0-C ,  5-H ) :   0.8489 B(  0-C ,  6-H ) :   0.8882
B(  0-C ,  7-H ) :   0.8882 B(  1-C ,  4-S ) :   0.8971 B(  1-C ,  8-H ) :   0.8882
B(  1-C ,  9-H ) :   0.8489 B(  1-C , 10-H ) :   0.8882 B(  2-O ,  4-S ) :   0.9511
B(  3-O ,  4-S ) :   0.9511

MP2 TOTAL ENERGY:     -627.687568359 Eh
FINAL SINGLE POINT ENERGY      -627.687568359306

DIPOLE MOMENT
-------------
                                X             Y             Z
Electronic contribution:      0.00000      -0.00000       4.54951
Nuclear contribution   :      0.00000       0.00000      -6.61605
                        -----------------------------------------
Total Dipole Moment    :      0.00000      -0.00000      -2.06654
                        -----------------------------------------
Magnitude (a.u.)       :      2.06654
Magnitude (Debye)      :      5.25272

Rotational constants in cm-1:     0.150729     0.139045     0.135541
Rotational constants in MHz :  4518.749358  4168.458887  4063.406721

                             ****ORCA TERMINATED NORMALLY****
TOTAL RUN TIME: 0 days 0 hours 13 minutes 39 seconds 813 msec
