                         Program Version 5.0.4 -  RELEASE  -
|  1> !ri-mp2 aug-cc-pvqz aug-cc-pvqz/c tightscf
|  2> %pal nprocs 16 end
|  3>
|  4> * xyz 0 1
|  5> C     0.000000     0.000000    0.075891
|  6> C     0.000000     2.340391   -0.016158
|  7> C     0.000000    -2.340391   -0.016158
|  8> O     0.000000     0.000000    1.281653
|  9> O     0.000000     1.081938   -0.709482
| 10> O     0.000000    -1.081938   -0.709482
| 11> H    -0.887790     2.432734    0.606454
| 12> H     0.000000     3.096867   -0.794390
| 13> H     0.887790     2.432734    0.606454
| 14> H     0.000000    -3.096867   -0.794390
| 15> H    -0.887790    -2.432734    0.606454
| 16> H     0.887790    -2.432734    0.606454
| 17> *
| 18>
| 19>                          ****END OF INPUT****

CARTESIAN COORDINATES (ANGSTROEM)
---------------------------------
  C      0.000000    0.000000    0.075891
  C      0.000000    2.340391   -0.016158
  C      0.000000   -2.340391   -0.016158
  O      0.000000    0.000000    1.281653
  O      0.000000    1.081938   -0.709482
  O      0.000000   -1.081938   -0.709482
  H     -0.887790    2.432734    0.606454
  H      0.000000    3.096867   -0.794390
  H      0.887790    2.432734    0.606454
  H      0.000000   -3.096867   -0.794390
  H     -0.887790   -2.432734    0.606454
  H      0.887790   -2.432734    0.606454

 Total Charge           Charge          ....    0
 Multiplicity           Mult            ....    1
 Number of Electrons    NEL             ....   48
 Basis Dimension        Dim             ....  756

ORBITAL ENERGIES
----------------

  NO   OCC          E(Eh)            E(eV)
   0   2.0000     -20.608484      -560.7854
   1   2.0000     -20.608460      -560.7847
   2   2.0000     -20.543875      -559.0273
   3   2.0000     -11.428560      -310.9869
   4   2.0000     -11.289719      -307.2089
   5   2.0000     -11.289718      -307.2088
   6   2.0000      -1.505770       -40.9741
   7   2.0000      -1.400741       -38.1161
   8   2.0000      -1.365206       -37.1491
   9   2.0000      -1.009649       -27.4739
  10   2.0000      -0.942109       -25.6361
  11   2.0000      -0.794481       -21.6189
  12   2.0000      -0.752145       -20.4669
  13   2.0000      -0.707673       -19.2568
  14   2.0000      -0.700259       -19.0550
  15   2.0000      -0.644124       -17.5275
  16   2.0000      -0.628930       -17.1140
  17   2.0000      -0.599883       -16.3237
  18   2.0000      -0.561180       -15.2705
  19   2.0000      -0.549589       -14.9551
  20   2.0000      -0.533542       -14.5184
  21   2.0000      -0.477534       -12.9944
  22   2.0000      -0.473982       -12.8977
  23   2.0000      -0.472974       -12.8703
  24   0.0000       0.026243         0.7141
  25   0.0000       0.030968         0.8427
  26   0.0000       0.040405         1.0995
  27   0.0000       0.041573         1.1313
  28   0.0000       0.050489         1.3739

MULLIKEN ATOMIC CHARGES
-----------------------
   0 C :    1.267695
   1 C :   -0.688880
   2 C :   -0.688880
   3 O :   -0.704021
   4 O :   -0.601233
   5 O :   -0.601233
   6 H :    0.282956
   7 H :    0.442364
   8 H :    0.282956
   9 H :    0.442364
  10 H :    0.282956
  11 H :    0.282956
Sum of atomic charges:    0.0000000

LOEWDIN ATOMIC CHARGES
----------------------
   0 C :   -1.524996
   1 C :    0.576356
   2 C :    0.576356
   3 O :    0.687303
   4 O :    0.802547
   5 O :    0.802547
   6 H :   -0.317226
   7 H :   -0.325605
   8 H :   -0.317226
   9 H :   -0.325605
  10 H :   -0.317226
  11 H :   -0.317226

  Mayer bond orders larger than 0.100000
B(  0-C ,  3-O ) :   1.5856 B(  0-C ,  4-O ) :   1.0252 B(  0-C ,  5-O ) :   1.0252
B(  1-C ,  4-O ) :   0.8710 B(  1-C ,  6-H ) :   0.9196 B(  1-C ,  7-H ) :   0.8127
B(  1-C ,  8-H ) :   0.9196 B(  2-C ,  5-O ) :   0.8710 B(  2-C ,  9-H ) :   0.8127
B(  2-C , 10-H ) :   0.9196 B(  2-C , 11-H ) :   0.9196

MP2 TOTAL ENERGY:     -343.153621090 Eh
FINAL SINGLE POINT ENERGY      -343.153621089753

DIPOLE MOMENT
-------------
                                X             Y             Z
Electronic contribution:     -0.00000       0.00000      -1.00650
Nuclear contribution   :      0.00000      -0.00000       0.83552
                        -----------------------------------------
Total Dipole Moment    :     -0.00000       0.00000      -0.17099
                        -----------------------------------------
Magnitude (a.u.)       :      0.17099
Magnitude (Debye)      :      0.43461

Rotational constants in cm-1:     0.348385     0.078258     0.065481
Rotational constants in MHz : 10444.312968  2346.127734  1963.079103

                             ****ORCA TERMINATED NORMALLY****
TOTAL RUN TIME: 0 days 0 hours 15 minutes 52 seconds 952 msec
