                         Program Version 5.0.4 -  RELEASE  -
|  1> !ri-mp2 aug-cc-pvqz aug-cc-pvqz/c tightscf
|  2> %pal nprocs 16 end
|  3> %maxcore 3800
|  4>
|  5> * xyz 0 1
|  6> C      0.188348    1.924575   -0.056731
|  7> C     -0.188348   -1.924575   -0.056731
|  8> C     -1.353289    5.221305    0.159863
|  9> C      1.353289   -5.221305    0.159863
| 10> C     -0.494217    0.577874   -0.004149
| 11> C      0.494217   -0.577874   -0.004149
| 12> C     -0.188348    4.271183    0.002037
| 13> C      0.188348   -4.271183    0.002037
| 14> O      1.374196    2.105516   -0.191402
| 15> O     -1.374196   -2.105516   -0.191402
| 16> O     -0.708999    2.921630    0.057961
| 17> O      0.708999   -2.921630    0.057961
| 18> H     -0.993955    6.250306    0.122700
| 19> H     -2.082017    5.084576   -0.638821
| 20> H     -1.856365    5.069159    1.114540
| 21> H      0.993955   -6.250306    0.122700
| 22> H      2.082017   -5.084576   -0.638821
| 23> H      1.856365   -5.069159    1.114540
| 24> H     -1.172064    0.507988   -0.856621
| 25> H     -1.139461    0.549023    0.874561
| 26> H      1.139461   -0.549023    0.874561
| 27> H      1.172064   -0.507988   -0.856621
| 28> H      0.548903    4.392492    0.795533
| 29> H      0.323949    4.406624   -0.950483
| 30> H     -0.548903   -4.392492    0.795533
| 31> H     -0.323949   -4.406624   -0.950483
| 32> *
| 33>
| 34>                          ****END OF INPUT****

CARTESIAN COORDINATES (ANGSTROEM)
---------------------------------
  C      0.188348    1.924575   -0.056731
  C     -0.188348   -1.924575   -0.056731
  C     -1.353289    5.221305    0.159863
  C      1.353289   -5.221305    0.159863
  C     -0.494217    0.577874   -0.004149
  C      0.494217   -0.577874   -0.004149
  C     -0.188348    4.271183    0.002037
  C      0.188348   -4.271183    0.002037
  O      1.374196    2.105516   -0.191402
  O     -1.374196   -2.105516   -0.191402
  O     -0.708999    2.921630    0.057961
  O      0.708999   -2.921630    0.057961
  H     -0.993955    6.250306    0.122700
  H     -2.082017    5.084576   -0.638821
  H     -1.856365    5.069159    1.114540
  H      0.993955   -6.250306    0.122700
  H      2.082017   -5.084576   -0.638821
  H      1.856365   -5.069159    1.114540
  H     -1.172064    0.507988   -0.856621
  H     -1.139461    0.549023    0.874561
  H      1.139461   -0.549023    0.874561
  H      1.172064   -0.507988   -0.856621
  H      0.548903    4.392492    0.795533
  H      0.323949    4.406624   -0.950483
  H     -0.548903   -4.392492    0.795533
  H     -0.323949   -4.406624   -0.950483

 Total Charge           Charge          ....    0
 Multiplicity           Mult            ....    1
 Number of Electrons    NEL             ....   94
 Basis Dimension        Dim             .... 1604

ORBITAL ENERGIES
----------------

  NO   OCC          E(Eh)            E(eV)
   0   2.0000     -20.598198      -560.5055
   1   2.0000     -20.598198      -560.5055
   2   2.0000     -20.543381      -559.0138
   3   2.0000     -20.543381      -559.0138
   4   2.0000     -11.379296      -309.6464
   5   2.0000     -11.379294      -309.6463
   6   2.0000     -11.289471      -307.2021
   7   2.0000     -11.289471      -307.2021
   8   2.0000     -11.246947      -306.0450
   9   2.0000     -11.246310      -306.0277
  10   2.0000     -11.224883      -305.4446
  11   2.0000     -11.224883      -305.4446
  12   2.0000      -1.458913       -39.6990
  13   2.0000      -1.458124       -39.6776
  14   2.0000      -1.359420       -36.9917
  15   2.0000      -1.359042       -36.9814
  16   2.0000      -1.091414       -29.6989
  17   2.0000      -1.049767       -28.5656
  18   2.0000      -1.033738       -28.1294
  19   2.0000      -0.949010       -25.8239
  20   2.0000      -0.873915       -23.7804
  21   2.0000      -0.846854       -23.0441
  22   2.0000      -0.784522       -21.3479
  23   2.0000      -0.767630       -20.8883
  24   2.0000      -0.719406       -19.5760
  25   2.0000      -0.693728       -18.8773
  26   2.0000      -0.684544       -18.6274
  27   2.0000      -0.683708       -18.6046
  28   2.0000      -0.666874       -18.1466
  29   2.0000      -0.656247       -17.8574
  30   2.0000      -0.642617       -17.4865
  31   2.0000      -0.594847       -16.1866
  32   2.0000      -0.577137       -15.7047
  33   2.0000      -0.567468       -15.4416
  34   2.0000      -0.563926       -15.3452
  35   2.0000      -0.553178       -15.0527
  36   2.0000      -0.551453       -15.0058
  37   2.0000      -0.527269       -14.3477
  38   2.0000      -0.524508       -14.2726
  39   2.0000      -0.513980       -13.9861
  40   2.0000      -0.511527       -13.9194
  41   2.0000      -0.506241       -13.7755
  42   2.0000      -0.497588       -13.5401
  43   2.0000      -0.461191       -12.5496
  44   2.0000      -0.460744       -12.5375
  45   2.0000      -0.450760       -12.2658
  46   2.0000      -0.448277       -12.1982
  47   0.0000       0.024401         0.6640
  48   0.0000       0.025329         0.6892
  49   0.0000       0.032882         0.8948
  50   0.0000       0.034574         0.9408
  51   0.0000       0.035826         0.9749

MULLIKEN ATOMIC CHARGES
-----------------------
   0 C :    1.192393
   1 C :    1.192142
   2 C :   -0.823255
   3 C :   -0.823292
   4 C :   -0.440615
   5 C :   -0.439879
   6 C :   -0.130635
   7 C :   -0.130602
   8 O :   -0.879613
   9 O :   -0.879486
  10 O :   -0.807907
  11 O :   -0.808166
  12 H :    0.272364
  13 H :    0.234244
  14 H :    0.232587
  15 H :    0.272367
  16 H :    0.234265
  17 H :    0.232615
  18 H :    0.288682
  19 H :    0.283677
  20 H :    0.283791
  21 H :    0.288853
  22 H :    0.286572
  23 H :    0.291155
  24 H :    0.286573
  25 H :    0.291169
Sum of atomic charges:    0.0000000

LOEWDIN ATOMIC CHARGES
----------------------
   0 C :   -1.042810
   1 C :   -1.042810
   2 C :    0.913238
   3 C :    0.913238
   4 C :    0.431591
   5 C :    0.431591
   6 C :    0.162657
   7 C :    0.162657
   8 O :    0.733968
   9 O :    0.733969
  10 O :    0.865905
  11 O :    0.865905
  12 H :   -0.290919
  13 H :   -0.290551
  14 H :   -0.290670
  15 H :   -0.290919
  16 H :   -0.290551
  17 H :   -0.290670
  18 H :   -0.292148
  19 H :   -0.287344
  20 H :   -0.287344
  21 H :   -0.292148
  22 H :   -0.307321
  23 H :   -0.305595
  24 H :   -0.307321
  25 H :   -0.305595

  Mayer bond orders larger than 0.100000
B(  0-C ,  4-C ) :   1.2123 B(  0-C ,  5-C ) :  -0.2550 B(  0-C ,  8-O ) :   1.0417
B(  0-C , 10-O ) :   0.9828 B(  1-C ,  4-C ) :  -0.2549 B(  1-C ,  5-C ) :   1.2123
B(  1-C ,  9-O ) :   1.0417 B(  1-C , 11-O ) :   0.9832 B(  2-C ,  6-C ) :   0.9595
B(  2-C , 12-H ) :   0.9865 B(  2-C , 13-H ) :   0.9435 B(  2-C , 14-H ) :   0.9463
B(  3-C ,  7-C ) :   0.9595 B(  3-C , 15-H ) :   0.9865 B(  3-C , 16-H ) :   0.9435
B(  3-C , 17-H ) :   0.9463 B(  4-C ,  5-C ) :   1.1568 B(  4-C ,  8-O ) :   0.1750
B(  4-C , 10-O ) :   0.1171 B(  4-C , 18-H ) :   0.8182 B(  4-C , 19-H ) :   0.8459
B(  5-C ,  9-O ) :   0.1749 B(  5-C , 11-O ) :   0.1168 B(  5-C , 20-H ) :   0.8458
B(  5-C , 21-H ) :   0.8181 B(  6-C ,  8-O ) :   0.1177 B(  6-C , 10-O ) :   0.8155
B(  6-C , 22-H ) :   0.8514 B(  6-C , 23-H ) :   0.8485 B(  7-C ,  9-O ) :   0.1176
B(  7-C , 11-O ) :   0.8156 B(  7-C , 24-H ) :   0.8514 B(  7-C , 25-H ) :   0.8485
B(  8-O , 10-O ) :   0.1109 B(  9-O , 11-O ) :   0.1109

MP2 TOTAL ENERGY:     -613.305803380 Eh
FINAL SINGLE POINT ENERGY      -613.305803379681

DIPOLE MOMENT
-------------
                                X             Y             Z
Electronic contribution:      0.00000       0.00000      -0.76267
Nuclear contribution   :      0.00000       0.00000       0.93097
                        -----------------------------------------
Total Dipole Moment    :      0.00000       0.00000       0.16830
                        -----------------------------------------
Magnitude (a.u.)       :      0.16830
Magnitude (Debye)      :      0.42777

Rotational constants in cm-1:     0.121783     0.008857     0.008350
Rotational constants in MHz :  3650.959655   265.516775   250.321773

                             ****ORCA TERMINATED NORMALLY****
TOTAL RUN TIME: 0 days 2 hours 28 minutes 59 seconds 629 msec
