                         Program Version 5.0.4 -  RELEASE  -
|  1> !ri-mp2 aug-cc-pvqz aug-cc-pvqz/c tightscf
|  2> %pal nprocs 16 end
|  3>
|  4> * xyz 0 1
|  5> C      0.000000    2.489253    0.832738
|  6> C      0.000000   -2.489253    0.832738
|  7> C      0.000000    2.874720   -0.476647
|  8> C      0.000000   -2.874720   -0.476647
|  9> C      0.000000    1.073622    0.774661
| 10> C      0.000000   -1.073622    0.774661
| 11> C      0.000000    0.706341   -0.549010
| 12> C      0.000000   -0.706341   -0.549010
| 13> O      0.000000    1.799140   -1.343744
| 14> O      0.000000   -1.799140   -1.343744
| 15> O      0.000000    0.000000    1.629823
| 16> H      0.000000    3.143332    1.686236
| 17> H      0.000000   -3.143332    1.686236
| 18> H      0.000000    3.840540   -0.946024
| 19> H      0.000000   -3.840540   -0.946024
| 20> *
| 21>
| 22>                          ****END OF INPUT****

CARTESIAN COORDINATES (ANGSTROEM)
---------------------------------
  C      0.000000    2.489253    0.832738
  C      0.000000   -2.489253    0.832738
  C      0.000000    2.874720   -0.476647
  C      0.000000   -2.874720   -0.476647
  C      0.000000    1.073622    0.774661
  C      0.000000   -1.073622    0.774661
  C      0.000000    0.706341   -0.549010
  C      0.000000   -0.706341   -0.549010
  O      0.000000    1.799140   -1.343744
  O      0.000000   -1.799140   -1.343744
  O      0.000000    0.000000    1.629823
  H      0.000000    3.143332    1.686236
  H      0.000000   -3.143332    1.686236
  H      0.000000    3.840540   -0.946024
  H      0.000000   -3.840540   -0.946024

 Total Charge           Charge          ....    0
 Multiplicity           Mult            ....    1
 Number of Electrons    NEL             ....   76
 Basis Dimension        Dim             .... 1064

ORBITAL ENERGIES
----------------

  NO   OCC          E(Eh)            E(eV)
   0   2.0000     -20.636184      -561.5391
   1   2.0000     -20.636184      -561.5391
   2   2.0000     -20.633063      -561.4542
   3   2.0000     -11.304357      -307.6072
   4   2.0000     -11.304357      -307.6072
   5   2.0000     -11.300195      -307.4939
   6   2.0000     -11.299201      -307.4669
   7   2.0000     -11.292798      -307.2927
   8   2.0000     -11.292773      -307.2920
   9   2.0000     -11.252409      -306.1936
  10   2.0000     -11.252409      -306.1936
  11   2.0000      -1.481361       -40.3099
  12   2.0000      -1.465152       -39.8688
  13   2.0000      -1.449619       -39.4461
  14   2.0000      -1.107881       -30.1470
  15   2.0000      -1.104613       -30.0580
  16   2.0000      -1.069257       -29.0960
  17   2.0000      -0.975666       -26.5492
  18   2.0000      -0.862828       -23.4788
  19   2.0000      -0.831763       -22.6334
  20   2.0000      -0.800360       -21.7789
  21   2.0000      -0.787855       -21.4386
  22   2.0000      -0.724999       -19.7282
  23   2.0000      -0.698586       -19.0095
  24   2.0000      -0.688496       -18.7349
  25   2.0000      -0.652648       -17.7595
  26   2.0000      -0.638919       -17.3859
  27   2.0000      -0.626821       -17.0567
  28   2.0000      -0.620396       -16.8818
  29   2.0000      -0.612531       -16.6678
  30   2.0000      -0.592708       -16.1284
  31   2.0000      -0.587400       -15.9840
  32   2.0000      -0.538678       -14.6582
  33   2.0000      -0.517846       -14.0913
  34   2.0000      -0.419650       -11.4192
  35   2.0000      -0.389395       -10.5960
  36   2.0000      -0.384358       -10.4589
  37   2.0000      -0.269431        -7.3316
  38   0.0000       0.024609         0.6696
  39   0.0000       0.024637         0.6704
  40   0.0000       0.031686         0.8622
  41   0.0000       0.037470         1.0196
  42   0.0000       0.058367         1.5882

MULLIKEN ATOMIC CHARGES
-----------------------
   0 C :   -0.494762
   1 C :   -0.494829
   2 C :   -0.401281
   3 C :   -0.401261
   4 C :    0.329913
   5 C :    0.329939
   6 C :    0.719517
   7 C :    0.719553
   8 O :   -0.794533
   9 O :   -0.794581
  10 O :   -0.728666
  11 H :    0.436039
  12 H :    0.436057
  13 H :    0.569435
  14 H :    0.569461
Sum of atomic charges:    0.0000000

LOEWDIN ATOMIC CHARGES
----------------------
   0 C :    0.364568
   1 C :    0.364568
   2 C :    0.019647
   3 C :    0.019647
   4 C :   -0.539566
   5 C :   -0.539566
   6 C :   -0.486417
   7 C :   -0.486417
   8 O :    0.860881
   9 O :    0.860881
  10 O :    0.888575
  11 H :   -0.326665
  12 H :   -0.326665
  13 H :   -0.336736
  14 H :   -0.336736

  Mayer bond orders larger than 0.100000
B(  0-C ,  2-C ) :   1.8833 B(  0-C ,  4-C ) :   0.9858 B(  0-C ,  6-C ) :  -0.3830
B(  0-C , 11-H ) :   0.8675 B(  1-C ,  3-C ) :   1.8835 B(  1-C ,  5-C ) :   0.9858
B(  1-C ,  7-C ) :  -0.3831 B(  1-C , 12-H ) :   0.8675 B(  2-C ,  4-C ) :  -0.2209
B(  2-C ,  6-C ) :  -0.1222 B(  2-C ,  8-O ) :   0.9005 B(  2-C , 13-H ) :   0.7200
B(  3-C ,  5-C ) :  -0.2210 B(  3-C ,  7-C ) :  -0.1221 B(  3-C ,  9-O ) :   0.9005
B(  3-C , 14-H ) :   0.7200 B(  4-C ,  6-C ) :   1.2480 B(  4-C ,  7-C ) :  -0.5062
B(  4-C , 10-O ) :   0.6697 B(  5-C ,  6-C ) :  -0.5062 B(  5-C ,  7-C ) :   1.2480
B(  5-C , 10-O ) :   0.6698 B(  6-C ,  7-C ) :   1.3383 B(  6-C ,  8-O ) :   0.3232
B(  6-C ,  9-O ) :   0.2442 B(  7-C ,  8-O ) :   0.2442 B(  7-C ,  9-O ) :   0.3231

MP2 TOTAL ENERGY:     -532.044183862 Eh
FINAL SINGLE POINT ENERGY      -532.044183861575

DIPOLE MOMENT
-------------
                                X             Y             Z
Electronic contribution:     -0.00000      -0.00000      -1.06130
Nuclear contribution   :      0.00000       0.00000       1.41055
                        -----------------------------------------
Total Dipole Moment    :     -0.00000      -0.00000       0.34925
                        -----------------------------------------
Magnitude (a.u.)       :      0.34925
Magnitude (Debye)      :      0.88772

Rotational constants in cm-1:     0.111220     0.031202     0.024366
Rotational constants in MHz :  3334.303864   935.418397   730.485260

                             ****ORCA TERMINATED NORMALLY****
TOTAL RUN TIME: 0 days 1 hours 4 minutes 55 seconds 46 msec
