                         Program Version 5.0.4 -  RELEASE  -
|  1> !ri-mp2 aug-cc-pvqz aug-cc-pvqz/c tightscf
|  2> %pal nprocs 16 end
|  3> %maxcore 3800
|  4>
|  5> * xyz 0 1
|  6> C      2.663848   -0.782766   -0.312447
|  7> C      1.574850    0.243819    0.027897
|  8> S      0.003172   -0.652999   -0.591505
|  9> O     -0.020248   -1.977073    0.141990
| 10> C      1.557609    0.507360    1.528193
| 11> C      1.785704    1.512671   -0.796723
| 12> C     -1.573874    0.251467    0.029249
| 13> C     -1.560609    1.730836   -0.336792
| 14> C     -1.776120    0.006480    1.519693
| 15> C     -2.659747   -0.480531   -0.773418
| 16> H      2.509176   -1.714151    0.227716
| 17> H      2.686446   -1.005976   -1.380264
| 18> H      3.635357   -0.369465   -0.033555
| 19> H      1.255380   -0.384375    2.076591
| 20> H      0.895101    1.328817    1.794977
| 21> H      2.563900    0.776586    1.859022
| 22> H      1.684867    1.314388   -1.864966
| 23> H      2.799008    1.883799   -0.626678
| 24> H      1.096530    2.309355   -0.528584
| 25> H     -1.282606    1.890906   -1.379789
| 26> H     -0.889760    2.308180    0.296527
| 27> H     -2.565562    2.138481   -0.202592
| 28> H     -1.549414   -1.030527    1.766119
| 29> H     -2.819894    0.198857    1.778581
| 30> H     -1.156770    0.655303    2.134375
| 31> H     -2.534148   -0.333472   -1.846700
| 32> H     -2.647862   -1.549896   -0.566985
| 33> H     -3.638489   -0.088261   -0.489546
| 34> *
| 35>
| 36>                          ****END OF INPUT****

CARTESIAN COORDINATES (ANGSTROEM)
---------------------------------
  C      2.663848   -0.782766   -0.312447
  C      1.574850    0.243819    0.027897
  S      0.003172   -0.652999   -0.591505
  O     -0.020248   -1.977073    0.141990
  C      1.557609    0.507360    1.528193
  C      1.785704    1.512671   -0.796723
  C     -1.573874    0.251467    0.029249
  C     -1.560609    1.730836   -0.336792
  C     -1.776120    0.006480    1.519693
  C     -2.659747   -0.480531   -0.773418
  H      2.509176   -1.714151    0.227716
  H      2.686446   -1.005976   -1.380264
  H      3.635357   -0.369465   -0.033555
  H      1.255380   -0.384375    2.076591
  H      0.895101    1.328817    1.794977
  H      2.563900    0.776586    1.859022
  H      1.684867    1.314388   -1.864966
  H      2.799008    1.883799   -0.626678
  H      1.096530    2.309355   -0.528584
  H     -1.282606    1.890906   -1.379789
  H     -0.889760    2.308180    0.296527
  H     -2.565562    2.138481   -0.202592
  H     -1.549414   -1.030527    1.766119
  H     -2.819894    0.198857    1.778581
  H     -1.156770    0.655303    2.134375
  H     -2.534148   -0.333472   -1.846700
  H     -2.647862   -1.549896   -0.566985
  H     -3.638489   -0.088261   -0.489546

 Total Charge           Charge          ....    0
 Multiplicity           Mult            ....    1
 Number of Electrons    NEL             ....   90
 Basis Dimension        Dim             .... 1632

ORBITAL ENERGIES
----------------

  NO   OCC          E(Eh)            E(eV)
   0   2.0000     -92.041188     -2504.5681
   1   2.0000     -20.488515      -557.5208
   2   2.0000     -11.276079      -306.8377
   3   2.0000     -11.275551      -306.8233
   4   2.0000     -11.232436      -305.6501
   5   2.0000     -11.229272      -305.5640
   6   2.0000     -11.223522      -305.4076
   7   2.0000     -11.220906      -305.3364
   8   2.0000     -11.217691      -305.2489
   9   2.0000     -11.215183      -305.1806
  10   2.0000      -9.029797      -245.7133
  11   2.0000      -6.711423      -182.6271
  12   2.0000      -6.711333      -182.6246
  13   2.0000      -6.710021      -182.5890
  14   2.0000      -1.311173       -35.6788
  15   2.0000      -1.116714       -30.3873
  16   2.0000      -1.101201       -29.9652
  17   2.0000      -0.956464       -26.0267
  18   2.0000      -0.949814       -25.8457
  19   2.0000      -0.944411       -25.6987
  20   2.0000      -0.939290       -25.5594
  21   2.0000      -0.900634       -24.5075
  22   2.0000      -0.770200       -20.9582
  23   2.0000      -0.724696       -19.7200
  24   2.0000      -0.651511       -17.7285
  25   2.0000      -0.634804       -17.2739
  26   2.0000      -0.619146       -16.8478
  27   2.0000      -0.615851       -16.7582
  28   2.0000      -0.607540       -16.5320
  29   2.0000      -0.601881       -16.3780
  30   2.0000      -0.572965       -15.5912
  31   2.0000      -0.555747       -15.1226
  32   2.0000      -0.550718       -14.9858
  33   2.0000      -0.542553       -14.7636
  34   2.0000      -0.531299       -14.4574
  35   2.0000      -0.523833       -14.2542
  36   2.0000      -0.519793       -14.1443
  37   2.0000      -0.508698       -13.8424
  38   2.0000      -0.498028       -13.5520
  39   2.0000      -0.487663       -13.2700
  40   2.0000      -0.484470       -13.1831
  41   2.0000      -0.481687       -13.1074
  42   2.0000      -0.470050       -12.7907
  43   2.0000      -0.382310       -10.4032
  44   2.0000      -0.340745        -9.2721
  45   0.0000       0.021250         0.5782
  46   0.0000       0.026310         0.7159
  47   0.0000       0.029120         0.7924
  48   0.0000       0.032534         0.8853
  49   0.0000       0.039888         1.0854

MULLIKEN ATOMIC CHARGES
-----------------------
   0 C :   -1.206468
   1 C :    1.683501
   2 S :    0.668287
   3 O :   -1.374530
   4 C :   -1.224341
   5 C :   -1.228074
   6 C :    1.653962
   7 C :   -1.181480
   8 C :   -1.203939
   9 C :   -1.226014
  10 H :    0.230401
  11 H :    0.235143
  12 H :    0.305752
  13 H :    0.284729
  14 H :    0.268110
  15 H :    0.213159
  16 H :    0.209387
  17 H :    0.248255
  18 H :    0.324165
  19 H :    0.262601
  20 H :    0.249124
  21 H :    0.204910
  22 H :    0.257321
  23 H :    0.231651
  24 H :    0.313001
  25 H :    0.228813
  26 H :    0.264057
  27 H :    0.308515
Sum of atomic charges:    0.0000000

LOEWDIN ATOMIC CHARGES
----------------------
   0 C :    0.826637
   1 C :   -0.419740
   2 S :    0.785158
   3 O :    0.159710
   4 C :    0.872126
   5 C :    0.857717
   6 C :   -0.410809
   7 C :    0.864911
   8 C :    0.862240
   9 C :    0.829782
  10 H :   -0.312234
  11 H :   -0.283415
  12 H :   -0.277460
  13 H :   -0.284363
  14 H :   -0.305628
  15 H :   -0.266676
  16 H :   -0.280712
  17 H :   -0.270105
  18 H :   -0.325744
  19 H :   -0.276359
  20 H :   -0.308566
  21 H :   -0.266386
  22 H :   -0.325253
  23 H :   -0.270073
  24 H :   -0.315001
  25 H :   -0.286564
  26 H :   -0.295018
  27 H :   -0.278175

  Mayer bond orders larger than 0.100000
B(  0-C ,  2-S ) :   0.1059 B(  0-C ,  4-C ) :   0.1358 B(  0-C ,  5-C ) :   0.1535
B(  0-C , 10-H ) :   1.0930 B(  0-C , 11-H ) :   1.0901 B(  0-C , 12-H ) :   0.9848
B(  1-C ,  2-S ) :   0.7223 B(  1-C ,  3-O ) :  -0.2350 B(  1-C ,  4-C ) :   0.3504
B(  1-C ,  5-C ) :   0.4284 B(  1-C , 10-H ) :  -0.1916 B(  1-C , 11-H ) :  -0.1887
B(  1-C , 12-H ) :  -0.1280 B(  1-C , 13-H ) :  -0.1114 B(  1-C , 14-H ) :  -0.1413
B(  1-C , 16-H ) :  -0.1121 B(  1-C , 18-H ) :  -0.1054 B(  2-S ,  3-O ) :   1.0792
B(  2-S ,  4-C ) :   0.1144 B(  2-S ,  6-C ) :   0.6586 B(  2-S ,  8-C ) :   0.1177
B(  2-S ,  9-C ) :   0.1051 B(  3-O ,  6-C ) :  -0.2551 B(  4-C ,  5-C ) :   0.1201
B(  4-C , 13-H ) :   1.0388 B(  4-C , 14-H ) :   1.0264 B(  4-C , 15-H ) :   1.0361
B(  5-C , 16-H ) :   1.0893 B(  5-C , 17-H ) :   1.0305 B(  5-C , 18-H ) :   0.9477
B(  6-C ,  7-C ) :   0.4241 B(  6-C ,  8-C ) :   0.3518 B(  6-C , 19-H ) :  -0.1236
B(  6-C , 20-H ) :  -0.1093 B(  6-C , 22-H ) :  -0.1126 B(  6-C , 24-H ) :  -0.1292
B(  6-C , 25-H ) :  -0.1897 B(  6-C , 26-H ) :  -0.1855 B(  6-C , 27-H ) :  -0.1288
B(  7-C ,  8-C ) :   0.1319 B(  7-C ,  9-C ) :   0.1409 B(  7-C , 19-H ) :   1.0248
B(  7-C , 20-H ) :   1.0123 B(  7-C , 21-H ) :   1.0719 B(  8-C ,  9-C ) :   0.1407
B(  8-C , 22-H ) :   1.0712 B(  8-C , 23-H ) :   1.0153 B(  8-C , 24-H ) :   0.9782
B(  9-C , 25-H ) :   1.1046 B(  9-C , 26-H ) :   1.0866 B(  9-C , 27-H ) :   0.9801

MP2 TOTAL ENERGY:     -787.947287307 Eh
FINAL SINGLE POINT ENERGY      -787.947287307094

DIPOLE MOMENT
-------------
                                X             Y             Z
Electronic contribution:     -0.02445      -6.98497      -3.19143
Nuclear contribution   :      0.04254       8.66273       3.16069
                        -----------------------------------------
Total Dipole Moment    :      0.01809       1.67777      -0.03074
                        -----------------------------------------
Magnitude (a.u.)       :      1.67815
Magnitude (Debye)      :      4.26551

Rotational constants in cm-1:     0.054765     0.029123     0.025974
Rotational constants in MHz :  1641.807633   873.088213   778.666820

                             ****ORCA TERMINATED NORMALLY****
TOTAL RUN TIME: 0 days 5 hours 5 minutes 5 seconds 360 msec
