                         Program Version 5.0.4 -  RELEASE  -
|  1> !ri-mp2 aug-cc-pvqz aug-cc-pvqz/c tightscf
|  2> %pal nprocs 16 end
|  3>
|  4> * xyz 0 1
|  5> C      0.000000    0.000000    0.794985
|  6> N      0.000000    0.748957   -0.440025
|  7> N      0.000000   -0.748957   -0.440025
|  8> H      0.911241    0.078114    1.376716
|  9> H     -0.911241   -0.078114    1.376716
| 10> H     -0.955168    0.999325   -0.681494
| 11> H      0.955168   -0.999325   -0.681494
| 12> *
| 13>
| 14>                          ****END OF INPUT****

CARTESIAN COORDINATES (ANGSTROEM)
---------------------------------
  C      0.000000    0.000000    0.794985
  N      0.000000    0.748957   -0.440025
  N      0.000000   -0.748957   -0.440025
  H      0.911241    0.078114    1.376716
  H     -0.911241   -0.078114    1.376716
  H     -0.955168    0.999325   -0.681494
  H      0.955168   -0.999325   -0.681494

 Total Charge           Charge          ....    0
 Multiplicity           Mult            ....    1
 Number of Electrons    NEL             ....   24
 Basis Dimension        Dim             ....  424

ORBITAL ENERGIES
----------------

  NO   OCC          E(Eh)            E(eV)
   0   2.0000     -15.592619      -424.2967
   1   2.0000     -15.592223      -424.2860
   2   2.0000     -11.292668      -307.2891
   3   2.0000      -1.343895       -36.5692
   4   2.0000      -0.990514       -26.9533
   5   2.0000      -0.882361       -24.0103
   6   2.0000      -0.701506       -19.0889
   7   2.0000      -0.675924       -18.3928
   8   2.0000      -0.532573       -14.4921
   9   2.0000      -0.506733       -13.7889
  10   2.0000      -0.447358       -12.1732
  11   2.0000      -0.418716       -11.3938
  12   0.0000       0.026704         0.7266
  13   0.0000       0.034779         0.9464
  14   0.0000       0.039937         1.0868
  15   0.0000       0.045972         1.2510
  16   0.0000       0.072130         1.9628

MULLIKEN ATOMIC CHARGES
-----------------------
   0 C :   -0.424589
   1 N :   -0.467730
   2 N :   -0.467730
   3 H :    0.403169
   4 H :    0.403169
   5 H :    0.276856
   6 H :    0.276856
Sum of atomic charges:   -0.0000000

LOEWDIN ATOMIC CHARGES
----------------------
   0 C :    0.195025
   1 N :    0.803653
   2 N :    0.803653
   3 H :   -0.304037
   4 H :   -0.304037
   5 H :   -0.597128
   6 H :   -0.597128

  Mayer bond orders larger than 0.100000
B(  0-C ,  1-N ) :   0.9279 B(  0-C ,  2-N ) :   0.9279 B(  0-C ,  3-H ) :   0.8197
B(  0-C ,  4-H ) :   0.8197 B(  1-N ,  2-N ) :   0.9718 B(  1-N ,  5-H ) :   0.8725
B(  2-N ,  6-H ) :   0.8725

MP2 TOTAL ENERGY:     -149.708047987 Eh
FINAL SINGLE POINT ENERGY      -149.708047986695

DIPOLE MOMENT
-------------
                                X             Y             Z
Electronic contribution:     -0.00000       0.00000      -0.83894
Nuclear contribution   :      0.00000       0.00000       1.41725
                        -----------------------------------------
Total Dipole Moment    :     -0.00000       0.00000       0.57831
                        -----------------------------------------
Magnitude (a.u.)       :      0.57831
Magnitude (Debye)      :      1.46995

Rotational constants in cm-1:     0.801861     0.793191     0.472354
Rotational constants in MHz : 24039.183608 23779.258660 14160.818353

                             ****ORCA TERMINATED NORMALLY****
TOTAL RUN TIME: 0 days 0 hours 1 minutes 43 seconds 460 msec
