                         Program Version 5.0.4 -  RELEASE  -
|  1> !ri-mp2 aug-cc-pvqz aug-cc-pvqz/c tightscf
|  2> %pal nprocs 16 end
|  3>
|  4> * xyz 0 1
|  5> C     -1.215127   -0.241882   -0.021159
|  6> C      0.077656    0.555024    0.046899
|  7> O      1.241995   -0.256233   -0.108913
|  8> H     -2.078754    0.421353    0.059053
|  9> H     -1.283191   -0.786082   -0.963270
| 10> H     -1.275073   -0.964301    0.796308
| 11> H      0.129488    1.119523    0.984758
| 12> H      0.123133    1.276394   -0.768848
| 13> H      1.273257   -0.895870    0.608864
| 14> *
| 15>
| 16>                          ****END OF INPUT****

CARTESIAN COORDINATES (ANGSTROEM)
---------------------------------
  C     -1.215127   -0.241882   -0.021159
  C      0.077656    0.555024    0.046899
  O      1.241995   -0.256233   -0.108913
  H     -2.078754    0.421353    0.059053
  H     -1.283191   -0.786082   -0.963270
  H     -1.275073   -0.964301    0.796308
  H      0.129488    1.119523    0.984758
  H      0.123133    1.276394   -0.768848
  H      1.273257   -0.895870    0.608864

 Total Charge           Charge          ....    0
 Multiplicity           Mult            ....    1
 Number of Electrons    NEL             ....   26
 Basis Dimension        Dim             ....  516

ORBITAL ENERGIES
----------------

  NO   OCC          E(Eh)            E(eV)
   0   2.0000     -20.552338      -559.2576
   1   2.0000     -11.274334      -306.7902
   2   2.0000     -11.217983      -305.2568
   3   2.0000      -1.353812       -36.8391
   4   2.0000      -1.012637       -27.5552
   5   2.0000      -0.848243       -23.0819
   6   2.0000      -0.685562       -18.6551
   7   2.0000      -0.621987       -16.9251
   8   2.0000      -0.606199       -16.4955
   9   2.0000      -0.545413       -14.8415
  10   2.0000      -0.525608       -14.3025
  11   2.0000      -0.482149       -13.1199
  12   2.0000      -0.444200       -12.0873
  13   0.0000       0.025988         0.7072
  14   0.0000       0.035007         0.9526
  15   0.0000       0.037196         1.0122
  16   0.0000       0.040838         1.1113
  17   0.0000       0.058952         1.6042

MULLIKEN ATOMIC CHARGES
-----------------------
   0 C :   -0.866546
   1 C :    0.021896
   2 O :   -0.795167
   3 H :    0.270156
   4 H :    0.260881
   5 H :    0.241818
   6 H :    0.233050
   7 H :    0.297599
   8 H :    0.336313
Sum of atomic charges:    0.0000000

LOEWDIN ATOMIC CHARGES
----------------------
   0 C :    0.902471
   1 C :    0.169556
   2 O :    1.252830
   3 H :   -0.294660
   4 H :   -0.296542
   5 H :   -0.297701
   6 H :   -0.303899
   7 H :   -0.327274
   8 H :   -0.804782

  Mayer bond orders larger than 0.100000
B(  0-C ,  1-C ) :   1.0401 B(  0-C ,  3-H ) :   0.9352 B(  0-C ,  4-H ) :   0.9097
B(  0-C ,  5-H ) :   0.9225 B(  1-C ,  2-O ) :   0.6885 B(  1-C ,  6-H ) :   0.9066
B(  1-C ,  7-H ) :   0.8612 B(  2-O ,  8-H ) :   0.8795

MP2 TOTAL ENERGY:     -154.803355055 Eh
FINAL SINGLE POINT ENERGY      -154.803355054694

DIPOLE MOMENT
-------------
                                X             Y             Z
Electronic contribution:      2.74444      -0.21927      -0.27214
Nuclear contribution   :     -3.27684       0.17698       0.75801
                        -----------------------------------------
Total Dipole Moment    :     -0.53239      -0.04228       0.48587
                        -----------------------------------------
Magnitude (a.u.)       :      0.72201
Magnitude (Debye)      :      1.83521

Rotational constants in cm-1:     1.153023     0.304716     0.269527
Rotational constants in MHz : 34566.765893  9135.152043  8080.219190

                             ****ORCA TERMINATED NORMALLY****
TOTAL RUN TIME: 0 days 0 hours 4 minutes 40 seconds 128 msec
