                         Program Version 5.0.4 -  RELEASE  -
|  1> !ri-mp2 aug-cc-pvqz aug-cc-pvqz/c tightscf
|  2> %pal nprocs 16 end
|  3>
|  4> * xyz 0 1
|  5> C     0.397467     0.657442    0.000000
|  6> C    -0.397467    -0.657442    0.000000
|  7> N    -0.397467     1.884333    0.000000
|  8> N     0.397467    -1.884333    0.000000
|  9> H     0.996875    -1.932923    0.815009
| 10> H     0.996875    -1.932923   -0.815009
| 11> H    -0.996875     1.932923    0.815009
| 12> H    -0.996875     1.932923   -0.815009
| 13> H    -1.053507    -0.679296    0.874859
| 14> H    -1.053507    -0.679296   -0.874859
| 15> H     1.053507     0.679296    0.874859
| 16> H     1.053507     0.679296   -0.874859
| 17> *
| 18>
| 19>                          ****END OF INPUT****

CARTESIAN COORDINATES (ANGSTROEM)
---------------------------------
  C      0.397467    0.657442    0.000000
  C     -0.397467   -0.657442    0.000000
  N     -0.397467    1.884333    0.000000
  N      0.397467   -1.884333    0.000000
  H      0.996875   -1.932923    0.815009
  H      0.996875   -1.932923   -0.815009
  H     -0.996875    1.932923    0.815009
  H     -0.996875    1.932923   -0.815009
  H     -1.053507   -0.679296    0.874859
  H     -1.053507   -0.679296   -0.874859
  H      1.053507    0.679296    0.874859
  H      1.053507    0.679296   -0.874859

 Total Charge           Charge          ....    0
 Multiplicity           Mult            ....    1
 Number of Electrons    NEL             ....   34
 Basis Dimension        Dim             ....  688

ORBITAL ENERGIES
----------------

  NO   OCC          E(Eh)            E(eV)
   0   2.0000     -15.540373      -422.8750
   1   2.0000     -15.540369      -422.8749
   2   2.0000     -11.246938      -306.0447
   3   2.0000     -11.246339      -306.0284
   4   2.0000      -1.192663       -32.4540
   5   2.0000      -1.161304       -31.6007
   6   2.0000      -0.949389       -25.8342
   7   2.0000      -0.829152       -22.5624
   8   2.0000      -0.691442       -18.8151
   9   2.0000      -0.652816       -17.7640
  10   2.0000      -0.601880       -16.3780
  11   2.0000      -0.600885       -16.3509
  12   2.0000      -0.548854       -14.9351
  13   2.0000      -0.523185       -14.2366
  14   2.0000      -0.482641       -13.1333
  15   2.0000      -0.431638       -11.7455
  16   2.0000      -0.367016        -9.9870
  17   0.0000       0.026562         0.7228
  18   0.0000       0.031143         0.8475
  19   0.0000       0.034270         0.9325
  20   0.0000       0.040516         1.1025
  21   0.0000       0.054585         1.4853

MULLIKEN ATOMIC CHARGES
-----------------------
   0 C :   -0.322760
   1 C :   -0.322760
   2 N :   -0.730933
   3 N :   -0.730933
   4 H :    0.252914
   5 H :    0.252914
   6 H :    0.252914
   7 H :    0.252914
   8 H :    0.273933
   9 H :    0.273933
  10 H :    0.273933
  11 H :    0.273933
Sum of atomic charges:    0.0000000

LOEWDIN ATOMIC CHARGES
----------------------
   0 C :    0.350414
   1 C :    0.350414
   2 N :    1.279104
   3 N :    1.279104
   4 H :   -0.514830
   5 H :   -0.514830
   6 H :   -0.514830
   7 H :   -0.514830
   8 H :   -0.299929
   9 H :   -0.299929
  10 H :   -0.299929
  11 H :   -0.299929

  Mayer bond orders larger than 0.100000
B(  0-C ,  1-C ) :   1.0572 B(  0-C ,  2-N ) :   0.9110 B(  0-C , 10-H ) :   0.8778
B(  0-C , 11-H ) :   0.8778 B(  1-C ,  3-N ) :   0.9110 B(  1-C ,  8-H ) :   0.8778
B(  1-C ,  9-H ) :   0.8778 B(  2-N ,  6-H ) :   0.9026 B(  2-N ,  7-H ) :   0.9026
B(  3-N ,  4-H ) :   0.9026 B(  3-N ,  5-H ) :   0.9026

MP2 TOTAL ENERGY:     -190.209541752 Eh
FINAL SINGLE POINT ENERGY      -190.209541751561

DIPOLE MOMENT
-------------
                                X             Y             Z
Electronic contribution:      0.00000      -0.00000       0.00000
Nuclear contribution   :      0.00000       0.00000       0.00000
                        -----------------------------------------
Total Dipole Moment    :      0.00000      -0.00000       0.00000
                        -----------------------------------------
Magnitude (a.u.)       :      0.00000
Magnitude (Debye)      :      0.00000

Rotational constants in cm-1:     0.883295     0.124023     0.117491
Rotational constants in MHz : 26480.505471  3718.117259  3522.298743

                             ****ORCA TERMINATED NORMALLY****
TOTAL RUN TIME: 0 days 0 hours 9 minutes 35 seconds 59 msec
