                         Program Version 5.0.4 -  RELEASE  -
|  1> !ri-mp2 aug-cc-pvqz aug-cc-pvqz/c tightscf
|  2> %pal nprocs 16 end
|  3>
|  4> * xyz 0 1
|  5> O     -0.000024    0.000054    1.941721
|  6> N      0.000008   -0.000047    0.729470
|  7> C     -0.000025    0.000042   -1.881444
|  8> C      0.000075   -0.000109   -0.425458
|  9> H     -0.063200    1.018651   -2.266021
| 10> H      0.913597   -0.454486   -2.266367
| 11> H     -0.850557   -0.563861   -2.266253
| 12> *
| 13>
| 14>                          ****END OF INPUT****

CARTESIAN COORDINATES (ANGSTROEM)
---------------------------------
  O     -0.000024    0.000054    1.941721
  N      0.000008   -0.000047    0.729470
  C     -0.000025    0.000042   -1.881444
  C      0.000075   -0.000109   -0.425458
  H     -0.063200    1.018651   -2.266021
  H      0.913597   -0.454486   -2.266367
  H     -0.850557   -0.563861   -2.266253

 Total Charge           Charge          ....    0
 Multiplicity           Mult            ....    1
 Number of Electrons    NEL             ....   30
 Basis Dimension        Dim             ....  458

ORBITAL ENERGIES
----------------

  NO   OCC          E(Eh)            E(eV)
   0   2.0000     -20.556706      -559.3764
   1   2.0000     -15.729202      -428.0133
   2   2.0000     -11.307292      -307.6871
   3   2.0000     -11.295932      -307.3779
   4   2.0000      -1.480211       -40.2786
   5   2.0000      -1.217362       -33.1261
   6   2.0000      -1.047023       -28.4910
   7   2.0000      -0.730793       -19.8859
   8   2.0000      -0.685161       -18.6442
   9   2.0000      -0.673551       -18.3283
  10   2.0000      -0.673548       -18.3282
  11   2.0000      -0.612377       -16.6636
  12   2.0000      -0.612372       -16.6635
  13   2.0000      -0.384600       -10.4655
  14   2.0000      -0.384600       -10.4655
  15   0.0000       0.015486         0.4214
  16   0.0000       0.035013         0.9528
  17   0.0000       0.035014         0.9528
  18   0.0000       0.048527         1.3205
  19   0.0000       0.079436         2.1616

MULLIKEN ATOMIC CHARGES
-----------------------
   0 O :   -0.661299
   1 N :    0.020460
   2 C :   -0.644788
   3 C :    0.391057
   4 H :    0.298202
   5 H :    0.298178
   6 H :    0.298190
Sum of atomic charges:   -0.0000000

LOEWDIN ATOMIC CHARGES
----------------------
   0 O :    0.327764
   1 N :   -0.264125
   2 C :    0.876317
   3 C :    0.000077
   4 H :   -0.313357
   5 H :   -0.313340
   6 H :   -0.313336

  Mayer bond orders larger than 0.100000
B(  0-O ,  1-N ) :   1.1528 B(  0-O ,  3-C ) :   0.2742 B(  1-N ,  3-C ) :   2.4776
B(  2-C ,  3-C ) :   0.8586 B(  2-C ,  4-H ) :   0.9131 B(  2-C ,  5-H ) :   0.9131
B(  2-C ,  6-H ) :   0.9131

MP2 TOTAL ENERGY:     -207.602709951 Eh
FINAL SINGLE POINT ENERGY      -207.602709950876

DIPOLE MOMENT
-------------
                                X             Y             Z
Electronic contribution:      0.00015      -0.00030       4.47939
Nuclear contribution   :     -0.00016       0.00030      -6.67960
                        -----------------------------------------
Total Dipole Moment    :     -0.00001      -0.00000      -2.20021
                        -----------------------------------------
Magnitude (a.u.)       :      2.20021
Magnitude (Debye)      :      5.59249

Rotational constants in cm-1:     5.352922     0.130904     0.130904
Rotational constants in MHz : 160476.554324  3924.414632  3924.413224

                             ****ORCA TERMINATED NORMALLY****
TOTAL RUN TIME: 0 days 0 hours 2 minutes 24 seconds 154 msec
