                         Program Version 5.0.4 -  RELEASE  -
|  1> !ri-mp2 aug-cc-pvqz aug-cc-pvqz/c tightscf
|  2> %pal nprocs 16 end
|  3>
|  4> * xyz 0 1
|  5> C    -0.323065     0.580595    0.000000
|  6> C     0.323065    -0.580595    0.000000
|  7> C     0.323065     1.931514    0.000000
|  8> C    -0.323065    -1.931514    0.000000
|  9> H    -1.410554     0.569817    0.000000
| 10> H     1.410554    -0.569817    0.000000
| 11> H     0.024557     2.513142    0.876335
| 12> H     1.410604     1.854162    0.000000
| 13> H     0.024557     2.513142   -0.876335
| 14> H    -0.024557    -2.513142    0.876335
| 15> H    -1.410604    -1.854162    0.000000
| 16> H    -0.024557    -2.513142   -0.876335
| 17> *
| 18>
| 19>                          ****END OF INPUT****

CARTESIAN COORDINATES (ANGSTROEM)
---------------------------------
  C     -0.323065    0.580595    0.000000
  C      0.323065   -0.580595    0.000000
  C      0.323065    1.931514    0.000000
  C     -0.323065   -1.931514    0.000000
  H     -1.410554    0.569817    0.000000
  H      1.410554   -0.569817    0.000000
  H      0.024557    2.513142    0.876335
  H      1.410604    1.854162    0.000000
  H      0.024557    2.513142   -0.876335
  H     -0.024557   -2.513142    0.876335
  H     -1.410604   -1.854162    0.000000
  H     -0.024557   -2.513142   -0.876335

 Total Charge           Charge          ....    0
 Multiplicity           Mult            ....    1
 Number of Electrons    NEL             ....   32
 Basis Dimension        Dim             ....  688

ORBITAL ENERGIES
----------------

  NO   OCC          E(Eh)            E(eV)
   0   2.0000     -11.221333      -305.3480
   1   2.0000     -11.219584      -305.3004
   2   2.0000     -11.215903      -305.2002
   3   2.0000     -11.215887      -305.1998
   4   2.0000      -1.077336       -29.3158
   5   2.0000      -0.983440       -26.7608
   6   2.0000      -0.878767       -23.9125
   7   2.0000      -0.743918       -20.2430
   8   2.0000      -0.606688       -16.5088
   9   2.0000      -0.606224       -16.4962
  10   2.0000      -0.570344       -15.5199
  11   2.0000      -0.553337       -15.0571
  12   2.0000      -0.521924       -14.2023
  13   2.0000      -0.509717       -13.8701
  14   2.0000      -0.480192       -13.0667
  15   2.0000      -0.343243        -9.3401
  16   0.0000       0.028164         0.7664
  17   0.0000       0.031938         0.8691
  18   0.0000       0.034905         0.9498
  19   0.0000       0.039963         1.0875
  20   0.0000       0.049766         1.3542

MULLIKEN ATOMIC CHARGES
-----------------------
   0 C :   -0.403545
   1 C :   -0.403545
   2 C :   -0.680994
   3 C :   -0.680994
   4 H :    0.408039
   5 H :    0.408039
   6 H :    0.223026
   7 H :    0.230448
   8 H :    0.223026
   9 H :    0.223026
  10 H :    0.230448
  11 H :    0.223026
Sum of atomic charges:   -0.0000000

LOEWDIN ATOMIC CHARGES
----------------------
   0 C :    0.367762
   1 C :    0.367762
   2 C :    0.880445
   3 C :    0.880445
   4 H :   -0.332082
   5 H :   -0.332082
   6 H :   -0.298191
   7 H :   -0.319743
   8 H :   -0.298191
   9 H :   -0.298191
  10 H :   -0.319743
  11 H :   -0.298191

  Mayer bond orders larger than 0.100000
B(  0-C ,  1-C ) :   1.6157 B(  0-C ,  2-C ) :   0.8942 B(  0-C ,  4-H ) :   0.7689
B(  1-C ,  3-C ) :   0.8942 B(  1-C ,  5-H ) :   0.7689 B(  2-C ,  6-H ) :   0.9918
B(  2-C ,  7-H ) :   0.9549 B(  2-C ,  8-H ) :   0.9918 B(  3-C ,  9-H ) :   0.9918
B(  3-C , 10-H ) :   0.9549 B(  3-C , 11-H ) :   0.9918

MP2 TOTAL ENERGY:     -156.908449436 Eh
FINAL SINGLE POINT ENERGY      -156.908449435853

DIPOLE MOMENT
-------------
                                X             Y             Z
Electronic contribution:      0.00000      -0.00000       0.00000
Nuclear contribution   :     -0.00000       0.00000       0.00000
                        -----------------------------------------
Total Dipole Moment    :      0.00000      -0.00000       0.00000
                        -----------------------------------------
Magnitude (a.u.)       :      0.00000
Magnitude (Debye)      :      0.00000

Rotational constants in cm-1:     1.170376     0.124321     0.117223
Rotational constants in MHz : 35087.000806  3727.061140  3514.263691

                             ****ORCA TERMINATED NORMALLY****
TOTAL RUN TIME: 0 days 0 hours 11 minutes 22 seconds 589 msec
