                         Program Version 5.0.4 -  RELEASE  -
|  1> !ri-mp2 aug-cc-pvqz aug-cc-pvqz/c tightscf
|  2> %pal nprocs 16 end
|  3>
|  4> * xyz 0 1
|  5> C      1.516650    0.705578    0.000000
|  6> C      0.000000    0.834467    0.000000
|  7> S     -0.755427   -0.847361    0.000000
|  8> H      1.868133    0.170753    0.882762
|  9> H      1.868133    0.170753   -0.882762
| 10> H      1.975965    1.695046    0.000000
| 11> H     -0.341365    1.368763   -0.884290
| 12> H     -0.341365    1.368763    0.884290
| 13> H     -2.042577   -0.456566    0.000000
| 14> *
| 15>
| 16>                          ****END OF INPUT****

CARTESIAN COORDINATES (ANGSTROEM)
---------------------------------
  C      1.516650    0.705578    0.000000
  C      0.000000    0.834467    0.000000
  S     -0.755427   -0.847361    0.000000
  H      1.868133    0.170753    0.882762
  H      1.868133    0.170753   -0.882762
  H      1.975965    1.695046    0.000000
  H     -0.341365    1.368763   -0.884290
  H     -0.341365    1.368763    0.884290
  H     -2.042577   -0.456566    0.000000

 Total Charge           Charge          ....    0
 Multiplicity           Mult            ....    1
 Number of Electrons    NEL             ....   34
 Basis Dimension        Dim             ....  520

ORBITAL ENERGIES
----------------

  NO   OCC          E(Eh)            E(eV)
   0   2.0000     -91.947084     -2502.0074
   1   2.0000     -11.262322      -306.4634
   2   2.0000     -11.226599      -305.4913
   3   2.0000      -8.949256      -243.5216
   4   2.0000      -6.630842      -180.4344
   5   2.0000      -6.629914      -180.4091
   6   2.0000      -6.628999      -180.3842
   7   2.0000      -1.068050       -29.0631
   8   2.0000      -0.941868       -25.6295
   9   2.0000      -0.818937       -22.2844
  10   2.0000      -0.631750       -17.1908
  11   2.0000      -0.614364       -16.7177
  12   2.0000      -0.542007       -14.7488
  13   2.0000      -0.515402       -14.0248
  14   2.0000      -0.501137       -13.6366
  15   2.0000      -0.446298       -12.1444
  16   2.0000      -0.354920        -9.6579
  17   0.0000       0.026112         0.7106
  18   0.0000       0.033879         0.9219
  19   0.0000       0.038260         1.0411
  20   0.0000       0.039796         1.0829
  21   0.0000       0.055591         1.5127

MULLIKEN ATOMIC CHARGES
-----------------------
   0 C :   -0.756990
   1 C :   -0.447271
   2 S :   -0.185177
   3 H :    0.258646
   4 H :    0.258646
   5 H :    0.283392
   6 H :    0.267021
   7 H :    0.267021
   8 H :    0.054712
Sum of atomic charges:    0.0000000

LOEWDIN ATOMIC CHARGES
----------------------
   0 C :    0.801568
   1 C :    0.094023
   2 S :    1.547842
   3 H :   -0.309745
   4 H :   -0.309745
   5 H :   -0.293191
   6 H :   -0.368145
   7 H :   -0.368145
   8 H :   -0.794463

  Mayer bond orders larger than 0.100000
B(  0-C ,  1-C ) :   0.9800 B(  0-C ,  3-H ) :   0.9292 B(  0-C ,  4-H ) :   0.9292
B(  0-C ,  5-H ) :   0.9043 B(  1-C ,  2-S ) :   0.9360 B(  1-C ,  6-H ) :   0.8846
B(  1-C ,  7-H ) :   0.8846 B(  2-S ,  8-H ) :   1.0199

MP2 TOTAL ENERGY:     -477.394674046 Eh
FINAL SINGLE POINT ENERGY      -477.394674045956

DIPOLE MOMENT
-------------
                                X             Y             Z
Electronic contribution:     -3.05450      -3.75806       0.00000
Nuclear contribution   :      3.09379       4.46422       0.00000
                        -----------------------------------------
Total Dipole Moment    :      0.03929       0.70616       0.00000
                        -----------------------------------------
Magnitude (a.u.)       :      0.70726
Magnitude (Debye)      :      1.79770

Rotational constants in cm-1:     0.958860     0.179508     0.160249
Rotational constants in MHz : 28745.894957  5381.500081  4804.145513

                             ****ORCA TERMINATED NORMALLY****
TOTAL RUN TIME: 0 days 0 hours 5 minutes 22 seconds 853 msec
