                         Program Version 5.0.4 -  RELEASE  -
|  1> !ri-mp2 aug-cc-pvqz aug-cc-pvqz/c tightscf
|  2> %pal nprocs 16 end
|  3>
|  4> * xyz 0 1
|  5> C      2.375076    2.291871    0.000000
|  6> H      3.465991    2.277864    0.000000
|  7> H      2.044631    2.840367    0.882327
|  8> H      2.044631    2.840367   -0.882327
|  9> C      1.831458    0.869153    0.000000
| 10> H      2.172537    0.327306   -0.883073
| 11> H      2.172537    0.327306    0.883073
| 12> S      0.000000    0.889482    0.000000
| 13> C     -0.338622   -0.909728    0.000000
| 14> H      0.126062   -1.351508   -0.883539
| 15> H      0.126062   -1.351508    0.883539
| 16> C     -1.840977   -1.176175    0.000000
| 17> H     -2.290661   -0.701679    0.875094
| 18> H     -2.290661   -0.701679   -0.875094
| 19> C     -2.164305   -2.670386    0.000000
| 20> H     -1.752397   -3.165193   -0.881569
| 21> H     -1.752397   -3.165193    0.881569
| 22> H     -3.242119   -2.836574    0.000000
| 23> *
| 24>
| 25>                          ****END OF INPUT****

CARTESIAN COORDINATES (ANGSTROEM)
---------------------------------
  C      2.375076    2.291871    0.000000
  H      3.465991    2.277864    0.000000
  H      2.044631    2.840367    0.882327
  H      2.044631    2.840367   -0.882327
  C      1.831458    0.869153    0.000000
  H      2.172537    0.327306   -0.883073
  H      2.172537    0.327306    0.883073
  S      0.000000    0.889482    0.000000
  C     -0.338622   -0.909728    0.000000
  H      0.126062   -1.351508   -0.883539
  H      0.126062   -1.351508    0.883539
  C     -1.840977   -1.176175    0.000000
  H     -2.290661   -0.701679    0.875094
  H     -2.290661   -0.701679   -0.875094
  C     -2.164305   -2.670386    0.000000
  H     -1.752397   -3.165193   -0.881569
  H     -1.752397   -3.165193    0.881569
  H     -3.242119   -2.836574    0.000000

 Total Charge           Charge          ....    0
 Multiplicity           Mult            ....    1
 Number of Electrons    NEL             ....   58
 Basis Dimension        Dim             .... 1036

ORBITAL ENERGIES
----------------

  NO   OCC          E(Eh)            E(eV)
   0   2.0000     -91.933135     -2501.6278
   1   2.0000     -11.252382      -306.1929
   2   2.0000     -11.249679      -306.1193
   3   2.0000     -11.225355      -305.4574
   4   2.0000     -11.220216      -305.3176
   5   2.0000     -11.216002      -305.2029
   6   2.0000      -8.934981      -243.1332
   7   2.0000      -6.616498      -180.0441
   8   2.0000      -6.615668      -180.0215
   9   2.0000      -6.614772      -179.9971
  10   2.0000      -1.087969       -29.6051
  11   2.0000      -1.048676       -28.5359
  12   2.0000      -0.969078       -26.3700
  13   2.0000      -0.883111       -24.0307
  14   2.0000      -0.811754       -22.0889
  15   2.0000      -0.783532       -21.3210
  16   2.0000      -0.645435       -17.5632
  17   2.0000      -0.621425       -16.9098
  18   2.0000      -0.602237       -16.3877
  19   2.0000      -0.580428       -15.7942
  20   2.0000      -0.553665       -15.0660
  21   2.0000      -0.541283       -14.7291
  22   2.0000      -0.529542       -14.4096
  23   2.0000      -0.506179       -13.7738
  24   2.0000      -0.490869       -13.3572
  25   2.0000      -0.479734       -13.0542
  26   2.0000      -0.447833       -12.1862
  27   2.0000      -0.420215       -11.4346
  28   2.0000      -0.331205        -9.0125
  29   0.0000       0.026168         0.7121
  30   0.0000       0.027458         0.7472
  31   0.0000       0.034509         0.9390
  32   0.0000       0.034733         0.9451
  33   0.0000       0.044940         1.2229

MULLIKEN ATOMIC CHARGES
-----------------------
   0 C :   -0.861877
   1 H :    0.279799
   2 H :    0.241039
   3 H :    0.241039
   4 C :   -0.457698
   5 H :    0.259838
   6 H :    0.259838
   7 S :   -0.094456
   8 C :   -0.295114
   9 H :    0.244898
  10 H :    0.244898
  11 C :   -0.430479
  12 H :    0.252455
  13 H :    0.252455
  14 C :   -0.872121
  15 H :    0.235323
  16 H :    0.235323
  17 H :    0.264839
Sum of atomic charges:    0.0000000

LOEWDIN ATOMIC CHARGES
----------------------
   0 C :    0.819078
   1 H :   -0.292505
   2 H :   -0.307034
   3 H :   -0.307034
   4 C :    0.143070
   5 H :   -0.357018
   6 H :   -0.357018
   7 S :    1.344824
   8 C :    0.143905
   9 H :   -0.350970
  10 H :   -0.350970
  11 C :    0.403949
  12 H :   -0.296814
  13 H :   -0.296814
  14 C :    0.918836
  15 H :   -0.286432
  16 H :   -0.286432
  17 H :   -0.284621

  Mayer bond orders larger than 0.100000
B(  0-C ,  1-H ) :   0.9736 B(  0-C ,  2-H ) :   0.9558 B(  0-C ,  3-H ) :   0.9558
B(  0-C ,  4-C ) :   0.8652 B(  4-C ,  5-H ) :   0.8737 B(  4-C ,  6-H ) :   0.8737
B(  4-C ,  7-S ) :   0.9611 B(  7-S ,  8-C ) :   0.8885 B(  8-C ,  9-H ) :   0.8983
B(  8-C , 10-H ) :   0.8983 B(  8-C , 11-C ) :   0.8114 B( 11-C , 12-H ) :   0.8747
B( 11-C , 13-H ) :   0.8747 B( 11-C , 14-C ) :   1.0316 B( 14-C , 15-H ) :   0.9449
B( 14-C , 16-H ) :   0.9449 B( 14-C , 17-H ) :   1.0036

MP2 TOTAL ENERGY:     -595.104183153 Eh
FINAL SINGLE POINT ENERGY      -595.104183152864

DIPOLE MOMENT
-------------
                                X             Y             Z
Electronic contribution:     -0.45469       4.35561      -0.00000
Nuclear contribution   :      0.86153      -4.89976       0.00000
                        -----------------------------------------
Total Dipole Moment    :      0.40684      -0.54415      -0.00000
                        -----------------------------------------
Magnitude (a.u.)       :      0.67942
Magnitude (Debye)      :      1.72695

Rotational constants in cm-1:     0.385398     0.033718     0.031924
Rotational constants in MHz : 11553.946794  1010.835856   957.065769

                             ****ORCA TERMINATED NORMALLY****
TOTAL RUN TIME: 0 days 0 hours 40 minutes 12 seconds 92 msec
