                         Program Version 5.0.4 -  RELEASE  -
|  1> !ri-mp2 aug-cc-pvqz aug-cc-pvqz/c tightscf
|  2> %pal nprocs 16 end
|  3>
|  4> * xyz 0 1
|  5> C      0.000000    0.000000       0.598150
|  6> C      0.000000    0.000000      -0.598150
|  7> H      0.000000    0.000000       1.659779
|  8> H      0.000000    0.000000      -1.659779
|  9> *
| 10>
| 11>                          ****END OF INPUT****

CARTESIAN COORDINATES (ANGSTROEM)
---------------------------------
  C      0.000000    0.000000    0.598150
  C      0.000000    0.000000   -0.598150
  H      0.000000    0.000000    1.659779
  H      0.000000    0.000000   -1.659779

 Total Charge           Charge          ....    0
 Multiplicity           Mult            ....    1
 Number of Electrons    NEL             ....   14
 Basis Dimension        Dim             ....  252

ORBITAL ENERGIES
----------------

  NO   OCC          E(Eh)            E(eV)
   0   2.0000     -11.240432      -305.8677
   1   2.0000     -11.236450      -305.7593
   2   2.0000      -1.032238       -28.0886
   3   2.0000      -0.766896       -20.8683
   4   2.0000      -0.681819       -18.5532
   5   2.0000      -0.412590       -11.2271
   6   2.0000      -0.412590       -11.2271
   7   0.0000       0.028110         0.7649
   8   0.0000       0.028999         0.7891
   9   0.0000       0.076310         2.0765
  10   0.0000       0.076310         2.0765
  11   0.0000       0.080845         2.1999

MULLIKEN ATOMIC CHARGES
-----------------------
   0 C :   -0.600337
   1 C :   -0.600337
   2 H :    0.600337
   3 H :    0.600337
Sum of atomic charges:    0.0000000

LOEWDIN ATOMIC CHARGES
----------------------
   0 C :    0.477840
   1 C :    0.477840
   2 H :   -0.477840
   3 H :   -0.477840

  Mayer bond orders larger than 0.100000
B(  0-C ,  1-C ) :   2.6397 B(  0-C ,  2-H ) :   0.6638 B(  1-C ,  3-H ) :   0.6638

MP2 TOTAL ENERGY:      -77.185417696 Eh
FINAL SINGLE POINT ENERGY       -77.185417696203

DIPOLE MOMENT
-------------
                                X             Y             Z
Electronic contribution:     -0.00000      -0.00000       0.00000
Nuclear contribution   :      0.00000       0.00000       0.00000
                        -----------------------------------------
Total Dipole Moment    :     -0.00000      -0.00000       0.00000
                        -----------------------------------------
Magnitude (a.u.)       :      0.00000
Magnitude (Debye)      :      0.00000

Rotational constants in cm-1:     0.000000     1.191481     1.191481
Rotational constants in MHz :     0.000000 35719.691485 35719.691485

                             ****ORCA TERMINATED NORMALLY****
TOTAL RUN TIME: 0 days 0 hours 0 minutes 49 seconds 125 msec
