                         Program Version 5.0.4 -  RELEASE  -
|  1> !ri-mp2 aug-cc-pvqz aug-cc-pvqz/c tightscf
|  2> %pal nprocs 16 end
|  3>
|  4> * xyz 0 1
|  5> C      1.170211    0.338779    0.232071
|  6> C      0.066000   -0.045993   -0.399570
|  7> C      2.527893   -0.268148    0.055662
|  8> C     -2.338851   -0.455053    0.271000
|  9> C     -1.295746    0.556611   -0.220194
| 10> H      1.103462    1.163582    0.937874
| 11> H      0.129624   -0.873234   -1.104350
| 12> H      3.251170    0.475143   -0.290413
| 13> H      2.510259   -1.084591   -0.666589
| 14> H      2.912006   -0.659771    1.001395
| 15> H     -3.323952    0.006212    0.354652
| 16> H     -2.066008   -0.853268    1.249121
| 17> H     -2.423715   -1.297719   -0.417841
| 18> H     -1.635193    0.971610   -1.175306
| 19> H     -1.234696    1.394857    0.477641
| 20> *
| 21>
| 22>                          ****END OF INPUT****

CARTESIAN COORDINATES (ANGSTROEM)
---------------------------------
  C      1.170211    0.338779    0.232071
  C      0.066000   -0.045993   -0.399570
  C      2.527893   -0.268148    0.055662
  C     -2.338851   -0.455053    0.271000
  C     -1.295746    0.556611   -0.220194
  H      1.103462    1.163582    0.937874
  H      0.129624   -0.873234   -1.104350
  H      3.251170    0.475143   -0.290413
  H      2.510259   -1.084591   -0.666589
  H      2.912006   -0.659771    1.001395
  H     -3.323952    0.006212    0.354652
  H     -2.066008   -0.853268    1.249121
  H     -2.423715   -1.297719   -0.417841
  H     -1.635193    0.971610   -1.175306
  H     -1.234696    1.394857    0.477641

 Total Charge           Charge          ....    0
 Multiplicity           Mult            ....    1
 Number of Electrons    NEL             ....   40
 Basis Dimension        Dim             ....  860

ORBITAL ENERGIES
----------------

  NO   OCC          E(Eh)            E(eV)
   0   2.0000     -11.221027      -305.3397
   1   2.0000     -11.220609      -305.3283
   2   2.0000     -11.217376      -305.2403
   3   2.0000     -11.215885      -305.1998
   4   2.0000     -11.210907      -305.0643
   5   2.0000      -1.085417       -29.5357
   6   2.0000      -1.017524       -27.6882
   7   2.0000      -0.925474       -25.1834
   8   2.0000      -0.830631       -22.6026
   9   2.0000      -0.744677       -20.2637
  10   2.0000      -0.620848       -16.8941
  11   2.0000      -0.619166       -16.8484
  12   2.0000      -0.569815       -15.5055
  13   2.0000      -0.560812       -15.2605
  14   2.0000      -0.550442       -14.9783
  15   2.0000      -0.511694       -13.9239
  16   2.0000      -0.504978       -13.7411
  17   2.0000      -0.481819       -13.1110
  18   2.0000      -0.468196       -12.7403
  19   2.0000      -0.343022        -9.3341
  20   0.0000       0.027738         0.7548
  21   0.0000       0.030892         0.8406
  22   0.0000       0.033529         0.9124
  23   0.0000       0.036681         0.9981
  24   0.0000       0.046532         1.2662

MULLIKEN ATOMIC CHARGES
-----------------------
   0 C :   -0.411335
   1 C :   -0.394023
   2 C :   -0.706415
   3 C :   -0.889424
   4 C :   -0.309217
   5 H :    0.383303
   6 H :    0.374825
   7 H :    0.223949
   8 H :    0.226073
   9 H :    0.232214
  10 H :    0.297564
  11 H :    0.260882
  12 H :    0.232786
  13 H :    0.252346
  14 H :    0.226472
Sum of atomic charges:    0.0000000

LOEWDIN ATOMIC CHARGES
----------------------
   0 C :    0.382395
   1 C :    0.370017
   2 C :    0.885607
   3 C :    0.916174
   4 C :    0.467822
   5 H :   -0.326764
   6 H :   -0.322461
   7 H :   -0.297699
   8 H :   -0.318182
   9 H :   -0.297505
  10 H :   -0.287293
  11 H :   -0.286649
  12 H :   -0.290737
  13 H :   -0.285093
  14 H :   -0.309634

  Mayer bond orders larger than 0.100000
B(  0-C ,  1-C ) :   1.5760 B(  0-C ,  2-C ) :   0.8699 B(  0-C ,  4-C ) :  -0.1566
B(  0-C ,  5-H ) :   0.8070 B(  1-C ,  2-C ) :  -0.1185 B(  1-C ,  4-C ) :   0.9066
B(  1-C ,  6-H ) :   0.8138 B(  2-C ,  7-H ) :   1.0032 B(  2-C ,  8-H ) :   0.9641
B(  2-C ,  9-H ) :   0.9926 B(  3-C ,  4-C ) :   1.0723 B(  3-C , 10-H ) :   0.9522
B(  3-C , 11-H ) :   0.9335 B(  3-C , 12-H ) :   0.9333 B(  4-C , 13-H ) :   0.8838
B(  4-C , 14-H ) :   0.9131

MP2 TOTAL ENERGY:     -196.144579984 Eh
FINAL SINGLE POINT ENERGY      -196.144579984075

DIPOLE MOMENT
-------------
                                X             Y             Z
Electronic contribution:      0.83517       0.82619      -0.38483
Nuclear contribution   :     -0.83231      -0.81103       0.39223
                        -----------------------------------------
Total Dipole Moment    :      0.00287       0.01517       0.00740
                        -----------------------------------------
Magnitude (a.u.)       :      0.01712
Magnitude (Debye)      :      0.04351

Rotational constants in cm-1:     0.580923     0.069491     0.067581
Rotational constants in MHz : 17415.638708  2083.297150  2026.025760

                             ****ORCA TERMINATED NORMALLY****
TOTAL RUN TIME: 0 days 0 hours 23 minutes 57 seconds 662 msec
