                         Program Version 5.0.4 -  RELEASE  -
|  1> !ri-mp2 aug-cc-pvqz aug-cc-pvqz/c tightscf
|  2> %pal nprocs 16 end
|  3>
|  4> * xyz 0 1
|  5> C      0.909826   -0.524796    0.000000
|  6> C      2.312486    0.022275    0.000000
|  7> C     -2.229581    1.332555    0.000000
|  8> C     -1.391432    0.074275    0.000000
|  9> O      0.616627   -1.694503    0.000000
| 10> O      0.000000    0.471377    0.000000
| 11> H      2.468339    0.648836    0.878091
| 12> H      2.468339    0.648836   -0.878091
| 13> H      3.022001   -0.799004    0.000000
| 14> H     -3.287649    1.068275    0.000000
| 15> H     -2.028233    1.937197    0.884062
| 16> H     -2.028233    1.937197   -0.884062
| 17> H     -1.577685   -0.541093   -0.880090
| 18> H     -1.577685   -0.541093    0.880090
| 19> *
| 20>
| 21>                          ****END OF INPUT****

CARTESIAN COORDINATES (ANGSTROEM)
---------------------------------
  C      0.909826   -0.524796    0.000000
  C      2.312486    0.022275    0.000000
  C     -2.229581    1.332555    0.000000
  C     -1.391432    0.074275    0.000000
  O      0.616627   -1.694503    0.000000
  O      0.000000    0.471377    0.000000
  H      2.468339    0.648836    0.878091
  H      2.468339    0.648836   -0.878091
  H      3.022001   -0.799004    0.000000
  H     -3.287649    1.068275    0.000000
  H     -2.028233    1.937197    0.884062
  H     -2.028233    1.937197   -0.884062
  H     -1.577685   -0.541093   -0.880090
  H     -1.577685   -0.541093    0.880090

 Total Charge           Charge          ....    0
 Multiplicity           Mult            ....    1
 Number of Electrons    NEL             ....   48
 Basis Dimension        Dim             ....  848

ORBITAL ENERGIES
----------------

  NO   OCC          E(Eh)            E(eV)
   0   2.0000     -20.595598      -560.4347
   1   2.0000     -20.538931      -558.8927
   2   2.0000     -11.376627      -309.5738
   3   2.0000     -11.287358      -307.1446
   4   2.0000     -11.237879      -305.7982
   5   2.0000     -11.224051      -305.4220
   6   2.0000      -1.454531       -39.5798
   7   2.0000      -1.355001       -36.8715
   8   2.0000      -1.054383       -28.6912
   9   2.0000      -1.000845       -27.2344
  10   2.0000      -0.865503       -23.5515
  11   2.0000      -0.778777       -21.1916
  12   2.0000      -0.689859       -18.7720
  13   2.0000      -0.683446       -18.5975
  14   2.0000      -0.664136       -18.0721
  15   2.0000      -0.609849       -16.5948
  16   2.0000      -0.580432       -15.7944
  17   2.0000      -0.565765       -15.3952
  18   2.0000      -0.551654       -15.0113
  19   2.0000      -0.539310       -14.6754
  20   2.0000      -0.511376       -13.9152
  21   2.0000      -0.503101       -13.6901
  22   2.0000      -0.458114       -12.4659
  23   2.0000      -0.446042       -12.1374
  24   0.0000       0.024891         0.6773
  25   0.0000       0.029978         0.8158
  26   0.0000       0.035536         0.9670
  27   0.0000       0.038043         1.0352
  28   0.0000       0.049576         1.3490

MULLIKEN ATOMIC CHARGES
-----------------------
   0 C :    0.935744
   1 C :   -0.761644
   2 C :   -0.843129
   3 C :   -0.067913
   4 O :   -0.746999
   5 O :   -0.728448
   6 H :    0.292409
   7 H :    0.292409
   8 H :    0.303913
   9 H :    0.270941
  10 H :    0.247254
  11 H :    0.247254
  12 H :    0.279104
  13 H :    0.279104
Sum of atomic charges:   -0.0000000

LOEWDIN ATOMIC CHARGES
----------------------
   0 C :   -1.070252
   1 C :    0.869071
   2 C :    0.910926
   3 C :    0.154284
   4 O :    0.705173
   5 O :    0.849989
   6 H :   -0.302137
   7 H :   -0.302137
   8 H :   -0.324331
   9 H :   -0.291298
  10 H :   -0.291488
  11 H :   -0.291488
  12 H :   -0.308156
  13 H :   -0.308156

  Mayer bond orders larger than 0.100000
B(  0-C ,  1-C ) :   0.8825 B(  0-C ,  4-O ) :   1.4376 B(  0-C ,  5-O ) :   1.0482
B(  1-C ,  6-H ) :   0.9196 B(  1-C ,  7-H ) :   0.9196 B(  1-C ,  8-H ) :   0.9706
B(  2-C ,  3-C ) :   0.9664 B(  2-C ,  9-H ) :   0.9837 B(  2-C , 10-H ) :   0.9297
B(  2-C , 11-H ) :   0.9297 B(  3-C ,  4-O ) :   0.1063 B(  3-C ,  5-O ) :   0.7599
B(  3-C , 12-H ) :   0.8659 B(  3-C , 13-H ) :   0.8659

MP2 TOTAL ENERGY:     -307.246536177 Eh
FINAL SINGLE POINT ENERGY      -307.246536176507

DIPOLE MOMENT
-------------
                                X             Y             Z
Electronic contribution:      2.51415      -3.56518      -0.00000
Nuclear contribution   :     -2.58973       4.44043       0.00000
                        -----------------------------------------
Total Dipole Moment    :     -0.07559       0.87525      -0.00000
                        -----------------------------------------
Magnitude (a.u.)       :      0.87851
Magnitude (Debye)      :      2.23299

Rotational constants in cm-1:     0.282016     0.069306     0.057411
Rotational constants in MHz :  8454.636223  2077.727979  1721.150451

                             ****ORCA TERMINATED NORMALLY****
TOTAL RUN TIME: 0 days 0 hours 25 minutes 9 seconds 628 msec
