                         Program Version 5.0.4 -  RELEASE  -
|  1> !ri-mp2 aug-cc-pvqz aug-cc-pvqz/c tightscf
|  2> %pal nprocs 16 end
|  3>
|  4> * xyz 0 1
|  5> C      0.459938    0.519040    0.021772
|  6> O     -0.510152   -0.525067   -0.027869
|  7> O     -1.815721    0.108175   -0.095134
|  8> C      1.818413   -0.154922    0.004015
|  9> H      0.327982    1.173442   -0.843321
| 10> H      0.318113    1.110577    0.931373
| 11> H     -2.200256   -0.182756    0.742877
| 12> H      1.942232   -0.811711    0.864757
| 13> H      2.600069    0.604443    0.037023
| 14> H      1.948740   -0.743562   -0.903410
| 15> *
| 16>
| 17>                          ****END OF INPUT****

CARTESIAN COORDINATES (ANGSTROEM)
---------------------------------
  C      0.459938    0.519040    0.021772
  O     -0.510152   -0.525067   -0.027869
  O     -1.815721    0.108175   -0.095134
  C      1.818413   -0.154922    0.004015
  H      0.327982    1.173442   -0.843321
  H      0.318113    1.110577    0.931373
  H     -2.200256   -0.182756    0.742877
  H      1.942232   -0.811711    0.864757
  H      2.600069    0.604443    0.037023
  H      1.948740   -0.743562   -0.903410

 Total Charge           Charge          ....    0
 Multiplicity           Mult            ....    1
 Number of Electrons    NEL             ....   34
 Basis Dimension        Dim             ....  596

ORBITAL ENERGIES
----------------

  NO   OCC          E(Eh)            E(eV)
   0   2.0000     -20.618562      -561.0596
   1   2.0000     -20.618136      -561.0480
   2   2.0000     -11.281252      -306.9785
   3   2.0000     -11.222719      -305.3857
   4   2.0000      -1.467255       -39.9260
   5   2.0000      -1.226559       -33.3764
   6   2.0000      -1.007806       -27.4238
   7   2.0000      -0.844295       -22.9744
   8   2.0000      -0.719613       -19.5817
   9   2.0000      -0.663507       -18.0550
  10   2.0000      -0.646450       -17.5908
  11   2.0000      -0.605807       -16.4848
  12   2.0000      -0.544726       -14.8227
  13   2.0000      -0.529731       -14.4147
  14   2.0000      -0.507105       -13.7990
  15   2.0000      -0.488804       -13.3010
  16   2.0000      -0.447061       -12.1651
  17   0.0000       0.026243         0.7141
  18   0.0000       0.033450         0.9102
  19   0.0000       0.037893         1.0311
  20   0.0000       0.040062         1.0902
  21   0.0000       0.055393         1.5073

MULLIKEN ATOMIC CHARGES
-----------------------
   0 C :    0.040196
   1 O :   -0.423094
   2 O :   -0.460204
   3 C :   -0.835857
   4 H :    0.279598
   5 H :    0.270694
   6 H :    0.345930
   7 H :    0.252799
   8 H :    0.268175
   9 H :    0.261763
Sum of atomic charges:   -0.0000000

LOEWDIN ATOMIC CHARGES
----------------------
   0 C :    0.077753
   1 O :    0.541388
   2 O :    0.925250
   3 C :    0.881983
   4 H :   -0.321051
   5 H :   -0.317888
   6 H :   -0.898228
   7 H :   -0.296583
   8 H :   -0.295811
   9 H :   -0.296813

  Mayer bond orders larger than 0.100000
B(  0-C ,  1-O ) :   0.7323 B(  0-C ,  3-C ) :   1.0108 B(  0-C ,  4-H ) :   0.8699
B(  0-C ,  5-H ) :   0.8848 B(  1-O ,  2-O ) :   0.8397 B(  2-O ,  6-H ) :   0.9082
B(  3-C ,  7-H ) :   0.9236 B(  3-C ,  8-H ) :   0.9471 B(  3-C ,  9-H ) :   0.9161

MP2 TOTAL ENERGY:     -229.855198905 Eh
FINAL SINGLE POINT ENERGY      -229.855198905215

DIPOLE MOMENT
-------------
                                X             Y             Z
Electronic contribution:     -4.69509      -0.89282      -0.27254
Nuclear contribution   :      5.04126       1.17678       0.85117
                        -----------------------------------------
Total Dipole Moment    :      0.34617       0.28396       0.57864
                        -----------------------------------------
Magnitude (a.u.)       :      0.73164
Magnitude (Debye)      :      1.85967

Rotational constants in cm-1:     1.039771     0.137955     0.128983
Rotational constants in MHz : 31171.537272  4135.772965  3866.811100

                             ****ORCA TERMINATED NORMALLY****
TOTAL RUN TIME: 0 days 0 hours 9 minutes 19 seconds 102 msec
