                         Program Version 5.0.4 -  RELEASE  -
|  1> !ri-mp2 aug-cc-pvqz aug-cc-pvqz/c tightscf
|  2> %pal nprocs 16 end
|  3>
|  4> * xyz 0 1
|  5> C     -0.679556    0.246701    0.000059
|  6> C     -1.868935    0.053330   -0.000014
|  7> C      0.712990    0.524010    0.000070
|  8> C      1.678405   -0.401807    0.000097
|  9> C     -3.302324   -0.193398   -0.000060
| 10> C      3.141388   -0.102342   -0.000083
| 11> H      0.991810    1.574332    0.000000
| 12> H      1.392525   -1.448439    0.000167
| 13> H     -3.608764   -0.738322    0.895198
| 14> H     -3.862184    0.743039   -0.028117
| 15> H     -3.600383   -0.786260   -0.867207
| 16> H      3.630920   -0.536953   -0.875960
| 17> H      3.631186   -0.536992    0.875622
| 18> H      3.333073    0.970625   -0.000115
| 19> *
| 20>
| 21>                          ****END OF INPUT****

CARTESIAN COORDINATES (ANGSTROEM)
---------------------------------
  C     -0.679556    0.246701    0.000059
  C     -1.868935    0.053330   -0.000014
  C      0.712990    0.524010    0.000070
  C      1.678405   -0.401807    0.000097
  C     -3.302324   -0.193398   -0.000060
  C      3.141388   -0.102342   -0.000083
  H      0.991810    1.574332    0.000000
  H      1.392525   -1.448439    0.000167
  H     -3.608764   -0.738322    0.895198
  H     -3.862184    0.743039   -0.028117
  H     -3.600383   -0.786260   -0.867207
  H      3.630920   -0.536953   -0.875960
  H      3.631186   -0.536992    0.875622
  H      3.333073    0.970625   -0.000115

 Total Charge           Charge          ....    0
 Multiplicity           Mult            ....    1
 Number of Electrons    NEL             ....   44
 Basis Dimension        Dim             ....  848

ORBITAL ENERGIES
----------------

  NO   OCC          E(Eh)            E(eV)
   0   2.0000     -11.242495      -305.9238
   1   2.0000     -11.242057      -305.9119
   2   2.0000     -11.240251      -305.8628
   3   2.0000     -11.225767      -305.4686
   4   2.0000     -11.220846      -305.3347
   5   2.0000     -11.214173      -305.1532
   6   2.0000      -1.095131       -29.8000
   7   2.0000      -1.046053       -28.4645
   8   2.0000      -0.978959       -26.6388
   9   2.0000      -0.919259       -25.0143
  10   2.0000      -0.786935       -21.4136
  11   2.0000      -0.689426       -18.7602
  12   2.0000      -0.622239       -16.9320
  13   2.0000      -0.604353       -16.4453
  14   2.0000      -0.585165       -15.9231
  15   2.0000      -0.582630       -15.8542
  16   2.0000      -0.572528       -15.5793
  17   2.0000      -0.541735       -14.7413
  18   2.0000      -0.509770       -13.8715
  19   2.0000      -0.439187       -11.9509
  20   2.0000      -0.369354       -10.0506
  21   2.0000      -0.316764        -8.6196
  22   0.0000       0.025635         0.6976
  23   0.0000       0.027737         0.7548
  24   0.0000       0.033382         0.9084
  25   0.0000       0.040235         1.0948
  26   0.0000       0.044619         1.2141

MULLIKEN ATOMIC CHARGES
-----------------------
   0 C :   -0.126966
   1 C :   -0.136575
   2 C :   -0.183410
   3 C :   -0.469771
   4 C :   -0.606257
   5 C :   -0.694793
   6 H :    0.397299
   7 H :    0.427102
   8 H :    0.226519
   9 H :    0.209731
  10 H :    0.226465
  11 H :    0.243458
  12 H :    0.243770
  13 H :    0.243429
Sum of atomic charges:   -0.0000000

LOEWDIN ATOMIC CHARGES
----------------------
   0 C :    0.093307
   1 C :    0.151339
   2 C :    0.251336
   3 C :    0.348258
   4 C :    0.827377
   5 C :    0.887642
   6 H :   -0.368802
   7 H :   -0.324991
   8 H :   -0.319863
   9 H :   -0.320646
  10 H :   -0.319880
  11 H :   -0.294355
  12 H :   -0.294355
  13 H :   -0.316369

  Mayer bond orders larger than 0.100000
B(  0-C ,  1-C ) :   3.0307 B(  0-C ,  2-C ) :   0.8716 B(  0-C ,  3-C ) :  -0.2823
B(  1-C ,  4-C ) :   0.7210 B(  1-C ,  8-H ) :  -0.1085 B(  1-C ,  9-H ) :  -0.1196
B(  1-C , 10-H ) :  -0.1086 B(  2-C ,  3-C ) :   1.6076 B(  2-C ,  6-H ) :   0.8275
B(  3-C ,  5-C ) :   0.8708 B(  3-C ,  7-H ) :   0.7705 B(  4-C ,  8-H ) :   1.0109
B(  4-C ,  9-H ) :   1.0407 B(  4-C , 10-H ) :   1.0116 B(  5-C , 11-H ) :   0.9843
B(  5-C , 12-H ) :   0.9843 B(  5-C , 13-H ) :   0.9509

MP2 TOTAL ENERGY:     -232.926576652 Eh
FINAL SINGLE POINT ENERGY      -232.926576651610

DIPOLE MOMENT
-------------
                                X             Y             Z
Electronic contribution:     -1.89997       0.66124       0.00033
Nuclear contribution   :      1.96784      -0.78270      -0.00043
                        -----------------------------------------
Total Dipole Moment    :      0.06788      -0.12146      -0.00009
                        -----------------------------------------
Magnitude (a.u.)       :      0.13913
Magnitude (Debye)      :      0.35365

Rotational constants in cm-1:     0.960491     0.039949     0.038905
Rotational constants in MHz : 28794.782458  1197.634304  1166.332140

                             ****ORCA TERMINATED NORMALLY****
TOTAL RUN TIME: 0 days 0 hours 20 minutes 31 seconds 717 msec
