                         Program Version 5.0.4 -  RELEASE  -
|  1> !ri-mp2 aug-cc-pvqz aug-cc-pvqz/c tightscf
|  2> %pal nprocs 16 end
|  3>
|  4> * xyz 0 1
|  5> O     -0.029545   -0.591156   -0.000011
|  6> O     -2.183481    0.034844   -0.000001
|  7> C     -1.049749    0.363965    0.000007
|  8> C      1.205881   -0.154845   -0.000002
|  9> C      2.343204    0.213694    0.000005
| 10> H     -0.647409    1.384949    0.000027
| 11> H      3.355602    0.528657    0.000011
| 12> *
| 13>
| 14>                          ****END OF INPUT****

CARTESIAN COORDINATES (ANGSTROEM)
---------------------------------
  O     -0.029545   -0.591156   -0.000011
  O     -2.183481    0.034844   -0.000001
  C     -1.049749    0.363965    0.000007
  C      1.205881   -0.154845   -0.000002
  C      2.343204    0.213694    0.000005
  H     -0.647409    1.384949    0.000027
  H      3.355602    0.528657    0.000011

 Total Charge           Charge          ....    0
 Multiplicity           Mult            ....    1
 Number of Electrons    NEL             ....   36
 Basis Dimension        Dim             ....  492

ORBITAL ENERGIES
----------------

  NO   OCC          E(Eh)            E(eV)
   0   2.0000     -20.671060      -562.4881
   1   2.0000     -20.596744      -560.4659
   2   2.0000     -11.424020      -310.8634
   3   2.0000     -11.318532      -307.9929
   4   2.0000     -11.248741      -306.0938
   5   2.0000      -1.517529       -41.2941
   6   2.0000      -1.431091       -38.9420
   7   2.0000      -1.053655       -28.6714
   8   2.0000      -0.925775       -25.1916
   9   2.0000      -0.830406       -22.5965
  10   2.0000      -0.728489       -19.8232
  11   2.0000      -0.712142       -19.3784
  12   2.0000      -0.691505       -18.8168
  13   2.0000      -0.649498       -17.6737
  14   2.0000      -0.556519       -15.1436
  15   2.0000      -0.508960       -13.8495
  16   2.0000      -0.421089       -11.4584
  17   2.0000      -0.403870       -10.9899
  18   0.0000       0.021470         0.5842
  19   0.0000       0.032993         0.8978
  20   0.0000       0.054631         1.4866
  21   0.0000       0.056077         1.5259
  22   0.0000       0.067593         1.8393

MULLIKEN ATOMIC CHARGES
-----------------------
   0 O :   -0.725403
   1 O :   -0.637040
   2 C :    0.435822
   3 C :    0.584644
   4 C :   -0.617745
   5 H :    0.519488
   6 H :    0.440234
Sum of atomic charges:   -0.0000000

LOEWDIN ATOMIC CHARGES
----------------------
   0 O :    0.706297
   1 O :    0.666377
   2 C :   -0.612512
   3 C :   -0.395760
   4 C :    0.503782
   5 H :   -0.385959
   6 H :   -0.482226

  Mayer bond orders larger than 0.100000
B(  0-O ,  2-C ) :   0.9906 B(  0-O ,  3-C ) :   0.7911 B(  1-O ,  2-C ) :   1.7651
B(  2-C ,  5-H ) :   0.7010 B(  3-C ,  4-C ) :   2.6609 B(  4-C ,  6-H ) :   0.8706

MP2 TOTAL ENERGY:     -265.503320106 Eh
FINAL SINGLE POINT ENERGY      -265.503320106235

DIPOLE MOMENT
-------------
                                X             Y             Z
Electronic contribution:     -1.67462      -1.04782      -0.00002
Nuclear contribution   :      2.58032       1.83858       0.00004
                        -----------------------------------------
Total Dipole Moment    :      0.90570       0.79076       0.00002
                        -----------------------------------------
Magnitude (a.u.)       :      1.20233
Magnitude (Debye)      :      3.05609

Rotational constants in cm-1:     1.653200     0.091312     0.086532
Rotational constants in MHz : 49561.686066  2737.450808  2594.166666

                             ****ORCA TERMINATED NORMALLY****
TOTAL RUN TIME: 0 days 0 hours 5 minutes 20 seconds 232 msec
