                         Program Version 5.0.4 -  RELEASE  -
|  1> !ri-mp2 aug-cc-pvqz aug-cc-pvqz/c tightscf
|  2> %pal nprocs 16 end
|  3>
|  4> * xyz 0 1
|  5> O      1.114134   -0.637896    0.000386
|  6> O     -1.114134   -0.637904   -0.000379
|  7> C     -0.000004    0.243836    0.000033
|  8> C      2.273010   -0.042046    0.000077
|  9> C     -2.273014   -0.042063   -0.000138
| 10> C      3.353062    0.474479   -0.000141
| 11> C     -3.353053    0.474491    0.000162
| 12> H     -0.000326    0.856536    0.903526
| 13> H      0.000313    0.856601   -0.903415
| 14> H      4.314214    0.920528   -0.000423
| 15> H     -4.314202    0.920549    0.000292
| 16> *
| 17>
| 18>                          ****END OF INPUT****

CARTESIAN COORDINATES (ANGSTROEM)
---------------------------------
  O      1.114134   -0.637896    0.000386
  O     -1.114134   -0.637904   -0.000379
  C     -0.000004    0.243836    0.000033
  C      2.273010   -0.042046    0.000077
  C     -2.273014   -0.042063   -0.000138
  C      3.353062    0.474479   -0.000141
  C     -3.353053    0.474491    0.000162
  H     -0.000326    0.856536    0.903526
  H      0.000313    0.856601   -0.903415
  H      4.314214    0.920528   -0.000423
  H     -4.314202    0.920549    0.000292

 Total Charge           Charge          ....    0
 Multiplicity           Mult            ....    1
 Number of Electrons    NEL             ....   50
 Basis Dimension        Dim             ....  744

ORBITAL ENERGIES
----------------

  NO   OCC          E(Eh)            E(eV)
   0   2.0000     -20.646696      -561.8252
   1   2.0000     -20.646687      -561.8249
   2   2.0000     -11.393653      -310.0371
   3   2.0000     -11.306419      -307.6633
   4   2.0000     -11.306418      -307.6633
   5   2.0000     -11.233856      -305.6888
   6   2.0000     -11.233855      -305.6887
   7   2.0000      -1.505236       -40.9596
   8   2.0000      -1.449245       -39.4360
   9   2.0000      -1.060266       -28.8513
  10   2.0000      -1.030435       -28.0395
  11   2.0000      -0.979923       -26.6651
  12   2.0000      -0.825932       -22.4747
  13   2.0000      -0.775141       -21.0927
  14   2.0000      -0.750510       -20.4224
  15   2.0000      -0.716483       -19.4965
  16   2.0000      -0.713888       -19.4259
  17   2.0000      -0.674545       -18.3553
  18   2.0000      -0.635307       -17.2876
  19   2.0000      -0.612328       -16.6623
  20   2.0000      -0.541583       -14.7372
  21   2.0000      -0.411374       -11.1940
  22   2.0000      -0.402709       -10.9583
  23   2.0000      -0.389065       -10.5870
  24   2.0000      -0.387014       -10.5312
  25   0.0000       0.023030         0.6267
  26   0.0000       0.026323         0.7163
  27   0.0000       0.038768         1.0549
  28   0.0000       0.041674         1.1340
  29   0.0000       0.053562         1.4575

MULLIKEN ATOMIC CHARGES
-----------------------
   0 O :   -0.753250
   1 O :   -0.753249
   2 C :    0.385203
   3 C :    0.514309
   4 C :    0.514323
   5 C :   -0.641181
   6 C :   -0.641190
   7 H :    0.293947
   8 H :    0.293943
   9 H :    0.393570
  10 H :    0.393575
Sum of atomic charges:    0.0000000

LOEWDIN ATOMIC CHARGES
----------------------
   0 O :    0.763968
   1 O :    0.763968
   2 C :   -0.201126
   3 C :   -0.373561
   4 C :   -0.373561
   5 C :    0.509682
   6 C :    0.509682
   7 H :   -0.310951
   8 H :   -0.310955
   9 H :   -0.488574
  10 H :   -0.488573

  Mayer bond orders larger than 0.100000
B(  0-O ,  2-C ) :   0.8791 B(  0-O ,  3-C ) :   0.9342 B(  1-O ,  2-C ) :   0.8791
B(  1-O ,  4-C ) :   0.9342 B(  2-C ,  7-H ) :   0.8414 B(  2-C ,  8-H ) :   0.8415
B(  3-C ,  5-C ) :   2.4876 B(  4-C ,  6-C ) :   2.4876 B(  5-C ,  9-H ) :   0.9439
B(  6-C , 10-H ) :   0.9439

MP2 TOTAL ENERGY:     -342.666327862 Eh
FINAL SINGLE POINT ENERGY      -342.666327862253

DIPOLE MOMENT
-------------
                                X             Y             Z
Electronic contribution:     -0.00000      -2.53073      -0.00003
Nuclear contribution   :     -0.00000       3.45387      -0.00002
                        -----------------------------------------
Total Dipole Moment    :     -0.00000       0.92314      -0.00005
                        -----------------------------------------
Magnitude (a.u.)       :      0.92314
Magnitude (Debye)      :      2.34645

Rotational constants in cm-1:     0.705635     0.035634     0.034147
Rotational constants in MHz : 21154.407662  1068.279410  1023.705024

                             ****ORCA TERMINATED NORMALLY****
TOTAL RUN TIME: 0 days 0 hours 15 minutes 20 seconds 817 msec
