                         Program Version 5.0.4 -  RELEASE  -
|  1> !ri-mp2 aug-cc-pvqz aug-cc-pvqz/c tightscf
|  2> %pal nprocs 16 end
|  3>
|  4> * xyz 0 1
|  5> C     -1.030686   -0.636526    0.000000
|  6> C      0.000000    0.445344    0.000000
|  7> N      1.241167    0.190751    0.000000
|  8> H     -0.556818   -1.615743    0.000000
|  9> H     -1.676866   -0.544559    0.876683
| 10> H     -1.676866   -0.544559   -0.876683
| 11> H     -0.389088    1.470939    0.000000
| 12> H      1.795584    1.045760    0.000000
| 13> *
| 14>
| 15>                          ****END OF INPUT****

CARTESIAN COORDINATES (ANGSTROEM)
---------------------------------
  C     -1.030686   -0.636526    0.000000
  C      0.000000    0.445344    0.000000
  N      1.241167    0.190751    0.000000
  H     -0.556818   -1.615743    0.000000
  H     -1.676866   -0.544559    0.876683
  H     -1.676866   -0.544559   -0.876683
  H     -0.389088    1.470939    0.000000
  H      1.795584    1.045760    0.000000

 Total Charge           Charge          ....    0
 Multiplicity           Mult            ....    1
 Number of Electrons    NEL             ....   24
 Basis Dimension        Dim             ....  470

ORBITAL ENERGIES
----------------

  NO   OCC          E(Eh)            E(eV)
   0   2.0000     -15.548387      -423.0931
   1   2.0000     -11.283819      -307.0483
   2   2.0000     -11.226229      -305.4812
   3   2.0000      -1.209696       -32.9175
   4   2.0000      -0.993837       -27.0437
   5   2.0000      -0.778528       -21.1848
   6   2.0000      -0.695235       -18.9183
   7   2.0000      -0.581976       -15.8364
   8   2.0000      -0.569053       -15.4847
   9   2.0000      -0.546404       -14.8684
  10   2.0000      -0.429290       -11.6816
  11   2.0000      -0.420154       -11.4330
  12   0.0000       0.024649         0.6707
  13   0.0000       0.034538         0.9398
  14   0.0000       0.041108         1.1186
  15   0.0000       0.041439         1.1276
  16   0.0000       0.057849         1.5742

MULLIKEN ATOMIC CHARGES
-----------------------
   0 C :   -0.674645
   1 C :   -0.141485
   2 N :   -0.637734
   3 H :    0.298320
   4 H :    0.229909
   5 H :    0.229909
   6 H :    0.436695
   7 H :    0.259032
Sum of atomic charges:   -0.0000000

LOEWDIN ATOMIC CHARGES
----------------------
   0 C :    0.868649
   1 C :    0.092482
   2 N :    0.974001
   3 H :   -0.327452
   4 H :   -0.304479
   5 H :   -0.304479
   6 H :   -0.319975
   7 H :   -0.678747

  Mayer bond orders larger than 0.100000
B(  0-C ,  1-C ) :   0.9585 B(  0-C ,  3-H ) :   0.9143 B(  0-C ,  4-H ) :   0.9501
B(  0-C ,  5-H ) :   0.9501 B(  1-C ,  2-N ) :   1.8146 B(  1-C ,  6-H ) :   0.7324
B(  2-N ,  7-H ) :   0.8776

MP2 TOTAL ENERGY:     -133.719845594 Eh
FINAL SINGLE POINT ENERGY      -133.719845593927

DIPOLE MOMENT
-------------
                                X             Y             Z
Electronic contribution:      1.92532       0.77178      -0.00000
Nuclear contribution   :     -2.61299      -0.19575       0.00000
                        -----------------------------------------
Total Dipole Moment    :     -0.68767       0.57603      -0.00000
                        -----------------------------------------
Magnitude (a.u.)       :      0.89705
Magnitude (Debye)      :      2.28012

Rotational constants in cm-1:     1.807848     0.326557     0.291412
Rotational constants in MHz : 54197.928559  9789.941817  8736.314692

                             ****ORCA TERMINATED NORMALLY****
TOTAL RUN TIME: 0 days 0 hours 3 minutes 9 seconds 57 msec
