                         Program Version 5.0.4 -  RELEASE  -
|  1> !ri-mp2 aug-cc-pvqz aug-cc-pvqz/c tightscf
|  2> %pal nprocs 16 end
|  3>
|  4> * xyz 0 1
|  5> C      1.335737    0.637655    0.000000
|  6> C     -2.183624   -0.287568    0.000000
|  7> C     -0.700940   -0.578325    0.000000
|  8> O      2.002533   -0.361066    0.000000
|  9> O      0.000000    0.693290    0.000000
| 10> H      1.739533    1.657904    0.000000
| 11> H     -2.739422   -1.225778    0.000000
| 12> H     -2.471547    0.280474    0.884202
| 13> H     -2.471547    0.280474   -0.884202
| 14> H     -0.392160   -1.140715   -0.880841
| 15> H     -0.392160   -1.140715    0.880841
| 16> *
| 17>
| 18>                          ****END OF INPUT****

CARTESIAN COORDINATES (ANGSTROEM)
---------------------------------
  C      1.335737    0.637655    0.000000
  C     -2.183624   -0.287568    0.000000
  C     -0.700940   -0.578325    0.000000
  O      2.002533   -0.361066    0.000000
  O      0.000000    0.693290    0.000000
  H      1.739533    1.657904    0.000000
  H     -2.739422   -1.225778    0.000000
  H     -2.471547    0.280474    0.884202
  H     -2.471547    0.280474   -0.884202
  H     -0.392160   -1.140715   -0.880841
  H     -0.392160   -1.140715    0.880841

 Total Charge           Charge          ....    0
 Multiplicity           Mult            ....    1
 Number of Electrons    NEL             ....   40
 Basis Dimension        Dim             ....  676

ORBITAL ENERGIES
----------------

  NO   OCC          E(Eh)            E(eV)
   0   2.0000     -20.607300      -560.7531
   1   2.0000     -20.552108      -559.2513
   2   2.0000     -11.380792      -309.6871
   3   2.0000     -11.294870      -307.3490
   4   2.0000     -11.228819      -305.5517
   5   2.0000      -1.463468       -39.8230
   6   2.0000      -1.367276       -37.2055
   7   2.0000      -1.049723       -28.5644
   8   2.0000      -0.898073       -24.4378
   9   2.0000      -0.807399       -21.9705
  10   2.0000      -0.730518       -19.8784
  11   2.0000      -0.685743       -18.6600
  12   2.0000      -0.679632       -18.4937
  13   2.0000      -0.589820       -16.0498
  14   2.0000      -0.577944       -15.7266
  15   2.0000      -0.556110       -15.1325
  16   2.0000      -0.519329       -14.1317
  17   2.0000      -0.517390       -14.0789
  18   2.0000      -0.465337       -12.6625
  19   2.0000      -0.461024       -12.5451
  20   0.0000       0.024993         0.6801
  21   0.0000       0.032114         0.8739
  22   0.0000       0.036524         0.9939
  23   0.0000       0.037998         1.0340
  24   0.0000       0.052006         1.4151

MULLIKEN ATOMIC CHARGES
-----------------------
   0 C :    0.301440
   1 C :   -0.794868
   2 C :   -0.030539
   3 O :   -0.703214
   4 O :   -0.663127
   5 H :    0.566586
   6 H :    0.265539
   7 H :    0.254606
   8 H :    0.254606
   9 H :    0.274486
  10 H :    0.274486
Sum of atomic charges:    0.0000000

LOEWDIN ATOMIC CHARGES
----------------------
   0 C :   -0.668350
   1 C :    0.909080
   2 C :    0.151688
   3 O :    0.669797
   4 O :    0.833191
   5 H :   -0.402109
   6 H :   -0.291169
   7 H :   -0.291760
   8 H :   -0.291760
   9 H :   -0.309304
  10 H :   -0.309304

  Mayer bond orders larger than 0.100000
B(  0-C ,  3-O ) :   1.7288 B(  0-C ,  4-O ) :   1.1296 B(  0-C ,  5-H ) :   0.6504
B(  1-C ,  2-C ) :   0.9897 B(  1-C ,  6-H ) :   0.9710 B(  1-C ,  7-H ) :   0.9239
B(  1-C ,  8-H ) :   0.9239 B(  2-C ,  4-O ) :   0.6813 B(  2-C ,  9-H ) :   0.8659
B(  2-C , 10-H ) :   0.8659

MP2 TOTAL ENERGY:     -267.999901795 Eh
FINAL SINGLE POINT ENERGY      -267.999901794737

DIPOLE MOMENT
-------------
                                X             Y             Z
Electronic contribution:      5.92792       1.60220       0.00000
Nuclear contribution   :     -6.79009      -1.30120       0.00000
                        -----------------------------------------
Total Dipole Moment    :     -0.86218       0.30100       0.00000
                        -----------------------------------------
Magnitude (a.u.)       :      0.91321
Magnitude (Debye)      :      2.32119

Rotational constants in cm-1:     0.603343     0.095534     0.085089
Rotational constants in MHz : 18087.774761  2864.032061  2550.912870

                             ****ORCA TERMINATED NORMALLY****
TOTAL RUN TIME: 0 days 0 hours 13 minutes 33 seconds 548 msec
