                         Program Version 5.0.4 -  RELEASE  -
|  1> !ri-mp2 aug-cc-pvqz aug-cc-pvqz/c tightscf
|  2> %pal nprocs 16 end
|  3>
|  4> * xyz 0 1
|  5> S    -1.085714    0.117394    0.777209
|  6> S     1.616055   -1.007193    0.004656
|  7> C    -0.092200   -0.704472   -0.547441
|  8> C    -2.551811    0.291449   -0.041856
|  9> C     2.295903    0.534104   -0.121587
| 10> C    -3.614199    0.432090   -0.592782
| 11> C     2.852247    1.598818   -0.193854
| 12> H    -0.096062   -0.091324   -1.442322
| 13> H    -0.512041   -1.685333   -0.754731
| 14> H    -4.551006    0.558816   -1.074999
| 15> H     3.334006    2.542688   -0.252663
| 16> *
| 17>
| 18>                          ****END OF INPUT****

CARTESIAN COORDINATES (ANGSTROEM)
---------------------------------
  S     -1.085714    0.117394    0.777209
  S      1.616055   -1.007193    0.004656
  C     -0.092200   -0.704472   -0.547441
  C     -2.551811    0.291449   -0.041856
  C      2.295903    0.534104   -0.121587
  C     -3.614199    0.432090   -0.592782
  C      2.852247    1.598818   -0.193854
  H     -0.096062   -0.091324   -1.442322
  H     -0.512041   -1.685333   -0.754731
  H     -4.551006    0.558816   -1.074999
  H      3.334006    2.542688   -0.252663

 Total Charge           Charge          ....    0
 Multiplicity           Mult            ....    1
 Number of Electrons    NEL             ....   66
 Basis Dimension        Dim             ....  752

ORBITAL ENERGIES
----------------

  NO   OCC          E(Eh)            E(eV)
   0   2.0000     -92.003049     -2503.5302
   1   2.0000     -91.994363     -2503.2939
   2   2.0000     -11.316584      -307.9399
   3   2.0000     -11.264519      -306.5232
   4   2.0000     -11.263173      -306.4865
   5   2.0000     -11.245833      -306.0147
   6   2.0000     -11.243382      -305.9480
   7   2.0000      -9.003416      -244.9954
   8   2.0000      -8.994699      -244.7582
   9   2.0000      -6.685158      -181.9124
  10   2.0000      -6.683939      -181.8792
  11   2.0000      -6.683119      -181.8569
  12   2.0000      -6.676342      -181.6725
  13   2.0000      -6.675097      -181.6386
  14   2.0000      -6.674169      -181.6134
  15   2.0000      -1.128326       -30.7033
  16   2.0000      -1.079193       -29.3663
  17   2.0000      -1.027348       -27.9556
  18   2.0000      -0.971320       -26.4310
  19   2.0000      -0.881113       -23.9763
  20   2.0000      -0.734620       -19.9900
  21   2.0000      -0.732345       -19.9281
  22   2.0000      -0.663228       -18.0474
  23   2.0000      -0.641817       -17.4647
  24   2.0000      -0.603613       -16.4251
  25   2.0000      -0.523955       -14.2575
  26   2.0000      -0.514331       -13.9957
  27   2.0000      -0.478189       -13.0122
  28   2.0000      -0.469535       -12.7767
  29   2.0000      -0.414287       -11.2733
  30   2.0000      -0.397340       -10.8122
  31   2.0000      -0.349254        -9.5037
  32   2.0000      -0.343357        -9.3432
  33   0.0000       0.024546         0.6679
  34   0.0000       0.027371         0.7448
  35   0.0000       0.033774         0.9190
  36   0.0000       0.043269         1.1774
  37   0.0000       0.056239         1.5303

MULLIKEN ATOMIC CHARGES
-----------------------
   0 S :    0.503148
   1 S :    0.520151
   2 C :   -0.573771
   3 C :   -0.613462
   4 C :   -0.546297
   5 C :   -0.488731
   6 C :   -0.531171
   7 H :    0.292996
   8 H :    0.329191
   9 H :    0.551382
  10 H :    0.556565
Sum of atomic charges:    0.0000000

LOEWDIN ATOMIC CHARGES
----------------------
   0 S :    1.127753
   1 S :    1.136679
   2 C :   -0.243995
   3 C :   -0.511609
   4 C :   -0.512431
   5 C :    0.429890
   6 C :    0.431232
   7 H :   -0.445321
   8 H :   -0.462813
   9 H :   -0.476954
  10 H :   -0.472430

  Mayer bond orders larger than 0.100000
B(  0-S ,  2-C ) :   0.8910 B(  0-S ,  3-C ) :   0.6956 B(  1-S ,  2-C ) :   0.9439
B(  1-S ,  4-C ) :   0.7279 B(  2-C ,  7-H ) :   0.8691 B(  2-C ,  8-H ) :   0.8796
B(  3-C ,  5-C ) :   2.5607 B(  4-C ,  6-C ) :   2.5123 B(  5-C ,  9-H ) :   0.7407
B(  6-C , 10-H ) :   0.7355

MP2 TOTAL ENERGY:     -987.898462245 Eh
FINAL SINGLE POINT ENERGY      -987.898462244714

DIPOLE MOMENT
-------------
                                X             Y             Z
Electronic contribution:      1.58585      -1.24128       2.77861
Nuclear contribution   :     -1.78036       1.30743      -3.43108
                        -----------------------------------------
Total Dipole Moment    :     -0.19451       0.06615      -0.65247
                        -----------------------------------------
Magnitude (a.u.)       :      0.68405
Magnitude (Debye)      :      1.73872

Rotational constants in cm-1:     0.143462     0.028974     0.026500
Rotational constants in MHz :  4300.888737   868.615847   794.458291

                             ****ORCA TERMINATED NORMALLY****
TOTAL RUN TIME: 0 days 0 hours 18 minutes 5 seconds 328 msec
