                         Program Version 5.0.4 -  RELEASE  -
|  1> !ri-mp2 aug-cc-pvqz aug-cc-pvqz/c tightscf
|  2> %pal nprocs 16 end
|  3>
|  4> * xyz 0 1
|  5> S     -0.000127   -1.112931    0.000000
|  6> C      0.000196    1.751740    0.000000
|  7> C      0.000000    0.447878    0.000000
|  8> H      0.000427    2.304594    0.929946
|  9> H      0.000427    2.304594   -0.929946
| 10> *
| 11>
| 12>                          ****END OF INPUT****

CARTESIAN COORDINATES (ANGSTROEM)
---------------------------------
  S     -0.000127   -1.112931    0.000000
  C      0.000196    1.751740    0.000000
  C      0.000000    0.447878    0.000000
  H      0.000427    2.304594    0.929946
  H      0.000427    2.304594   -0.929946

 Total Charge           Charge          ....    0
 Multiplicity           Mult            ....    1
 Number of Electrons    NEL             ....   30
 Basis Dimension        Dim             ....  336

ORBITAL ENERGIES
----------------

  NO   OCC          E(Eh)            E(eV)
   0   2.0000     -91.970160     -2502.6353
   1   2.0000     -11.342902      -308.6561
   2   2.0000     -11.250131      -306.1316
   3   2.0000      -8.973786      -244.1891
   4   2.0000      -6.655114      -181.0949
   5   2.0000      -6.653973      -181.0638
   6   2.0000      -6.652801      -181.0319
   7   2.0000      -1.111972       -30.2583
   8   2.0000      -0.991696       -26.9854
   9   2.0000      -0.715943       -19.4818
  10   2.0000      -0.630455       -17.1555
  11   2.0000      -0.589204       -16.0330
  12   2.0000      -0.502272       -13.6675
  13   2.0000      -0.425160       -11.5692
  14   2.0000      -0.330593        -8.9959
  15   0.0000       0.025120         0.6836
  16   0.0000       0.035667         0.9706
  17   0.0000       0.049028         1.3341
  18   0.0000       0.054752         1.4899
  19   0.0000       0.065549         1.7837

MULLIKEN ATOMIC CHARGES
-----------------------
   0 S :    0.206805
   1 C :   -0.628100
   2 C :   -0.408774
   3 H :    0.415034
   4 H :    0.415034
Sum of atomic charges:    0.0000000

LOEWDIN ATOMIC CHARGES
----------------------
   0 S :    1.004593
   1 C :    0.569969
   2 C :   -0.753880
   3 H :   -0.410341
   4 H :   -0.410341

  Mayer bond orders larger than 0.100000
B(  0-S ,  2-C ) :   1.9031 B(  1-C ,  2-C ) :   1.7286 B(  1-C ,  3-H ) :   0.8229
B(  1-C ,  4-H ) :   0.8229

MP2 TOTAL ENERGY:     -474.947215346 Eh
FINAL SINGLE POINT ENERGY      -474.947215346089

DIPOLE MOMENT
-------------
                                X             Y             Z
Electronic contribution:     -0.00063      -3.88189      -0.00000
Nuclear contribution   :      0.00083       4.50319       0.00000
                        -----------------------------------------
Total Dipole Moment    :      0.00021       0.62130      -0.00000
                        -----------------------------------------
Magnitude (a.u.)       :      0.62130
Magnitude (Debye)      :      1.57922

Rotational constants in cm-1:     9.669208     0.188740     0.185126
Rotational constants in MHz : 289875.555717  5658.271564  5549.938673

                             ****ORCA TERMINATED NORMALLY****
TOTAL RUN TIME: 0 days 0 hours 1 minutes 41 seconds 670 msec
