                         Program Version 5.0.4 -  RELEASE  -
|  1> !ri-mp2 aug-cc-pvqz aug-cc-pvqz/c tightscf
|  2> %pal nprocs 16 end
|  3>
|  4> * xyz 0 1
|  5> C      2.426570    0.268454   -0.038318
|  6> H      2.760369    0.116017    0.990136
|  7> H      3.253108    0.001930   -0.698500
|  8> H      2.233139    1.334903   -0.166770
|  9> C      1.182111   -0.565869   -0.339346
| 10> H      1.417681   -1.627286   -0.214177
| 11> H      0.901208   -0.440117   -1.390298
| 12> C     -1.860514    0.318742   -0.486059
| 13> H     -2.881941    0.608681   -0.244065
| 14> H     -1.761084    0.301163   -1.570736
| 15> C     -0.724980    1.118216    0.203651
| 16> H     -1.069190    1.647720    1.091661
| 17> H     -0.170207    1.821261   -0.418230
| 18> C     -0.010079   -0.222816    0.548294
| 19> H      0.287769   -0.318234    1.594712
| 20> C     -1.322720   -0.972916    0.181963
| 21> H     -1.213766   -1.850521   -0.456380
| 22> H     -1.899417   -1.258384    1.061532
| 23> *
| 24>
| 25>                          ****END OF INPUT****

CARTESIAN COORDINATES (ANGSTROEM)
---------------------------------
  C      2.426570    0.268454   -0.038318
  H      2.760369    0.116017    0.990136
  H      3.253108    0.001930   -0.698500
  H      2.233139    1.334903   -0.166770
  C      1.182111   -0.565869   -0.339346
  H      1.417681   -1.627286   -0.214177
  H      0.901208   -0.440117   -1.390298
  C     -1.860514    0.318742   -0.486059
  H     -2.881941    0.608681   -0.244065
  H     -1.761084    0.301163   -1.570736
  C     -0.724980    1.118216    0.203651
  H     -1.069190    1.647720    1.091661
  H     -0.170207    1.821261   -0.418230
  C     -0.010079   -0.222816    0.548294
  H      0.287769   -0.318234    1.594712
  C     -1.322720   -0.972916    0.181963
  H     -1.213766   -1.850521   -0.456380
  H     -1.899417   -1.258384    1.061532

 Total Charge           Charge          ....    0
 Multiplicity           Mult            ....    1
 Number of Electrons    NEL             ....   48
 Basis Dimension        Dim             .... 1032

ORBITAL ENERGIES
----------------

  NO   OCC          E(Eh)            E(eV)
   0   2.0000     -11.217119      -305.2333
   1   2.0000     -11.213896      -305.1456
   2   2.0000     -11.212315      -305.1026
   3   2.0000     -11.210937      -305.0651
   4   2.0000     -11.210657      -305.0575
   5   2.0000     -11.207531      -304.9724
   6   2.0000      -1.126647       -30.6576
   7   2.0000      -1.023028       -27.8380
   8   2.0000      -0.900444       -24.5023
   9   2.0000      -0.890215       -24.2240
  10   2.0000      -0.816826       -22.2270
  11   2.0000      -0.724523       -19.7153
  12   2.0000      -0.656216       -17.8566
  13   2.0000      -0.632116       -17.2008
  14   2.0000      -0.595979       -16.2174
  15   2.0000      -0.561989       -15.2925
  16   2.0000      -0.538423       -14.6512
  17   2.0000      -0.523668       -14.2497
  18   2.0000      -0.500807       -13.6277
  19   2.0000      -0.487785       -13.2733
  20   2.0000      -0.463603       -12.6153
  21   2.0000      -0.437757       -11.9120
  22   2.0000      -0.420993       -11.4558
  23   2.0000      -0.418591       -11.3905
  24   0.0000       0.027624         0.7517
  25   0.0000       0.031313         0.8521
  26   0.0000       0.032956         0.8968
  27   0.0000       0.033686         0.9166
  28   0.0000       0.046346         1.2611

MULLIKEN ATOMIC CHARGES
-----------------------
   0 C :   -0.885882
   1 H :    0.228524
   2 H :    0.274713
   3 H :    0.228659
   4 C :   -0.476118
   5 H :    0.292770
   6 H :    0.191931
   7 C :   -0.551723
   8 H :    0.331771
   9 H :    0.260819
  10 C :   -0.739095
  11 H :    0.280115
  12 H :    0.265724
  13 C :    0.152843
  14 H :    0.348932
  15 C :   -0.748717
  16 H :    0.253175
  17 H :    0.291557
Sum of atomic charges:    0.0000000

LOEWDIN ATOMIC CHARGES
----------------------
   0 C :    0.931972
   1 H :   -0.281426
   2 H :   -0.280495
   3 H :   -0.289961
   4 C :    0.506489
   5 H :   -0.269140
   6 H :   -0.273777
   7 C :    0.558214
   8 H :   -0.260810
   9 H :   -0.269244
  10 C :    0.551789
  11 H :   -0.260136
  12 H :   -0.267430
  13 C :    0.130859
  14 H :   -0.258029
  15 C :    0.554219
  16 H :   -0.260518
  17 H :   -0.262577

  Mayer bond orders larger than 0.100000
B(  0-C ,  1-H ) :   0.9438 B(  0-C ,  2-H ) :   1.0058 B(  0-C ,  3-H ) :   0.9593
B(  0-C ,  4-C ) :   0.9646 B(  4-C ,  5-H ) :   0.8669 B(  4-C ,  6-H ) :   0.9620
B(  4-C , 13-C ) :   0.7023 B(  7-C ,  8-H ) :   0.8646 B(  7-C ,  9-H ) :   0.9125
B(  7-C , 10-C ) :   1.0687 B(  7-C , 13-C ) :  -0.1509 B(  7-C , 15-C ) :   1.0728
B( 10-C , 11-H ) :   0.9342 B( 10-C , 12-H ) :   0.9004 B( 10-C , 13-C ) :   0.9146
B( 13-C , 14-H ) :   0.8191 B( 13-C , 15-C ) :   0.8288 B( 15-C , 16-H ) :   0.9407
B( 15-C , 17-H ) :   0.9375

MP2 TOTAL ENERGY:     -235.373946395 Eh
FINAL SINGLE POINT ENERGY      -235.373946394559

DIPOLE MOMENT
-------------
                                X             Y             Z
Electronic contribution:     -1.98111      -0.37895       0.46973
Nuclear contribution   :      1.98978       0.36111      -0.45106
                        -----------------------------------------
Total Dipole Moment    :      0.00868      -0.01784       0.01867
                        -----------------------------------------
Magnitude (a.u.)       :      0.02724
Magnitude (Debye)      :      0.06923

Rotational constants in cm-1:     0.243048     0.076432     0.067495
Rotational constants in MHz :  7286.380766  2291.373917  2023.437919

                             ****ORCA TERMINATED NORMALLY****
TOTAL RUN TIME: 0 days 0 hours 51 minutes 38 seconds 496 msec
