                         Program Version 5.0.4 -  RELEASE  -
|  1> !ri-mp2 aug-cc-pvqz aug-cc-pvqz/c tightscf
|  2> %pal nprocs 16 end
|  3>
|  4> * xyz 0 1
|  5> N      0.512308    0.546801   -0.071754
|  6> N      1.510698   -0.467956   -0.034828
|  7> C     -0.763301    0.125139   -0.013554
|  8> C     -1.913127   -0.223847    0.004210
|  9> H      0.705929    1.370690    0.481900
| 10> H      1.827585   -0.633181    0.915230
| 11> H      2.290894   -0.164761   -0.602259
| 12> H     -2.926878   -0.532418    0.007263
| 13> *
| 14>
| 15>                          ****END OF INPUT****

CARTESIAN COORDINATES (ANGSTROEM)
---------------------------------
  N      0.512308    0.546801   -0.071754
  N      1.510698   -0.467956   -0.034828
  C     -0.763301    0.125139   -0.013554
  C     -1.913127   -0.223847    0.004210
  H      0.705929    1.370690    0.481900
  H      1.827585   -0.633181    0.915230
  H      2.290894   -0.164761   -0.602259
  H     -2.926878   -0.532418    0.007263

 Total Charge           Charge          ....    0
 Multiplicity           Mult            ....    1
 Number of Electrons    NEL             ....   30
 Basis Dimension        Dim             ....  504

ORBITAL ENERGIES
----------------

  NO   OCC          E(Eh)            E(eV)
   0   2.0000     -15.617374      -424.9704
   1   2.0000     -15.595400      -424.3724
   2   2.0000     -11.256799      -306.3131
   3   2.0000     -11.208970      -305.0116
   4   2.0000      -1.309870       -35.6434
   5   2.0000      -1.093474       -29.7549
   6   2.0000      -0.983865       -26.7723
   7   2.0000      -0.762995       -20.7621
   8   2.0000      -0.709732       -19.3128
   9   2.0000      -0.693705       -18.8767
  10   2.0000      -0.669661       -18.2224
  11   2.0000      -0.506265       -13.7762
  12   2.0000      -0.444404       -12.0929
  13   2.0000      -0.390796       -10.6341
  14   2.0000      -0.340402        -9.2628
  15   0.0000       0.019922         0.5421
  16   0.0000       0.033604         0.9144
  17   0.0000       0.038628         1.0511
  18   0.0000       0.041320         1.1244
  19   0.0000       0.078603         2.1389

MULLIKEN ATOMIC CHARGES
-----------------------
   0 N :   -0.495641
   1 N :   -0.454131
   2 C :    0.282914
   3 C :   -0.579709
   4 H :    0.307450
   5 H :    0.254429
   6 H :    0.270070
   7 H :    0.414618
Sum of atomic charges:    0.0000000

LOEWDIN ATOMIC CHARGES
----------------------
   0 N :    0.586406
   1 N :    1.119835
   2 C :   -0.143974
   3 C :    0.524817
   4 H :   -0.539737
   5 H :   -0.519728
   6 H :   -0.535318
   7 H :   -0.492302

  Mayer bond orders larger than 0.100000
B(  0-N ,  1-N ) :   0.8946 B(  0-N ,  2-C ) :   1.0584 B(  0-N ,  4-H ) :   0.8704
B(  1-N ,  5-H ) :   0.9394 B(  1-N ,  6-H ) :   0.9258 B(  2-C ,  3-C ) :   2.6636
B(  3-C ,  7-H ) :   0.9248

MP2 TOTAL ENERGY:     -187.700731995 Eh
FINAL SINGLE POINT ENERGY      -187.700731994611

DIPOLE MOMENT
-------------
                                X             Y             Z
Electronic contribution:     -1.11357       0.40782      -0.26228
Nuclear contribution   :      1.91874       0.04099       0.80543
                        -----------------------------------------
Total Dipole Moment    :      0.80517       0.44882       0.54315
                        -----------------------------------------
Magnitude (a.u.)       :      1.06993
Magnitude (Debye)      :      2.71954

Rotational constants in cm-1:     1.385602     0.159240     0.146593
Rotational constants in MHz : 41539.305636  4773.889620  4394.757194

                             ****ORCA TERMINATED NORMALLY****
TOTAL RUN TIME: 0 days 0 hours 3 minutes 28 seconds 533 msec
