                         Program Version 5.0.4 -  RELEASE  -
|  1> !ri-mp2 aug-cc-pvqz aug-cc-pvqz/c tightscf
|  2> %pal nprocs 16 end
|  3>
|  4> * xyz 0 1
|  5> S      0.004284    0.891567    0.012200
|  6> S     -1.557225   -0.508946   -0.087104
|  7> C      1.406295   -0.051449   -0.001347
|  8> C      2.452012   -0.649297   -0.003520
|  9> H     -1.672295   -0.734996    1.238559
| 10> H      3.369516   -1.182461   -0.010889
| 11> *
| 12>
| 13>                          ****END OF INPUT****

CARTESIAN COORDINATES (ANGSTROEM)
---------------------------------
  S      0.004284    0.891567    0.012200
  S     -1.557225   -0.508946   -0.087104
  C      1.406295   -0.051449   -0.001347
  C      2.452012   -0.649297   -0.003520
  H     -1.672295   -0.734996    1.238559
  H      3.369516   -1.182461   -0.010889

 Total Charge           Charge          ....    0
 Multiplicity           Mult            ....    1
 Number of Electrons    NEL             ....   46
 Basis Dimension        Dim             ....  420

ORBITAL ENERGIES
----------------

  NO   OCC          E(Eh)            E(eV)
   0   2.0000     -92.019046     -2503.9656
   1   2.0000     -91.999235     -2503.4265
   2   2.0000     -11.265711      -306.5556
   3   2.0000     -11.248070      -306.0756
   4   2.0000      -9.017114      -245.3682
   5   2.0000      -8.999189      -244.8804
   6   2.0000      -6.698513      -182.2758
   7   2.0000      -6.697370      -182.2447
   8   2.0000      -6.696379      -182.2177
   9   2.0000      -6.680323      -181.7808
  10   2.0000      -6.679344      -181.7542
  11   2.0000      -6.678326      -181.7265
  12   2.0000      -1.102789       -30.0084
  13   2.0000      -1.020663       -27.7736
  14   2.0000      -0.915104       -24.9013
  15   2.0000      -0.734931       -19.9985
  16   2.0000      -0.634418       -17.2634
  17   2.0000      -0.569720       -15.5029
  18   2.0000      -0.515000       -14.0139
  19   2.0000      -0.473515       -12.8850
  20   2.0000      -0.404788       -11.0149
  21   2.0000      -0.394948       -10.7471
  22   2.0000      -0.354097        -9.6355
  23   0.0000       0.025603         0.6967
  24   0.0000       0.031338         0.8528
  25   0.0000       0.046269         1.2590
  26   0.0000       0.057130         1.5546
  27   0.0000       0.064322         1.7503

MULLIKEN ATOMIC CHARGES
-----------------------
   0 S :    0.370183
   1 S :   -0.136575
   2 C :   -0.466546
   3 C :   -0.435841
   4 H :    0.125613
   5 H :    0.543165
Sum of atomic charges:    0.0000000

LOEWDIN ATOMIC CHARGES
----------------------
   0 S :    0.593756
   1 S :    1.016641
   2 C :   -0.637608
   3 C :    0.400243
   4 H :   -0.895188
   5 H :   -0.477844

  Mayer bond orders larger than 0.100000
B(  0-S ,  1-S ) :   1.1362 B(  0-S ,  2-C ) :   0.7635 B(  1-S ,  4-H ) :   0.9673
B(  2-C ,  3-C ) :   2.5369 B(  3-C ,  5-H ) :   0.7547

MP2 TOTAL ENERGY:     -872.664076239 Eh
FINAL SINGLE POINT ENERGY      -872.664076238933

DIPOLE MOMENT
-------------
                                X             Y             Z
Electronic contribution:     -1.54056       1.53423      -0.84604
Nuclear contribution   :      1.67223      -1.84866       1.17859
                        -----------------------------------------
Total Dipole Moment    :      0.13167      -0.31443       0.33256
                        -----------------------------------------
Magnitude (a.u.)       :      0.47623
Magnitude (Debye)      :      1.21049

Rotational constants in cm-1:     0.396664     0.088839     0.073684
Rotational constants in MHz : 11891.698476  2663.337792  2208.987107

                             ****ORCA TERMINATED NORMALLY****
TOTAL RUN TIME: 0 days 0 hours 2 minutes 53 seconds 577 msec
