                         Program Version 5.0.4 -  RELEASE  -
|  1> !ri-mp2 aug-cc-pvqz aug-cc-pvqz/c tightscf
|  2> %pal nprocs 16 end
|  3>
|  4> * xyz 0 1
|  5> O    -0.050156    0.740035    0.079572
|  6> O     1.936027    1.687629   -0.182327
|  7> N     3.213504   -0.696582   -0.044778
|  8> N     4.330864   -0.709304   -0.134489
|  9> C     1.298833    0.673982   -0.023993
| 10> C     1.909663   -0.650513    0.057625
| 11> C    -0.856529   -0.436953    0.311416
| 12> C    -2.276948   -0.004647    0.447772
| 13> C    -3.260722   -0.448114   -0.326484
| 14> C    -4.699726   -0.063453   -0.200434
| 15> H     1.420216   -1.598861    0.184598
| 16> H    -0.512068   -0.920689    1.230337
| 17> H    -0.746910   -1.133819   -0.522395
| 18> H    -2.482030    0.705676    1.242038
| 19> H    -3.020014   -1.148491   -1.122413
| 20> H    -5.062145    0.389855   -1.126289
| 21> H    -4.856995    0.645101    0.612065
| 22> H    -5.325023   -0.940694   -0.016433
| 23> *
| 24>
| 25>                          ****END OF INPUT****

CARTESIAN COORDINATES (ANGSTROEM)
---------------------------------
  O     -0.050156    0.740035    0.079572
  O      1.936027    1.687629   -0.182327
  N      3.213504   -0.696582   -0.044778
  N      4.330864   -0.709304   -0.134489
  C      1.298833    0.673982   -0.023993
  C      1.909663   -0.650513    0.057625
  C     -0.856529   -0.436953    0.311416
  C     -2.276948   -0.004647    0.447772
  C     -3.260722   -0.448114   -0.326484
  C     -4.699726   -0.063453   -0.200434
  H      1.420216   -1.598861    0.184598
  H     -0.512068   -0.920689    1.230337
  H     -0.746910   -1.133819   -0.522395
  H     -2.482030    0.705676    1.242038
  H     -3.020014   -1.148491   -1.122413
  H     -5.062145    0.389855   -1.126289
  H     -4.856995    0.645101    0.612065
  H     -5.325023   -0.940694   -0.016433

 Total Charge           Charge          ....    0
 Multiplicity           Mult            ....    1
 Number of Electrons    NEL             ....   74
 Basis Dimension        Dim             .... 1168

ORBITAL ENERGIES
----------------

  NO   OCC          E(Eh)            E(eV)
   0   2.0000     -20.598315      -560.5086
   1   2.0000     -20.525873      -558.5374
   2   2.0000     -15.770610      -429.1401
   3   2.0000     -15.704911      -427.3524
   4   2.0000     -11.388486      -309.8965
   5   2.0000     -11.308300      -307.7145
   6   2.0000     -11.288575      -307.1777
   7   2.0000     -11.247842      -306.0693
   8   2.0000     -11.237750      -305.7947
   9   2.0000     -11.231189      -305.6162
  10   2.0000      -1.506953       -41.0063
  11   2.0000      -1.449908       -39.4540
  12   2.0000      -1.354401       -36.8551
  13   2.0000      -1.160935       -31.5906
  14   2.0000      -1.101320       -29.9684
  15   2.0000      -1.008241       -27.4356
  16   2.0000      -0.908824       -24.7304
  17   2.0000      -0.880717       -23.9655
  18   2.0000      -0.774320       -21.0703
  19   2.0000      -0.755143       -20.5485
  20   2.0000      -0.742608       -20.2074
  21   2.0000      -0.703681       -19.1481
  22   2.0000      -0.697537       -18.9809
  23   2.0000      -0.676902       -18.4194
  24   2.0000      -0.660147       -17.9635
  25   2.0000      -0.633196       -17.2301
  26   2.0000      -0.607084       -16.5196
  27   2.0000      -0.602898       -16.4057
  28   2.0000      -0.578761       -15.7489
  29   2.0000      -0.555668       -15.1205
  30   2.0000      -0.545262       -14.8373
  31   2.0000      -0.526204       -14.3187
  32   2.0000      -0.503218       -13.6932
  33   2.0000      -0.459819       -12.5123
  34   2.0000      -0.449524       -12.2322
  35   2.0000      -0.372782       -10.1439
  36   2.0000      -0.357738        -9.7346
  37   0.0000       0.017812         0.4847
  38   0.0000       0.025134         0.6839
  39   0.0000       0.029818         0.8114
  40   0.0000       0.038514         1.0480
  41   0.0000       0.042367         1.1529

MULLIKEN ATOMIC CHARGES
-----------------------
   0 O :   -0.804647
   1 O :   -0.771234
   2 N :   -0.004654
   3 N :   -0.240136
   4 C :    1.190727
   5 C :   -0.224991
   6 C :    0.184468
   7 C :   -0.521395
   8 C :   -0.379868
   9 C :   -0.724088
  10 H :    0.266570
  11 H :    0.284309
  12 H :    0.203172
  13 H :    0.440844
  14 H :    0.394864
  15 H :    0.234378
  16 H :    0.233601
  17 H :    0.238079
Sum of atomic charges:   -0.0000000

LOEWDIN ATOMIC CHARGES
----------------------
   0 O :    0.830764
   1 O :    0.628212
   2 N :    0.047010
   3 N :    0.454131
   4 C :   -1.165433
   5 C :    0.037149
   6 C :    0.127257
   7 C :    0.378243
   8 C :    0.387758
   9 C :    0.897579
  10 H :   -0.428328
  11 H :   -0.313969
  12 H :   -0.334707
  13 H :   -0.321997
  14 H :   -0.322752
  15 H :   -0.293477
  16 H :   -0.313144
  17 H :   -0.294297

  Mayer bond orders larger than 0.100000
B(  0-O ,  1-O ) :   0.1536 B(  0-O ,  4-C ) :   0.9411 B(  0-O ,  5-C ) :   0.1388
B(  0-O ,  6-C ) :   0.6978 B(  1-O ,  4-C ) :   1.2364 B(  1-O ,  5-C ) :   0.1458
B(  2-N ,  3-N ) :   2.1332 B(  2-N ,  5-C ) :   1.1035 B(  4-C ,  5-C ) :   1.2263
B(  5-C ,  6-C ) :  -0.1218 B(  5-C , 10-H ) :   0.9742 B(  6-C ,  7-C ) :   1.0507
B(  6-C ,  8-C ) :  -0.2534 B(  6-C , 11-H ) :   0.8696 B(  6-C , 12-H ) :   0.9363
B(  7-C ,  8-C ) :   1.6069 B(  7-C ,  9-C ) :  -0.1227 B(  7-C , 13-H ) :   0.7573
B(  8-C ,  9-C ) :   0.8134 B(  8-C , 14-H ) :   0.8012 B(  9-C , 15-H ) :   1.0080
B(  9-C , 16-H ) :   0.9712 B(  9-C , 17-H ) :   0.9957

MP2 TOTAL ENERGY:     -492.586908723 Eh
FINAL SINGLE POINT ENERGY      -492.586908722942

DIPOLE MOMENT
-------------
                                X             Y             Z
Electronic contribution:     19.33267       1.98588      -0.25959
Nuclear contribution   :    -20.34051      -3.93890       0.47486
                        -----------------------------------------
Total Dipole Moment    :     -1.00783      -1.95302       0.21526
                        -----------------------------------------
Magnitude (a.u.)       :      2.20825
Magnitude (Debye)      :      5.61292

Rotational constants in cm-1:     0.162126     0.015303     0.014281
Rotational constants in MHz :  4860.407825   458.768662   428.137905

                             ****ORCA TERMINATED NORMALLY****
TOTAL RUN TIME: 0 days 1 hours 33 minutes 48 seconds 343 msec
