                         Program Version 5.0.4 -  RELEASE  -
|  1> !ri-mp2 aug-cc-pvqz aug-cc-pvqz/c tightscf
|  2> %pal nprocs 16 end
|  3>
|  4> * xyz 0 1
|  5> C      1.217924   -0.353536    0.000000
|  6> C      0.000000    0.571510    0.000000
|  7> N     -1.306888   -0.088652    0.000000
|  8> H      1.220384   -0.996853    0.882589
|  9> H      1.220384   -0.996853   -0.882589
| 10> H      2.148415    0.218943    0.000000
| 11> H      0.037134    1.227011   -0.872854
| 12> H      0.037134    1.227011    0.872854
| 13> H     -1.411390   -0.683272    0.813701
| 14> H     -1.411390   -0.683272   -0.813701
| 15> *
| 16>
| 17>                          ****END OF INPUT****

CARTESIAN COORDINATES (ANGSTROEM)
---------------------------------
  C      1.217924   -0.353536    0.000000
  C      0.000000    0.571510    0.000000
  N     -1.306888   -0.088652    0.000000
  H      1.220384   -0.996853    0.882589
  H      1.220384   -0.996853   -0.882589
  H      2.148415    0.218943    0.000000
  H      0.037134    1.227011   -0.872854
  H      0.037134    1.227011    0.872854
  H     -1.411390   -0.683272    0.813701
  H     -1.411390   -0.683272   -0.813701

 Total Charge           Charge          ....    0
 Multiplicity           Mult            ....    1
 Number of Electrons    NEL             ....   26
 Basis Dimension        Dim             ....  562

ORBITAL ENERGIES
----------------

  NO   OCC          E(Eh)            E(eV)
   0   2.0000     -15.534934      -422.7270
   1   2.0000     -11.245588      -306.0080
   2   2.0000     -11.212362      -305.1039
   3   2.0000      -1.173922       -31.9440
   4   2.0000      -0.986891       -26.8547
   5   2.0000      -0.830487       -22.5987
   6   2.0000      -0.671544       -18.2736
   7   2.0000      -0.598037       -16.2734
   8   2.0000      -0.570417       -15.5218
   9   2.0000      -0.564203       -15.3527
  10   2.0000      -0.506583       -13.7848
  11   2.0000      -0.482978       -13.1425
  12   2.0000      -0.387130       -10.5343
  13   0.0000       0.026886         0.7316
  14   0.0000       0.035231         0.9587
  15   0.0000       0.036466         0.9923
  16   0.0000       0.039431         1.0730
  17   0.0000       0.058141         1.5821

MULLIKEN ATOMIC CHARGES
-----------------------
   0 C :   -0.835638
   1 C :   -0.259781
   2 N :   -0.683171
   3 H :    0.239201
   4 H :    0.239201
   5 H :    0.267945
   6 H :    0.272732
   7 H :    0.272732
   8 H :    0.243389
   9 H :    0.243389
Sum of atomic charges:   -0.0000000

LOEWDIN ATOMIC CHARGES
----------------------
   0 C :    0.915374
   1 C :    0.339068
   2 N :    1.270979
   3 H :   -0.295817
   4 H :   -0.295817
   5 H :   -0.291556
   6 H :   -0.302088
   7 H :   -0.302088
   8 H :   -0.519027
   9 H :   -0.519027

  Mayer bond orders larger than 0.100000
B(  0-C ,  1-C ) :   1.0066 B(  0-C ,  3-H ) :   0.9281 B(  0-C ,  4-H ) :   0.9281
B(  0-C ,  5-H ) :   0.9551 B(  1-C ,  2-N ) :   0.8999 B(  1-C ,  6-H ) :   0.8862
B(  1-C ,  7-H ) :   0.8862 B(  2-N ,  8-H ) :   0.9151 B(  2-N ,  9-H ) :   0.9151

MP2 TOTAL ENERGY:     -134.934561802 Eh
FINAL SINGLE POINT ENERGY      -134.934561801743

DIPOLE MOMENT
-------------
                                X             Y             Z
Electronic contribution:     -1.58731       0.38432       0.00000
Nuclear contribution   :      1.98525      -0.74494       0.00000
                        -----------------------------------------
Total Dipole Moment    :      0.39794      -0.36061       0.00000
                        -----------------------------------------
Magnitude (a.u.)       :      0.53703
Magnitude (Debye)      :      1.36502

Rotational constants in cm-1:     1.073184     0.290318     0.259780
Rotational constants in MHz : 32173.250292  8703.503075  7788.009275

                             ****ORCA TERMINATED NORMALLY****
TOTAL RUN TIME: 0 days 0 hours 4 minutes 37 seconds 737 msec
