                         Program Version 5.0.4 -  RELEASE  -
|  1> !ri-mp2 aug-cc-pvqz aug-cc-pvqz/c tightscf
|  2> %pal nprocs 16 end
|  3>
|  4> * xyz 0 1
|  5> C      1.211962   -0.100418        0.000000
|  6> C      0.000000    0.441434        0.000000
|  7> O     -1.190822   -0.218573        0.000000
|  8> H      1.366451   -1.172202        0.000000
|  9> H      2.084447    0.533775        0.000000
| 10> H     -0.160334    1.511121        0.000000
| 11> H     -1.035759   -1.170209        0.000000
| 12> *
| 13>
| 14>                          ****END OF INPUT****

CARTESIAN COORDINATES (ANGSTROEM)
---------------------------------
  C      1.211962   -0.100418    0.000000
  C      0.000000    0.441434    0.000000
  O     -1.190822   -0.218573    0.000000
  H      1.366451   -1.172202    0.000000
  H      2.084447    0.533775    0.000000
  H     -0.160334    1.511121    0.000000
  H     -1.035759   -1.170209    0.000000

 Total Charge           Charge          ....    0
 Multiplicity           Mult            ....    1
 Number of Electrons    NEL             ....   24
 Basis Dimension        Dim             ....  424

ORBITAL ENERGIES
----------------

  NO   OCC          E(Eh)            E(eV)
   0   2.0000     -20.590661      -560.3004
   1   2.0000     -11.299272      -307.4688
   2   2.0000     -11.214957      -305.1745
   3   2.0000      -1.404638       -38.2222
   4   2.0000      -1.025528       -27.9060
   5   2.0000      -0.833898       -22.6915
   6   2.0000      -0.681950       -18.5568
   7   2.0000      -0.671379       -18.2691
   8   2.0000      -0.580740       -15.8027
   9   2.0000      -0.549464       -14.9517
  10   2.0000      -0.542434       -14.7604
  11   2.0000      -0.353067        -9.6074
  12   0.0000       0.026244         0.7141
  13   0.0000       0.034543         0.9400
  14   0.0000       0.037986         1.0337
  15   0.0000       0.054353         1.4790
  16   0.0000       0.076456         2.0805

MULLIKEN ATOMIC CHARGES
-----------------------
   0 C :   -0.934283
   1 C :   -0.048803
   2 O :   -0.680768
   3 H :    0.403531
   4 H :    0.334687
   5 H :    0.584387
   6 H :    0.341248
Sum of atomic charges:    0.0000000

LOEWDIN ATOMIC CHARGES
----------------------
   0 C :    0.746730
   1 C :   -0.014031
   2 O :    1.233354
   3 H :   -0.377820
   4 H :   -0.392047
   5 H :   -0.379564
   6 H :   -0.816621

  Mayer bond orders larger than 0.100000
B(  0-C ,  1-C ) :   1.8220 B(  0-C ,  2-O ) :   0.1208 B(  0-C ,  3-H ) :   0.8183
B(  0-C ,  4-H ) :   0.9505 B(  1-C ,  2-O ) :   0.8761 B(  1-C ,  5-H ) :   0.6500
B(  2-O ,  6-H ) :   0.8723

MP2 TOTAL ENERGY:     -153.582546292 Eh
FINAL SINGLE POINT ENERGY      -153.582546292086

DIPOLE MOMENT
-------------
                                X             Y             Z
Electronic contribution:     -2.02513      -0.00118      -0.00000
Nuclear contribution   :      2.28784      -0.30793       0.00000
                        -----------------------------------------
Total Dipole Moment    :      0.26271      -0.30911      -0.00000
                        -----------------------------------------
Magnitude (a.u.)       :      0.40567
Magnitude (Debye)      :      1.03112

Rotational constants in cm-1:     2.026845     0.352317     0.300144
Rotational constants in MHz : 60763.284504 10562.193895  8998.097272

                             ****ORCA TERMINATED NORMALLY****
TOTAL RUN TIME: 0 days 0 hours 4 minutes 37 seconds 675 msec
