                         Program Version 5.0.4 -  RELEASE  -
|  1> !ri-mp2 aug-cc-pvqz aug-cc-pvqz/c tightscf
|  2> %pal nprocs 16 end
|  3>
|  4> * xyz 0 1
|  5> S     -2.081317   -0.343098    0.000000
|  6> N      0.542113   -0.729566    0.000018
|  7> N     -0.127051    1.471695   -0.000093
|  8> C     -0.501303    0.182134   -0.000006
|  9> C      1.846197   -0.419257   -0.000003
| 10> C      3.006498   -0.108367    0.000000
| 11> H      0.254221   -1.695995    0.000037
| 12> H      0.842627    1.744288    0.000376
| 13> H     -0.845401    2.171629    0.000218
| 14> H      4.035849    0.147679   -0.000061
| 15> *
| 16>
| 17>                          ****END OF INPUT****

CARTESIAN COORDINATES (ANGSTROEM)
---------------------------------
  S     -2.081317   -0.343098    0.000000
  N      0.542113   -0.729566    0.000018
  N     -0.127051    1.471695   -0.000093
  C     -0.501303    0.182134   -0.000006
  C      1.846197   -0.419257   -0.000003
  C      3.006498   -0.108367    0.000000
  H      0.254221   -1.695995    0.000037
  H      0.842627    1.744288    0.000376
  H     -0.845401    2.171629    0.000218
  H      4.035849    0.147679   -0.000061

 Total Charge           Charge          ....    0
 Multiplicity           Mult            ....    1
 Number of Electrons    NEL             ....   52
 Basis Dimension        Dim             ....  668

ORBITAL ENERGIES
----------------

  NO   OCC          E(Eh)            E(eV)
   0   2.0000     -91.899666     -2500.7170
   1   2.0000     -15.644207      -425.7005
   2   2.0000     -15.614529      -424.8929
   3   2.0000     -11.397389      -310.1387
   4   2.0000     -11.298052      -307.4356
   5   2.0000     -11.252582      -306.1983
   6   2.0000      -8.904008      -242.2904
   7   2.0000      -6.585840      -179.2098
   8   2.0000      -6.583954      -179.1585
   9   2.0000      -6.583429      -179.1442
  10   2.0000      -1.343968       -36.5712
  11   2.0000      -1.236383       -33.6437
  12   2.0000      -1.058612       -28.8063
  13   2.0000      -0.990407       -26.9503
  14   2.0000      -0.855669       -23.2839
  15   2.0000      -0.816041       -22.2056
  16   2.0000      -0.758684       -20.6448
  17   2.0000      -0.723259       -19.6809
  18   2.0000      -0.687193       -18.6995
  19   2.0000      -0.623567       -16.9681
  20   2.0000      -0.528188       -14.3727
  21   2.0000      -0.504952       -13.7404
  22   2.0000      -0.434886       -11.8339
  23   2.0000      -0.392039       -10.6679
  24   2.0000      -0.337105        -9.1731
  25   2.0000      -0.330767        -9.0006
  26   0.0000       0.016993         0.4624
  27   0.0000       0.028330         0.7709
  28   0.0000       0.035222         0.9584
  29   0.0000       0.050888         1.3847
  30   0.0000       0.060305         1.6410

MULLIKEN ATOMIC CHARGES
-----------------------
   0 S :   -0.213749
   1 N :   -0.480203
   2 N :   -0.597758
   3 C :    0.328398
   4 C :    0.461842
   5 C :   -0.693971
   6 H :    0.231881
   7 H :    0.287936
   8 H :    0.262096
   9 H :    0.413528
Sum of atomic charges:   -0.0000000

LOEWDIN ATOMIC CHARGES
----------------------
   0 S :    1.004247
   1 N :    0.630258
   2 N :    1.153854
   3 C :   -1.164686
   4 C :   -0.107890
   5 C :    0.576062
   6 H :   -0.577018
   7 H :   -0.531733
   8 H :   -0.520081
   9 H :   -0.463013

  Mayer bond orders larger than 0.100000
B(  0-S ,  3-C ) :   1.3750 B(  1-N ,  3-C ) :   1.0044 B(  1-N ,  4-C ) :   0.9331
B(  1-N ,  6-H ) :   1.0020 B(  2-N ,  3-C ) :   1.1305 B(  2-N ,  7-H ) :   0.8973
B(  2-N ,  8-H ) :   0.9648 B(  4-C ,  5-C ) :   2.6142 B(  5-C ,  9-H ) :   0.9569

MP2 TOTAL ENERGY:     -623.539144856 Eh
FINAL SINGLE POINT ENERGY      -623.539144856004

DIPOLE MOMENT
-------------
                                X             Y             Z
Electronic contribution:     -2.59643      -1.59237      -0.00015
Nuclear contribution   :      4.24616       2.32356       0.00056
                        -----------------------------------------
Total Dipole Moment    :      1.64974       0.73118       0.00040
                        -----------------------------------------
Magnitude (a.u.)       :      1.80451
Magnitude (Debye)      :      4.58670

Rotational constants in cm-1:     0.307040     0.053776     0.045761
Rotational constants in MHz :  9204.838998  1612.156487  1371.881956

                             ****ORCA TERMINATED NORMALLY****
TOTAL RUN TIME: 0 days 0 hours 11 minutes 18 seconds 784 msec
