                         Program Version 5.0.4 -  RELEASE  -
|  1> !ri-mp2 aug-cc-pvqz aug-cc-pvqz/c tightscf
|  2> %pal nprocs 16 end
|  3>
|  4> * xyz 0 1
|  5> C     1.188032     2.829092       0.000000
|  6> C    -1.188032    -2.829092       0.000000
|  7> C     1.188032     1.492100       0.000000
|  8> C    -1.188032    -1.492100       0.000000
|  9> C    -0.002470     0.672860       0.000000
| 10> C     0.002470    -0.672860       0.000000
| 11> H     2.108575     3.395117       0.000000
| 12> H     0.264255     3.394397       0.000000
| 13> H    -2.108575    -3.395117       0.000000
| 14> H    -0.264255    -3.394397       0.000000
| 15> H     2.137085     0.964589       0.000000
| 16> H    -2.137085    -0.964589       0.000000
| 17> H    -0.955353     1.194813       0.000000
| 18> H     0.955353    -1.194813       0.000000
| 19> *
| 20>
| 21>                          ****END OF INPUT****

CARTESIAN COORDINATES (ANGSTROEM)
---------------------------------
  C      1.188032    2.829092    0.000000
  C     -1.188032   -2.829092    0.000000
  C      1.188032    1.492100    0.000000
  C     -1.188032   -1.492100    0.000000
  C     -0.002470    0.672860    0.000000
  C      0.002470   -0.672860    0.000000
  H      2.108575    3.395117    0.000000
  H      0.264255    3.394397    0.000000
  H     -2.108575   -3.395117    0.000000
  H     -0.264255   -3.394397    0.000000
  H      2.137085    0.964589    0.000000
  H     -2.137085   -0.964589    0.000000
  H     -0.955353    1.194813    0.000000
  H      0.955353   -1.194813    0.000000

 Total Charge           Charge          ....    0
 Multiplicity           Mult            ....    1
 Number of Electrons    NEL             ....   44
 Basis Dimension        Dim             ....  848

ORBITAL ENERGIES
----------------

  NO   OCC          E(Eh)            E(eV)
   0   2.0000     -11.239600      -305.8451
   1   2.0000     -11.239318      -305.8374
   2   2.0000     -11.238718      -305.8211
   3   2.0000     -11.237387      -305.7848
   4   2.0000     -11.228494      -305.5428
   5   2.0000     -11.228493      -305.5428
   6   2.0000      -1.112969       -30.2854
   7   2.0000      -1.060625       -28.8611
   8   2.0000      -0.985646       -26.8208
   9   2.0000      -0.850665       -23.1478
  10   2.0000      -0.763392       -20.7729
  11   2.0000      -0.762365       -20.7450
  12   2.0000      -0.667515       -18.1640
  13   2.0000      -0.636730       -17.3263
  14   2.0000      -0.602660       -16.3992
  15   2.0000      -0.570826       -15.5330
  16   2.0000      -0.543701       -14.7949
  17   2.0000      -0.515518       -14.0279
  18   2.0000      -0.494671       -13.4607
  19   2.0000      -0.469900       -12.7866
  20   2.0000      -0.398701       -10.8492
  21   2.0000      -0.295826        -8.0498
  22   0.0000       0.026467         0.7202
  23   0.0000       0.028237         0.7684
  24   0.0000       0.029590         0.8052
  25   0.0000       0.041731         1.1356
  26   0.0000       0.044072         1.1993

MULLIKEN ATOMIC CHARGES
-----------------------
   0 C :   -0.803659
   1 C :   -0.803654
   2 C :   -0.506182
   3 C :   -0.506166
   4 C :   -0.261155
   5 C :   -0.261153
   6 H :    0.304834
   7 H :    0.375713
   8 H :    0.304838
   9 H :    0.375714
  10 H :    0.460923
  11 H :    0.460915
  12 H :    0.429523
  13 H :    0.429509
Sum of atomic charges:    0.0000000

LOEWDIN ATOMIC CHARGES
----------------------
   0 C :    0.787651
   1 C :    0.787651
   2 C :    0.309703
   3 C :    0.309703
   4 C :    0.321051
   5 C :    0.321051
   6 H :   -0.358196
   7 H :   -0.358586
   8 H :   -0.358196
   9 H :   -0.358586
  10 H :   -0.353255
  11 H :   -0.353255
  12 H :   -0.348367
  13 H :   -0.348367

  Mayer bond orders larger than 0.100000
B(  0-C ,  2-C ) :   1.7390 B(  0-C ,  4-C ) :  -0.2523 B(  0-C ,  6-H ) :   1.0564
B(  0-C ,  7-H ) :   0.8575 B(  1-C ,  3-C ) :   1.7390 B(  1-C ,  5-C ) :  -0.2523
B(  1-C ,  8-H ) :   1.0564 B(  1-C ,  9-H ) :   0.8575 B(  2-C ,  4-C ) :   0.9875
B(  2-C ,  5-C ) :  -0.4274 B(  2-C ,  6-H ) :  -0.1239 B(  2-C , 10-H ) :   0.7516
B(  3-C ,  4-C ) :  -0.4274 B(  3-C ,  5-C ) :   0.9875 B(  3-C ,  8-H ) :  -0.1239
B(  3-C , 11-H ) :   0.7516 B(  4-C ,  5-C ) :   1.3980 B(  4-C , 12-H ) :   0.7482
B(  5-C , 13-H ) :   0.7482

MP2 TOTAL ENERGY:     -232.940326251 Eh
FINAL SINGLE POINT ENERGY      -232.940326250882

DIPOLE MOMENT
-------------
                                X             Y             Z
Electronic contribution:      0.00000       0.00000      -0.00000
Nuclear contribution   :      0.00000       0.00000       0.00000
                        -----------------------------------------
Total Dipole Moment    :      0.00000       0.00000      -0.00000
                        -----------------------------------------
Magnitude (a.u.)       :      0.00000
Magnitude (Debye)      :      0.00000

Rotational constants in cm-1:     0.896251     0.044716     0.042591
Rotational constants in MHz : 26868.927144  1340.541294  1276.837472

                             ****ORCA TERMINATED NORMALLY****
TOTAL RUN TIME: 0 days 0 hours 23 minutes 50 seconds 530 msec
