                         Program Version 5.0.4 -  RELEASE  -
|  1> !ri-mp2 aug-cc-pvqz aug-cc-pvqz/c tightscf
|  2> %pal nprocs 16 end
|  3> %maxcore 3800
|  4>
|  5> * xyz 0 1
|  6> C     -0.035271    2.693968    0.165692
|  7> C      0.035271   -2.693968    0.165692
|  8> C     -0.708324    3.282365    1.375353
|  9> C      0.708324   -3.282365    1.375353
| 10> C      0.235431    0.714142   -1.108083
| 11> C     -0.235431   -0.714142   -1.108083
| 12> O      0.708324    3.280261   -0.579645
| 13> O     -0.708324   -3.280261   -0.579645
| 14> O     -0.367648    1.393029    0.009128
| 15> O      0.367648   -1.393029    0.009128
| 16> H     -0.362315    2.770947    2.273853
| 17> H     -1.786580    3.138698    1.314018
| 18> H     -0.474667    4.340124    1.441134
| 19> H      0.362315   -2.770947    2.273853
| 20> H      1.786580   -3.138698    1.314018
| 21> H      0.474667   -4.340124    1.441134
| 22> H     -0.066747    1.203955   -2.034470
| 23> H      1.320178    0.776496   -1.028180
| 24> H      0.066747   -1.203955   -2.034470
| 25> H     -1.320178   -0.776496   -1.028180
| 26> *
| 27>
| 28>                          ****END OF INPUT****

CARTESIAN COORDINATES (ANGSTROEM)
---------------------------------
  C     -0.035271    2.693968    0.165692
  C      0.035271   -2.693968    0.165692
  C     -0.708324    3.282365    1.375353
  C      0.708324   -3.282365    1.375353
  C      0.235431    0.714142   -1.108083
  C     -0.235431   -0.714142   -1.108083
  O      0.708324    3.280261   -0.579645
  O     -0.708324   -3.280261   -0.579645
  O     -0.367648    1.393029    0.009128
  O      0.367648   -1.393029    0.009128
  H     -0.362315    2.770947    2.273853
  H     -1.786580    3.138698    1.314018
  H     -0.474667    4.340124    1.441134
  H      0.362315   -2.770947    2.273853
  H      1.786580   -3.138698    1.314018
  H      0.474667   -4.340124    1.441134
  H     -0.066747    1.203955   -2.034470
  H      1.320178    0.776496   -1.028180
  H      0.066747   -1.203955   -2.034470
  H     -1.320178   -0.776496   -1.028180

 Total Charge           Charge          ....    0
 Multiplicity           Mult            ....    1
 Number of Electrons    NEL             ....   78
 Basis Dimension        Dim             .... 1260

ORBITAL ENERGIES
----------------

  NO   OCC          E(Eh)            E(eV)
   0   2.0000     -20.604898      -560.6878
   1   2.0000     -20.604896      -560.6877
   2   2.0000     -20.546438      -559.0970
   3   2.0000     -20.546438      -559.0970
   4   2.0000     -11.384155      -309.7786
   5   2.0000     -11.384155      -309.7786
   6   2.0000     -11.299417      -307.4728
   7   2.0000     -11.298722      -307.4539
   8   2.0000     -11.243187      -305.9427
   9   2.0000     -11.243187      -305.9427
  10   2.0000      -1.467809       -39.9411
  11   2.0000      -1.460382       -39.7390
  12   2.0000      -1.367509       -37.2118
  13   2.0000      -1.359834       -37.0030
  14   2.0000      -1.074530       -29.2394
  15   2.0000      -1.028663       -27.9914
  16   2.0000      -0.997586       -27.1457
  17   2.0000      -0.881952       -23.9991
  18   2.0000      -0.799403       -21.7529
  19   2.0000      -0.784819       -21.3560
  20   2.0000      -0.705597       -19.2003
  21   2.0000      -0.702215       -19.1082
  22   2.0000      -0.689607       -18.7652
  23   2.0000      -0.678819       -18.4716
  24   2.0000      -0.671294       -18.2668
  25   2.0000      -0.656703       -17.8698
  26   2.0000      -0.605757       -16.4835
  27   2.0000      -0.595610       -16.2074
  28   2.0000      -0.591003       -16.0820
  29   2.0000      -0.577460       -15.7135
  30   2.0000      -0.561206       -15.2712
  31   2.0000      -0.544917       -14.8280
  32   2.0000      -0.531158       -14.4535
  33   2.0000      -0.527099       -14.3431
  34   2.0000      -0.515848       -14.0369
  35   2.0000      -0.472232       -12.8501
  36   2.0000      -0.467037       -12.7087
  37   2.0000      -0.453860       -12.3502
  38   2.0000      -0.453289       -12.3346
  39   0.0000       0.022112         0.6017
  40   0.0000       0.028370         0.7720
  41   0.0000       0.031015         0.8439
  42   0.0000       0.034222         0.9312
  43   0.0000       0.041727         1.1354

MULLIKEN ATOMIC CHARGES
-----------------------
   0 C :    0.923845
   1 C :    0.923849
   2 C :   -0.754872
   3 C :   -0.754869
   4 C :   -0.148290
   5 C :   -0.148280
   6 O :   -0.755127
   7 O :   -0.755127
   8 O :   -0.735579
   9 O :   -0.735575
  10 H :    0.294770
  11 H :    0.286601
  12 H :    0.311874
  13 H :    0.294769
  14 H :    0.286602
  15 H :    0.311875
  16 H :    0.300678
  17 H :    0.276088
  18 H :    0.300680
  19 H :    0.276087
Sum of atomic charges:    0.0000000

LOEWDIN ATOMIC CHARGES
----------------------
   0 C :   -1.060603
   1 C :   -1.060603
   2 C :    0.873305
   3 C :    0.873305
   4 C :    0.150291
   5 C :    0.150291
   6 O :    0.709922
   7 O :    0.709922
   8 O :    0.858996
   9 O :    0.858996
  10 H :   -0.299564
  11 H :   -0.302245
  12 H :   -0.322654
  13 H :   -0.299564
  14 H :   -0.302245
  15 H :   -0.322654
  16 H :   -0.301028
  17 H :   -0.306420
  18 H :   -0.301028
  19 H :   -0.306420

  Mayer bond orders larger than 0.100000
B(  0-C ,  2-C ) :   0.8947 B(  0-C ,  6-O ) :   1.3842 B(  0-C ,  8-O ) :   1.0392
B(  1-C ,  3-C ) :   0.8947 B(  1-C ,  7-O ) :   1.3842 B(  1-C ,  9-O ) :   1.0392
B(  2-C , 10-H ) :   0.9061 B(  2-C , 11-H ) :   0.9257 B(  2-C , 12-H ) :   0.9668
B(  3-C , 13-H ) :   0.9061 B(  3-C , 14-H ) :   0.9257 B(  3-C , 15-H ) :   0.9668
B(  4-C ,  5-C ) :   1.1363 B(  4-C ,  6-O ) :   0.1893 B(  4-C ,  8-O ) :   0.6909
B(  4-C , 16-H ) :   0.9046 B(  4-C , 17-H ) :   0.8580 B(  5-C ,  7-O ) :   0.1893
B(  5-C ,  9-O ) :   0.6909 B(  5-C , 18-H ) :   0.9046 B(  5-C , 19-H ) :   0.8580

MP2 TOTAL ENERGY:     -534.830110491 Eh
FINAL SINGLE POINT ENERGY      -534.830110490646

DIPOLE MOMENT
-------------
                                X             Y             Z
Electronic contribution:     -0.00000      -0.00000      -3.10557
Nuclear contribution   :     -0.00000      -0.00000       3.92404
                        -----------------------------------------
Total Dipole Moment    :     -0.00000      -0.00000       0.81847
                        -----------------------------------------
Magnitude (a.u.)       :      0.81847
Magnitude (Debye)      :      2.08038

Rotational constants in cm-1:     0.105939     0.017313     0.016144
Rotational constants in MHz :  3175.970776   519.020633   483.980212

                             ****ORCA TERMINATED NORMALLY****
TOTAL RUN TIME: 0 days 1 hours 15 minutes 17 seconds 756 msec
