                         Program Version 5.0.4 -  RELEASE  -
|  1> !ri-mp2 aug-cc-pvqz aug-cc-pvqz/c tightscf
|  2> %pal nprocs 16 end
|  3>
|  4> * xyz 0 1
|  5> O      0.000001    0.762059   -0.000003
|  6> C      1.132678    0.087612   -0.000010
|  7> C     -1.132682    0.087622    0.000031
|  8> C      2.202434   -0.441297    0.000011
|  9> C     -2.202430   -0.441306   -0.000042
| 10> H      3.145026   -0.926136   -0.000026
| 11> H     -3.145031   -0.926124    0.000107
| 12> *
| 13>
| 14>                          ****END OF INPUT****

CARTESIAN COORDINATES (ANGSTROEM)
---------------------------------
  O      0.000001    0.762059   -0.000003
  C      1.132678    0.087612   -0.000010
  C     -1.132682    0.087622    0.000031
  C      2.202434   -0.441297    0.000011
  C     -2.202430   -0.441306   -0.000042
  H      3.145026   -0.926136   -0.000026
  H     -3.145031   -0.926124    0.000107

 Total Charge           Charge          ....    0
 Multiplicity           Mult            ....    1
 Number of Electrons    NEL             ....   34
 Basis Dimension        Dim             ....  492

ORBITAL ENERGIES
----------------

  NO   OCC          E(Eh)            E(eV)
   0   2.0000     -20.689811      -562.9984
   1   2.0000     -11.317917      -307.9762
   2   2.0000     -11.317901      -307.9757
   3   2.0000     -11.245145      -305.9959
   4   2.0000     -11.245144      -305.9959
   5   2.0000      -1.517170       -41.2843
   6   2.0000      -1.071966       -29.1697
   7   2.0000      -1.032421       -28.0936
   8   2.0000      -0.893762       -24.3205
   9   2.0000      -0.744519       -20.2594
  10   2.0000      -0.719833       -19.5876
  11   2.0000      -0.712574       -19.3901
  12   2.0000      -0.697017       -18.9668
  13   2.0000      -0.439312       -11.9543
  14   2.0000      -0.423189       -11.5156
  15   2.0000      -0.419158       -11.4059
  16   2.0000      -0.381240       -10.3741
  17   0.0000       0.024260         0.6601
  18   0.0000       0.026291         0.7154
  19   0.0000       0.054556         1.4845
  20   0.0000       0.066723         1.8156
  21   0.0000       0.068315         1.8590

MULLIKEN ATOMIC CHARGES
-----------------------
   0 O :   -0.633369
   1 C :    0.434059
   2 C :    0.434060
   3 C :   -0.612744
   4 C :   -0.612734
   5 H :    0.495365
   6 H :    0.495364
Sum of atomic charges:   -0.0000000

LOEWDIN ATOMIC CHARGES
----------------------
   0 O :    0.669294
   1 C :   -0.362368
   2 C :   -0.362367
   3 C :    0.508017
   4 C :    0.508018
   5 H :   -0.480296
   6 H :   -0.480298

  Mayer bond orders larger than 0.100000
B(  0-O ,  1-C ) :   0.9250 B(  0-O ,  2-C ) :   0.9250 B(  1-C ,  3-C ) :   2.6815
B(  2-C ,  4-C ) :   2.6815 B(  3-C ,  5-H ) :   0.7981 B(  4-C ,  6-H ) :   0.7981

MP2 TOTAL ENERGY:     -228.287267356 Eh
FINAL SINGLE POINT ENERGY      -228.287267356220

DIPOLE MOMENT
-------------
                                X             Y             Z
Electronic contribution:      0.00000       1.43255      -0.00002
Nuclear contribution   :     -0.00000      -1.77883       0.00008
                        -----------------------------------------
Total Dipole Moment    :     -0.00000      -0.34628       0.00006
                        -----------------------------------------
Magnitude (a.u.)       :      0.34628
Magnitude (Debye)      :      0.88017

Rotational constants in cm-1:     1.064762     0.100773     0.092060
Rotational constants in MHz : 31920.770987  3021.092094  2759.886864

                             ****ORCA TERMINATED NORMALLY****
TOTAL RUN TIME: 0 days 0 hours 6 minutes 25 seconds 311 msec
