                         Program Version 5.0.4 -  RELEASE  -
|  1> !ri-mp2 aug-cc-pvqz aug-cc-pvqz/c tightscf
|  2> %pal nprocs 16 end
|  3>
|  4> * xyz 0 1
|  5> C    -0.364902     0.550673       0.000000
|  6> C     0.364902    -0.550673       0.000000
|  7> Cl    0.364902     2.127712       0.000000
|  8> Cl   -0.364902    -2.127712       0.000000
|  9> H    -1.443008     0.559873       0.000000
| 10> H     1.443008    -0.559873       0.000000
| 11> *
| 12>
| 13>                          ****END OF INPUT****

CARTESIAN COORDINATES (ANGSTROEM)
---------------------------------
  C     -0.364902    0.550673    0.000000
  C      0.364902   -0.550673    0.000000
  Cl     0.364902    2.127712    0.000000
  Cl    -0.364902   -2.127712    0.000000
  H     -1.443008    0.559873    0.000000
  H      1.443008   -0.559873    0.000000

 Total Charge           Charge          ....    0
 Multiplicity           Mult            ....    1
 Number of Electrons    NEL             ....   48
 Basis Dimension        Dim             ....  420

ORBITAL ENERGIES
----------------

  NO   OCC          E(Eh)            E(eV)
   0   2.0000    -104.855986     -2853.2764
   1   2.0000    -104.855986     -2853.2764
   2   2.0000     -11.317751      -307.9717
   3   2.0000     -11.315922      -307.9219
   4   2.0000     -10.580990      -287.9234
   5   2.0000     -10.580988      -287.9233
   6   2.0000      -8.048143      -219.0011
   7   2.0000      -8.048143      -219.0011
   8   2.0000      -8.046324      -218.9516
   9   2.0000      -8.046324      -218.9516
  10   2.0000      -8.046296      -218.9508
  11   2.0000      -8.046296      -218.9508
  12   2.0000      -1.192275       -32.4434
  13   2.0000      -1.140797       -31.0427
  14   2.0000      -0.994767       -27.0690
  15   2.0000      -0.807090       -21.9620
  16   2.0000      -0.661254       -17.9936
  17   2.0000      -0.647599       -17.6221
  18   2.0000      -0.547350       -14.8941
  19   2.0000      -0.546770       -14.8784
  20   2.0000      -0.496668       -13.5150
  21   2.0000      -0.472012       -12.8441
  22   2.0000      -0.467408       -12.7188
  23   2.0000      -0.370645       -10.0858
  24   0.0000       0.030042         0.8175
  25   0.0000       0.034251         0.9320
  26   0.0000       0.051769         1.4087
  27   0.0000       0.069242         1.8842
  28   0.0000       0.075335         2.0500

MULLIKEN ATOMIC CHARGES
-----------------------
   0 C :   -0.354036
   1 C :   -0.354036
   2 Cl:   -0.161641
   3 Cl:   -0.161641
   4 H :    0.515677
   5 H :    0.515677
Sum of atomic charges:   -0.0000000

LOEWDIN ATOMIC CHARGES
----------------------
   0 C :   -0.588130
   1 C :   -0.588130
   2 Cl:    1.100148
   3 Cl:    1.100148
   4 H :   -0.512019
   5 H :   -0.512019

  Mayer bond orders larger than 0.100000
B(  0-C ,  1-C ) :   1.7499 B(  0-C ,  2-Cl) :   0.9343 B(  0-C ,  4-H ) :   0.7019
B(  1-C ,  3-Cl) :   0.9343 B(  1-C ,  5-H ) :   0.7019

MP2 TOTAL ENERGY:     -996.709164640 Eh
FINAL SINGLE POINT ENERGY      -996.709164639503

DIPOLE MOMENT
-------------
                                X             Y             Z
Electronic contribution:      0.00000       0.00000      -0.00000
Nuclear contribution   :      0.00000       0.00000       0.00000
                        -----------------------------------------
Total Dipole Moment    :      0.00000       0.00000      -0.00000
                        -----------------------------------------
Magnitude (a.u.)       :      0.00000
Magnitude (Debye)      :      0.00000

Rotational constants in cm-1:     1.784682     0.050125     0.048756
Rotational constants in MHz : 53503.426764  1502.713870  1461.661199

                             ****ORCA TERMINATED NORMALLY****
TOTAL RUN TIME: 0 days 0 hours 2 minutes 43 seconds 35 msec
