                         Program Version 5.0.4 -  RELEASE  -
|  1> !ri-mp2 aug-cc-pvqz aug-cc-pvqz/c tightscf
|  2> %pal nprocs 16 end
|  3>
|  4> * xyz 0 1
|  5> C     -1.792925    0.132342   -0.066839
|  6> N     -0.414567   -0.229123   -0.392738
|  7> N      0.414567    0.229123    0.392738
|  8> C      1.792925   -0.132342    0.066839
|  9> H     -2.215579    0.652316   -0.927812
| 10> H     -1.855580    0.753706    0.827894
| 11> H     -2.359533   -0.790722    0.064186
| 12> H      2.215579   -0.652316    0.927812
| 13> H      1.855580   -0.753706   -0.827894
| 14> H      2.359533    0.790722   -0.064186
| 15> *
| 16>
| 17>                          ****END OF INPUT****

CARTESIAN COORDINATES (ANGSTROEM)
---------------------------------
  C     -1.792925    0.132342   -0.066839
  N     -0.414567   -0.229123   -0.392738
  N      0.414567    0.229123    0.392738
  C      1.792925   -0.132342    0.066839
  H     -2.215579    0.652316   -0.927812
  H     -1.855580    0.753706    0.827894
  H     -2.359533   -0.790722    0.064186
  H      2.215579   -0.652316    0.927812
  H      1.855580   -0.753706   -0.827894
  H      2.359533    0.790722   -0.064186

 Total Charge           Charge          ....    0
 Multiplicity           Mult            ....    1
 Number of Electrons    NEL             ....   32
 Basis Dimension        Dim             ....  596

ORBITAL ENERGIES
----------------

  NO   OCC          E(Eh)            E(eV)
   0   2.0000     -15.616723      -424.9526
   1   2.0000     -15.615255      -424.9127
   2   2.0000     -11.247509      -306.0603
   3   2.0000     -11.247503      -306.0601
   4   2.0000      -1.363174       -37.0939
   5   2.0000      -1.062896       -28.9229
   6   2.0000      -0.938181       -25.5292
   7   2.0000      -0.777078       -21.1454
   8   2.0000      -0.655313       -17.8320
   9   2.0000      -0.648559       -17.6482
  10   2.0000      -0.623647       -16.9703
  11   2.0000      -0.576977       -15.7003
  12   2.0000      -0.544629       -14.8201
  13   2.0000      -0.516838       -14.0639
  14   2.0000      -0.450034       -12.2461
  15   2.0000      -0.378395       -10.2967
  16   0.0000       0.028133         0.7655
  17   0.0000       0.034884         0.9492
  18   0.0000       0.039031         1.0621
  19   0.0000       0.041768         1.1366
  20   0.0000       0.052500         1.4286

MULLIKEN ATOMIC CHARGES
-----------------------
   0 C :   -0.685707
   1 N :   -0.209806
   2 N :   -0.209806
   3 C :   -0.685707
   4 H :    0.294908
   5 H :    0.305618
   6 H :    0.294986
   7 H :    0.294908
   8 H :    0.305618
   9 H :    0.294986
Sum of atomic charges:    0.0000000

LOEWDIN ATOMIC CHARGES
----------------------
   0 C :    0.661837
   1 N :    0.357425
   2 N :    0.357425
   3 C :    0.661837
   4 H :   -0.333421
   5 H :   -0.352405
   6 H :   -0.333435
   7 H :   -0.333421
   8 H :   -0.352405
   9 H :   -0.333435

  Mayer bond orders larger than 0.100000
B(  0-C ,  1-N ) :   0.8485 B(  0-C ,  4-H ) :   0.9189 B(  0-C ,  5-H ) :   0.9092
B(  0-C ,  6-H ) :   0.9189 B(  1-N ,  2-N ) :   1.8139 B(  2-N ,  3-C ) :   0.8485
B(  3-C ,  7-H ) :   0.9189 B(  3-C ,  8-H ) :   0.9092 B(  3-C ,  9-H ) :   0.9189

MP2 TOTAL ENERGY:     -188.960153807 Eh
FINAL SINGLE POINT ENERGY      -188.960153806852

DIPOLE MOMENT
-------------
                                X             Y             Z
Electronic contribution:      0.00000      -0.00000      -0.00000
Nuclear contribution   :      0.00000       0.00000      -0.00000
                        -----------------------------------------
Total Dipole Moment    :      0.00000      -0.00000      -0.00000
                        -----------------------------------------
Magnitude (a.u.)       :      0.00000
Magnitude (Debye)      :      0.00000

Rotational constants in cm-1:     1.423719     0.147775     0.140840
Rotational constants in MHz : 42682.011679  4430.170228  4222.274461

                             ****ORCA TERMINATED NORMALLY****
TOTAL RUN TIME: 0 days 0 hours 4 minutes 23 seconds 58 msec
