                         Program Version 5.0.4 -  RELEASE  -
|  1> !ri-mp2 aug-cc-pvqz aug-cc-pvqz/c tightscf
|  2> %pal nprocs 16 end
|  3>
|  4> * xyz 0 1
|  5> C     -2.219388   -1.031508    0.000000
|  6> H     -2.709797   -0.060794    0.000000
|  7> H     -2.567570   -1.583635    0.876540
|  8> H     -2.567570   -1.583635   -0.876540
|  9> C      0.000000    0.174336    0.000000
| 10> H     -0.192077   -1.881945    0.000000
| 11> C     -0.724178   -0.938568    0.000000
| 12> H     -0.067567    2.120550    0.878325
| 13> H     -0.067567    2.120550   -0.878325
| 14> C     -0.449589    1.597487    0.000000
| 15> Cl     1.768594    0.022859    0.000000
| 16> H     -1.535021    1.669819    0.000000
| 17> *
| 18>
| 19>                          ****END OF INPUT****

CARTESIAN COORDINATES (ANGSTROEM)
---------------------------------
  C     -2.219388   -1.031508    0.000000
  H     -2.709797   -0.060794    0.000000
  H     -2.567570   -1.583635    0.876540
  H     -2.567570   -1.583635   -0.876540
  C      0.000000    0.174336    0.000000
  H     -0.192077   -1.881945    0.000000
  C     -0.724178   -0.938568    0.000000
  H     -0.067567    2.120550    0.878325
  H     -0.067567    2.120550   -0.878325
  C     -0.449589    1.597487    0.000000
  Cl     1.768594    0.022859    0.000000
  H     -1.535021    1.669819    0.000000

 Total Charge           Charge          ....    0
 Multiplicity           Mult            ....    1
 Number of Electrons    NEL             ....   48
 Basis Dimension        Dim             ....  726

ORBITAL ENERGIES
----------------

  NO   OCC          E(Eh)            E(eV)
   0   2.0000    -104.824993     -2852.4331
   1   2.0000     -11.294896      -307.3498
   2   2.0000     -11.240860      -305.8793
   3   2.0000     -11.235385      -305.7304
   4   2.0000     -11.232560      -305.6535
   5   2.0000     -10.550385      -287.0906
   6   2.0000      -8.017432      -218.1654
   7   2.0000      -8.015839      -218.1221
   8   2.0000      -8.015783      -218.1205
   9   2.0000      -1.155014       -31.4295
  10   2.0000      -1.050315       -28.5805
  11   2.0000      -0.988457       -26.8973
  12   2.0000      -0.906457       -24.6660
  13   2.0000      -0.722684       -19.6652
  14   2.0000      -0.651282       -17.7223
  15   2.0000      -0.601827       -16.3766
  16   2.0000      -0.598080       -16.2746
  17   2.0000      -0.570726       -15.5302
  18   2.0000      -0.554715       -15.0946
  19   2.0000      -0.532507       -14.4903
  20   2.0000      -0.493093       -13.4178
  21   2.0000      -0.477377       -12.9901
  22   2.0000      -0.441927       -12.0255
  23   2.0000      -0.348109        -9.4725
  24   0.0000       0.025002         0.6803
  25   0.0000       0.031069         0.8454
  26   0.0000       0.037436         1.0187
  27   0.0000       0.038688         1.0528
  28   0.0000       0.051048         1.3891

MULLIKEN ATOMIC CHARGES
-----------------------
   0 C :   -0.686968
   1 H :    0.264382
   2 H :    0.230021
   3 H :    0.230021
   4 C :   -0.082818
   5 H :    0.421995
   6 C :   -0.237015
   7 H :    0.255353
   8 H :    0.255353
   9 C :   -0.588706
  10 Cl:   -0.328907
  11 H :    0.267290
Sum of atomic charges:   -0.0000000

LOEWDIN ATOMIC CHARGES
----------------------
   0 C :    0.889818
   1 H :   -0.332758
   2 H :   -0.289107
   3 H :   -0.289107
   4 C :   -0.751768
   5 H :   -0.388244
   6 C :    0.225683
   7 H :   -0.314009
   8 H :   -0.314009
   9 C :    0.763560
  10 Cl:    1.137271
  11 H :   -0.337329

  Mayer bond orders larger than 0.100000
B(  0-C ,  1-H ) :   0.9278 B(  0-C ,  2-H ) :   0.9907 B(  0-C ,  3-H ) :   0.9907
B(  0-C ,  6-C ) :   0.7647 B(  4-C ,  6-C ) :   1.6022 B(  4-C ,  9-C ) :   0.6971
B(  4-C , 10-Cl) :   0.8948 B(  5-H ,  6-C ) :   0.8579 B(  6-C , 10-Cl) :  -0.1053
B(  7-H ,  9-C ) :   0.9738 B(  8-H ,  9-C ) :   0.9738 B(  9-C , 11-H ) :   0.9609

MP2 TOTAL ENERGY:     -616.053924435 Eh
FINAL SINGLE POINT ENERGY      -616.053924434625

DIPOLE MOMENT
-------------
                                X             Y             Z
Electronic contribution:     11.25643      -0.69555       0.00000
Nuclear contribution   :    -12.18262       0.76477       0.00000
                        -----------------------------------------
Total Dipole Moment    :     -0.92619       0.06922       0.00000
                        -----------------------------------------
Magnitude (a.u.)       :      0.92877
Magnitude (Debye)      :      2.36074

Rotational constants in cm-1:     0.243719     0.079443     0.061265
Rotational constants in MHz :  7306.523781  2381.633802  1836.684820

                             ****ORCA TERMINATED NORMALLY****
TOTAL RUN TIME: 0 days 0 hours 16 minutes 39 seconds 386 msec
