                         Program Version 5.0.4 -  RELEASE  -
|  1> !ri-mp2 aug-cc-pvqz aug-cc-pvqz/c tightscf
|  2> %pal nprocs 16 end
|  3>
|  4> * xyz 0 1
|  5> C      3.184312    0.214662   -0.156388
|  6> C      1.804466   -0.364204   -0.216238
|  7> C      0.743151    0.105154    0.431736
|  8> C     -0.640500   -0.468565    0.368176
|  9> C     -1.685118    0.519417   -0.171606
| 10> C     -3.099443   -0.056883   -0.186480
| 11> H      3.223229    1.089985    0.492451
| 12> H      3.904316   -0.517661    0.218689
| 13> H      3.531684    0.512657   -1.149293
| 14> H      1.681810   -1.243047   -0.845147
| 15> H      0.864249    0.985574    1.060220
| 16> H     -0.950299   -0.782190    1.372044
| 17> H     -0.636597   -1.370501   -0.250054
| 18> H     -1.397617    0.823029   -1.181416
| 19> H     -1.666289    1.428500    0.436494
| 20> H     -3.819163    0.665084   -0.574592
| 21> H     -3.155216   -0.949735   -0.812711
| 22> H     -3.421316   -0.339183    0.818118
| 23> *
| 24>
| 25>                          ****END OF INPUT****

CARTESIAN COORDINATES (ANGSTROEM)
---------------------------------
  C      3.184312    0.214662   -0.156388
  C      1.804466   -0.364204   -0.216238
  C      0.743151    0.105154    0.431736
  C     -0.640500   -0.468565    0.368176
  C     -1.685118    0.519417   -0.171606
  C     -3.099443   -0.056883   -0.186480
  H      3.223229    1.089985    0.492451
  H      3.904316   -0.517661    0.218689
  H      3.531684    0.512657   -1.149293
  H      1.681810   -1.243047   -0.845147
  H      0.864249    0.985574    1.060220
  H     -0.950299   -0.782190    1.372044
  H     -0.636597   -1.370501   -0.250054
  H     -1.397617    0.823029   -1.181416
  H     -1.666289    1.428500    0.436494
  H     -3.819163    0.665084   -0.574592
  H     -3.155216   -0.949735   -0.812711
  H     -3.421316   -0.339183    0.818118

 Total Charge           Charge          ....    0
 Multiplicity           Mult            ....    1
 Number of Electrons    NEL             ....   48
 Basis Dimension        Dim             .... 1032

ORBITAL ENERGIES
----------------

  NO   OCC          E(Eh)            E(eV)
   0   2.0000     -11.220781      -305.3330
   1   2.0000     -11.218153      -305.2615
   2   2.0000     -11.217032      -305.2310
   3   2.0000     -11.216265      -305.2101
   4   2.0000     -11.215704      -305.1948
   5   2.0000     -11.209280      -305.0200
   6   2.0000      -1.089948       -29.6590
   7   2.0000      -1.039925       -28.2978
   8   2.0000      -0.962959       -26.2034
   9   2.0000      -0.883761       -24.0484
  10   2.0000      -0.800745       -21.7894
  11   2.0000      -0.744997       -20.2724
  12   2.0000      -0.634104       -17.2549
  13   2.0000      -0.619314       -16.8524
  14   2.0000      -0.586534       -15.9604
  15   2.0000      -0.566398       -15.4125
  16   2.0000      -0.559215       -15.2170
  17   2.0000      -0.535309       -14.5665
  18   2.0000      -0.521519       -14.1913
  19   2.0000      -0.497448       -13.5363
  20   2.0000      -0.478944       -13.0327
  21   2.0000      -0.467867       -12.7313
  22   2.0000      -0.463992       -12.6259
  23   2.0000      -0.342179        -9.3112
  24   0.0000       0.027352         0.7443
  25   0.0000       0.029969         0.8155
  26   0.0000       0.032317         0.8794
  27   0.0000       0.035175         0.9572
  28   0.0000       0.044072         1.1993

MULLIKEN ATOMIC CHARGES
-----------------------
   0 C :   -0.718181
   1 C :   -0.386221
   2 C :   -0.557728
   3 C :   -0.246959
   4 C :   -0.410730
   5 C :   -0.823381
   6 H :    0.225567
   7 H :    0.223494
   8 H :    0.231556
   9 H :    0.364189
  10 H :    0.384267
  11 H :    0.287761
  12 H :    0.241983
  13 H :    0.250035
  14 H :    0.230234
  15 H :    0.258468
  16 H :    0.224950
  17 H :    0.220697
Sum of atomic charges:   -0.0000000

LOEWDIN ATOMIC CHARGES
----------------------
   0 C :    0.886256
   1 C :    0.386682
   2 C :    0.382964
   3 C :    0.472430
   4 C :    0.499494
   5 C :    0.922884
   6 H :   -0.317975
   7 H :   -0.297610
   8 H :   -0.297483
   9 H :   -0.325423
  10 H :   -0.319306
  11 H :   -0.280053
  12 H :   -0.303170
  13 H :   -0.274165
  14 H :   -0.278274
  15 H :   -0.285094
  16 H :   -0.285482
  17 H :   -0.286675

  Mayer bond orders larger than 0.100000
B(  0-C ,  1-C ) :   0.8499 B(  0-C ,  2-C ) :  -0.1208 B(  0-C ,  6-H ) :   0.9676
B(  0-C ,  7-H ) :   1.0147 B(  0-C ,  8-H ) :   0.9973 B(  1-C ,  2-C ) :   1.6014
B(  1-C ,  3-C ) :  -0.2462 B(  1-C ,  9-H ) :   0.8257 B(  2-C ,  3-C ) :   1.0637
B(  2-C , 10-H ) :   0.8100 B(  3-C ,  4-C ) :   0.9754 B(  3-C , 11-H ) :   0.8382
B(  3-C , 12-H ) :   0.8895 B(  4-C ,  5-C ) :   0.9616 B(  4-C , 13-H ) :   0.8856
B(  4-C , 14-H ) :   0.8731 B(  5-C , 15-H ) :   0.9942 B(  5-C , 16-H ) :   0.9599
B(  5-C , 17-H ) :   0.9560

MP2 TOTAL ENERGY:     -235.381064763 Eh
FINAL SINGLE POINT ENERGY      -235.381064763185

DIPOLE MOMENT
-------------
                                X             Y             Z
Electronic contribution:      1.97294      -0.30916       0.42559
Nuclear contribution   :     -1.97215       0.32403      -0.44473
                        -----------------------------------------
Total Dipole Moment    :      0.00079       0.01487      -0.01913
                        -----------------------------------------
Magnitude (a.u.)       :      0.02424
Magnitude (Debye)      :      0.06162

Rotational constants in cm-1:     0.505049     0.040082     0.039580
Rotational constants in MHz : 15140.987069  1201.621236  1186.587239

                             ****ORCA TERMINATED NORMALLY****
TOTAL RUN TIME: 0 days 0 hours 41 minutes 10 seconds 455 msec
