                         Program Version 5.0.4 -  RELEASE  -
|  1> !ri-mp2 aug-cc-pvqz aug-cc-pvqz/c tightscf
|  2> %pal nprocs 16 end
|  3>
|  4> * xyz 0 1
|  5> C     -2.527968   -0.340410    0.248367
|  6> H     -2.845198   -0.840786    1.167646
|  7> H     -3.212398   -0.673991   -0.536560
|  8> H     -2.678013    0.728124    0.387385
|  9> C     -0.091832    1.594432   -0.057239
| 10> H     -1.098162    1.981097    0.081533
| 11> H      0.337517    2.085539   -0.935154
| 12> H      0.504466    1.914750    0.800675
| 13> C      2.353687   -0.333741    0.539518
| 14> H      2.021622   -0.818646    1.458831
| 15> H      2.559701    0.712205    0.768285
| 16> C      1.300293   -0.481395   -0.567402
| 17> H      1.676589    0.006126   -1.473854
| 18> H      1.184446   -1.539282   -0.809716
| 19> C     -1.113898   -0.703078   -0.090968
| 20> H     -0.948822   -1.766018   -0.246586
| 21> C     -0.053177    0.098298   -0.222235
| 22> H      3.295617   -0.793751    0.237267
| 23> *
| 24>
| 25>                          ****END OF INPUT****

CARTESIAN COORDINATES (ANGSTROEM)
---------------------------------
  C     -2.527968   -0.340410    0.248367
  H     -2.845198   -0.840786    1.167646
  H     -3.212398   -0.673991   -0.536560
  H     -2.678013    0.728124    0.387385
  C     -0.091832    1.594432   -0.057239
  H     -1.098162    1.981097    0.081533
  H      0.337517    2.085539   -0.935154
  H      0.504466    1.914750    0.800675
  C      2.353687   -0.333741    0.539518
  H      2.021622   -0.818646    1.458831
  H      2.559701    0.712205    0.768285
  C      1.300293   -0.481395   -0.567402
  H      1.676589    0.006126   -1.473854
  H      1.184446   -1.539282   -0.809716
  C     -1.113898   -0.703078   -0.090968
  H     -0.948822   -1.766018   -0.246586
  C     -0.053177    0.098298   -0.222235
  H      3.295617   -0.793751    0.237267

 Total Charge           Charge          ....    0
 Multiplicity           Mult            ....    1
 Number of Electrons    NEL             ....   48
 Basis Dimension        Dim             .... 1032

ORBITAL ENERGIES
----------------

  NO   OCC          E(Eh)            E(eV)
   0   2.0000     -11.224475      -305.4335
   1   2.0000     -11.217931      -305.2554
   2   2.0000     -11.213524      -305.1355
   3   2.0000     -11.213419      -305.1327
   4   2.0000     -11.212820      -305.1163
   5   2.0000     -11.209853      -305.0356
   6   2.0000      -1.099702       -29.9244
   7   2.0000      -1.014143       -27.5962
   8   2.0000      -0.965880       -26.2829
   9   2.0000      -0.901138       -24.5212
  10   2.0000      -0.828107       -22.5339
  11   2.0000      -0.701130       -19.0787
  12   2.0000      -0.638721       -17.3805
  13   2.0000      -0.614292       -16.7157
  14   2.0000      -0.577519       -15.7151
  15   2.0000      -0.559473       -15.2240
  16   2.0000      -0.555224       -15.1084
  17   2.0000      -0.545538       -14.8448
  18   2.0000      -0.526807       -14.3351
  19   2.0000      -0.504830       -13.7371
  20   2.0000      -0.498956       -13.5773
  21   2.0000      -0.476382       -12.9630
  22   2.0000      -0.453603       -12.3432
  23   2.0000      -0.330816        -9.0020
  24   0.0000       0.027194         0.7400
  25   0.0000       0.030274         0.8238
  26   0.0000       0.032115         0.8739
  27   0.0000       0.035788         0.9738
  28   0.0000       0.044408         1.2084

MULLIKEN ATOMIC CHARGES
-----------------------
   0 C :   -0.725118
   1 H :    0.219373
   2 H :    0.224873
   3 H :    0.263987
   4 C :   -0.759155
   5 H :    0.311026
   6 H :    0.249746
   7 H :    0.237960
   8 C :   -0.897107
   9 H :    0.245351
  10 H :    0.230930
  11 C :   -0.371504
  12 H :    0.250389
  13 H :    0.227182
  14 C :   -0.537254
  15 H :    0.180478
  16 C :    0.338080
  17 H :    0.310763
Sum of atomic charges:    0.0000000

LOEWDIN ATOMIC CHARGES
----------------------
   0 C :    0.904821
   1 H :   -0.289683
   2 H :   -0.289808
   3 H :   -0.335234
   4 C :    0.904867
   5 H :   -0.327216
   6 H :   -0.276780
   7 H :   -0.286302
   8 C :    0.928477
   9 H :   -0.277985
  10 H :   -0.297402
  11 C :    0.473817
  12 H :   -0.278306
  13 H :   -0.314916
  14 C :    0.397974
  15 H :   -0.337529
  16 C :   -0.016838
  17 H :   -0.281957

  Mayer bond orders larger than 0.100000
B(  0-C ,  1-H ) :   1.0282 B(  0-C ,  2-H ) :   1.0354 B(  0-C ,  3-H ) :   0.9338
B(  0-C , 14-C ) :   0.7969 B(  0-C , 16-C ) :  -0.1150 B(  1-H , 14-C ) :  -0.1052
B(  2-H , 14-C ) :  -0.1107 B(  4-C ,  5-H ) :   0.9733 B(  4-C ,  6-H ) :   0.9945
B(  4-C ,  7-H ) :   0.9845 B(  4-C , 16-C ) :   0.6342 B(  8-C ,  9-H ) :   0.9460
B(  8-C , 10-H ) :   0.9402 B(  8-C , 11-C ) :   1.0416 B(  8-C , 16-C ) :  -0.1024
B(  8-C , 17-H ) :   0.9444 B( 11-C , 12-H ) :   0.9175 B( 11-C , 13-H ) :   0.9667
B( 11-C , 16-C ) :   0.7448 B( 14-C , 15-H ) :   1.0857 B( 14-C , 16-C ) :   1.4016

MP2 TOTAL ENERGY:     -235.384099422 Eh
FINAL SINGLE POINT ENERGY      -235.384099422271

DIPOLE MOMENT
-------------
                                X             Y             Z
Electronic contribution:     -0.83115      -0.99527      -0.95980
Nuclear contribution   :      0.85407       1.06616       0.96374
                        -----------------------------------------
Total Dipole Moment    :      0.02293       0.07088       0.00394
                        -----------------------------------------
Magnitude (a.u.)       :      0.07460
Magnitude (Debye)      :      0.18962

Rotational constants in cm-1:     0.207944     0.067235     0.056946
Rotational constants in MHz :  6234.002815  2015.667157  1707.212107

                             ****ORCA TERMINATED NORMALLY****
TOTAL RUN TIME: 0 days 0 hours 45 minutes 10 seconds 200 msec
