                         Program Version 5.0.4 -  RELEASE  -
|  1> !ri-mp2 aug-cc-pvqz aug-cc-pvqz/c tightscf
|  2> %pal nprocs 16 end
|  3>
|  4> * xyz 0 1
|  5> C     0.000000     0.000000       0.763540
|  6> C     0.000000     0.000000      -0.763540
|  7> H     0.000000     1.016074       1.160929
|  8> H     0.000000    -1.016074      -1.160929
|  9> H    -0.879946    -0.508037       1.160929
| 10> H     0.879946     0.508037      -1.160929
| 11> H     0.879946    -0.508037       1.160929
| 12> H    -0.879946     0.508037      -1.160929
| 13> *
| 14>
| 15>                          ****END OF INPUT****

CARTESIAN COORDINATES (ANGSTROEM)
---------------------------------
  C      0.000000    0.000000    0.763540
  C      0.000000    0.000000   -0.763540
  H      0.000000    1.016074    1.160929
  H      0.000000   -1.016074   -1.160929
  H     -0.879946   -0.508037    1.160929
  H      0.879946    0.508037   -1.160929
  H      0.879946   -0.508037    1.160929
  H     -0.879946    0.508037   -1.160929

 Total Charge           Charge          ....    0
 Multiplicity           Mult            ....    1
 Number of Electrons    NEL             ....   18
 Basis Dimension        Dim             ....  436

ORBITAL ENERGIES
----------------

  NO   OCC          E(Eh)            E(eV)
   0   2.0000     -11.210562      -305.0549
   1   2.0000     -11.209956      -305.0384
   2   2.0000      -1.017074       -27.6760
   3   2.0000      -0.841722       -22.9044
   4   2.0000      -0.596054       -16.2195
   5   2.0000      -0.596054       -16.2195
   6   2.0000      -0.510251       -13.8846
   7   2.0000      -0.486553       -13.2398
   8   2.0000      -0.486553       -13.2398
   9   0.0000       0.028707         0.7812
  10   0.0000       0.037975         1.0333
  11   0.0000       0.038844         1.0570
  12   0.0000       0.038844         1.0570
  13   0.0000       0.061800         1.6817

MULLIKEN ATOMIC CHARGES
-----------------------
   0 C :   -0.741755
   1 C :   -0.741755
   2 H :    0.247252
   3 H :    0.247252
   4 H :    0.247251
   5 H :    0.247251
   6 H :    0.247251
   7 H :    0.247251
Sum of atomic charges:    0.0000000

LOEWDIN ATOMIC CHARGES
----------------------
   0 C :    0.897866
   1 C :    0.897866
   2 H :   -0.299289
   3 H :   -0.299289
   4 H :   -0.299289
   5 H :   -0.299289
   6 H :   -0.299289
   7 H :   -0.299289

  Mayer bond orders larger than 0.100000
B(  0-C ,  1-C ) :   1.0376 B(  0-C ,  2-H ) :   0.9240 B(  0-C ,  4-H ) :   0.9240
B(  0-C ,  6-H ) :   0.9240 B(  1-C ,  3-H ) :   0.9240 B(  1-C ,  5-H ) :   0.9240
B(  1-C ,  7-H ) :   0.9240

MP2 TOTAL ENERGY:      -79.659651415 Eh
FINAL SINGLE POINT ENERGY       -79.659651415206

DIPOLE MOMENT
-------------
                                X             Y             Z
Electronic contribution:      0.00000      -0.00000       0.00000
Nuclear contribution   :      0.00000       0.00000       0.00000
                        -----------------------------------------
Total Dipole Moment    :      0.00000      -0.00000       0.00000
                        -----------------------------------------
Magnitude (a.u.)       :      0.00000
Magnitude (Debye)      :      0.00000

Rotational constants in cm-1:     2.699817     0.666893     0.666893
Rotational constants in MHz : 80938.489135 19992.944148 19992.943565

                             ****ORCA TERMINATED NORMALLY****
TOTAL RUN TIME: 0 days 0 hours 3 minutes 8 seconds 722 msec
