                         Program Version 5.0.4 -  RELEASE  -
|  1> !ri-mp2 aug-cc-pvqz aug-cc-pvqz/c tightscf
|  2> %pal nprocs 16 end
|  3>
|  4> * xyz 0 1
|  5> H      3.609044    0.273076    0.113372
|  6> H      3.098636   -1.103376   -0.844452
|  7> H      2.741762   -1.060175    0.886842
|  8> C      2.803885   -0.454173   -0.016457
|  9> H      1.487319    0.854078   -1.202776
| 10> C      1.507467    0.229794   -0.313018
| 11> H      0.395283   -0.497491    1.305299
| 12> C      0.405132    0.126989    0.418299
| 13> C     -0.883366    0.846575    0.103693
| 14> N     -2.901787   -0.791599   -0.168867
| 15> C     -2.016649   -0.066647   -0.054156
| 16> H     -0.780939    1.432476   -0.811185
| 17> H     -1.137406    1.547375    0.904805
| 18> *
| 19>
| 20>                          ****END OF INPUT****

CARTESIAN COORDINATES (ANGSTROEM)
---------------------------------
  H      3.609044    0.273076    0.113372
  H      3.098636   -1.103376   -0.844452
  H      2.741762   -1.060175    0.886842
  C      2.803885   -0.454173   -0.016457
  H      1.487319    0.854078   -1.202776
  C      1.507467    0.229794   -0.313018
  H      0.395283   -0.497491    1.305299
  C      0.405132    0.126989    0.418299
  C     -0.883366    0.846575    0.103693
  N     -2.901787   -0.791599   -0.168867
  C     -2.016649   -0.066647   -0.054156
  H     -0.780939    1.432476   -0.811185
  H     -1.137406    1.547375    0.904805

 Total Charge           Charge          ....    0
 Multiplicity           Mult            ....    1
 Number of Electrons    NEL             ....   44
 Basis Dimension        Dim             ....  802

ORBITAL ENERGIES
----------------

  NO   OCC          E(Eh)            E(eV)
   0   2.0000     -15.564187      -423.5231
   1   2.0000     -11.287351      -307.1444
   2   2.0000     -11.270102      -306.6751
   3   2.0000     -11.252477      -306.1955
   4   2.0000     -11.250408      -306.1392
   5   2.0000     -11.234973      -305.7192
   6   2.0000      -1.219919       -33.1957
   7   2.0000      -1.116448       -30.3801
   8   2.0000      -1.035883       -28.1878
   9   2.0000      -0.926654       -25.2155
  10   2.0000      -0.779527       -21.2120
  11   2.0000      -0.701296       -19.0832
  12   2.0000      -0.649274       -17.6676
  13   2.0000      -0.647310       -17.6142
  14   2.0000      -0.582627       -15.8541
  15   2.0000      -0.577781       -15.7222
  16   2.0000      -0.555222       -15.1084
  17   2.0000      -0.543856       -14.7991
  18   2.0000      -0.517652       -14.0860
  19   2.0000      -0.460467       -12.5299
  20   2.0000      -0.458213       -12.4686
  21   2.0000      -0.377167       -10.2632
  22   0.0000       0.020955         0.5702
  23   0.0000       0.027922         0.7598
  24   0.0000       0.030057         0.8179
  25   0.0000       0.037698         1.0258
  26   0.0000       0.046553         1.2668

MULLIKEN ATOMIC CHARGES
-----------------------
   0 H :    0.235474
   1 H :    0.236607
   2 H :    0.228009
   3 C :   -0.693490
   4 H :    0.385130
   5 C :   -0.380715
   6 H :    0.427391
   7 C :   -0.358736
   8 C :   -0.355529
   9 N :   -0.652615
  10 C :    0.346538
  11 H :    0.279215
  12 H :    0.302721
Sum of atomic charges:   -0.0000000

LOEWDIN ATOMIC CHARGES
----------------------
   0 H :   -0.293553
   1 H :   -0.292797
   2 H :   -0.312719
   3 C :    0.898736
   4 H :   -0.321008
   5 C :    0.386984
   6 H :   -0.322630
   7 C :    0.364039
   8 C :    0.398761
   9 N :    0.403078
  10 C :   -0.268861
  11 H :   -0.333916
  12 H :   -0.306115

  Mayer bond orders larger than 0.100000
B(  0-H ,  3-C ) :   0.9880 B(  1-H ,  3-C ) :   0.9872 B(  2-H ,  3-C ) :   0.9623
B(  3-C ,  5-C ) :   0.8715 B(  3-C ,  7-C ) :  -0.1154 B(  4-H ,  5-C ) :   0.8019
B(  5-C ,  7-C ) :   1.5957 B(  5-C ,  8-C ) :  -0.1520 B(  6-H ,  7-C ) :   0.7593
B(  7-C ,  8-C ) :   0.9397 B(  7-C , 10-C ) :  -0.2079 B(  8-C , 10-C ) :   1.2062
B(  8-C , 11-H ) :   0.8853 B(  8-C , 12-H ) :   0.8676 B(  9-N , 10-C ) :   2.5111

MP2 TOTAL ENERGY:     -249.016405812 Eh
FINAL SINGLE POINT ENERGY      -249.016405811916

DIPOLE MOMENT
-------------
                                X             Y             Z
Electronic contribution:     -8.01791      -0.51224      -0.22998
Nuclear contribution   :      9.57242       1.46827       0.35748
                        -----------------------------------------
Total Dipole Moment    :      1.55450       0.95603       0.12750
                        -----------------------------------------
Magnitude (a.u.)       :      1.82941
Magnitude (Debye)      :      4.64999

Rotational constants in cm-1:     0.437972     0.049067     0.046542
Rotational constants in MHz : 13130.075473  1470.997223  1395.298052

                             ****ORCA TERMINATED NORMALLY****
TOTAL RUN TIME: 0 days 0 hours 15 minutes 39 seconds 396 msec
