                         Program Version 5.0.4 -  RELEASE  -
|  1> !ri-mp2 aug-cc-pvqz aug-cc-pvqz/c tightscf
|  2> %pal nprocs 16 end
|  3>
|  4> * xyz 0 1
|  5> C      0.232915   -2.318566    0.000000
|  6> C      0.234056   -1.617939    1.200385
|  7> C      0.234056   -1.617939   -1.200385
|  8> C      0.234056   -0.228276    1.197195
|  9> C      0.234056   -0.228276   -1.197195
| 10> C      0.231803    0.488886    0.000000
| 11> C     -1.235575    2.562053    0.000000
| 12> C      0.192517    1.998175    0.000000
| 13> H      0.236268   -3.400335    0.000000
| 14> H      0.239777   -2.153732    2.140626
| 15> H      0.239777   -2.153732   -2.140626
| 16> H      0.241085    0.308775    2.138169
| 17> H      0.241085    0.308775   -2.138169
| 18> H     -1.787127    2.229520   -0.880348
| 19> H     -1.223850    3.653141    0.000000
| 20> H     -1.787127    2.229520    0.880348
| 21> H      0.726399    2.374684    0.875281
| 22> H      0.726399    2.374684   -0.875281
| 23> *
| 24>
| 25>                          ****END OF INPUT****

CARTESIAN COORDINATES (ANGSTROEM)
---------------------------------
  C      0.232915   -2.318566    0.000000
  C      0.234056   -1.617939    1.200385
  C      0.234056   -1.617939   -1.200385
  C      0.234056   -0.228276    1.197195
  C      0.234056   -0.228276   -1.197195
  C      0.231803    0.488886    0.000000
  C     -1.235575    2.562053    0.000000
  C      0.192517    1.998175    0.000000
  H      0.236268   -3.400335    0.000000
  H      0.239777   -2.153732    2.140626
  H      0.239777   -2.153732   -2.140626
  H      0.241085    0.308775    2.138169
  H      0.241085    0.308775   -2.138169
  H     -1.787127    2.229520   -0.880348
  H     -1.223850    3.653141    0.000000
  H     -1.787127    2.229520    0.880348
  H      0.726399    2.374684    0.875281
  H      0.726399    2.374684   -0.875281

 Total Charge           Charge          ....    0
 Multiplicity           Mult            ....    1
 Number of Electrons    NEL             ....   58
 Basis Dimension        Dim             .... 1100

ORBITAL ENERGIES
----------------

  NO   OCC          E(Eh)            E(eV)
   0   2.0000     -11.235782      -305.7412
   1   2.0000     -11.230424      -305.5954
   2   2.0000     -11.230241      -305.5904
   3   2.0000     -11.226528      -305.4893
   4   2.0000     -11.226482      -305.4881
   5   2.0000     -11.226099      -305.4777
   6   2.0000     -11.225978      -305.4744
   7   2.0000     -11.214823      -305.1708
   8   2.0000      -1.153910       -31.3995
   9   2.0000      -1.061832       -28.8939
  10   2.0000      -1.011345       -27.5201
  11   2.0000      -0.981695       -26.7133
  12   2.0000      -0.863829       -23.5060
  13   2.0000      -0.824686       -22.4408
  14   2.0000      -0.787910       -21.4401
  15   2.0000      -0.692795       -18.8519
  16   2.0000      -0.641066       -17.4443
  17   2.0000      -0.634319       -17.2607
  18   2.0000      -0.592308       -16.1175
  19   2.0000      -0.586683       -15.9645
  20   2.0000      -0.578125       -15.7316
  21   2.0000      -0.545808       -14.8522
  22   2.0000      -0.521135       -14.1808
  23   2.0000      -0.499725       -13.5982
  24   2.0000      -0.485258       -13.2046
  25   2.0000      -0.477662       -12.9978
  26   2.0000      -0.472951       -12.8697
  27   2.0000      -0.334476        -9.1016
  28   2.0000      -0.324283        -8.8242
  29   0.0000       0.026137         0.7112
  30   0.0000       0.028578         0.7777
  31   0.0000       0.029553         0.8042
  32   0.0000       0.037741         1.0270
  33   0.0000       0.040557         1.1036

MULLIKEN ATOMIC CHARGES
-----------------------
   0 C :   -0.309965
   1 C :   -0.309389
   2 C :   -0.309359
   3 C :   -0.500489
   4 C :   -0.500519
   5 C :    0.506560
   6 C :   -0.884828
   7 C :   -0.279091
   8 H :    0.327740
   9 H :    0.234656
  10 H :    0.234655
  11 H :    0.286021
  12 H :    0.286040
  13 H :    0.241313
  14 H :    0.325085
  15 H :    0.241309
  16 H :    0.205137
  17 H :    0.205122
Sum of atomic charges:    0.0000000

LOEWDIN ATOMIC CHARGES
----------------------
   0 C :    0.333407
   1 C :    0.341965
   2 C :    0.341965
   3 C :    0.343419
   4 C :    0.343419
   5 C :   -0.085053
   6 C :    0.932570
   7 C :    0.485643
   8 H :   -0.327031
   9 H :   -0.323264
  10 H :   -0.323264
  11 H :   -0.316486
  12 H :   -0.316486
  13 H :   -0.283243
  14 H :   -0.281376
  15 H :   -0.283243
  16 H :   -0.291472
  17 H :   -0.291472

  Mayer bond orders larger than 0.100000
B(  0-C ,  1-C ) :   1.1301 B(  0-C ,  2-C ) :   1.1301 B(  0-C ,  8-H ) :   1.0038
B(  1-C ,  3-C ) :   1.3753 B(  1-C ,  4-C ) :   0.1454 B(  1-C ,  5-C ) :  -0.2863
B(  1-C ,  9-H ) :   1.1371 B(  2-C ,  3-C ) :   0.1454 B(  2-C ,  4-C ) :   1.3753
B(  2-C ,  5-C ) :  -0.2863 B(  2-C , 10-H ) :   1.1371 B(  3-C ,  5-C ) :   0.9928
B(  3-C ,  7-C ) :  -0.1699 B(  3-C ,  9-H ) :  -0.1254 B(  3-C , 11-H ) :   0.9693
B(  4-C ,  5-C ) :   0.9928 B(  4-C ,  7-C ) :  -0.1699 B(  4-C , 10-H ) :  -0.1254
B(  4-C , 12-H ) :   0.9693 B(  5-C ,  7-C ) :   0.7636 B(  6-C ,  7-C ) :   0.9757
B(  6-C , 13-H ) :   0.9432 B(  6-C , 14-H ) :   0.9365 B(  6-C , 15-H ) :   0.9432
B(  7-C , 16-H ) :   0.9838 B(  7-C , 17-H ) :   0.9838

MP2 TOTAL ENERGY:     -310.287590369 Eh
FINAL SINGLE POINT ENERGY      -310.287590368712

DIPOLE MOMENT
-------------
                                X             Y             Z
Electronic contribution:      2.18210      -5.75691      -0.00000
Nuclear contribution   :     -2.20314       5.92134       0.00000
                        -----------------------------------------
Total Dipole Moment    :     -0.02104       0.16444      -0.00000
                        -----------------------------------------
Magnitude (a.u.)       :      0.16578
Magnitude (Debye)      :      0.42138

Rotational constants in cm-1:     0.152532     0.048711     0.040449
Rotational constants in MHz :  4572.788388  1460.333908  1212.629493

                             ****ORCA TERMINATED NORMALLY****
TOTAL RUN TIME: 0 days 1 hours 2 minutes 45 seconds 111 msec
