                         Program Version 5.0.4 -  RELEASE  -
|  1> !ri-mp2 aug-cc-pvqz aug-cc-pvqz/c tightscf
|  2> %pal nprocs 16 end
|  3>
|  4> * xyz 0 1
|  5> C      0.000000    0.540816    0.000000
|  6> C      1.243175    2.751600    0.000000
|  7> C     -0.679664   -3.043361    0.000000
|  8> C      1.345131    1.232352    0.000000
|  9> C     -1.070032   -1.582821    0.000000
| 10> O     -1.072742    1.091993    0.000000
| 11> O      0.146706   -0.800498    0.000000
| 12> H      0.706894    3.109292    0.877772
| 13> H      2.237781    3.197410    0.000000
| 14> H      0.706894    3.109292   -0.877772
| 15> H     -1.577230   -3.662892    0.000000
| 16> H     -0.092760   -3.292082   -0.884003
| 17> H     -0.092760   -3.292082    0.884003
| 18> H      1.899563    0.870429    0.869102
| 19> H      1.899563    0.870429   -0.869102
| 20> H     -1.655657   -1.316641    0.880006
| 21> H     -1.655657   -1.316641   -0.880006
| 22> *
| 23>
| 24>                          ****END OF INPUT****

CARTESIAN COORDINATES (ANGSTROEM)
---------------------------------
  C      0.000000    0.540816    0.000000
  C      1.243175    2.751600    0.000000
  C     -0.679664   -3.043361    0.000000
  C      1.345131    1.232352    0.000000
  C     -1.070032   -1.582821    0.000000
  O     -1.072742    1.091993    0.000000
  O      0.146706   -0.800498    0.000000
  H      0.706894    3.109292    0.877772
  H      2.237781    3.197410    0.000000
  H      0.706894    3.109292   -0.877772
  H     -1.577230   -3.662892    0.000000
  H     -0.092760   -3.292082   -0.884003
  H     -0.092760   -3.292082    0.884003
  H      1.899563    0.870429    0.869102
  H      1.899563    0.870429   -0.869102
  H     -1.655657   -1.316641    0.880006
  H     -1.655657   -1.316641   -0.880006

 Total Charge           Charge          ....    0
 Multiplicity           Mult            ....    1
 Number of Electrons    NEL             ....   56
 Basis Dimension        Dim             .... 1020

ORBITAL ENERGIES
----------------

  NO   OCC          E(Eh)            E(eV)
   0   2.0000     -20.593740      -560.3842
   1   2.0000     -20.537773      -558.8612
   2   2.0000     -11.372581      -309.4637
   3   2.0000     -11.286428      -307.1193
   4   2.0000     -11.241316      -305.8918
   5   2.0000     -11.223309      -305.4018
   6   2.0000     -11.217447      -305.2422
   7   2.0000      -1.453050       -39.5395
   8   2.0000      -1.353827       -36.8395
   9   2.0000      -1.067984       -29.0613
  10   2.0000      -1.029801       -28.0223
  11   2.0000      -0.908177       -24.7128
  12   2.0000      -0.844555       -22.9815
  13   2.0000      -0.769426       -20.9372
  14   2.0000      -0.695473       -18.9248
  15   2.0000      -0.683996       -18.6125
  16   2.0000      -0.662359       -18.0237
  17   2.0000      -0.628421       -17.1002
  18   2.0000      -0.581900       -15.8343
  19   2.0000      -0.570253       -15.5174
  20   2.0000      -0.558099       -15.1866
  21   2.0000      -0.524398       -14.2696
  22   2.0000      -0.520469       -14.1627
  23   2.0000      -0.513224       -13.9655
  24   2.0000      -0.508060       -13.8250
  25   2.0000      -0.492376       -13.3982
  26   2.0000      -0.456691       -12.4272
  27   2.0000      -0.442258       -12.0345
  28   0.0000       0.025022         0.6809
  29   0.0000       0.027861         0.7581
  30   0.0000       0.034417         0.9365
  31   0.0000       0.036156         0.9838
  32   0.0000       0.045515         1.2385

MULLIKEN ATOMIC CHARGES
-----------------------
   0 C :    1.078262
   1 C :   -0.818270
   2 C :   -0.831697
   3 C :   -0.401196
   4 C :   -0.087716
   5 O :   -0.806750
   6 O :   -0.768983
   7 H :    0.230512
   8 H :    0.302790
   9 H :    0.230512
  10 H :    0.266324
  11 H :    0.239266
  12 H :    0.239266
  13 H :    0.282260
  14 H :    0.282260
  15 H :    0.281580
  16 H :    0.281580
Sum of atomic charges:    0.0000000

LOEWDIN ATOMIC CHARGES
----------------------
   0 C :   -1.058292
   1 C :    0.897065
   2 C :    0.911526
   3 C :    0.445675
   4 C :    0.157854
   5 O :    0.727388
   6 O :    0.859782
   7 H :   -0.290730
   8 H :   -0.285741
   9 H :   -0.290730
  10 H :   -0.291344
  11 H :   -0.291323
  12 H :   -0.291323
  13 H :   -0.292704
  14 H :   -0.292704
  15 H :   -0.307201
  16 H :   -0.307201

  Mayer bond orders larger than 0.100000
B(  0-C ,  1-C ) :  -0.1131 B(  0-C ,  3-C ) :   0.8861 B(  0-C ,  5-O ) :   1.2911
B(  0-C ,  6-O ) :   1.0740 B(  1-C ,  3-C ) :   1.0354 B(  1-C ,  7-H ) :   0.9549
B(  1-C ,  8-H ) :   0.9627 B(  1-C ,  9-H ) :   0.9549 B(  2-C ,  4-C ) :   0.9594
B(  2-C , 10-H ) :   0.9912 B(  2-C , 11-H ) :   0.9404 B(  2-C , 12-H ) :   0.9404
B(  3-C , 13-H ) :   0.8731 B(  3-C , 14-H ) :   0.8731 B(  4-C ,  5-O ) :   0.1163
B(  4-C ,  6-O ) :   0.7919 B(  4-C , 15-H ) :   0.8590 B(  4-C , 16-H ) :   0.8590

MP2 TOTAL ENERGY:     -346.482938967 Eh
FINAL SINGLE POINT ENERGY      -346.482938966821

DIPOLE MOMENT
-------------
                                X             Y             Z
Electronic contribution:     -1.85420       1.19686       0.00000
Nuclear contribution   :      2.43232      -1.77004       0.00000
                        -----------------------------------------
Total Dipole Moment    :      0.57812      -0.57317       0.00000
                        -----------------------------------------
Magnitude (a.u.)       :      0.81409
Magnitude (Debye)      :      2.06926

Rotational constants in cm-1:     0.263696     0.041966     0.037197
Rotational constants in MHz :  7905.397573  1258.107592  1115.132807

                             ****ORCA TERMINATED NORMALLY****
TOTAL RUN TIME: 0 days 0 hours 41 minutes 57 seconds 684 msec
