                         Program Version 5.0.4 -  RELEASE  -
|  1> !ri-mp2 aug-cc-pvqz aug-cc-pvqz/c tightscf
|  2> %pal nprocs 16 end
|  3>
|  4> * xyz 0 1
|  5> C    -0.324304     0.589828       0.000000
|  6> C     0.324304    -0.589828       0.000000
|  7> C     0.324304     1.845570       0.000000
|  8> C    -0.324304    -1.845570       0.000000
|  9> H    -1.408272     0.599713       0.000000
| 10> H     1.408272    -0.599713       0.000000
| 11> C     0.841122     2.932151       0.000000
| 12> C    -0.841122    -2.932151       0.000000
| 13> H     1.305614     3.886246       0.000000
| 14> H    -1.305614    -3.886246       0.000000
| 15> *
| 16>
| 17>                          ****END OF INPUT****

CARTESIAN COORDINATES (ANGSTROEM)
---------------------------------
  C     -0.324304    0.589828    0.000000
  C      0.324304   -0.589828    0.000000
  C      0.324304    1.845570    0.000000
  C     -0.324304   -1.845570    0.000000
  H     -1.408272    0.599713    0.000000
  H      1.408272   -0.599713    0.000000
  C      0.841122    2.932151    0.000000
  C     -0.841122   -2.932151    0.000000
  H      1.305614    3.886246    0.000000
  H     -1.305614   -3.886246    0.000000

 Total Charge           Charge          ....    0
 Multiplicity           Mult            ....    1
 Number of Electrons    NEL             ....   40
 Basis Dimension        Dim             ....  664

ORBITAL ENERGIES
----------------

  NO   OCC          E(Eh)            E(eV)
   0   2.0000     -11.276615      -306.8523
   1   2.0000     -11.275019      -306.8089
   2   2.0000     -11.246954      -306.0452
   3   2.0000     -11.246951      -306.0451
   4   2.0000     -11.239248      -305.8355
   5   2.0000     -11.239248      -305.8355
   6   2.0000      -1.124832       -30.6082
   7   2.0000      -1.052789       -28.6478
   8   2.0000      -1.002683       -27.2844
   9   2.0000      -0.882837       -24.0232
  10   2.0000      -0.740582       -20.1523
  11   2.0000      -0.735287       -20.0082
  12   2.0000      -0.693352       -18.8671
  13   2.0000      -0.663099       -18.0438
  14   2.0000      -0.579097       -15.7580
  15   2.0000      -0.499624       -13.5955
  16   2.0000      -0.431673       -11.7464
  17   2.0000      -0.409985       -11.1563
  18   2.0000      -0.403171       -10.9708
  19   2.0000      -0.329126        -8.9560
  20   0.0000       0.024636         0.6704
  21   0.0000       0.025868         0.7039
  22   0.0000       0.034766         0.9460
  23   0.0000       0.039141         1.0651
  24   0.0000       0.054057         1.4710

MULLIKEN ATOMIC CHARGES
-----------------------
   0 C :   -0.179274
   1 C :   -0.179262
   2 C :   -0.067646
   3 C :   -0.067661
   4 H :    0.487419
   5 H :    0.487420
   6 C :   -0.695346
   7 C :   -0.695348
   8 H :    0.454843
   9 H :    0.454855
Sum of atomic charges:    0.0000000

LOEWDIN ATOMIC CHARGES
----------------------
   0 C :    0.219623
   1 C :    0.219623
   2 C :    0.035794
   3 C :    0.035794
   4 H :   -0.359941
   5 H :   -0.359941
   6 C :    0.565326
   7 C :    0.565326
   8 H :   -0.460801
   9 H :   -0.460801

  Mayer bond orders larger than 0.100000
B(  0-C ,  1-C ) :   1.3873 B(  0-C ,  2-C ) :   1.0157 B(  0-C ,  3-C ) :  -0.2221
B(  0-C ,  4-H ) :   0.7274 B(  0-C ,  6-C ) :  -0.3633 B(  1-C ,  2-C ) :  -0.2221
B(  1-C ,  3-C ) :   1.0157 B(  1-C ,  5-H ) :   0.7274 B(  1-C ,  7-C ) :  -0.3633
B(  2-C ,  6-C ) :   2.7244 B(  3-C ,  7-C ) :   2.7244 B(  6-C ,  8-H ) :   0.9282
B(  7-C ,  9-H ) :   0.9282

MP2 TOTAL ENERGY:     -230.454122034 Eh
FINAL SINGLE POINT ENERGY      -230.454122033712

DIPOLE MOMENT
-------------
                                X             Y             Z
Electronic contribution:      0.00000       0.00000      -0.00000
Nuclear contribution   :      0.00000       0.00000       0.00000
                        -----------------------------------------
Total Dipole Moment    :      0.00000       0.00000      -0.00000
                        -----------------------------------------
Magnitude (a.u.)       :      0.00000
Magnitude (Debye)      :      0.00000

Rotational constants in cm-1:     1.600912     0.048604     0.047172
Rotational constants in MHz : 47994.136245  1457.122198  1414.186888

                             ****ORCA TERMINATED NORMALLY****
TOTAL RUN TIME: 0 days 0 hours 12 minutes 18 seconds 273 msec
