                         Program Version 5.0.4 -  RELEASE  -
|  1> !ri-mp2 aug-cc-pvqz aug-cc-pvqz/c tightscf
|  2> %pal nprocs 16 end
|  3>
|  4> * xyz 0 1
|  5> C      0.075104    0.359100    0.000098
|  6> C     -3.701789   -0.602670   -0.000001
|  7> C      3.556061   -0.733886   -0.000152
|  8> C     -1.168900   -0.499935    0.000212
|  9> C     -2.468473    0.298186   -0.000293
| 10> C      2.452426    0.299222    0.000029
| 11> O      0.097456    1.565027    0.000074
| 12> O      1.188412   -0.404077    0.000059
| 13> H     -4.618593   -0.012460   -0.000388
| 14> H     -3.723582   -1.248219   -0.880573
| 15> H     -3.723777   -1.247370    0.881188
| 16> H      4.525714   -0.234679   -0.000156
| 17> H      3.498825   -1.368972    0.883727
| 18> H      3.498716   -1.368774   -0.884166
| 19> H     -1.114011   -1.161253   -0.869006
| 20> H     -1.114289   -1.160543    0.869994
| 21> H     -2.485329    0.956406    0.869828
| 22> H     -2.485160    0.955591   -0.871038
| 23> H      2.493919    0.941368   -0.879840
| 24> H      2.494054    0.941198    0.880017
| 25> *
| 26>
| 27>                          ****END OF INPUT****

CARTESIAN COORDINATES (ANGSTROEM)
---------------------------------
  C      0.075104    0.359100    0.000098
  C     -3.701789   -0.602670   -0.000001
  C      3.556061   -0.733886   -0.000152
  C     -1.168900   -0.499935    0.000212
  C     -2.468473    0.298186   -0.000293
  C      2.452426    0.299222    0.000029
  O      0.097456    1.565027    0.000074
  O      1.188412   -0.404077    0.000059
  H     -4.618593   -0.012460   -0.000388
  H     -3.723582   -1.248219   -0.880573
  H     -3.723777   -1.247370    0.881188
  H      4.525714   -0.234679   -0.000156
  H      3.498825   -1.368972    0.883727
  H      3.498716   -1.368774   -0.884166
  H     -1.114011   -1.161253   -0.869006
  H     -1.114289   -1.160543    0.869994
  H     -2.485329    0.956406    0.869828
  H     -2.485160    0.955591   -0.871038
  H      2.493919    0.941368   -0.879840
  H      2.494054    0.941198    0.880017

 Total Charge           Charge          ....    0
 Multiplicity           Mult            ....    1
 Number of Electrons    NEL             ....   64
 Basis Dimension        Dim             .... 1192

ORBITAL ENERGIES
----------------

  NO   OCC          E(Eh)            E(eV)
   0   2.0000     -20.593186      -560.3691
   1   2.0000     -20.537248      -558.8469
   2   2.0000     -11.372392      -309.4585
   3   2.0000     -11.286016      -307.1081
   4   2.0000     -11.238430      -305.8132
   5   2.0000     -11.223021      -305.3939
   6   2.0000     -11.222402      -305.3771
   7   2.0000     -11.215396      -305.1864
   8   2.0000      -1.452480       -39.5240
   9   2.0000      -1.353249       -36.8238
  10   2.0000      -1.081052       -29.4169
  11   2.0000      -1.039094       -28.2752
  12   2.0000      -0.966050       -26.2876
  13   2.0000      -0.870229       -23.6801
  14   2.0000      -0.819014       -22.2865
  15   2.0000      -0.767753       -20.8916
  16   2.0000      -0.693069       -18.8594
  17   2.0000      -0.684256       -18.6195
  18   2.0000      -0.664446       -18.0805
  19   2.0000      -0.641037       -17.4435
  20   2.0000      -0.585644       -15.9362
  21   2.0000      -0.579825       -15.7778
  22   2.0000      -0.568759       -15.4767
  23   2.0000      -0.552310       -15.0291
  24   2.0000      -0.540939       -14.7197
  25   2.0000      -0.512775       -13.9533
  26   2.0000      -0.502371       -13.6702
  27   2.0000      -0.499805       -13.6004
  28   2.0000      -0.486891       -13.2490
  29   2.0000      -0.477941       -13.0054
  30   2.0000      -0.455592       -12.3973
  31   2.0000      -0.441086       -12.0026
  32   0.0000       0.024856         0.6764
  33   0.0000       0.027376         0.7449
  34   0.0000       0.033542         0.9127
  35   0.0000       0.034641         0.9426
  36   0.0000       0.042835         1.1656

MULLIKEN ATOMIC CHARGES
-----------------------
   0 C :    1.201386
   1 C :   -0.860379
   2 C :   -0.829973
   3 C :   -0.407702
   4 C :   -0.379379
   5 C :   -0.108416
   6 O :   -0.850331
   7 O :   -0.806660
   8 H :    0.257619
   9 H :    0.224862
  10 H :    0.224841
  11 H :    0.272107
  12 H :    0.233473
  13 H :    0.233456
  14 H :    0.279073
  15 H :    0.279151
  16 H :    0.231410
  17 H :    0.231383
  18 H :    0.287031
  19 H :    0.287046
Sum of atomic charges:   -0.0000000

LOEWDIN ATOMIC CHARGES
----------------------
   0 C :   -1.043528
   1 C :    0.926709
   2 C :    0.911573
   3 C :    0.448743
   4 C :    0.479060
   5 C :    0.158051
   6 O :    0.732399
   7 O :    0.862359
   8 H :   -0.283363
   9 H :   -0.284753
  10 H :   -0.284754
  11 H :   -0.291409
  12 H :   -0.291282
  13 H :   -0.291282
  14 H :   -0.286727
  15 H :   -0.286707
  16 H :   -0.280268
  17 H :   -0.280242
  18 H :   -0.307297
  19 H :   -0.307280

  Mayer bond orders larger than 0.100000
B(  0-C ,  3-C ) :   1.0571 B(  0-C ,  4-C ) :  -0.1588 B(  0-C ,  6-O ) :   1.1173
B(  0-C ,  7-O ) :   0.9541 B(  1-C ,  4-C ) :   1.0311 B(  1-C ,  8-H ) :   1.0129
B(  1-C ,  9-H ) :   0.9519 B(  1-C , 10-H ) :   0.9518 B(  2-C ,  5-C ) :   0.9570
B(  2-C , 11-H ) :   0.9901 B(  2-C , 12-H ) :   0.9455 B(  2-C , 13-H ) :   0.9456
B(  3-C ,  4-C ) :   1.0085 B(  3-C ,  6-O ) :   0.1422 B(  3-C ,  7-O ) :   0.1460
B(  3-C , 14-H ) :   0.8656 B(  3-C , 15-H ) :   0.8654 B(  4-C , 16-H ) :   0.8814
B(  4-C , 17-H ) :   0.8814 B(  5-C ,  6-O ) :   0.1121 B(  5-C ,  7-O ) :   0.8210
B(  5-C , 18-H ) :   0.8548 B(  5-C , 19-H ) :   0.8548 B(  6-O ,  7-O ) :   0.1181

MP2 TOTAL ENERGY:     -385.718914740 Eh
FINAL SINGLE POINT ENERGY      -385.718914739733

DIPOLE MOMENT
-------------
                                X             Y             Z
Electronic contribution:      3.03132       3.38322       0.00045
Nuclear contribution   :     -2.82823      -4.12804      -0.00043
                        -----------------------------------------
Total Dipole Moment    :      0.20309      -0.74482       0.00002
                        -----------------------------------------
Magnitude (a.u.)       :      0.77201
Magnitude (Debye)      :      1.96230

Rotational constants in cm-1:     0.210049     0.026712     0.024226
Rotational constants in MHz :  6297.104177   800.799472   726.281277

                             ****ORCA TERMINATED NORMALLY****
TOTAL RUN TIME: 0 days 1 hours 15 minutes 42 seconds 333 msec
