                         Program Version 5.0.4 -  RELEASE  -
|  1> !ri-mp2 aug-cc-pvqz aug-cc-pvqz/c tightscf
|  2> %pal nprocs 16 end
|  3>
|  4> * xyz 0 1
|  5> Cl    -2.048706    0.016035   -0.000004
|  6> N      3.079563   -0.194242    0.000006
|  7> C      0.597673    0.488341    0.000004
|  8> C     -0.380235   -0.415943   -0.000003
|  9> C      1.964239    0.097426    0.000005
| 10> H      0.384661    1.548887    0.000008
| 11> H     -0.203660   -1.480729   -0.000008
| 12> *
| 13>
| 14>                          ****END OF INPUT****

CARTESIAN COORDINATES (ANGSTROEM)
---------------------------------
  Cl    -2.048706    0.016035   -0.000004
  N      3.079563   -0.194242    0.000006
  C      0.597673    0.488341    0.000004
  C     -0.380235   -0.415943   -0.000003
  C      1.964239    0.097426    0.000005
  H      0.384661    1.548887    0.000008
  H     -0.203660   -1.480729   -0.000008

 Total Charge           Charge          ....    0
 Multiplicity           Mult            ....    1
 Number of Electrons    NEL             ....   44
 Basis Dimension        Dim             ....  496

ORBITAL ENERGIES
----------------

  NO   OCC          E(Eh)            E(eV)
   0   2.0000    -104.877028     -2853.8490
   1   2.0000     -15.585189      -424.0945
   2   2.0000     -11.351764      -308.8972
   3   2.0000     -11.304679      -307.6159
   4   2.0000     -11.289744      -307.2095
   5   2.0000     -10.602185      -288.5001
   6   2.0000      -8.069328      -219.5776
   7   2.0000      -8.067480      -219.5273
   8   2.0000      -8.067426      -219.5258
   9   2.0000      -1.238554       -33.7028
  10   2.0000      -1.198306       -32.6076
  11   2.0000      -1.079728       -29.3809
  12   2.0000      -0.871952       -23.7270
  13   2.0000      -0.760863       -20.7041
  14   2.0000      -0.672866       -18.3096
  15   2.0000      -0.602365       -16.3912
  16   2.0000      -0.567177       -15.4337
  17   2.0000      -0.562139       -15.2966
  18   2.0000      -0.510743       -13.8980
  19   2.0000      -0.490584       -13.3495
  20   2.0000      -0.481492       -13.1021
  21   2.0000      -0.393436       -10.7059
  22   0.0000       0.024149         0.6571
  23   0.0000       0.030273         0.8238
  24   0.0000       0.049255         1.3403
  25   0.0000       0.054865         1.4930
  26   0.0000       0.066364         1.8058

MULLIKEN ATOMIC CHARGES
-----------------------
   0 Cl:   -0.131364
   1 N :   -0.630029
   2 C :   -0.304378
   3 C :   -0.425229
   4 C :    0.436742
   5 H :    0.554362
   6 H :    0.499897
Sum of atomic charges:    0.0000000

LOEWDIN ATOMIC CHARGES
----------------------
   0 Cl:    1.168847
   1 N :    0.396059
   2 C :    0.091798
   3 C :   -0.441712
   4 C :   -0.354869
   5 H :   -0.402660
   6 H :   -0.457463

  Mayer bond orders larger than 0.100000
B(  0-Cl,  2-C ) :  -0.1116 B(  0-Cl,  3-C ) :   1.0123 B(  1-N ,  4-C ) :   2.5405
B(  2-C ,  3-C ) :   1.5840 B(  2-C ,  4-C ) :   1.2047 B(  2-C ,  5-H ) :   0.6900
B(  3-C ,  4-C ) :  -0.1341 B(  3-C ,  6-H ) :   0.6780

MP2 TOTAL ENERGY:     -629.680254666 Eh
FINAL SINGLE POINT ENERGY      -629.680254666033

DIPOLE MOMENT
-------------
                                X             Y             Z
Electronic contribution:     -4.15482       0.10292      -0.00001
Nuclear contribution   :      2.95574       0.04162       0.00001
                        -----------------------------------------
Total Dipole Moment    :     -1.19908       0.14454      -0.00000
                        -----------------------------------------
Magnitude (a.u.)       :      1.20776
Magnitude (Debye)      :      3.06988

Rotational constants in cm-1:     1.649546     0.050458     0.048960
Rotational constants in MHz : 49452.130015  1512.691630  1467.793289

                             ****ORCA TERMINATED NORMALLY****
TOTAL RUN TIME: 0 days 0 hours 4 minutes 4 seconds 937 msec
