                         Program Version 5.0.4 -  RELEASE  -
|  1> !ri-mp2 aug-cc-pvqz aug-cc-pvqz/c tightscf
|  2> %pal nprocs 16 end
|  3>
|  4> * xyz 0 1
|  5> C     -2.410690    0.780868    0.000000
|  6> C     -1.408259   -0.101026    0.000000
|  7> C      0.000000    0.249530    0.000000
|  8> C      0.998002   -0.639690    0.000000
|  9> C      2.453681   -0.304012    0.000000
| 10> H     -2.224937    1.847997    0.000000
| 11> H     -3.443962    0.464039    0.000000
| 12> H     -1.639093   -1.162269    0.000000
| 13> H      0.236275    1.310487    0.000000
| 14> H      0.747222   -1.697270    0.000000
| 15> H      2.617556    0.773488    0.000000
| 16> H      2.955266   -0.725245    0.875717
| 17> H      2.955266   -0.725245   -0.875717
| 18> *
| 19>
| 20>                          ****END OF INPUT****

CARTESIAN COORDINATES (ANGSTROEM)
---------------------------------
  C     -2.410690    0.780868    0.000000
  C     -1.408259   -0.101026    0.000000
  C      0.000000    0.249530    0.000000
  C      0.998002   -0.639690    0.000000
  C      2.453681   -0.304012    0.000000
  H     -2.224937    1.847997    0.000000
  H     -3.443962    0.464039    0.000000
  H     -1.639093   -1.162269    0.000000
  H      0.236275    1.310487    0.000000
  H      0.747222   -1.697270    0.000000
  H      2.617556    0.773488    0.000000
  H      2.955266   -0.725245    0.875717
  H      2.955266   -0.725245   -0.875717

 Total Charge           Charge          ....    0
 Multiplicity           Mult            ....    1
 Number of Electrons    NEL             ....   38
 Basis Dimension        Dim             ....  768

ORBITAL ENERGIES
----------------

  NO   OCC          E(Eh)            E(eV)
   0   2.0000     -11.234649      -305.7103
   1   2.0000     -11.233800      -305.6872
   2   2.0000     -11.226371      -305.4851
   3   2.0000     -11.223125      -305.3968
   4   2.0000     -11.220637      -305.3291
   5   2.0000      -1.098269       -29.8854
   6   2.0000      -1.030011       -28.0280
   7   2.0000      -0.932770       -25.3820
   8   2.0000      -0.793505       -21.5924
   9   2.0000      -0.752432       -20.4747
  10   2.0000      -0.647885       -17.6299
  11   2.0000      -0.618621       -16.8335
  12   2.0000      -0.569872       -15.5070
  13   2.0000      -0.568903       -15.4806
  14   2.0000      -0.538103       -14.6425
  15   2.0000      -0.513839       -13.9823
  16   2.0000      -0.487412       -13.2632
  17   2.0000      -0.435412       -11.8482
  18   2.0000      -0.312331        -8.4990
  19   0.0000       0.026581         0.7233
  20   0.0000       0.029854         0.8124
  21   0.0000       0.031939         0.8691
  22   0.0000       0.043089         1.1725
  23   0.0000       0.046381         1.2621

MULLIKEN ATOMIC CHARGES
-----------------------
   0 C :   -0.821596
   1 C :   -0.500055
   2 C :   -0.425626
   3 C :   -0.265788
   4 C :   -0.684491
   5 H :    0.379465
   6 H :    0.310181
   7 H :    0.457496
   8 H :    0.428985
   9 H :    0.428534
  10 H :    0.245512
  11 H :    0.223691
  12 H :    0.223691
Sum of atomic charges:    0.0000000

LOEWDIN ATOMIC CHARGES
----------------------
   0 C :    0.781055
   1 C :    0.302745
   2 C :    0.321243
   3 C :    0.371413
   4 C :    0.888627
   5 H :   -0.361312
   6 H :   -0.361441
   7 H :   -0.355733
   8 H :   -0.350398
   9 H :   -0.329067
  10 H :   -0.315934
  11 H :   -0.295599
  12 H :   -0.295599

  Mayer bond orders larger than 0.100000
B(  0-C ,  1-C ) :   1.7890 B(  0-C ,  2-C ) :  -0.2319 B(  0-C ,  5-H ) :   0.8481
B(  0-C ,  6-H ) :   1.0331 B(  1-C ,  2-C ) :   0.9734 B(  1-C ,  3-C ) :  -0.3184
B(  1-C ,  6-H ) :  -0.1191 B(  1-C ,  7-H ) :   0.7462 B(  2-C ,  3-C ) :   1.5213
B(  2-C ,  4-C ) :  -0.1751 B(  2-C ,  8-H ) :   0.7537 B(  3-C ,  4-C ) :   0.9121
B(  3-C ,  9-H ) :   0.7449 B(  4-C , 10-H ) :   0.9537 B(  4-C , 11-H ) :   0.9872
B(  4-C , 12-H ) :   0.9872

MP2 TOTAL ENERGY:     -194.923981510 Eh
FINAL SINGLE POINT ENERGY      -194.923981509800

DIPOLE MOMENT
-------------
                                X             Y             Z
Electronic contribution:     -2.05807      -0.17772       0.00000
Nuclear contribution   :      2.30866       0.09008       0.00000
                        -----------------------------------------
Total Dipole Moment    :      0.25059      -0.08764       0.00000
                        -----------------------------------------
Magnitude (a.u.)       :      0.26547
Magnitude (Debye)      :      0.67477

Rotational constants in cm-1:     0.965731     0.072107     0.067933
Rotational constants in MHz : 28951.879797  2161.702151  2036.576110

                             ****ORCA TERMINATED NORMALLY****
TOTAL RUN TIME: 0 days 0 hours 16 minutes 9 seconds 714 msec
