                         Program Version 5.0.4 -  RELEASE  -
|  1> !ri-mp2 aug-cc-pvqz aug-cc-pvqz/c tightscf
|  2> %pal nprocs 16 end
|  3>
|  4> * xyz 0 1
|  5> H     -0.081998    3.962781    0.000000
|  6> H      1.401922    2.867737    0.000000
|  7> C      0.322716    2.960628    0.000000
|  8> H     -1.546765    2.025344    0.000000
|  9> C     -0.469613    1.886059    0.000000
| 10> H      1.076131    0.373269    0.000000
| 11> C      0.000000    0.512043    0.000000
| 12> H     -1.883157   -0.373116    0.000000
| 13> C     -0.810602   -0.551298    0.000000
| 14> H     -0.872163   -2.479687    0.867089
| 15> H     -0.872163   -2.479687   -0.867089
| 16> C     -0.407996   -1.995454    0.000000
| 17> H      1.273015   -3.356046    0.000000
| 18> H      1.577427   -1.862279   -0.881724
| 19> H      1.577427   -1.862279    0.881724
| 20> C      1.090549   -2.281317    0.000000
| 21> *
| 22>
| 23>                          ****END OF INPUT****

CARTESIAN COORDINATES (ANGSTROEM)
---------------------------------
  H     -0.081998    3.962781    0.000000
  H      1.401922    2.867737    0.000000
  C      0.322716    2.960628    0.000000
  H     -1.546765    2.025344    0.000000
  C     -0.469613    1.886059    0.000000
  H      1.076131    0.373269    0.000000
  C      0.000000    0.512043    0.000000
  H     -1.883157   -0.373116    0.000000
  C     -0.810602   -0.551298    0.000000
  H     -0.872163   -2.479687    0.867089
  H     -0.872163   -2.479687   -0.867089
  C     -0.407996   -1.995454    0.000000
  H      1.273015   -3.356046    0.000000
  H      1.577427   -1.862279   -0.881724
  H      1.577427   -1.862279    0.881724
  C      1.090549   -2.281317    0.000000

 Total Charge           Charge          ....    0
 Multiplicity           Mult            ....    1
 Number of Electrons    NEL             ....   46
 Basis Dimension        Dim             ....  940

ORBITAL ENERGIES
----------------

  NO   OCC          E(Eh)            E(eV)
   0   2.0000     -11.232902      -305.6628
   1   2.0000     -11.232319      -305.6469
   2   2.0000     -11.228969      -305.5558
   3   2.0000     -11.224388      -305.4311
   4   2.0000     -11.219325      -305.2934
   5   2.0000     -11.214848      -305.1715
   6   2.0000      -1.102455       -29.9993
   7   2.0000      -1.048324       -28.5264
   8   2.0000      -0.973272       -26.4841
   9   2.0000      -0.877319       -23.8731
  10   2.0000      -0.783268       -21.3138
  11   2.0000      -0.741569       -20.1791
  12   2.0000      -0.642515       -17.4837
  13   2.0000      -0.627083       -17.0638
  14   2.0000      -0.613688       -16.6993
  15   2.0000      -0.567330       -15.4378
  16   2.0000      -0.562028       -15.2936
  17   2.0000      -0.507762       -13.8169
  18   2.0000      -0.502081       -13.6623
  19   2.0000      -0.493627       -13.4323
  20   2.0000      -0.478803       -13.0289
  21   2.0000      -0.433838       -11.8053
  22   2.0000      -0.311189        -8.4679
  23   0.0000       0.025744         0.7005
  24   0.0000       0.029109         0.7921
  25   0.0000       0.030480         0.8294
  26   0.0000       0.039030         1.0621
  27   0.0000       0.042953         1.1688

MULLIKEN ATOMIC CHARGES
-----------------------
   0 H :    0.288943
   1 H :    0.381432
   2 C :   -0.840787
   3 H :    0.410154
   4 C :   -0.412377
   5 H :    0.434991
   6 C :   -0.465513
   7 H :    0.362516
   8 C :   -0.224169
   9 H :    0.244517
  10 H :    0.244517
  11 C :   -0.287757
  12 H :    0.304918
  13 H :    0.189047
  14 H :    0.189047
  15 C :   -0.819480
Sum of atomic charges:   -0.0000000

LOEWDIN ATOMIC CHARGES
----------------------
   0 H :   -0.361544
   1 H :   -0.360431
   2 C :    0.784300
   3 H :   -0.354847
   4 C :    0.311533
   5 H :   -0.367220
   6 C :    0.328186
   7 H :   -0.324956
   8 C :    0.391122
   9 H :   -0.287204
  10 H :   -0.287204
  11 C :    0.482848
  12 H :   -0.282014
  13 H :   -0.286468
  14 H :   -0.286468
  15 C :    0.900366

  Mayer bond orders larger than 0.100000
B(  0-H ,  2-C ) :   1.0849 B(  0-H ,  4-C ) :  -0.1582 B(  1-H ,  2-C ) :   0.8541
B(  2-C ,  4-C ) :   1.6638 B(  2-C ,  6-C ) :  -0.2548 B(  3-H ,  4-C ) :   0.8132
B(  4-C ,  6-C ) :   0.8750 B(  4-C ,  8-C ) :  -0.3651 B(  5-H ,  6-C ) :   0.7417
B(  6-C ,  8-C ) :   1.5555 B(  6-C , 11-C ) :  -0.2397 B(  7-H ,  8-C ) :   0.7915
B(  8-C , 11-C ) :   0.7412 B(  9-H , 11-C ) :   0.9312 B( 10-H , 11-C ) :   0.9312
B( 11-C , 15-C ) :   1.0005 B( 12-H , 15-C ) :   0.9528 B( 13-H , 15-C ) :   0.9732
B( 14-H , 15-C ) :   0.9732

MP2 TOTAL ENERGY:     -234.159873478 Eh
FINAL SINGLE POINT ENERGY      -234.159873477821

DIPOLE MOMENT
-------------
                                X             Y             Z
Electronic contribution:     -1.79726       3.04107       0.00000
Nuclear contribution   :      1.73493      -3.34851       0.00000
                        -----------------------------------------
Total Dipole Moment    :     -0.06233      -0.30744       0.00000
                        -----------------------------------------
Magnitude (a.u.)       :      0.31370
Magnitude (Debye)      :      0.79735

Rotational constants in cm-1:     0.356464     0.051311     0.045603
Rotational constants in MHz : 10686.529924  1538.267844  1367.134846

                             ****ORCA TERMINATED NORMALLY****
TOTAL RUN TIME: 0 days 0 hours 32 minutes 19 seconds 537 msec
