                         Program Version 5.0.4 -  RELEASE  -
|  1> !ri-mp2 aug-cc-pvqz aug-cc-pvqz/c tightscf
|  2> %pal nprocs 16 end
|  3>
|  4> * xyz 0 1
|  5> N     -1.111550   -0.313232    0.000000
|  6> O      0.000000    0.559326    0.000000
|  7> O     -2.159770    0.267328    0.000000
|  8> O     -0.888584   -1.499078    0.000000
|  9> C      2.325207    0.990121    0.000000
| 10> C      1.286493   -0.110502    0.000000
| 11> H      3.318360    0.540496    0.000000
| 12> H      2.232623    1.618133    0.884918
| 13> H      2.232623    1.618133   -0.884918
| 14> H      1.356935   -0.741228    0.885089
| 15> H      1.356935   -0.741228   -0.885089
| 16> *
| 17>
| 18>                          ****END OF INPUT****

CARTESIAN COORDINATES (ANGSTROEM)
---------------------------------
  N     -1.111550   -0.313232    0.000000
  O      0.000000    0.559326    0.000000
  O     -2.159770    0.267328    0.000000
  O     -0.888584   -1.499078    0.000000
  C      2.325207    0.990121    0.000000
  C      1.286493   -0.110502    0.000000
  H      3.318360    0.540496    0.000000
  H      2.232623    1.618133    0.884918
  H      2.232623    1.618133   -0.884918
  H      1.356935   -0.741228    0.885089
  H      1.356935   -0.741228   -0.885089

 Total Charge           Charge          ....    0
 Multiplicity           Mult            ....    1
 Number of Electrons    NEL             ....   48
 Basis Dimension        Dim             ....  710

ORBITAL ENERGIES
----------------

  NO   OCC          E(Eh)            E(eV)
   0   2.0000     -20.663513      -562.2828
   1   2.0000     -20.626579      -561.2777
   2   2.0000     -20.625149      -561.2388
   3   2.0000     -15.919736      -433.1980
   4   2.0000     -11.315143      -307.9007
   5   2.0000     -11.244396      -305.9756
   6   2.0000      -1.668550       -45.4035
   7   2.0000      -1.447966       -39.4012
   8   2.0000      -1.424730       -38.7689
   9   2.0000      -1.070262       -29.1233
  10   2.0000      -0.932224       -25.3671
  11   2.0000      -0.860043       -23.4029
  12   2.0000      -0.807997       -21.9867
  13   2.0000      -0.782944       -21.3050
  14   2.0000      -0.762498       -20.7486
  15   2.0000      -0.674021       -18.3410
  16   2.0000      -0.634024       -17.2527
  17   2.0000      -0.591168       -16.0865
  18   2.0000      -0.564705       -15.3664
  19   2.0000      -0.551411       -15.0046
  20   2.0000      -0.520080       -14.1521
  21   2.0000      -0.512986       -13.9591
  22   2.0000      -0.507203       -13.8017
  23   2.0000      -0.480778       -13.0826
  24   0.0000       0.021542         0.5862
  25   0.0000       0.033420         0.9094
  26   0.0000       0.033738         0.9180
  27   0.0000       0.042050         1.1442
  28   0.0000       0.056467         1.5365

MULLIKEN ATOMIC CHARGES
-----------------------
   0 N :    1.088734
   1 O :   -0.557593
   2 O :   -0.519551
   3 O :   -0.540539
   4 C :   -0.840476
   5 C :    0.002413
   6 H :    0.274375
   7 H :    0.270034
   8 H :    0.270034
   9 H :    0.276284
  10 H :    0.276284
Sum of atomic charges:    0.0000000

LOEWDIN ATOMIC CHARGES
----------------------
   0 N :   -1.190348
   1 O :    0.683673
   2 O :    0.483504
   3 O :    0.514126
   4 C :    0.906003
   5 C :    0.116174
   6 H :   -0.288934
   7 H :   -0.290039
   8 H :   -0.290039
   9 H :   -0.322060
  10 H :   -0.322060

  Mayer bond orders larger than 0.100000
B(  0-N ,  1-O ) :   0.8901 B(  0-N ,  2-O ) :   1.4454 B(  0-N ,  3-O ) :   1.3639
B(  1-O ,  5-C ) :   0.6967 B(  2-O ,  3-O ) :   0.1384 B(  4-C ,  5-C ) :   0.9822
B(  4-C ,  6-H ) :   0.9658 B(  4-C ,  7-H ) :   0.9108 B(  4-C ,  8-H ) :   0.9108
B(  5-C ,  9-H ) :   0.8694 B(  5-C , 10-H ) :   0.8694

MP2 TOTAL ENERGY:     -359.055409839 Eh
FINAL SINGLE POINT ENERGY      -359.055409838735

DIPOLE MOMENT
-------------
                                X             Y             Z
Electronic contribution:     -8.81238      -2.13393      -0.00000
Nuclear contribution   :     10.33757       2.25885       0.00000
                        -----------------------------------------
Total Dipole Moment    :      1.52519       0.12493      -0.00000
                        -----------------------------------------
Magnitude (a.u.)       :      1.53030
Magnitude (Debye)      :      3.88971

Rotational constants in cm-1:     0.335188     0.072943     0.061282
Rotational constants in MHz : 10048.676514  2186.767211  1837.174372

                             ****ORCA TERMINATED NORMALLY****
TOTAL RUN TIME: 0 days 0 hours 11 minutes 49 seconds 35 msec
