                         Program Version 5.0.4 -  RELEASE  -
|  1> !ri-mp2 aug-cc-pvqz aug-cc-pvqz/c tightscf
|  2> %pal nprocs 16 end
|  3>
|  4> * xyz 0 1
|  5> C      2.774263    0.471453    0.018406
|  6> H      3.025428    1.225242   -0.732402
|  7> H      2.694425    0.968642    0.985285
|  8> H      3.620197   -0.219765    0.061021
|  9> C      1.508736   -0.244855   -0.337967
| 10> H      1.506561   -0.764857   -1.293079
| 11> C      0.414083   -0.292101    0.413417
| 12> H      0.408451    0.231044    1.366497
| 13> C     -0.843677   -1.027566    0.061292
| 14> H     -0.699053   -1.585556   -0.870041
| 15> H     -1.042235   -1.789762    0.825223
| 16> C     -2.083249   -0.179059   -0.069246
| 17> H     -3.009282   -0.738490   -0.164929
| 18> C     -2.134346    1.146986   -0.084084
| 19> H     -3.075965    1.668839   -0.188328
| 20> H     -1.243382    1.755515   -0.000158
| 21> *
| 22>
| 23>                          ****END OF INPUT****

CARTESIAN COORDINATES (ANGSTROEM)
---------------------------------
  C      2.774263    0.471453    0.018406
  H      3.025428    1.225242   -0.732402
  H      2.694425    0.968642    0.985285
  H      3.620197   -0.219765    0.061021
  C      1.508736   -0.244855   -0.337967
  H      1.506561   -0.764857   -1.293079
  C      0.414083   -0.292101    0.413417
  H      0.408451    0.231044    1.366497
  C     -0.843677   -1.027566    0.061292
  H     -0.699053   -1.585556   -0.870041
  H     -1.042235   -1.789762    0.825223
  C     -2.083249   -0.179059   -0.069246
  H     -3.009282   -0.738490   -0.164929
  C     -2.134346    1.146986   -0.084084
  H     -3.075965    1.668839   -0.188328
  H     -1.243382    1.755515   -0.000158

 Total Charge           Charge          ....    0
 Multiplicity           Mult            ....    1
 Number of Electrons    NEL             ....   46
 Basis Dimension        Dim             ....  940

ORBITAL ENERGIES
----------------

  NO   OCC          E(Eh)            E(eV)
   0   2.0000     -11.230981      -305.6105
   1   2.0000     -11.229612      -305.5733
   2   2.0000     -11.225197      -305.4531
   3   2.0000     -11.221009      -305.3392
   4   2.0000     -11.218463      -305.2699
   5   2.0000     -11.213815      -305.1434
   6   2.0000      -1.098253       -29.8850
   7   2.0000      -1.045987       -28.4628
   8   2.0000      -0.967554       -26.3285
   9   2.0000      -0.890011       -24.2184
  10   2.0000      -0.769679       -20.9440
  11   2.0000      -0.732864       -19.9422
  12   2.0000      -0.641927       -17.4677
  13   2.0000      -0.615153       -16.7392
  14   2.0000      -0.609807       -16.5937
  15   2.0000      -0.567308       -15.4372
  16   2.0000      -0.558013       -15.1843
  17   2.0000      -0.536313       -14.5938
  18   2.0000      -0.517938       -14.0938
  19   2.0000      -0.497082       -13.5263
  20   2.0000      -0.471916       -12.8415
  21   2.0000      -0.361600        -9.8396
  22   2.0000      -0.347382        -9.4528
  23   0.0000       0.027027         0.7354
  24   0.0000       0.029729         0.8090
  25   0.0000       0.032820         0.8931
  26   0.0000       0.035232         0.9587
  27   0.0000       0.045346         1.2339

MULLIKEN ATOMIC CHARGES
-----------------------
   0 C :   -0.740099
   1 H :    0.229019
   2 H :    0.219481
   3 H :    0.255430
   4 C :   -0.430487
   5 H :    0.371702
   6 C :   -0.302661
   7 H :    0.415881
   8 C :   -0.224944
   9 H :    0.217738
  10 H :    0.222091
  11 C :   -0.526521
  12 H :    0.432304
  13 C :   -0.949849
  14 H :    0.322130
  15 H :    0.488784
Sum of atomic charges:   -0.0000000

LOEWDIN ATOMIC CHARGES
----------------------
   0 C :    0.891004
   1 H :   -0.296313
   2 H :   -0.315987
   3 H :   -0.296460
   4 C :    0.387571
   5 H :   -0.322492
   6 C :    0.340116
   7 H :   -0.320783
   8 C :    0.442747
   9 H :   -0.313634
  10 H :   -0.294213
  11 C :    0.363301
  12 H :   -0.331094
  13 C :    0.789055
  14 H :   -0.357144
  15 H :   -0.365676

  Mayer bond orders larger than 0.100000
B(  0-C ,  1-H ) :   0.9934 B(  0-C ,  2-H ) :   0.9672 B(  0-C ,  3-H ) :   0.9878
B(  0-C ,  4-C ) :   0.8810 B(  0-C ,  6-C ) :  -0.1295 B(  4-C ,  5-H ) :   0.8107
B(  4-C ,  6-C ) :   1.6667 B(  4-C ,  8-C ) :  -0.1329 B(  6-C ,  7-H ) :   0.7462
B(  6-C ,  8-C ) :   0.9726 B(  6-C , 11-C ) :  -0.1716 B(  8-C ,  9-H ) :   0.9285
B(  8-C , 10-H ) :   0.9230 B(  8-C , 11-C ) :   0.8902 B( 11-C , 12-H ) :   0.7909
B( 11-C , 13-C ) :   1.9064 B( 13-C , 14-H ) :   0.9967 B( 13-C , 15-H ) :   0.7268

MP2 TOTAL ENERGY:     -234.152979788 Eh
FINAL SINGLE POINT ENERGY      -234.152979787627

DIPOLE MOMENT
-------------
                                X             Y             Z
Electronic contribution:     -2.17137      -0.90847      -0.01059
Nuclear contribution   :      2.29807       0.78966      -0.01147
                        -----------------------------------------
Total Dipole Moment    :      0.12670      -0.11882      -0.02207
                        -----------------------------------------
Magnitude (a.u.)       :      0.17509
Magnitude (Debye)      :      0.44505

Rotational constants in cm-1:     0.286445     0.055929     0.049598
Rotational constants in MHz :  8587.394675  1676.699162  1486.923092

                             ****ORCA TERMINATED NORMALLY****
TOTAL RUN TIME: 0 days 0 hours 36 minutes 2 seconds 863 msec
