                         Program Version 5.0.4 -  RELEASE  -
|  1> !ri-mp2 aug-cc-pvqz aug-cc-pvqz/c tightscf
|  2> %pal nprocs 16 end
|  3>
|  4> * xyz 0 1
|  5> C      2.445855   -0.294356   -0.000008
|  6> H      2.499430   -1.373583    0.000358
|  7> H      3.364930    0.269880   -0.000226
|  8> C      1.282938    0.346338   -0.000141
|  9> H      1.226582    1.430931   -0.000503
| 10> O      0.088531   -0.298764    0.000118
| 11> C     -1.073605    0.536374    0.000222
| 12> H     -1.057562    1.179175   -0.885919
| 13> H     -1.057825    1.178653    0.886755
| 14> C     -2.298114   -0.351311   -0.000172
| 15> H     -2.312414   -0.988238   -0.884210
| 16> H     -2.312552   -0.988828    0.883437
| 17> H     -3.201281    0.259848   -0.000035
| 18> *
| 19>
| 20>                          ****END OF INPUT****

CARTESIAN COORDINATES (ANGSTROEM)
---------------------------------
  C      2.445855   -0.294356   -0.000008
  H      2.499430   -1.373583    0.000358
  H      3.364930    0.269880   -0.000226
  C      1.282938    0.346338   -0.000141
  H      1.226582    1.430931   -0.000503
  O      0.088531   -0.298764    0.000118
  C     -1.073605    0.536374    0.000222
  H     -1.057562    1.179175   -0.885919
  H     -1.057825    1.178653    0.886755
  C     -2.298114   -0.351311   -0.000172
  H     -2.312414   -0.988238   -0.884210
  H     -2.312552   -0.988828    0.883437
  H     -3.201281    0.259848   -0.000035

 Total Charge           Charge          ....    0
 Multiplicity           Mult            ....    1
 Number of Electrons    NEL             ....   40
 Basis Dimension        Dim             ....  768

ORBITAL ENERGIES
----------------

  NO   OCC          E(Eh)            E(eV)
   0   2.0000     -20.574536      -559.8616
   1   2.0000     -11.287596      -307.1511
   2   2.0000     -11.287456      -307.1473
   3   2.0000     -11.220963      -305.3379
   4   2.0000     -11.205227      -304.9097
   5   2.0000      -1.401591       -38.1392
   6   2.0000      -1.055663       -28.7260
   7   2.0000      -0.993437       -27.0328
   8   2.0000      -0.852870       -23.2078
   9   2.0000      -0.793310       -21.5871
  10   2.0000      -0.689904       -18.7733
  11   2.0000      -0.667523       -18.1642
  12   2.0000      -0.634197       -17.2574
  13   2.0000      -0.566921       -15.4267
  14   2.0000      -0.555409       -15.1135
  15   2.0000      -0.535638       -14.5755
  16   2.0000      -0.530618       -14.4388
  17   2.0000      -0.491840       -13.3836
  18   2.0000      -0.484832       -13.1930
  19   2.0000      -0.337464        -9.1829
  20   0.0000       0.025785         0.7016
  21   0.0000       0.031762         0.8643
  22   0.0000       0.034751         0.9456
  23   0.0000       0.037687         1.0255
  24   0.0000       0.047475         1.2919

MULLIKEN ATOMIC CHARGES
-----------------------
   0 C :   -0.752717
   1 H :    0.403897
   2 H :    0.318729
   3 C :   -0.202040
   4 H :    0.496928
   5 O :   -0.745324
   6 C :    0.019639
   7 H :    0.239464
   8 H :    0.239545
   9 C :   -0.806689
  10 H :    0.264533
  11 H :    0.264530
  12 H :    0.259504
Sum of atomic charges:    0.0000000

LOEWDIN ATOMIC CHARGES
----------------------
   0 C :    0.751675
   1 H :   -0.376984
   2 H :   -0.392354
   3 C :   -0.047294
   4 H :   -0.365763
   5 O :    0.845435
   6 C :    0.147189
   7 H :   -0.298413
   8 H :   -0.298359
   9 C :    0.908494
  10 H :   -0.290943
  11 H :   -0.290945
  12 H :   -0.291738

  Mayer bond orders larger than 0.100000
B(  0-C ,  1-H ) :   0.8331 B(  0-C ,  2-H ) :   0.9947 B(  0-C ,  3-C ) :   1.6657
B(  3-C ,  4-H ) :   0.7301 B(  3-C ,  5-O ) :   0.9715 B(  5-O ,  6-C ) :   0.8310
B(  6-C ,  7-H ) :   0.8708 B(  6-C ,  8-H ) :   0.8708 B(  6-C ,  9-C ) :   0.9838
B(  9-C , 10-H ) :   0.9207 B(  9-C , 11-H ) :   0.9207 B(  9-C , 12-H ) :   0.9873

MP2 TOTAL ENERGY:     -232.039581556 Eh
FINAL SINGLE POINT ENERGY      -232.039581556202

DIPOLE MOMENT
-------------
                                X             Y             Z
Electronic contribution:      2.49335      -0.44163       0.00031
Nuclear contribution   :     -2.96847       1.00341      -0.00036
                        -----------------------------------------
Total Dipole Moment    :     -0.47512       0.56178      -0.00005
                        -----------------------------------------
Magnitude (a.u.)       :      0.73575
Magnitude (Debye)      :      1.87014

Rotational constants in cm-1:     0.807689     0.078529     0.073543
Rotational constants in MHz : 24213.902303  2354.251437  2204.768494

                             ****ORCA TERMINATED NORMALLY****
TOTAL RUN TIME: 0 days 0 hours 20 minutes 21 seconds 692 msec
