                         Program Version 5.0.4 -  RELEASE  -
|  1> !ri-mp2 aug-cc-pvqz aug-cc-pvqz/c tightscf
|  2> %pal nprocs 16 end
|  3>
|  4> * xyz 0 1
|  5> C      0.146734   -1.257992   -0.001003
|  6> F      1.486654   -1.231502    0.002109
|  7> H     -0.279000   -2.250688   -0.004801
|  8> C     -0.595977   -0.163277    0.000497
|  9> F     -1.944444   -0.328243   -0.001783
| 10> C     -0.254498    1.291824    0.004837
| 11> F      1.109404    1.503367   -0.004948
| 12> H     -0.674434    1.763787    0.897350
| 13> H     -0.688638    1.770979   -0.876947
| 14> *
| 15>
| 16>                          ****END OF INPUT****

CARTESIAN COORDINATES (ANGSTROEM)
---------------------------------
  C      0.146734   -1.257992   -0.001003
  F      1.486654   -1.231502    0.002109
  H     -0.279000   -2.250688   -0.004801
  C     -0.595977   -0.163277    0.000497
  F     -1.944444   -0.328243   -0.001783
  C     -0.254498    1.291824    0.004837
  F      1.109404    1.503367   -0.004948
  H     -0.674434    1.763787    0.897350
  H     -0.688638    1.770979   -0.876947

 Total Charge           Charge          ....    0
 Multiplicity           Mult            ....    1
 Number of Electrons    NEL             ....   48
 Basis Dimension        Dim             ....  618

ORBITAL ENERGIES
----------------

  NO   OCC          E(Eh)            E(eV)
   0   2.0000     -26.327963      -716.4203
   1   2.0000     -26.318942      -716.1748
   2   2.0000     -26.298637      -715.6223
   3   2.0000     -11.346303      -308.7486
   4   2.0000     -11.344369      -308.6960
   5   2.0000     -11.336707      -308.4875
   6   2.0000      -1.645080       -44.7649
   7   2.0000      -1.636417       -44.5292
   8   2.0000      -1.611080       -43.8397
   9   2.0000      -1.094572       -29.7848
  10   2.0000      -0.991007       -26.9667
  11   2.0000      -0.841517       -22.8988
  12   2.0000      -0.775687       -21.1075
  13   2.0000      -0.763816       -20.7845
  14   2.0000      -0.740437       -20.1483
  15   2.0000      -0.707431       -19.2502
  16   2.0000      -0.705754       -19.2046
  17   2.0000      -0.696478       -18.9521
  18   2.0000      -0.692040       -18.8314
  19   2.0000      -0.657402       -17.8888
  20   2.0000      -0.621639       -16.9157
  21   2.0000      -0.561731       -15.2855
  22   2.0000      -0.544740       -14.8231
  23   2.0000      -0.388709       -10.5773
  24   0.0000       0.026179         0.7124
  25   0.0000       0.032184         0.8758
  26   0.0000       0.038752         1.0545
  27   0.0000       0.055065         1.4984
  28   0.0000       0.072383         1.9696

MULLIKEN ATOMIC CHARGES
-----------------------
   0 C :    0.169998
   1 F :   -0.669696
   2 H :    0.517407
   3 C :    0.404502
   4 F :   -0.690197
   5 C :    0.316861
   6 F :   -0.654349
   7 H :    0.303701
   8 H :    0.301774
Sum of atomic charges:   -0.0000000

LOEWDIN ATOMIC CHARGES
----------------------
   0 C :   -0.294882
   1 F :    0.739304
   2 H :   -0.416857
   3 C :   -0.724576
   4 F :    0.752869
   5 C :   -0.122651
   6 F :    0.773479
   7 H :   -0.353059
   8 H :   -0.353625

  Mayer bond orders larger than 0.100000
B(  0-C ,  1-F ) :   0.5328 B(  0-C ,  2-H ) :   0.7360 B(  0-C ,  3-C ) :   1.8307
B(  3-C ,  4-F ) :   0.4610 B(  3-C ,  5-C ) :   0.8376 B(  5-C ,  6-F ) :   0.5059
B(  5-C ,  7-H ) :   0.8913 B(  5-C ,  8-H ) :   0.8941

MP2 TOTAL ENERGY:     -415.141580228 Eh
FINAL SINGLE POINT ENERGY      -415.141580228006

DIPOLE MOMENT
-------------
                                X             Y             Z
Electronic contribution:      1.46761      -1.21977      -0.01359
Nuclear contribution   :     -2.14512       1.25741       0.01893
                        -----------------------------------------
Total Dipole Moment    :     -0.67751       0.03764       0.00533
                        -----------------------------------------
Magnitude (a.u.)       :      0.67858
Magnitude (Debye)      :      1.72480

Rotational constants in cm-1:     0.133925     0.116004     0.062898
Rotational constants in MHz :  4014.978174  3477.715466  1885.622088

                             ****ORCA TERMINATED NORMALLY****
TOTAL RUN TIME: 0 days 0 hours 8 minutes 22 seconds 176 msec
