                         Program Version 5.0.4 -  RELEASE  -
|  1> !ri-mp2 aug-cc-pvqz aug-cc-pvqz/c tightscf
|  2> %pal nprocs 16 end
|  3> %maxcore 3800
|  4>
|  5> * xyz 0 1
|  6> C      0.000000    0.729498    0.000000
|  7> C     -2.141505   -3.891402    0.000000
|  8> C      2.549320    3.339800    0.000000
|  9> C      0.207382   -0.768043    0.000000
| 10> C     -0.847268   -3.079942    0.000000
| 11> C     -1.088975   -1.570401    0.000000
| 12> C      1.128138    2.824006    0.000000
| 13> O     -1.066056    1.293479    0.000000
| 14> O      1.183521    1.378692    0.000000
| 15> H     -2.746700   -3.667220    0.880566
| 16> H     -2.746700   -3.667220   -0.880566
| 17> H     -1.939443   -4.963233    0.000000
| 18> H      2.543948    4.430393    0.000000
| 19> H      3.089196    3.000657    0.883914
| 20> H      3.089196    3.000657   -0.883914
| 21> H      0.822926   -1.014904   -0.869453
| 22> H      0.822926   -1.014904    0.869453
| 23> H     -0.247536   -3.351756    0.874139
| 24> H     -0.247536   -3.351756   -0.874139
| 25> H     -1.685980   -1.291579    0.871119
| 26> H     -1.685980   -1.291579   -0.871119
| 27> H      0.574702    3.151987   -0.879985
| 28> H      0.574702    3.151987    0.879985
| 29> *
| 30>
| 31>                          ****END OF INPUT****

CARTESIAN COORDINATES (ANGSTROEM)
---------------------------------
  C      0.000000    0.729498    0.000000
  C     -2.141505   -3.891402    0.000000
  C      2.549320    3.339800    0.000000
  C      0.207382   -0.768043    0.000000
  C     -0.847268   -3.079942    0.000000
  C     -1.088975   -1.570401    0.000000
  C      1.128138    2.824006    0.000000
  O     -1.066056    1.293479    0.000000
  O      1.183521    1.378692    0.000000
  H     -2.746700   -3.667220    0.880566
  H     -2.746700   -3.667220   -0.880566
  H     -1.939443   -4.963233    0.000000
  H      2.543948    4.430393    0.000000
  H      3.089196    3.000657    0.883914
  H      3.089196    3.000657   -0.883914
  H      0.822926   -1.014904   -0.869453
  H      0.822926   -1.014904    0.869453
  H     -0.247536   -3.351756    0.874139
  H     -0.247536   -3.351756   -0.874139
  H     -1.685980   -1.291579    0.871119
  H     -1.685980   -1.291579   -0.871119
  H      0.574702    3.151987   -0.879985
  H      0.574702    3.151987    0.879985

 Total Charge           Charge          ....    0
 Multiplicity           Mult            ....    1
 Number of Electrons    NEL             ....   72
 Basis Dimension        Dim             .... 1364

ORBITAL ENERGIES
----------------

  NO   OCC          E(Eh)            E(eV)
   0   2.0000     -20.592870      -560.3605
   1   2.0000     -20.536956      -558.8390
   2   2.0000     -11.372140      -309.4517
   3   2.0000     -11.285867      -307.1041
   4   2.0000     -11.238093      -305.8040
   5   2.0000     -11.222882      -305.3901
   6   2.0000     -11.220748      -305.3321
   7   2.0000     -11.219637      -305.3018
   8   2.0000     -11.211308      -305.0752
   9   2.0000      -1.452169       -39.5155
  10   2.0000      -1.352991       -36.8168
  11   2.0000      -1.088494       -29.6194
  12   2.0000      -1.044932       -28.4340
  13   2.0000      -1.003872       -27.3168
  14   2.0000      -0.906883       -24.6775
  15   2.0000      -0.851747       -23.1772
  16   2.0000      -0.801111       -21.7993
  17   2.0000      -0.768022       -20.8990
  18   2.0000      -0.690304       -18.7841
  19   2.0000      -0.684331       -18.6216
  20   2.0000      -0.662162       -18.0184
  21   2.0000      -0.648530       -17.6474
  22   2.0000      -0.600846       -16.3498
  23   2.0000      -0.589731       -16.0474
  24   2.0000      -0.569547       -15.4982
  25   2.0000      -0.560707       -15.2576
  26   2.0000      -0.549480       -14.9521
  27   2.0000      -0.534525       -14.5452
  28   2.0000      -0.513529       -13.9738
  29   2.0000      -0.510306       -13.8861
  30   2.0000      -0.494682       -13.4610
  31   2.0000      -0.479232       -13.0406
  32   2.0000      -0.474801       -12.9200
  33   2.0000      -0.469817       -12.7844
  34   2.0000      -0.455081       -12.3834
  35   2.0000      -0.439764       -11.9666
  36   0.0000       0.024526         0.6674
  37   0.0000       0.026540         0.7222
  38   0.0000       0.033064         0.8997
  39   0.0000       0.033703         0.9171
  40   0.0000       0.040150         1.0926

MULLIKEN ATOMIC CHARGES
-----------------------
   0 C :    1.190099
   1 C :   -0.896192
   2 C :   -0.826977
   3 C :   -0.497900
   4 C :   -0.477913
   5 C :   -0.176458
   6 C :   -0.123227
   7 O :   -0.874624
   8 O :   -0.821611
   9 H :    0.228228
  10 H :    0.228226
  11 H :    0.260404
  12 H :    0.273154
  13 H :    0.231004
  14 H :    0.231002
  15 H :    0.275640
  16 H :    0.275687
  17 H :    0.225301
  18 H :    0.225402
  19 H :    0.238566
  20 H :    0.238646
  21 H :    0.286771
  22 H :    0.286772
Sum of atomic charges:   -0.0000000

LOEWDIN ATOMIC CHARGES
----------------------
   0 C :   -1.040236
   1 C :    0.928911
   2 C :    0.911466
   3 C :    0.461303
   4 C :    0.507202
   5 C :    0.481997
   6 C :    0.158389
   7 O :    0.733200
   8 O :    0.862605
   9 H :   -0.284075
  10 H :   -0.284075
  11 H :   -0.284084
  12 H :   -0.291386
  13 H :   -0.291368
  14 H :   -0.291368
  15 H :   -0.284028
  16 H :   -0.284028
  17 H :   -0.273247
  18 H :   -0.273247
  19 H :   -0.274878
  20 H :   -0.274878
  21 H :   -0.307087
  22 H :   -0.307087

  Mayer bond orders larger than 0.100000
B(  0-C ,  3-C ) :   1.2276 B(  0-C ,  5-C ) :  -0.2781 B(  0-C ,  7-O ) :   1.0849
B(  0-C ,  8-O ) :   0.9155 B(  1-C ,  4-C ) :   1.0328 B(  1-C ,  5-C ) :  -0.1051
B(  1-C ,  9-H ) :   0.9511 B(  1-C , 10-H ) :   0.9511 B(  1-C , 11-H ) :   1.0225
B(  2-C ,  6-C ) :   0.9577 B(  2-C , 12-H ) :   0.9907 B(  2-C , 13-H ) :   0.9464
B(  2-C , 14-H ) :   0.9464 B(  3-C ,  5-C ) :   1.0441 B(  3-C ,  7-O ) :   0.1675
B(  3-C ,  8-O ) :   0.1875 B(  3-C , 15-H ) :   0.8536 B(  3-C , 16-H ) :   0.8536
B(  4-C ,  5-C ) :   1.0026 B(  4-C , 17-H ) :   0.8794 B(  4-C , 18-H ) :   0.8793
B(  5-C , 19-H ) :   0.8583 B(  5-C , 20-H ) :   0.8583 B(  6-C ,  7-O ) :   0.1134
B(  6-C ,  8-O ) :   0.8317 B(  6-C , 21-H ) :   0.8514 B(  6-C , 22-H ) :   0.8514
B(  7-O ,  8-O ) :   0.1306

MP2 TOTAL ENERGY:     -424.955199578 Eh
FINAL SINGLE POINT ENERGY      -424.955199578083

DIPOLE MOMENT
-------------
                                X             Y             Z
Electronic contribution:      0.54336       6.92555      -0.00000
Nuclear contribution   :      0.22806      -7.10070       0.00000
                        -----------------------------------------
Total Dipole Moment    :      0.77143      -0.17515      -0.00000
                        -----------------------------------------
Magnitude (a.u.)       :      0.79106
Magnitude (Debye)      :      2.01071

Rotational constants in cm-1:     0.201970     0.017493     0.016390
Rotational constants in MHz :  6054.897327   524.429981   491.350133

                             ****ORCA TERMINATED NORMALLY****
TOTAL RUN TIME: 0 days 1 hours 39 minutes 26 seconds 991 msec
