                         Program Version 5.0.4 -  RELEASE  -
|  1> !ri-mp2 aug-cc-pvqz aug-cc-pvqz/c tightscf
|  2> %pal nprocs 16 end
|  3>
|  4> * xyz 0 1
|  5> Cl   -3.711306   -0.250025   -0.222443
|  6> Cl    3.245768   -0.766998   -0.070147
|  7> O     1.080001    0.724444   -0.457102
|  8> N     2.390823    0.873305   -0.035920
|  9> C     0.233303    0.411497    0.671316
| 10> C    -1.182193    0.586458    0.237594
| 11> C    -2.040512   -0.420694    0.228155
| 12> H     0.492240    1.094323    1.483319
| 13> H     0.434639   -0.612867    0.990518
| 14> H    -1.495582    1.578817   -0.060378
| 15> H    -1.781946   -1.432223    0.504925
| 16> H     2.825450    1.289086   -0.858485
| 17> *
| 18>
| 19>                          ****END OF INPUT****

CARTESIAN COORDINATES (ANGSTROEM)
---------------------------------
  Cl    -3.711306   -0.250025   -0.222443
  Cl     3.245768   -0.766998   -0.070147
  O      1.080001    0.724444   -0.457102
  N      2.390823    0.873305   -0.035920
  C      0.233303    0.411497    0.671316
  C     -1.182193    0.586458    0.237594
  C     -2.040512   -0.420694    0.228155
  H      0.492240    1.094323    1.483319
  H      0.434639   -0.612867    0.990518
  H     -1.495582    1.578817   -0.060378
  H     -1.781946   -1.432223    0.504925
  H      2.825450    1.289086   -0.858485

 Total Charge           Charge          ....    0
 Multiplicity           Mult            ....    1
 Number of Electrons    NEL             ....   72
 Basis Dimension        Dim             ....  798

ORBITAL ENERGIES
----------------

  NO   OCC          E(Eh)            E(eV)
   0   2.0000    -104.850929     -2853.1388
   1   2.0000    -104.847852     -2853.0551
   2   2.0000     -20.629733      -561.3636
   3   2.0000     -15.704020      -427.3281
   4   2.0000     -11.310677      -307.7792
   5   2.0000     -11.309436      -307.7454
   6   2.0000     -11.260853      -306.4234
   7   2.0000     -10.573986      -287.7328
   8   2.0000     -10.573061      -287.7076
   9   2.0000      -8.040897      -218.8039
  10   2.0000      -8.040200      -218.7850
  11   2.0000      -8.038963      -218.7513
  12   2.0000      -8.038806      -218.7470
  13   2.0000      -8.038426      -218.7367
  14   2.0000      -8.038424      -218.7366
  15   2.0000      -1.467595       -39.9353
  16   2.0000      -1.181712       -32.1560
  17   2.0000      -1.161574       -31.6080
  18   2.0000      -1.069316       -29.0976
  19   2.0000      -1.007356       -27.4116
  20   2.0000      -0.907410       -24.6919
  21   2.0000      -0.800366       -21.7791
  22   2.0000      -0.730098       -19.8670
  23   2.0000      -0.696379       -18.9494
  24   2.0000      -0.678552       -18.4643
  25   2.0000      -0.632989       -17.2245
  26   2.0000      -0.622628       -16.9426
  27   2.0000      -0.561074       -15.2676
  28   2.0000      -0.538406       -14.6508
  29   2.0000      -0.525443       -14.2980
  30   2.0000      -0.516449       -14.0533
  31   2.0000      -0.464559       -12.6413
  32   2.0000      -0.462162       -12.5761
  33   2.0000      -0.457257       -12.4426
  34   2.0000      -0.421855       -11.4793
  35   2.0000      -0.379576       -10.3288
  36   0.0000       0.025979         0.7069
  37   0.0000       0.031372         0.8537
  38   0.0000       0.037472         1.0197
  39   0.0000       0.038912         1.0588
  40   0.0000       0.052117         1.4182

MULLIKEN ATOMIC CHARGES
-----------------------
   0 Cl:   -0.221347
   1 Cl:   -0.118003
   2 O :   -0.568026
   3 N :   -0.133750
   4 C :    0.137742
   5 C :   -0.400981
   6 C :   -0.495961
   7 H :    0.344745
   8 H :    0.228891
   9 H :    0.506488
  10 H :    0.438189
  11 H :    0.282013
Sum of atomic charges:   -0.0000000

LOEWDIN ATOMIC CHARGES
----------------------
   0 Cl:    1.120440
   1 Cl:    0.767244
   2 O :    0.589779
   3 N :   -0.006604
   4 C :    0.057148
   5 C :    0.192053
   6 C :   -0.397398
   7 H :   -0.327720
   8 H :   -0.361937
   9 H :   -0.365344
  10 H :   -0.465134
  11 H :   -0.802529

  Mayer bond orders larger than 0.100000
B(  0-Cl,  5-C ) :  -0.1295 B(  0-Cl,  6-C ) :   0.9343 B(  1-Cl,  3-N ) :   1.0002
B(  2-O ,  3-N ) :   0.9377 B(  2-O ,  4-C ) :   0.7335 B(  3-N , 11-H ) :   0.8814
B(  4-C ,  5-C ) :   0.9990 B(  4-C ,  6-C ) :  -0.1309 B(  4-C ,  7-H ) :   0.8239
B(  4-C ,  8-H ) :   0.9520 B(  5-C ,  6-C ) :   1.6526 B(  5-C ,  9-H ) :   0.6973
B(  6-C , 10-H ) :   0.7444

MP2 TOTAL ENERGY:    -1166.273973600 Eh
FINAL SINGLE POINT ENERGY     -1166.273973599785

DIPOLE MOMENT
-------------
                                X             Y             Z
Electronic contribution:     -0.99912      -2.87054      -2.15575
Nuclear contribution   :      1.11606       3.22726       2.35336
                        -----------------------------------------
Total Dipole Moment    :      0.11694       0.35672       0.19762
                        -----------------------------------------
Magnitude (a.u.)       :      0.42424
Magnitude (Debye)      :      1.07833

Rotational constants in cm-1:     0.226800     0.015932     0.015323
Rotational constants in MHz :  6799.296843   477.623269   459.368975

                             ****ORCA TERMINATED NORMALLY****
TOTAL RUN TIME: 0 days 0 hours 15 minutes 5 seconds 783 msec
