                         Program Version 5.0.4 -  RELEASE  -
|  1> !ri-mp2 aug-cc-pvqz aug-cc-pvqz/c tightscf
|  2> %pal nprocs 16 end
|  3>
|  4> * xyz 0 1
|  5> C      2.782896    0.485045    0.000000
|  6> C      2.194136   -0.770352    0.000000
|  7> C      1.968374    1.616338    0.000000
|  8> C      0.807719   -0.912627    0.000000
|  9> C      0.589648    1.491986    0.000000
| 10> C      0.000000    0.224518    0.000000
| 11> C     -3.525326   -0.782670    0.000000
| 12> C     -2.036225   -1.053818    0.000000
| 13> O     -1.362668    0.203627    0.000000
| 14> H      3.859197    0.585368    0.000000
| 15> H      2.812468   -1.658314    0.000000
| 16> H      2.412071    2.603099    0.000000
| 17> H      0.376293   -1.901643    0.000000
| 18> H     -0.052598    2.361690    0.000000
| 19> H     -4.074153   -1.725007    0.000000
| 20> H     -3.814766   -0.215005    0.883932
| 21> H     -3.814766   -0.215005   -0.883932
| 22> H     -1.744865   -1.627360   -0.885629
| 23> H     -1.744865   -1.627360    0.885629
| 24> *
| 25>
| 26>                          ****END OF INPUT****

CARTESIAN COORDINATES (ANGSTROEM)
---------------------------------
  C      2.782896    0.485045    0.000000
  C      2.194136   -0.770352    0.000000
  C      1.968374    1.616338    0.000000
  C      0.807719   -0.912627    0.000000
  C      0.589648    1.491986    0.000000
  C      0.000000    0.224518    0.000000
  C     -3.525326   -0.782670    0.000000
  C     -2.036225   -1.053818    0.000000
  O     -1.362668    0.203627    0.000000
  H      3.859197    0.585368    0.000000
  H      2.812468   -1.658314    0.000000
  H      2.412071    2.603099    0.000000
  H      0.376293   -1.901643    0.000000
  H     -0.052598    2.361690    0.000000
  H     -4.074153   -1.725007    0.000000
  H     -3.814766   -0.215005    0.883932
  H     -3.814766   -0.215005   -0.883932
  H     -1.744865   -1.627360   -0.885629
  H     -1.744865   -1.627360    0.885629

 Total Charge           Charge          ....    0
 Multiplicity           Mult            ....    1
 Number of Electrons    NEL             ....   66
 Basis Dimension        Dim             .... 1180

ORBITAL ENERGIES
----------------

  NO   OCC          E(Eh)            E(eV)
   0   2.0000     -20.577424      -559.9402
   1   2.0000     -11.297126      -307.4104
   2   2.0000     -11.286524      -307.1219
   3   2.0000     -11.235545      -305.7347
   4   2.0000     -11.234162      -305.6971
   5   2.0000     -11.226696      -305.4939
   6   2.0000     -11.222524      -305.3804
   7   2.0000     -11.221547      -305.3538
   8   2.0000     -11.220545      -305.3265
   9   2.0000      -1.405407       -38.2431
  10   2.0000      -1.146709       -31.2035
  11   2.0000      -1.045566       -28.4513
  12   2.0000      -1.016069       -27.6486
  13   2.0000      -0.986745       -26.8507
  14   2.0000      -0.871683       -23.7197
  15   2.0000      -0.825461       -22.4619
  16   2.0000      -0.801082       -21.7986
  17   2.0000      -0.723952       -19.6997
  18   2.0000      -0.669949       -18.2302
  19   2.0000      -0.666967       -18.1491
  20   2.0000      -0.650456       -17.6998
  21   2.0000      -0.614873       -16.7315
  22   2.0000      -0.587101       -15.9758
  23   2.0000      -0.563038       -15.3211
  24   2.0000      -0.561710       -15.2849
  25   2.0000      -0.547407       -14.8957
  26   2.0000      -0.515028       -14.0146
  27   2.0000      -0.506922       -13.7940
  28   2.0000      -0.503254       -13.6942
  29   2.0000      -0.477040       -12.9809
  30   2.0000      -0.462782       -12.5929
  31   2.0000      -0.339219        -9.2306
  32   2.0000      -0.310461        -8.4481
  33   0.0000       0.024322         0.6618
  34   0.0000       0.027127         0.7382
  35   0.0000       0.029567         0.8045
  36   0.0000       0.037888         1.0310
  37   0.0000       0.039567         1.0767

MULLIKEN ATOMIC CHARGES
-----------------------
   0 C :   -0.356804
   1 C :   -0.396597
   2 C :   -0.297946
   3 C :   -0.420776
   4 C :   -0.592382
   5 C :    1.115179
   6 C :   -0.870137
   7 C :    0.106890
   8 O :   -0.845129
   9 H :    0.317767
  10 H :    0.269554
  11 H :    0.263541
  12 H :    0.169499
  13 H :    0.289523
  14 H :    0.252335
  15 H :    0.262175
  16 H :    0.262175
  17 H :    0.235566
  18 H :    0.235566
Sum of atomic charges:   -0.0000000

LOEWDIN ATOMIC CHARGES
----------------------
   0 C :    0.329810
   1 C :    0.332058
   2 C :    0.324812
   3 C :    0.327288
   4 C :    0.316563
   5 C :   -0.452831
   6 C :    0.918756
   7 C :    0.149051
   8 O :    0.888829
   9 H :   -0.331992
  10 H :   -0.322144
  11 H :   -0.323433
  12 H :   -0.361194
  13 H :   -0.329962
  14 H :   -0.289819
  15 H :   -0.288991
  16 H :   -0.288991
  17 H :   -0.298905
  18 H :   -0.298905

  Mayer bond orders larger than 0.100000
B(  0-C ,  1-C ) :   1.2736 B(  0-C ,  2-C ) :   1.1239 B(  0-C ,  9-H ) :   1.0120
B(  1-C ,  3-C ) :   1.0745 B(  1-C ,  4-C ) :   0.1907 B(  1-C ,  5-C ) :  -0.3017
B(  1-C , 10-H ) :   1.0896 B(  2-C ,  3-C ) :   0.1126 B(  2-C ,  4-C ) :   1.4353
B(  2-C ,  5-C ) :  -0.3779 B(  2-C , 11-H ) :   1.1303 B(  3-C ,  5-C ) :   1.2800
B(  3-C ,  8-O ) :   0.1360 B(  3-C , 10-H ) :  -0.1213 B(  3-C , 12-H ) :   1.1102
B(  4-C ,  5-C ) :   1.0038 B(  4-C , 11-H ) :  -0.1466 B(  4-C , 13-H ) :   0.9201
B(  5-C ,  8-O ) :   0.4383 B(  6-C ,  7-C ) :   0.8463 B(  6-C , 14-H ) :   1.0049
B(  6-C , 15-H ) :   0.9478 B(  6-C , 16-H ) :   0.9478 B(  7-C ,  8-O ) :   0.8136
B(  7-C , 17-H ) :   0.8686 B(  7-C , 18-H ) :   0.8686

MP2 TOTAL ENERGY:     -385.422441665 Eh
FINAL SINGLE POINT ENERGY      -385.422441664851

DIPOLE MOMENT
-------------
                                X             Y             Z
Electronic contribution:      5.69216       2.95616       0.00000
Nuclear contribution   :     -5.89236      -3.46627       0.00000
                        -----------------------------------------
Total Dipole Moment    :     -0.20020      -0.51011       0.00000
                        -----------------------------------------
Magnitude (a.u.)       :      0.54799
Magnitude (Debye)      :      1.39287

Rotational constants in cm-1:     0.163524     0.030655     0.026067
Rotational constants in MHz :  4902.334029   919.011793   781.482870

                             ****ORCA TERMINATED NORMALLY****
TOTAL RUN TIME: 0 days 1 hours 23 minutes 12 seconds 737 msec
