                         Program Version 5.0.4 -  RELEASE  -
|  1> !ri-mp2 aug-cc-pvqz aug-cc-pvqz/c tightscf
|  2> %pal nprocs 16 end
|  3> %maxcore 3800
|  4>
|  5> * xyz 0 1
|  6> C      2.611997    0.223827   -0.300825
|  7> C      1.549505    0.338129    0.501487
|  8> C      3.878275   -0.323343    0.188620
|  9> C     -4.786972   -0.124165   -0.302575
| 10> C      0.207729    0.863036    0.114332
| 11> C     -3.411591   -0.666545    0.081940
| 12> C     -0.908819   -0.183212    0.275038
| 13> C     -2.290909    0.359831   -0.087143
| 14> O      4.877910   -0.455105   -0.482993
| 15> H      2.582459    0.530856   -1.340266
| 16> H      1.654351    0.007675    1.533289
| 17> H      3.872769   -0.625229    1.256593
| 18> H     -5.051986    0.745375    0.302406
| 19> H     -5.564751   -0.875434   -0.160722
| 20> H     -4.810822    0.183879   -1.349781
| 21> H     -0.030363    1.722364    0.751305
| 22> H      0.231964    1.227423   -0.914648
| 23> H     -3.185367   -1.549033   -0.523759
| 24> H     -3.431941   -1.009179    1.120746
| 25> H     -0.917566   -0.545349    1.307622
| 26> H     -0.678207   -1.048957   -0.351592
| 27> H     -2.280124    0.713817   -1.123199
| 28> H     -2.508987    1.237280    0.530712
| 29> *
| 30>
| 31>                          ****END OF INPUT****

CARTESIAN COORDINATES (ANGSTROEM)
---------------------------------
  C      2.611997    0.223827   -0.300825
  C      1.549505    0.338129    0.501487
  C      3.878275   -0.323343    0.188620
  C     -4.786972   -0.124165   -0.302575
  C      0.207729    0.863036    0.114332
  C     -3.411591   -0.666545    0.081940
  C     -0.908819   -0.183212    0.275038
  C     -2.290909    0.359831   -0.087143
  O      4.877910   -0.455105   -0.482993
  H      2.582459    0.530856   -1.340266
  H      1.654351    0.007675    1.533289
  H      3.872769   -0.625229    1.256593
  H     -5.051986    0.745375    0.302406
  H     -5.564751   -0.875434   -0.160722
  H     -4.810822    0.183879   -1.349781
  H     -0.030363    1.722364    0.751305
  H      0.231964    1.227423   -0.914648
  H     -3.185367   -1.549033   -0.523759
  H     -3.431941   -1.009179    1.120746
  H     -0.917566   -0.545349    1.307622
  H     -0.678207   -1.048957   -0.351592
  H     -2.280124    0.713817   -1.123199
  H     -2.508987    1.237280    0.530712

 Total Charge           Charge          ....    0
 Multiplicity           Mult            ....    1
 Number of Electrons    NEL             ....   70
 Basis Dimension        Dim             .... 1364

ORBITAL ENERGIES
----------------

  NO   OCC          E(Eh)            E(eV)
   0   2.0000     -20.545172      -559.0626
   1   2.0000     -11.326036      -308.1971
   2   2.0000     -11.269156      -306.6493
   3   2.0000     -11.244281      -305.9724
   4   2.0000     -11.239484      -305.8419
   5   2.0000     -11.235041      -305.7210
   6   2.0000     -11.227269      -305.5095
   7   2.0000     -11.225149      -305.4518
   8   2.0000     -11.216779      -305.2241
   9   2.0000      -1.382200       -37.6116
  10   2.0000      -1.121486       -30.5172
  11   2.0000      -1.081770       -29.4364
  12   2.0000      -1.026085       -27.9212
  13   2.0000      -0.950690       -25.8696
  14   2.0000      -0.865955       -23.5638
  15   2.0000      -0.813240       -22.1294
  16   2.0000      -0.801586       -21.8123
  17   2.0000      -0.780172       -21.2295
  18   2.0000      -0.683342       -18.5947
  19   2.0000      -0.655162       -17.8279
  20   2.0000      -0.647371       -17.6158
  21   2.0000      -0.608252       -16.5514
  22   2.0000      -0.605775       -16.4840
  23   2.0000      -0.579080       -15.7576
  24   2.0000      -0.572258       -15.5719
  25   2.0000      -0.551910       -15.0182
  26   2.0000      -0.536933       -14.6107
  27   2.0000      -0.530808       -14.4440
  28   2.0000      -0.512045       -13.9335
  29   2.0000      -0.493960       -13.4413
  30   2.0000      -0.478224       -13.0131
  31   2.0000      -0.474134       -12.9018
  32   2.0000      -0.471306       -12.8249
  33   2.0000      -0.421359       -11.4658
  34   2.0000      -0.379858       -10.3365
  35   0.0000       0.021120         0.5747
  36   0.0000       0.025300         0.6884
  37   0.0000       0.027555         0.7498
  38   0.0000       0.030510         0.8302
  39   0.0000       0.038802         1.0559

MULLIKEN ATOMIC CHARGES
-----------------------
   0 C :   -0.865229
   1 C :   -0.416499
   2 C :    0.405330
   3 C :   -0.910306
   4 C :   -0.316682
   5 C :   -0.489826
   6 C :   -0.277420
   7 C :   -0.223175
   8 O :   -0.761218
   9 H :    0.383947
  10 H :    0.344362
  11 H :    0.396311
  12 H :    0.228398
  13 H :    0.266460
  14 H :    0.227039
  15 H :    0.302062
  16 H :    0.246157
  17 H :    0.224774
  18 H :    0.223545
  19 H :    0.268897
  20 H :    0.259249
  21 H :    0.250334
  22 H :    0.233488
Sum of atomic charges:    0.0000000

LOEWDIN ATOMIC CHARGES
----------------------
   0 C :    0.341635
   1 C :    0.376274
   2 C :   -0.304846
   3 C :    0.928807
   4 C :    0.507432
   5 C :    0.511120
   6 C :    0.523331
   7 C :    0.513210
   8 O :    0.674240
   9 H :   -0.350537
  10 H :   -0.316527
  11 H :   -0.378717
  12 H :   -0.284591
  13 H :   -0.283783
  14 H :   -0.284469
  15 H :   -0.271834
  16 H :   -0.290897
  17 H :   -0.272302
  18 H :   -0.272328
  19 H :   -0.267636
  20 H :   -0.263067
  21 H :   -0.266741
  22 H :   -0.267775

  Mayer bond orders larger than 0.100000
B(  0-C ,  1-C ) :   1.5196 B(  0-C ,  2-C ) :   1.3604 B(  0-C ,  4-C ) :  -0.2858
B(  0-C ,  8-O ) :   0.1813 B(  0-C ,  9-H ) :   0.7829 B(  1-C ,  2-C ) :  -0.3350
B(  1-C ,  4-C ) :   1.1074 B(  1-C ,  6-C ) :  -0.2155 B(  1-C , 10-H ) :   0.8563
B(  2-C ,  8-O ) :   1.3882 B(  2-C , 11-H ) :   0.8348 B(  3-C ,  5-C ) :   1.0373
B(  3-C ,  7-C ) :  -0.1138 B(  3-C , 12-H ) :   0.9531 B(  3-C , 13-H ) :   1.0260
B(  3-C , 14-H ) :   0.9536 B(  4-C ,  6-C ) :   1.0740 B(  4-C , 15-H ) :   0.8023
B(  4-C , 16-H ) :   0.8875 B(  5-C ,  7-C ) :   0.9453 B(  5-C , 13-H ) :  -0.1008
B(  5-C , 17-H ) :   0.8844 B(  5-C , 18-H ) :   0.8832 B(  6-C ,  7-C ) :   1.0060
B(  6-C , 19-H ) :   0.8165 B(  6-C , 20-H ) :   0.8538 B(  7-C , 21-H ) :   0.8477
B(  7-C , 22-H ) :   0.8747

MP2 TOTAL ENERGY:     -387.797459618 Eh
FINAL SINGLE POINT ENERGY      -387.797459617690

DIPOLE MOMENT
-------------
                                X             Y             Z
Electronic contribution:     19.10010      -0.46114      -0.41677
Nuclear contribution   :    -20.87799       0.73787       1.07412
                        -----------------------------------------
Total Dipole Moment    :     -1.77788       0.27673       0.65735
                        -----------------------------------------
Magnitude (a.u.)       :      1.91561
Magnitude (Debye)      :      4.86909

Rotational constants in cm-1:     0.276103     0.012754     0.012635
Rotational constants in MHz :  8277.346713   382.346847   378.789250

                             ****ORCA TERMINATED NORMALLY****
TOTAL RUN TIME: 0 days 1 hours 38 minutes 52 seconds 590 msec
