                         Program Version 5.0.4 -  RELEASE  -
|  1> !ri-mp2 aug-cc-pvqz aug-cc-pvqz/c tightscf
|  2> %pal nprocs 16 end
|  3>
|  4> * xyz 0 1
|  5> C     -1.237894   -1.104197   -0.000349
|  6> C     -0.280575    0.059414   -0.004593
|  7> N     -0.872923    1.267541    0.000200
|  8> S      1.365722   -0.118344    0.000090
|  9> H     -1.971419   -1.006290   -0.804504
| 10> H     -0.698836   -2.036611   -0.119837
| 11> H     -1.784470   -1.132530    0.945767
| 12> H     -1.873504    1.369103   -0.005404
| 13> H     -0.302047    2.095742    0.010785
| 14> *
| 15>
| 16>                          ****END OF INPUT****

CARTESIAN COORDINATES (ANGSTROEM)
---------------------------------
  C     -1.237894   -1.104197   -0.000349
  C     -0.280575    0.059414   -0.004593
  N     -0.872923    1.267541    0.000200
  S      1.365722   -0.118344    0.000090
  H     -1.971419   -1.006290   -0.804504
  H     -0.698836   -2.036611   -0.119837
  H     -1.784470   -1.132530    0.945767
  H     -1.873504    1.369103   -0.005404
  H     -0.302047    2.095742    0.010785

 Total Charge           Charge          ....    0
 Multiplicity           Mult            ....    1
 Number of Electrons    NEL             ....   40
 Basis Dimension        Dim             ....  554

ORBITAL ENERGIES
----------------

  NO   OCC          E(Eh)            E(eV)
   0   2.0000     -91.896908     -2500.6420
   1   2.0000     -15.609221      -424.7485
   2   2.0000     -11.352996      -308.9307
   3   2.0000     -11.247932      -306.0718
   4   2.0000      -8.901119      -242.2118
   5   2.0000      -6.582705      -179.1245
   6   2.0000      -6.581330      -179.0871
   7   2.0000      -6.580487      -179.0641
   8   2.0000      -1.270662       -34.5765
   9   2.0000      -1.043612       -28.3981
  10   2.0000      -0.950367       -25.8608
  11   2.0000      -0.796369       -21.6703
  12   2.0000      -0.735243       -20.0070
  13   2.0000      -0.632558       -17.2128
  14   2.0000      -0.611954       -16.6521
  15   2.0000      -0.570411       -15.5217
  16   2.0000      -0.507881       -13.8201
  17   2.0000      -0.499333       -13.5875
  18   2.0000      -0.336902        -9.1676
  19   2.0000      -0.323983        -8.8160
  20   0.0000       0.016140         0.4392
  21   0.0000       0.032039         0.8718
  22   0.0000       0.036264         0.9868
  23   0.0000       0.042163         1.1473
  24   0.0000       0.057564         1.5664

MULLIKEN ATOMIC CHARGES
-----------------------
   0 C :   -0.689099
   1 C :   -0.040336
   2 N :   -0.553612
   3 S :   -0.180290
   4 H :    0.239654
   5 H :    0.342922
   6 H :    0.267436
   7 H :    0.328105
   8 H :    0.285221
Sum of atomic charges:    0.0000000

LOEWDIN ATOMIC CHARGES
----------------------
   0 C :    0.771931
   1 C :   -0.997047
   2 N :    1.142970
   3 S :    1.032482
   4 H :   -0.295120
   5 H :   -0.353401
   6 H :   -0.291762
   7 H :   -0.483654
   8 H :   -0.526398

  Mayer bond orders larger than 0.100000
B(  0-C ,  1-C ) :   0.8553 B(  0-C ,  4-H ) :   0.9580 B(  0-C ,  5-H ) :   0.9299
B(  0-C ,  6-H ) :   0.9200 B(  1-C ,  2-N ) :   1.1153 B(  1-C ,  3-S ) :   1.4915
B(  2-N ,  7-H ) :   0.9005 B(  2-N ,  8-H ) :   0.9351

MP2 TOTAL ENERGY:     -531.485744850 Eh
FINAL SINGLE POINT ENERGY      -531.485744850048

DIPOLE MOMENT
-------------
                                X             Y             Z
Electronic contribution:      4.77632       1.21013      -0.02004
Nuclear contribution   :     -6.67700      -0.69944       0.02680
                        -----------------------------------------
Total Dipole Moment    :     -1.90069       0.51070       0.00677
                        -----------------------------------------
Magnitude (a.u.)       :      1.96811
Magnitude (Debye)      :      5.00254

Rotational constants in cm-1:     0.324743     0.165015     0.111691
Rotational constants in MHz :  9735.544947  4947.029251  3348.411278

                             ****ORCA TERMINATED NORMALLY****
TOTAL RUN TIME: 0 days 0 hours 5 minutes 43 seconds 619 msec
