                         Program Version 5.0.4 -  RELEASE  -
|  1> !ri-mp2 aug-cc-pvqz aug-cc-pvqz/c tightscf
|  2> %pal nprocs 16 end
|  3>
|  4> * xyz 0 1
|  5> C     -0.721786    0.465243    0.000043
|  6> O      0.102893   -0.724419   -0.000006
|  7> C     -2.163450    0.006048    0.000234
|  8> H     -0.479504    1.060827    0.881644
|  9> H     -0.479710    1.060747   -0.881667
| 10> N      1.487781   -0.524975   -0.000126
| 11> O      1.827924    0.603525   -0.000194
| 12> H     -2.384003   -0.591203   -0.883644
| 13> H     -2.822542    0.874902    0.000221
| 14> H     -2.383821   -0.591040    0.884268
| 15> *
| 16>
| 17>                          ****END OF INPUT****

CARTESIAN COORDINATES (ANGSTROEM)
---------------------------------
  C     -0.721786    0.465243    0.000043
  O      0.102893   -0.724419   -0.000006
  C     -2.163450    0.006048    0.000234
  H     -0.479504    1.060827    0.881644
  H     -0.479710    1.060747   -0.881667
  N      1.487781   -0.524975   -0.000126
  O      1.827924    0.603525   -0.000194
  H     -2.384003   -0.591203   -0.883644
  H     -2.822542    0.874902    0.000221
  H     -2.383821   -0.591040    0.884268

 Total Charge           Charge          ....    0
 Multiplicity           Mult            ....    1
 Number of Electrons    NEL             ....   40
 Basis Dimension        Dim             ....  630

ORBITAL ENERGIES
----------------

  NO   OCC          E(Eh)            E(eV)
   0   2.0000     -20.646099      -561.8089
   1   2.0000     -20.625802      -561.2566
   2   2.0000     -15.781087      -429.4252
   3   2.0000     -11.296921      -307.4049
   4   2.0000     -11.232172      -305.6429
   5   2.0000      -1.593968       -43.3741
   6   2.0000      -1.395678       -37.9783
   7   2.0000      -1.061020       -28.8718
   8   2.0000      -0.938195       -25.5296
   9   2.0000      -0.842009       -22.9122
  10   2.0000      -0.760407       -20.6917
  11   2.0000      -0.713786       -19.4231
  12   2.0000      -0.705438       -19.1959
  13   2.0000      -0.625738       -17.0272
  14   2.0000      -0.580790       -15.8041
  15   2.0000      -0.565845       -15.3974
  16   2.0000      -0.537359       -14.6223
  17   2.0000      -0.526208       -14.3188
  18   2.0000      -0.477002       -12.9799
  19   2.0000      -0.450440       -12.2571
  20   0.0000       0.025295         0.6883
  21   0.0000       0.035865         0.9759
  22   0.0000       0.035989         0.9793
  23   0.0000       0.044300         1.2055
  24   0.0000       0.058655         1.5961

MULLIKEN ATOMIC CHARGES
-----------------------
   0 C :    0.023194
   1 O :   -0.525124
   2 C :   -0.827567
   3 H :    0.266427
   4 H :    0.266429
   5 N :    0.414333
   6 O :   -0.428749
   7 H :    0.267027
   8 H :    0.277007
   9 H :    0.267023
Sum of atomic charges:   -0.0000000

LOEWDIN ATOMIC CHARGES
----------------------
   0 C :    0.059382
   1 O :    0.549517
   2 C :    0.894120
   3 H :   -0.333738
   4 H :   -0.333734
   5 N :   -0.335162
   6 O :    0.381102
   7 H :   -0.294478
   8 H :   -0.292533
   9 H :   -0.294476

  Mayer bond orders larger than 0.100000
B(  0-C ,  1-O ) :   0.6591 B(  0-C ,  2-C ) :   1.0086 B(  0-C ,  3-H ) :   0.8720
B(  0-C ,  4-H ) :   0.8720 B(  1-O ,  5-N ) :   0.9195 B(  2-C ,  7-H ) :   0.9147
B(  2-C ,  8-H ) :   0.9514 B(  2-C ,  9-H ) :   0.9147 B(  5-N ,  6-O ) :   1.8315

MP2 TOTAL ENERGY:     -283.940365892 Eh
FINAL SINGLE POINT ENERGY      -283.940365892093

DIPOLE MOMENT
-------------
                                X             Y             Z
Electronic contribution:      7.70673      -1.41510      -0.00075
Nuclear contribution   :     -8.51675       1.81059       0.00082
                        -----------------------------------------
Total Dipole Moment    :     -0.81002       0.39550       0.00007
                        -----------------------------------------
Magnitude (a.u.)       :      0.90142
Magnitude (Debye)      :      2.29122

Rotational constants in cm-1:     0.612499     0.099601     0.088496
Rotational constants in MHz : 18362.268563  2985.955886  2653.046905

                             ****ORCA TERMINATED NORMALLY****
TOTAL RUN TIME: 0 days 0 hours 8 minutes 20 seconds 111 msec
