                         Program Version 5.0.4 -  RELEASE  -
|  1> !ri-mp2 aug-cc-pvqz aug-cc-pvqz/c tightscf
|  2> %pal nprocs 16 end
|  3>
|  4> * xyz 0 1
|  5> O      0.000000    0.875253    0.000000
|  6> H     -1.597409   -0.112403    0.885605
|  7> H     -1.597409   -0.112403   -0.885605
|  8> C     -1.403897    0.489442    0.000000
|  9> H     -1.992692    2.365984    0.884747
| 10> H     -3.270428    1.523039    0.000000
| 11> H     -1.992692    2.365984   -0.884747
| 12> C     -2.208098    1.768537    0.000000
| 13> O      2.148853    0.326496    0.000000
| 14> Cl     0.523259   -1.724654    0.000000
| 15> C      1.006061    0.021175    0.000000
| 16> *
| 17>
| 18>                          ****END OF INPUT****

CARTESIAN COORDINATES (ANGSTROEM)
---------------------------------
  O      0.000000    0.875253    0.000000
  H     -1.597409   -0.112403    0.885605
  H     -1.597409   -0.112403   -0.885605
  C     -1.403897    0.489442    0.000000
  H     -1.992692    2.365984    0.884747
  H     -3.270428    1.523039    0.000000
  H     -1.992692    2.365984   -0.884747
  C     -2.208098    1.768537    0.000000
  O      2.148853    0.326496    0.000000
  Cl     0.523259   -1.724654    0.000000
  C      1.006061    0.021175    0.000000

 Total Charge           Charge          ....    0
 Multiplicity           Mult            ....    1
 Number of Electrons    NEL             ....   56
 Basis Dimension        Dim             ....  714

ORBITAL ENERGIES
----------------

  NO   OCC          E(Eh)            E(eV)
   0   2.0000    -104.860273     -2853.3931
   1   2.0000     -20.633869      -561.4761
   2   2.0000     -20.574591      -559.8631
   3   2.0000     -11.454214      -311.6850
   4   2.0000     -11.319241      -308.0122
   5   2.0000     -11.242099      -305.9131
   6   2.0000     -10.585798      -288.0542
   7   2.0000      -8.052691      -219.1249
   8   2.0000      -8.051029      -219.0796
   9   2.0000      -8.050972      -219.0781
  10   2.0000      -1.496333       -40.7173
  11   2.0000      -1.405221       -38.2380
  12   2.0000      -1.132088       -30.8057
  13   2.0000      -1.067914       -29.0594
  14   2.0000      -0.902801       -24.5665
  15   2.0000      -0.812373       -22.1058
  16   2.0000      -0.722668       -19.6648
  17   2.0000      -0.713690       -19.4205
  18   2.0000      -0.694741       -18.9049
  19   2.0000      -0.625601       -17.0235
  20   2.0000      -0.593508       -16.1502
  21   2.0000      -0.574735       -15.6393
  22   2.0000      -0.544947       -14.8288
  23   2.0000      -0.536897       -14.6097
  24   2.0000      -0.497052       -13.5255
  25   2.0000      -0.493311       -13.4237
  26   2.0000      -0.470240       -12.7959
  27   2.0000      -0.462696       -12.5906
  28   0.0000       0.020631         0.5614
  29   0.0000       0.033117         0.9012
  30   0.0000       0.033349         0.9075
  31   0.0000       0.040999         1.1156
  32   0.0000       0.056136         1.5275

MULLIKEN ATOMIC CHARGES
-----------------------
   0 O :   -0.692366
   1 H :    0.296378
   2 H :    0.296378
   3 C :   -0.018432
   4 H :    0.272997
   5 H :    0.271775
   6 H :    0.272997
   7 C :   -0.835677
   8 O :   -0.621502
   9 Cl:   -0.137171
  10 C :    0.894623
Sum of atomic charges:   -0.0000000

LOEWDIN ATOMIC CHARGES
----------------------
   0 O :    0.730560
   1 H :   -0.340406
   2 H :   -0.340406
   3 C :    0.106798
   4 H :   -0.287911
   5 H :   -0.288153
   6 H :   -0.287911
   7 C :    0.914087
   8 O :    0.516384
   9 Cl:    1.052361
  10 C :   -1.775402

  Mayer bond orders larger than 0.100000
B(  0-O ,  3-C ) :   0.7010 B(  0-O , 10-C ) :   1.1648 B(  1-H ,  3-C ) :   0.8676
B(  2-H ,  3-C ) :   0.8676 B(  3-C ,  7-C ) :   0.9649 B(  4-H ,  7-C ) :   0.9154
B(  5-H ,  7-C ) :   0.9694 B(  6-H ,  7-C ) :   0.9154 B(  8-O , 10-C ) :   1.6793
B(  9-Cl, 10-C ) :   0.9497

MP2 TOTAL ENERGY:     -727.141091176 Eh
FINAL SINGLE POINT ENERGY      -727.141091176173

DIPOLE MOMENT
-------------
                                X             Y             Z
Electronic contribution:      9.08255      -8.22560      -0.00000
Nuclear contribution   :    -10.82050       8.25349       0.00000
                        -----------------------------------------
Total Dipole Moment    :     -1.73795       0.02789      -0.00000
                        -----------------------------------------
Magnitude (a.u.)       :      1.73817
Magnitude (Debye)      :      4.41809

Rotational constants in cm-1:     0.168722     0.060200     0.045119
Rotational constants in MHz :  5058.149373  1804.740297  1352.640490

                             ****ORCA TERMINATED NORMALLY****
TOTAL RUN TIME: 0 days 0 hours 19 minutes 36 seconds 674 msec
