                         Program Version 5.0.4 -  RELEASE  -
|  1> !ri-mp2 aug-cc-pvqz aug-cc-pvqz/c tightscf
|  2> %pal nprocs 16 end
|  3>
|  4> * xyz 0 1
|  5> C    -0.332378     0.570025       0.000000
|  6> C     0.332378    -0.570025       0.000000
|  7> F     0.332378     1.740937       0.000000
|  8> F    -0.332378    -1.740937       0.000000
|  9> H    -1.407427     0.668528       0.000000
| 10> H     1.407427    -0.668528       0.000000
| 11> *
| 12>
| 13>                          ****END OF INPUT****

CARTESIAN COORDINATES (ANGSTROEM)
---------------------------------
  C     -0.332378    0.570025    0.000000
  C      0.332378   -0.570025    0.000000
  F      0.332378    1.740937    0.000000
  F     -0.332378   -1.740937    0.000000
  H     -1.407427    0.668528    0.000000
  H      1.407427   -0.668528    0.000000

 Total Charge           Charge          ....    0
 Multiplicity           Mult            ....    1
 Number of Electrons    NEL             ....   32
 Basis Dimension        Dim             ....  412

ORBITAL ENERGIES
----------------

  NO   OCC          E(Eh)            E(eV)
   0   2.0000     -26.320836      -716.2264
   1   2.0000     -26.320834      -716.2263
   2   2.0000     -11.335599      -308.4573
   3   2.0000     -11.333751      -308.4070
   4   2.0000      -1.639614       -44.6162
   5   2.0000      -1.634824       -44.4858
   6   2.0000      -1.066494       -29.0208
   7   2.0000      -0.863468       -23.4961
   8   2.0000      -0.768893       -20.9226
   9   2.0000      -0.763148       -20.7663
  10   2.0000      -0.714445       -19.4410
  11   2.0000      -0.694238       -18.8912
  12   2.0000      -0.691292       -18.8110
  13   2.0000      -0.638040       -17.3619
  14   2.0000      -0.573962       -15.6183
  15   2.0000      -0.392632       -10.6841
  16   0.0000       0.028669         0.7801
  17   0.0000       0.033553         0.9130
  18   0.0000       0.056097         1.5265
  19   0.0000       0.073347         1.9959
  20   0.0000       0.083132         2.2621

MULLIKEN ATOMIC CHARGES
-----------------------
   0 C :    0.023157
   1 C :    0.023157
   2 F :   -0.610959
   3 F :   -0.610959
   4 H :    0.587802
   5 H :    0.587802
Sum of atomic charges:   -0.0000000

LOEWDIN ATOMIC CHARGES
----------------------
   0 C :   -0.296972
   1 C :   -0.296972
   2 F :    0.714072
   3 F :    0.714072
   4 H :   -0.417101
   5 H :   -0.417101

  Mayer bond orders larger than 0.100000
B(  0-C ,  1-C ) :   2.0348 B(  0-C ,  2-F ) :   0.6761 B(  0-C ,  4-H ) :   0.6242
B(  1-C ,  3-F ) :   0.6761 B(  1-C ,  5-H ) :   0.6242

MP2 TOTAL ENERGY:     -276.745814648 Eh
FINAL SINGLE POINT ENERGY      -276.745814647776

DIPOLE MOMENT
-------------
                                X             Y             Z
Electronic contribution:     -0.00000       0.00000       0.00000
Nuclear contribution   :      0.00000       0.00000       0.00000
                        -----------------------------------------
Total Dipole Moment    :     -0.00000       0.00000       0.00000
                        -----------------------------------------
Magnitude (a.u.)       :      0.00000
Magnitude (Debye)      :      0.00000

Rotational constants in cm-1:     1.927120     0.133829     0.125138
Rotational constants in MHz : 57773.615184  4012.084347  3751.557705

                             ****ORCA TERMINATED NORMALLY****
TOTAL RUN TIME: 0 days 0 hours 2 minutes 24 seconds 917 msec
