                         Program Version 5.0.4 -  RELEASE  -
|  1> !ri-mp2 aug-cc-pvqz aug-cc-pvqz/c tightscf
|  2> %pal nprocs 16 end
|  3>
|  4> * xyz 0 1
|  5> H      2.655683    0.401193    0.000000
|  6> H      2.622682   -1.138527    0.875361
|  7> H      2.622682   -1.138527   -0.875361
|  8> C      2.242257   -0.606309    0.000000
|  9> H      0.256482   -1.562903    0.000000
| 10> C      0.752473   -0.598413    0.000000
| 11> H      0.451575    1.489847    0.000000
| 12> C      0.000000    0.504802    0.000000
| 13> N     -2.576635    0.473241    0.000000
| 14> C     -1.423506    0.472625    0.000000
| 15> *
| 16>
| 17>                          ****END OF INPUT****

CARTESIAN COORDINATES (ANGSTROEM)
---------------------------------
  H      2.655683    0.401193    0.000000
  H      2.622682   -1.138527    0.875361
  H      2.622682   -1.138527   -0.875361
  C      2.242257   -0.606309    0.000000
  H      0.256482   -1.562903    0.000000
  C      0.752473   -0.598413    0.000000
  H      0.451575    1.489847    0.000000
  C      0.000000    0.504802    0.000000
  N     -2.576635    0.473241    0.000000
  C     -1.423506    0.472625    0.000000

 Total Charge           Charge          ....    0
 Multiplicity           Mult            ....    1
 Number of Electrons    NEL             ....   36
 Basis Dimension        Dim             ....  630

ORBITAL ENERGIES
----------------

  NO   OCC          E(Eh)            E(eV)
   0   2.0000     -15.565675      -423.5635
   1   2.0000     -11.285235      -307.0868
   2   2.0000     -11.276194      -306.8408
   3   2.0000     -11.271528      -306.7139
   4   2.0000     -11.252074      -306.1845
   5   2.0000      -1.218969       -33.1698
   6   2.0000      -1.118440       -30.4343
   7   2.0000      -0.994471       -27.0609
   8   2.0000      -0.834317       -22.7029
   9   2.0000      -0.733792       -19.9675
  10   2.0000      -0.641639       -17.4599
  11   2.0000      -0.600616       -16.3436
  12   2.0000      -0.584239       -15.8980
  13   2.0000      -0.553495       -15.0614
  14   2.0000      -0.541225       -14.7275
  15   2.0000      -0.510727       -13.8976
  16   2.0000      -0.464430       -12.6378
  17   2.0000      -0.381469       -10.3803
  18   0.0000       0.018441         0.5018
  19   0.0000       0.028937         0.7874
  20   0.0000       0.035486         0.9656
  21   0.0000       0.036446         0.9917
  22   0.0000       0.052394         1.4257

MULLIKEN ATOMIC CHARGES
-----------------------
   0 H :    0.261404
   1 H :    0.244416
   2 H :    0.244416
   3 C :   -0.673845
   4 H :    0.431545
   5 C :   -0.238286
   6 H :    0.465252
   7 C :   -0.609199
   8 N :   -0.689960
   9 C :    0.564255
Sum of atomic charges:   -0.0000000

LOEWDIN ATOMIC CHARGES
----------------------
   0 H :   -0.308837
   1 H :   -0.288485
   2 H :   -0.288485
   3 C :    0.905789
   4 H :   -0.315492
   5 C :    0.353855
   6 H :   -0.367181
   7 C :    0.258003
   8 N :    0.387421
   9 C :   -0.336587

  Mayer bond orders larger than 0.100000
B(  0-H ,  3-C ) :   0.9390 B(  1-H ,  3-C ) :   0.9707 B(  2-H ,  3-C ) :   0.9707
B(  3-C ,  5-C ) :   0.8526 B(  4-H ,  5-C ) :   0.7583 B(  5-C ,  7-C ) :   1.5532
B(  5-C ,  9-C ) :  -0.2444 B(  6-H ,  7-C ) :   0.7264 B(  7-C ,  9-C ) :   1.3697
B(  8-N ,  9-C ) :   2.4761

MP2 TOTAL ENERGY:     -209.782580158 Eh
FINAL SINGLE POINT ENERGY      -209.782580158108

DIPOLE MOMENT
-------------
                                X             Y             Z
Electronic contribution:     -6.65310       1.64201      -0.00000
Nuclear contribution   :      8.66054      -1.96121       0.00000
                        -----------------------------------------
Total Dipole Moment    :      2.00744      -0.31920      -0.00000
                        -----------------------------------------
Magnitude (a.u.)       :      2.03266
Magnitude (Debye)      :      5.16661

Rotational constants in cm-1:     1.303389     0.076677     0.073391
Rotational constants in MHz : 39074.619986  2298.710543  2200.194675

                             ****ORCA TERMINATED NORMALLY****
TOTAL RUN TIME: 0 days 0 hours 7 minutes 15 seconds 10 msec
