                         Program Version 5.0.4 -  RELEASE  -
|  1> !ri-mp2 aug-cc-pvqz aug-cc-pvqz/c tightscf
|  2> %pal nprocs 16 end
|  3>
|  4> * xyz 0 1
|  5> Cl     2.462394   -0.834112    0.000000
|  6> Cl    -2.210865    1.860330    0.000000
|  7> O      0.141352   -2.060501    0.000000
|  8> C      0.651704   -0.988993    0.000000
|  9> C      0.000000    0.327350    0.000000
| 10> C     -1.330710    0.383125    0.000000
| 11> H      0.617498    1.210825    0.000000
| 12> H     -1.950271   -0.501414    0.000000
| 13> *
| 14>
| 15>                          ****END OF INPUT****

CARTESIAN COORDINATES (ANGSTROEM)
---------------------------------
  Cl     2.462394   -0.834112    0.000000
  Cl    -2.210865    1.860330    0.000000
  O      0.141352   -2.060501    0.000000
  C      0.651704   -0.988993    0.000000
  C      0.000000    0.327350    0.000000
  C     -1.330710    0.383125    0.000000
  H      0.617498    1.210825    0.000000
  H     -1.950271   -0.501414    0.000000

 Total Charge           Charge          ....    0
 Multiplicity           Mult            ....    1
 Number of Electrons    NEL             ....   62
 Basis Dimension        Dim             ....  580

ORBITAL ENERGIES
----------------

  NO   OCC          E(Eh)            E(eV)
   0   2.0000    -104.877943     -2853.8739
   1   2.0000    -104.852047     -2853.1693
   2   2.0000     -20.595909      -560.4432
   3   2.0000     -11.422103      -310.8112
   4   2.0000     -11.352223      -308.9097
   5   2.0000     -11.285367      -307.0904
   6   2.0000     -10.603131      -288.5259
   7   2.0000     -10.577651      -287.8325
   8   2.0000      -8.070267      -219.6031
   9   2.0000      -8.068439      -219.5534
  10   2.0000      -8.068341      -219.5507
  11   2.0000      -8.044481      -218.9014
  12   2.0000      -8.042932      -218.8593
  13   2.0000      -8.042831      -218.8566
  14   2.0000      -1.453939       -39.5637
  15   2.0000      -1.201507       -32.6947
  16   2.0000      -1.137065       -30.9411
  17   2.0000      -1.070847       -29.1392
  18   2.0000      -0.879907       -23.9435
  19   2.0000      -0.783367       -21.3165
  20   2.0000      -0.713841       -19.4246
  21   2.0000      -0.689773       -18.7697
  22   2.0000      -0.629132       -17.1195
  23   2.0000      -0.615982       -16.7617
  24   2.0000      -0.595220       -16.1968
  25   2.0000      -0.542640       -14.7660
  26   2.0000      -0.494665       -13.4605
  27   2.0000      -0.474513       -12.9122
  28   2.0000      -0.472377       -12.8540
  29   2.0000      -0.459999       -12.5172
  30   2.0000      -0.407297       -11.0831
  31   0.0000       0.026793         0.7291
  32   0.0000       0.034076         0.9273
  33   0.0000       0.038507         1.0478
  34   0.0000       0.049768         1.3543
  35   0.0000       0.065298         1.7769

MULLIKEN ATOMIC CHARGES
-----------------------
   0 Cl:   -0.206968
   1 Cl:   -0.137824
   2 O :   -0.597892
   3 C :    0.555967
   4 C :   -0.345357
   5 C :   -0.342932
   6 H :    0.555349
   7 H :    0.519657
Sum of atomic charges:   -0.0000000

LOEWDIN ATOMIC CHARGES
----------------------
   0 Cl:    1.018457
   1 Cl:    1.185030
   2 O :    0.586515
   3 C :   -1.437742
   4 C :    0.007579
   5 C :   -0.446423
   6 H :   -0.446705
   7 H :   -0.466711

  Mayer bond orders larger than 0.100000
B(  0-Cl,  3-C ) :   1.0229 B(  1-Cl,  4-C ) :  -0.1194 B(  1-Cl,  5-C ) :   0.9904
B(  2-O ,  3-C ) :   1.5770 B(  3-C ,  4-C ) :   0.9200 B(  4-C ,  5-C ) :   1.5764
B(  4-C ,  6-H ) :   0.7181 B(  5-C ,  7-H ) :   0.6516

MP2 TOTAL ENERGY:    -1109.908288323 Eh
FINAL SINGLE POINT ENERGY     -1109.908288322712

DIPOLE MOMENT
-------------
                                X             Y             Z
Electronic contribution:      1.10966       1.52907       0.00000
Nuclear contribution   :     -1.57522      -0.73733       0.00000
                        -----------------------------------------
Total Dipole Moment    :     -0.46557       0.79175       0.00000
                        -----------------------------------------
Magnitude (a.u.)       :      0.91849
Magnitude (Debye)      :      2.33461

Rotational constants in cm-1:     0.233806     0.029122     0.025897
Rotational constants in MHz :  7009.337783   873.067131   776.364890

                             ****ORCA TERMINATED NORMALLY****
TOTAL RUN TIME: 0 days 0 hours 10 minutes 50 seconds 183 msec
