                         Program Version 5.0.4 -  RELEASE  -
|  1> !ri-mp2 aug-cc-pvqz aug-cc-pvqz/c tightscf
|  2> %pal nprocs 16 end
|  3>
|  4> * xyz 0 1
|  5> S     -0.485479    1.616939   -0.499622
|  6> S      0.485479   -1.616939   -0.499622
|  7> N      0.485479    4.238358    0.048550
|  8> N     -0.485479   -4.238358    0.048550
|  9> C      0.219813    0.726015    0.967138
| 10> C     -0.219813   -0.726015    0.967138
| 11> C      0.100064    3.168473   -0.157999
| 12> C     -0.100064   -3.168473   -0.157999
| 13> H     -0.158457    1.213127    1.862783
| 14> H      1.302444    0.822259    0.936478
| 15> H     -1.302444   -0.822259    0.936478
| 16> H      0.158457   -1.213127    1.862783
| 17> *
| 18>
| 19>                          ****END OF INPUT****

CARTESIAN COORDINATES (ANGSTROEM)
---------------------------------
  S     -0.485479    1.616939   -0.499622
  S      0.485479   -1.616939   -0.499622
  N      0.485479    4.238358    0.048550
  N     -0.485479   -4.238358    0.048550
  C      0.219813    0.726015    0.967138
  C     -0.219813   -0.726015    0.967138
  C      0.100064    3.168473   -0.157999
  C     -0.100064   -3.168473   -0.157999
  H     -0.158457    1.213127    1.862783
  H      1.302444    0.822259    0.936478
  H     -1.302444   -0.822259    0.936478
  H      0.158457   -1.213127    1.862783

 Total Charge           Charge          ....    0
 Multiplicity           Mult            ....    1
 Number of Electrons    NEL             ....   74
 Basis Dimension        Dim             ....  832

ORBITAL ENERGIES
----------------

  NO   OCC          E(Eh)            E(eV)
   0   2.0000     -92.034081     -2504.3747
   1   2.0000     -92.034081     -2504.3747
   2   2.0000     -15.595767      -424.3824
   3   2.0000     -15.595767      -424.3824
   4   2.0000     -11.328607      -308.2671
   5   2.0000     -11.327964      -308.2496
   6   2.0000     -11.309689      -307.7523
   7   2.0000     -11.309689      -307.7523
   8   2.0000      -9.034954      -245.8536
   9   2.0000      -9.034953      -245.8536
  10   2.0000      -6.716660      -182.7696
  11   2.0000      -6.716660      -182.7696
  12   2.0000      -6.715219      -182.7304
  13   2.0000      -6.715218      -182.7304
  14   2.0000      -6.714342      -182.7065
  15   2.0000      -6.714342      -182.7065
  16   2.0000      -1.245294       -33.8862
  17   2.0000      -1.244345       -33.8604
  18   2.0000      -1.159636       -31.5553
  19   2.0000      -1.082983       -29.4695
  20   2.0000      -1.004635       -27.3375
  21   2.0000      -0.879711       -23.9382
  22   2.0000      -0.732720       -19.9383
  23   2.0000      -0.718083       -19.5400
  24   2.0000      -0.655332       -17.8325
  25   2.0000      -0.628879       -17.1127
  26   2.0000      -0.615286       -16.7428
  27   2.0000      -0.576972       -15.7002
  28   2.0000      -0.574835       -15.6421
  29   2.0000      -0.552900       -15.0452
  30   2.0000      -0.548484       -14.9250
  31   2.0000      -0.533672       -14.5220
  32   2.0000      -0.532539       -14.4911
  33   2.0000      -0.472459       -12.8563
  34   2.0000      -0.466297       -12.6886
  35   2.0000      -0.409069       -11.1313
  36   2.0000      -0.396048       -10.7770
  37   0.0000       0.015054         0.4096
  38   0.0000       0.028218         0.7679
  39   0.0000       0.033672         0.9163
  40   0.0000       0.037754         1.0273
  41   0.0000       0.050763         1.3813

MULLIKEN ATOMIC CHARGES
-----------------------
   0 S :    0.496788
   1 S :    0.496788
   2 N :   -0.516047
   3 N :   -0.516051
   4 C :   -0.382698
   5 C :   -0.382696
   6 C :   -0.188437
   7 C :   -0.188433
   8 H :    0.303002
   9 H :    0.287390
  10 H :    0.287390
  11 H :    0.303002
Sum of atomic charges:   -0.0000000

LOEWDIN ATOMIC CHARGES
----------------------
   0 S :    1.204417
   1 S :    1.204417
   2 N :    0.277096
   3 N :    0.277096
   4 C :    0.085644
   5 C :    0.085644
   6 C :   -0.855301
   7 C :   -0.855301
   8 H :   -0.350529
   9 H :   -0.361327
  10 H :   -0.361327
  11 H :   -0.350529

  Mayer bond orders larger than 0.100000
B(  0-S ,  4-C ) :   0.8426 B(  0-S ,  6-C ) :   0.9100 B(  1-S ,  5-C ) :   0.8426
B(  1-S ,  7-C ) :   0.9100 B(  2-N ,  6-C ) :   2.5785 B(  3-N ,  7-C ) :   2.5785
B(  4-C ,  5-C ) :   1.0342 B(  4-C ,  6-C ) :  -0.1042 B(  4-C ,  8-H ) :   0.8855
B(  4-C ,  9-H ) :   0.8726 B(  5-C ,  7-C ) :  -0.1042 B(  5-C , 10-H ) :   0.8726
B(  5-C , 11-H ) :   0.8855

MP2 TOTAL ENERGY:    -1059.331308008 Eh
FINAL SINGLE POINT ENERGY     -1059.331308008411

DIPOLE MOMENT
-------------
                                X             Y             Z
Electronic contribution:     -0.00000       0.00000      -4.72177
Nuclear contribution   :     -0.00000       0.00000       5.42565
                        -----------------------------------------
Total Dipole Moment    :     -0.00000       0.00000       0.70388
                        -----------------------------------------
Magnitude (a.u.)       :      0.70388
Magnitude (Debye)      :      1.78912

Rotational constants in cm-1:     0.228402     0.017641     0.017251
Rotational constants in MHz :  6847.320561   528.851772   517.179693

                             ****ORCA TERMINATED NORMALLY****
TOTAL RUN TIME: 0 days 0 hours 19 minutes 14 seconds 580 msec
