                         Program Version 5.0.4 -  RELEASE  -
|  1> !ri-mp2 aug-cc-pvqz aug-cc-pvqz/c tightscf
|  2> %pal nprocs 16 end
|  3>
|  4> * xyz 0 1
|  5> C     -2.624091   -0.223414    0.002412
|  6> H     -2.704638   -0.964618    0.799272
|  7> H     -3.440588    0.487321    0.123953
|  8> H     -2.754705   -0.730974   -0.953978
|  9> C     -1.283867    0.494871    0.060801
| 10> H     -1.250407    1.248579   -0.732964
| 11> H     -1.188350    1.024473    1.014316
| 12> N     -0.191108   -0.449863   -0.112715
| 13> H     -0.395796   -1.431081   -0.024719
| 14> N      1.480161    1.166240    0.046537
| 15> H      2.460546    1.348304   -0.083400
| 16> H      0.852393    1.859667   -0.321530
| 17> C      1.149206   -0.174524   -0.013340
| 18> O      1.993836   -1.054739    0.042882
| 19> *
| 20>
| 21>                          ****END OF INPUT****

CARTESIAN COORDINATES (ANGSTROEM)
---------------------------------
  C     -2.624091   -0.223414    0.002412
  H     -2.704638   -0.964618    0.799272
  H     -3.440588    0.487321    0.123953
  H     -2.754705   -0.730974   -0.953978
  C     -1.283867    0.494871    0.060801
  H     -1.250407    1.248579   -0.732964
  H     -1.188350    1.024473    1.014316
  N     -0.191108   -0.449863   -0.112715
  H     -0.395796   -1.431081   -0.024719
  N      1.480161    1.166240    0.046537
  H      2.460546    1.348304   -0.083400
  H      0.852393    1.859667   -0.321530
  C      1.149206   -0.174524   -0.013340
  O      1.993836   -1.054739    0.042882

 Total Charge           Charge          ....    0
 Multiplicity           Mult            ....    1
 Number of Electrons    NEL             ....   48
 Basis Dimension        Dim             ....  848

ORBITAL ENERGIES
----------------

  NO   OCC          E(Eh)            E(eV)
   0   2.0000     -20.498687      -557.7976
   1   2.0000     -15.576788      -423.8660
   2   2.0000     -15.575294      -423.8253
   3   2.0000     -11.369849      -309.3893
   4   2.0000     -11.280036      -306.9454
   5   2.0000     -11.236244      -305.7537
   6   2.0000      -1.382169       -37.6107
   7   2.0000      -1.239651       -33.7326
   8   2.0000      -1.188096       -32.3297
   9   2.0000      -1.031651       -28.0726
  10   2.0000      -0.873469       -23.7683
  11   2.0000      -0.818250       -22.2657
  12   2.0000      -0.738005       -20.0822
  13   2.0000      -0.681678       -18.5494
  14   2.0000      -0.660681       -17.9780
  15   2.0000      -0.632549       -17.2125
  16   2.0000      -0.599828       -16.3221
  17   2.0000      -0.585130       -15.9222
  18   2.0000      -0.554775       -15.0962
  19   2.0000      -0.531740       -14.4694
  20   2.0000      -0.523620       -14.2484
  21   2.0000      -0.434208       -11.8154
  22   2.0000      -0.421611       -11.4726
  23   2.0000      -0.391596       -10.6559
  24   0.0000       0.018946         0.5155
  25   0.0000       0.027286         0.7425
  26   0.0000       0.033940         0.9236
  27   0.0000       0.035804         0.9743
  28   0.0000       0.047527         1.2933

MULLIKEN ATOMIC CHARGES
-----------------------
   0 C :   -0.858912
   1 H :    0.232513
   2 H :    0.284029
   3 H :    0.238808
   4 C :   -0.206428
   5 H :    0.225421
   6 H :    0.294055
   7 N :   -0.601748
   8 H :    0.207426
   9 N :   -0.699285
  10 H :    0.203571
  11 H :    0.330433
  12 C :    1.154709
  13 O :   -0.804593
Sum of atomic charges:    0.0000000

LOEWDIN ATOMIC CHARGES
----------------------
   0 C :    0.931184
   1 H :   -0.280023
   2 H :   -0.281179
   3 H :   -0.279164
   4 C :    0.350292
   5 H :   -0.289628
   6 H :   -0.275330
   7 N :    0.823423
   8 H :   -0.536078
   9 N :    1.238422
  10 H :   -0.516444
  11 H :   -0.535313
  12 C :   -1.010657
  13 O :    0.660493

  Mayer bond orders larger than 0.100000
B(  0-C ,  1-H ) :   0.9539 B(  0-C ,  2-H ) :   0.9905 B(  0-C ,  3-H ) :   0.9447
B(  0-C ,  4-C ) :   0.9360 B(  4-C ,  5-H ) :   0.9397 B(  4-C ,  6-H ) :   0.8790
B(  4-C ,  7-N ) :   0.7568 B(  7-N ,  8-H ) :   1.0231 B(  7-N , 12-C ) :   1.2035
B(  7-N , 13-O ) :   0.1642 B(  9-N , 10-H ) :   1.0066 B(  9-N , 11-H ) :   0.8485
B(  9-N , 12-C ) :   1.1258 B(  9-N , 13-O ) :   0.1124 B( 12-C , 13-O ) :   1.3366

MP2 TOTAL ENERGY:     -303.437551574 Eh
FINAL SINGLE POINT ENERGY      -303.437551573842

DIPOLE MOMENT
-------------
                                X             Y             Z
Electronic contribution:      7.13728      -1.67952      -0.03851
Nuclear contribution   :     -8.57639       2.89467      -0.18290
                        -----------------------------------------
Total Dipole Moment    :     -1.43911       1.21515      -0.22141
                        -----------------------------------------
Magnitude (a.u.)       :      1.89649
Magnitude (Debye)      :      4.82049

Rotational constants in cm-1:     0.287509     0.066626     0.055350
Rotational constants in MHz :  8619.295585  1997.408619  1659.344388

                             ****ORCA TERMINATED NORMALLY****
TOTAL RUN TIME: 0 days 0 hours 18 minutes 25 seconds 939 msec
