                         Program Version 5.0.4 -  RELEASE  -
|  1> !ri-mp2 aug-cc-pvqz aug-cc-pvqz/c tightscf
|  2> %pal nprocs 16 end
|  3>
|  4> * xyz 0 1
|  5> N     -1.442941    2.799964    0.000000
|  6> C     -0.809520    1.836292    0.000000
|  7> H      1.068858    0.833466    0.000000
|  8> C      0.000000    0.664830    0.000000
|  9> H     -1.596381   -0.669835    0.000000
| 10> C     -0.516510   -0.567384    0.000000
| 11> H     -0.069250   -2.431965    0.866379
| 12> H     -0.069250   -2.431965   -0.866379
| 13> C      0.258117   -1.846322    0.000000
| 14> H      2.237470   -2.709684    0.000000
| 15> H      2.135946   -1.190903   -0.882660
| 16> H      2.135946   -1.190903    0.882660
| 17> C      1.777455   -1.722075    0.000000
| 18> *
| 19>
| 20>                          ****END OF INPUT****

CARTESIAN COORDINATES (ANGSTROEM)
---------------------------------
  N     -1.442941    2.799964    0.000000
  C     -0.809520    1.836292    0.000000
  H      1.068858    0.833466    0.000000
  C      0.000000    0.664830    0.000000
  H     -1.596381   -0.669835    0.000000
  C     -0.516510   -0.567384    0.000000
  H     -0.069250   -2.431965    0.866379
  H     -0.069250   -2.431965   -0.866379
  C      0.258117   -1.846322    0.000000
  H      2.237470   -2.709684    0.000000
  H      2.135946   -1.190903   -0.882660
  H      2.135946   -1.190903    0.882660
  C      1.777455   -1.722075    0.000000

 Total Charge           Charge          ....    0
 Multiplicity           Mult            ....    1
 Number of Electrons    NEL             ....   44
 Basis Dimension        Dim             ....  802

ORBITAL ENERGIES
----------------

  NO   OCC          E(Eh)            E(eV)
   0   2.0000     -15.563501      -423.5044
   1   2.0000     -11.281594      -306.9878
   2   2.0000     -11.273198      -306.7593
   3   2.0000     -11.269806      -306.6670
   4   2.0000     -11.256409      -306.3024
   5   2.0000     -11.236403      -305.7581
   6   2.0000      -1.217110       -33.1192
   7   2.0000      -1.125726       -30.6326
   8   2.0000      -1.035011       -28.1641
   9   2.0000      -0.919507       -25.0211
  10   2.0000      -0.810342       -22.0505
  11   2.0000      -0.728294       -19.8179
  12   2.0000      -0.639636       -17.4054
  13   2.0000      -0.638841       -17.3837
  14   2.0000      -0.603060       -16.4101
  15   2.0000      -0.553820       -15.0702
  16   2.0000      -0.529388       -14.4054
  17   2.0000      -0.526605       -14.3297
  18   2.0000      -0.519792       -14.1443
  19   2.0000      -0.506123       -13.7723
  20   2.0000      -0.461510       -12.5583
  21   2.0000      -0.379186       -10.3182
  22   0.0000       0.018321         0.4985
  23   0.0000       0.027122         0.7380
  24   0.0000       0.031998         0.8707
  25   0.0000       0.033709         0.9173
  26   0.0000       0.049440         1.3453

MULLIKEN ATOMIC CHARGES
-----------------------
   0 N :   -0.756642
   1 C :    0.699833
   2 H :    0.464775
   3 C :   -0.754368
   4 H :    0.386542
   5 C :   -0.180409
   6 H :    0.261544
   7 H :    0.261544
   8 C :   -0.284358
   9 H :    0.319661
  10 H :    0.193892
  11 H :    0.193892
  12 C :   -0.805906
Sum of atomic charges:   -0.0000000

LOEWDIN ATOMIC CHARGES
----------------------
   0 N :    0.388681
   1 C :   -0.327036
   2 H :   -0.383158
   3 C :    0.263700
   4 H :   -0.310575
   5 C :    0.372787
   6 H :   -0.280996
   7 H :   -0.280996
   8 C :    0.495237
   9 H :   -0.278108
  10 H :   -0.283751
  11 H :   -0.283751
  12 C :    0.907965

  Mayer bond orders larger than 0.100000
B(  0-N ,  1-C ) :   2.3270 B(  1-C ,  3-C ) :   1.4483 B(  1-C ,  5-C ) :  -0.3020
B(  2-H ,  3-C ) :   0.7254 B(  3-C ,  5-C ) :   1.5209 B(  3-C ,  8-C ) :  -0.1240
B(  4-H ,  5-C ) :   0.7973 B(  5-C ,  8-C ) :   0.7512 B(  6-H ,  8-C ) :   0.9083
B(  7-H ,  8-C ) :   0.9083 B(  8-C , 12-C ) :   0.9969 B(  9-H , 12-C ) :   0.9262
B( 10-H , 12-C ) :   0.9755 B( 11-H , 12-C ) :   0.9755

MP2 TOTAL ENERGY:     -249.018817026 Eh
FINAL SINGLE POINT ENERGY      -249.018817025731

DIPOLE MOMENT
-------------
                                X             Y             Z
Electronic contribution:     -5.04789       8.04232      -0.00000
Nuclear contribution   :      5.94400      -9.95819       0.00000
                        -----------------------------------------
Total Dipole Moment    :      0.89611      -1.91587      -0.00000
                        -----------------------------------------
Magnitude (a.u.)       :      2.11509
Magnitude (Debye)      :      5.37613

Rotational constants in cm-1:     0.489856     0.051628     0.047517
Rotational constants in MHz : 14685.504899  1547.753948  1424.526429

                             ****ORCA TERMINATED NORMALLY****
TOTAL RUN TIME: 0 days 0 hours 17 minutes 31 seconds 393 msec
