                         Program Version 5.0.4 -  RELEASE  -
|  1> !ri-mp2 aug-cc-pvqz aug-cc-pvqz/c tightscf
|  2> %pal nprocs 16 end
|  3>
|  4> * xyz 0 1
|  5> C    -0.327410     0.688228       0.000000
|  6> C     0.327410    -0.688228       0.000000
|  7> H    -1.432549     0.678671       0.000000
|  8> H     1.432549    -0.678671       0.000000
|  9> O     0.327410     1.696141       0.000000
| 10> O    -0.327410    -1.696141       0.000000
| 11> *
| 12>
| 13>                          ****END OF INPUT****

CARTESIAN COORDINATES (ANGSTROEM)
---------------------------------
  C     -0.327410    0.688228    0.000000
  C      0.327410   -0.688228    0.000000
  H     -1.432549    0.678671    0.000000
  H      1.432549   -0.678671    0.000000
  O      0.327410    1.696141    0.000000
  O     -0.327410   -1.696141    0.000000

 Total Charge           Charge          ....    0
 Multiplicity           Mult            ....    1
 Number of Electrons    NEL             ....   30
 Basis Dimension        Dim             ....  412

ORBITAL ENERGIES
----------------

  NO   OCC          E(Eh)            E(eV)
   0   2.0000     -20.605557      -560.7057
   1   2.0000     -20.605556      -560.7057
   2   2.0000     -11.365341      -309.2666
   3   2.0000     -11.364725      -309.2499
   4   2.0000      -1.447481       -39.3880
   5   2.0000      -1.431028       -38.9403
   6   2.0000      -0.966297       -26.2943
   7   2.0000      -0.827203       -22.5093
   8   2.0000      -0.711095       -19.3499
   9   2.0000      -0.710054       -19.3215
  10   2.0000      -0.663038       -18.0422
  11   2.0000      -0.598876       -16.2962
  12   2.0000      -0.537153       -14.6167
  13   2.0000      -0.527710       -14.3597
  14   2.0000      -0.440356       -11.9827
  15   0.0000       0.026844         0.7305
  16   0.0000       0.032980         0.8974
  17   0.0000       0.034000         0.9252
  18   0.0000       0.059193         1.6107
  19   0.0000       0.071552         1.9470

MULLIKEN ATOMIC CHARGES
-----------------------
   0 C :    0.100558
   1 C :    0.100558
   2 H :    0.501101
   3 H :    0.501101
   4 O :   -0.601659
   5 O :   -0.601659
Sum of atomic charges:   -0.0000000

LOEWDIN ATOMIC CHARGES
----------------------
   0 C :   -0.293542
   1 C :   -0.293542
   2 H :   -0.384743
   3 H :   -0.384743
   4 O :    0.678285
   5 O :    0.678285

  Mayer bond orders larger than 0.100000
B(  0-C ,  1-C ) :   1.0465 B(  0-C ,  2-H ) :   0.6821 B(  0-C ,  4-O ) :   1.7211
B(  0-C ,  5-O ) :   0.1120 B(  1-C ,  3-H ) :   0.6821 B(  1-C ,  4-O ) :   0.1120
B(  1-C ,  5-O ) :   1.7211

MP2 TOTAL ENERGY:     -227.523586798 Eh
FINAL SINGLE POINT ENERGY      -227.523586797665

DIPOLE MOMENT
-------------
                                X             Y             Z
Electronic contribution:      0.00000       0.00000       0.00000
Nuclear contribution   :      0.00000       0.00000       0.00000
                        -----------------------------------------
Total Dipole Moment    :      0.00000       0.00000       0.00000
                        -----------------------------------------
Magnitude (a.u.)       :      0.00000
Magnitude (Debye)      :      0.00000

Rotational constants in cm-1:     1.871232     0.159795     0.147223
Rotational constants in MHz : 56098.124331  4790.544669  4413.638447

                             ****ORCA TERMINATED NORMALLY****
TOTAL RUN TIME: 0 days 0 hours 2 minutes 49 seconds 725 msec
