                         Program Version 5.0.4 -  RELEASE  -
|  1> !ri-mp2 aug-cc-pvqz aug-cc-pvqz/c tightscf
|  2> %pal nprocs 16 end
|  3>
|  4> * xyz 0 1
|  5> S    -1.676534   -0.926064    0.051194
|  6> O     3.331516   -0.631562   -0.252865
|  7> N     2.397628    1.405048    0.103813
|  8> N    -3.577023    1.191000   -0.109127
|  9> C     1.020168   -0.608219    0.179875
| 10> C     2.350109    0.042718    0.002223
| 11> C    -0.149655   -0.019457   -0.048702
| 12> C    -2.785853    0.351530   -0.044843
| 13> H     1.086429   -1.657050    0.439278
| 14> H    -0.254458    1.009404   -0.361619
| 15> H     1.678256    1.917370    0.581658
| 16> H     3.309355    1.828033    0.050389
| 17> *
| 18>
| 19>                          ****END OF INPUT****

CARTESIAN COORDINATES (ANGSTROEM)
---------------------------------
  S     -1.676534   -0.926064    0.051194
  O      3.331516   -0.631562   -0.252865
  N      2.397628    1.405048    0.103813
  N     -3.577023    1.191000   -0.109127
  C      1.020168   -0.608219    0.179875
  C      2.350109    0.042718    0.002223
  C     -0.149655   -0.019457   -0.048702
  C     -2.785853    0.351530   -0.044843
  H      1.086429   -1.657050    0.439278
  H     -0.254458    1.009404   -0.361619
  H      1.678256    1.917370    0.581658
  H      3.309355    1.828033    0.050389

 Total Charge           Charge          ....    0
 Multiplicity           Mult            ....    1
 Number of Electrons    NEL             ....   66
 Basis Dimension        Dim             ....  828

ORBITAL ENERGIES
----------------

  NO   OCC          E(Eh)            E(eV)
   0   2.0000     -92.045719     -2504.6913
   1   2.0000     -20.540656      -558.9397
   2   2.0000     -15.602400      -424.5629
   3   2.0000     -15.600756      -424.5182
   4   2.0000     -11.379282      -309.6460
   5   2.0000     -11.326786      -308.2175
   6   2.0000     -11.314184      -307.8746
   7   2.0000     -11.283884      -307.0501
   8   2.0000      -9.046196      -246.1595
   9   2.0000      -6.727911      -183.0758
  10   2.0000      -6.726557      -183.0389
  11   2.0000      -6.725699      -183.0156
  12   2.0000      -1.404169       -38.2094
  13   2.0000      -1.249901       -34.0115
  14   2.0000      -1.233605       -33.5681
  15   2.0000      -1.148704       -31.2578
  16   2.0000      -1.049125       -28.5481
  17   2.0000      -0.886909       -24.1340
  18   2.0000      -0.807176       -21.9644
  19   2.0000      -0.763481       -20.7754
  20   2.0000      -0.711756       -19.3679
  21   2.0000      -0.697205       -18.9719
  22   2.0000      -0.631110       -17.1734
  23   2.0000      -0.623613       -16.9694
  24   2.0000      -0.593836       -16.1591
  25   2.0000      -0.580317       -15.7912
  26   2.0000      -0.559691       -15.2300
  27   2.0000      -0.550017       -14.9667
  28   2.0000      -0.487249       -13.2587
  29   2.0000      -0.474885       -12.9223
  30   2.0000      -0.454151       -12.3581
  31   2.0000      -0.435865       -11.8605
  32   2.0000      -0.375528       -10.2186
  33   0.0000       0.017106         0.4655
  34   0.0000       0.028771         0.7829
  35   0.0000       0.037700         1.0259
  36   0.0000       0.040503         1.1021
  37   0.0000       0.049919         1.3584

MULLIKEN ATOMIC CHARGES
-----------------------
   0 S :    0.595735
   1 O :   -0.776838
   2 N :   -0.662494
   3 N :   -0.513828
   4 C :   -0.424404
   5 C :    1.008661
   6 C :   -0.408534
   7 C :   -0.186298
   8 H :    0.428738
   9 H :    0.372154
  10 H :    0.330564
  11 H :    0.236546
Sum of atomic charges:    0.0000000

LOEWDIN ATOMIC CHARGES
----------------------
   0 S :    1.227375
   1 O :    0.681620
   2 N :    1.225064
   3 N :    0.279335
   4 C :    0.205693
   5 C :   -0.879412
   6 C :   -0.063506
   7 C :   -0.856240
   8 H :   -0.379152
   9 H :   -0.426960
  10 H :   -0.514872
  11 H :   -0.498944

  Mayer bond orders larger than 0.100000
B(  0-S ,  4-C ) :  -0.1230 B(  0-S ,  6-C ) :   0.8209 B(  0-S ,  7-C ) :   0.9940
B(  1-O ,  2-N ) :   0.1206 B(  1-O ,  4-C ) :   0.1584 B(  1-O ,  5-C ) :   1.2705
B(  2-N ,  5-C ) :   1.1336 B(  2-N , 10-H ) :   0.8500 B(  2-N , 11-H ) :   0.9984
B(  3-N ,  7-C ) :   2.5383 B(  4-C ,  5-C ) :   1.1637 B(  4-C ,  6-C ) :   1.4776
B(  4-C ,  8-H ) :   0.8034 B(  5-C ,  6-C ) :  -0.2397 B(  6-C ,  7-C ) :  -0.2283
B(  6-C ,  9-H ) :   0.8259

MP2 TOTAL ENERGY:     -736.759304981 Eh
FINAL SINGLE POINT ENERGY      -736.759304981153

DIPOLE MOMENT
-------------
                                X             Y             Z
Electronic contribution:     -5.46756      -2.64036      -0.15981
Nuclear contribution   :      5.72316       3.02907       0.68105
                        -----------------------------------------
Total Dipole Moment    :      0.25560       0.38871       0.52125
                        -----------------------------------------
Magnitude (a.u.)       :      0.69866
Magnitude (Debye)      :      1.77585

Rotational constants in cm-1:     0.167592     0.023504     0.020741
Rotational constants in MHz :  5024.279412   704.625347   621.803912

                             ****ORCA TERMINATED NORMALLY****
TOTAL RUN TIME: 0 days 0 hours 19 minutes 6 seconds 356 msec
