                         Program Version 5.0.4 -  RELEASE  -
|  1> !ri-mp2 aug-cc-pvqz aug-cc-pvqz/c tightscf
|  2> %pal nprocs 16 end
|  3>
|  4> * xyz 0 1
|  5> C     0.000000     2.382161    0.411002
|  6> C     0.000000    -2.382161    0.411002
|  7> C     0.000000     1.185118   -0.517097
|  8> C     0.000000    -1.185118   -0.517097
|  9> O     0.000000     0.000000    0.260427
| 10> H     0.000000     3.307756   -0.166158
| 11> H    -0.883458     2.373885    1.049360
| 12> H     0.883458     2.373885    1.049360
| 13> H     0.000000    -3.307756   -0.166158
| 14> H     0.883458    -2.373885    1.049360
| 15> H    -0.883458    -2.373885    1.049360
| 16> H     0.884361     1.201870   -1.168850
| 17> H    -0.884361     1.201870   -1.168850
| 18> H    -0.884361    -1.201870   -1.168850
| 19> H     0.884361    -1.201870   -1.168850
| 20> *
| 21>
| 22>                          ****END OF INPUT****

CARTESIAN COORDINATES (ANGSTROEM)
---------------------------------
  C      0.000000    2.382161    0.411002
  C      0.000000   -2.382161    0.411002
  C      0.000000    1.185118   -0.517097
  C      0.000000   -1.185118   -0.517097
  O      0.000000    0.000000    0.260427
  H      0.000000    3.307756   -0.166158
  H     -0.883458    2.373885    1.049360
  H      0.883458    2.373885    1.049360
  H      0.000000   -3.307756   -0.166158
  H      0.883458   -2.373885    1.049360
  H     -0.883458   -2.373885    1.049360
  H      0.884361    1.201870   -1.168850
  H     -0.884361    1.201870   -1.168850
  H     -0.884361   -1.201870   -1.168850
  H      0.884361   -1.201870   -1.168850

 Total Charge           Charge          ....    0
 Multiplicity           Mult            ....    1
 Number of Electrons    NEL             ....   42
 Basis Dimension        Dim             ....  860

ORBITAL ENERGIES
----------------

  NO   OCC          E(Eh)            E(eV)
   0   2.0000     -20.546401      -559.0960
   1   2.0000     -11.270288      -306.6801
   2   2.0000     -11.270267      -306.6796
   3   2.0000     -11.210217      -305.0455
   4   2.0000     -11.210216      -305.0455
   5   2.0000      -1.367261       -37.2051
   6   2.0000      -1.040281       -28.3075
   7   2.0000      -0.982532       -26.7361
   8   2.0000      -0.841243       -22.8914
   9   2.0000      -0.825204       -22.4549
  10   2.0000      -0.673473       -18.3261
  11   2.0000      -0.661397       -17.9975
  12   2.0000      -0.604010       -16.4359
  13   2.0000      -0.595640       -16.2082
  14   2.0000      -0.549239       -14.9455
  15   2.0000      -0.529379       -14.4051
  16   2.0000      -0.520740       -14.1700
  17   2.0000      -0.493114       -13.4183
  18   2.0000      -0.486376       -13.2350
  19   2.0000      -0.469442       -12.7742
  20   2.0000      -0.417201       -11.3526
  21   0.0000       0.027764         0.7555
  22   0.0000       0.031564         0.8589
  23   0.0000       0.035939         0.9779
  24   0.0000       0.036117         0.9828
  25   0.0000       0.049330         1.3423

MULLIKEN ATOMIC CHARGES
-----------------------
   0 C :   -0.908789
   1 C :   -0.908789
   2 C :    0.084683
   3 C :    0.084683
   4 O :   -0.848628
   5 H :    0.279653
   6 H :    0.239949
   7 H :    0.239949
   8 H :    0.279654
   9 H :    0.239949
  10 H :    0.239948
  11 H :    0.244435
  12 H :    0.244435
  13 H :    0.244435
  14 H :    0.244435
Sum of atomic charges:    0.0000000

LOEWDIN ATOMIC CHARGES
----------------------
   0 C :    0.904519
   1 C :    0.904519
   2 C :    0.131921
   3 C :    0.131921
   4 O :    0.886080
   5 H :   -0.294034
   6 H :   -0.293224
   7 H :   -0.293224
   8 H :   -0.294034
   9 H :   -0.293224
  10 H :   -0.293224
  11 H :   -0.299499
  12 H :   -0.299499
  13 H :   -0.299499
  14 H :   -0.299499

  Mayer bond orders larger than 0.100000
B(  0-C ,  2-C ) :   0.9017 B(  0-C ,  5-H ) :   0.9797 B(  0-C ,  6-H ) :   0.9475
B(  0-C ,  7-H ) :   0.9475 B(  1-C ,  3-C ) :   0.9017 B(  1-C ,  8-H ) :   0.9797
B(  1-C ,  9-H ) :   0.9475 B(  1-C , 10-H ) :   0.9475 B(  2-C ,  4-O ) :   0.8461
B(  2-C , 11-H ) :   0.8672 B(  2-C , 12-H ) :   0.8672 B(  3-C ,  4-O ) :   0.8461
B(  3-C , 13-H ) :   0.8672 B(  3-C , 14-H ) :   0.8672

MP2 TOTAL ENERGY:     -233.264660026 Eh
FINAL SINGLE POINT ENERGY      -233.264660025714

DIPOLE MOMENT
-------------
                                X             Y             Z
Electronic contribution:     -0.00000       0.00000       0.35542
Nuclear contribution   :      0.00000       0.00000      -0.85790
                        -----------------------------------------
Total Dipole Moment    :     -0.00000       0.00000      -0.50248
                        -----------------------------------------
Magnitude (a.u.)       :      0.50248
Magnitude (Debye)      :      1.27721

Rotational constants in cm-1:     0.605041     0.074276     0.069596
Rotational constants in MHz : 18138.686183  2226.731620  2086.435838

                             ****ORCA TERMINATED NORMALLY****
TOTAL RUN TIME: 0 days 0 hours 21 minutes 29 seconds 303 msec
