                         Program Version 5.0.4 -  RELEASE  -
|  1> !ri-mp2 aug-cc-pvqz aug-cc-pvqz/c tightscf
|  2> %pal nprocs 16 end
|  3>
|  4> * xyz 0 1
|  5> S     -4.596838   -0.003107   -0.000137
|  6> S      4.596838    0.003103   -0.000056
|  7> N     -1.832054   -0.149686    0.000108
|  8> N      1.832054    0.149689    0.000098
|  9> C     -0.565103    0.514998    0.000097
| 10> C      0.565103   -0.514994    0.000093
| 11> C     -3.015809   -0.039311   -0.000005
| 12> C      3.015809    0.039311    0.000027
| 13> H     -0.483266    1.151721    0.883482
| 14> H     -0.483277    1.151723   -0.883288
| 15> H      0.483272   -1.151716   -0.883294
| 16> H      0.483270   -1.151720    0.883476
| 17> *
| 18>
| 19>                          ****END OF INPUT****

CARTESIAN COORDINATES (ANGSTROEM)
---------------------------------
  S     -4.596838   -0.003107   -0.000137
  S      4.596838    0.003103   -0.000056
  N     -1.832054   -0.149686    0.000108
  N      1.832054    0.149689    0.000098
  C     -0.565103    0.514998    0.000097
  C      0.565103   -0.514994    0.000093
  C     -3.015809   -0.039311   -0.000005
  C      3.015809    0.039311    0.000027
  H     -0.483266    1.151721    0.883482
  H     -0.483277    1.151723   -0.883288
  H      0.483272   -1.151716   -0.883294
  H      0.483270   -1.151720    0.883476

 Total Charge           Charge          ....    0
 Multiplicity           Mult            ....    1
 Number of Electrons    NEL             ....   74
 Basis Dimension        Dim             ....  832

ORBITAL ENERGIES
----------------

  NO   OCC          E(Eh)            E(eV)
   0   2.0000     -91.955939     -2502.2483
   1   2.0000     -91.955938     -2502.2483
   2   2.0000     -15.618479      -425.0004
   3   2.0000     -15.618477      -425.0004
   4   2.0000     -11.385534      -309.8161
   5   2.0000     -11.385533      -309.8161
   6   2.0000     -11.325592      -308.1850
   7   2.0000     -11.324975      -308.1682
   8   2.0000      -8.960037      -243.8150
   9   2.0000      -8.960036      -243.8150
  10   2.0000      -6.641874      -180.7346
  11   2.0000      -6.641873      -180.7346
  12   2.0000      -6.639531      -180.6708
  13   2.0000      -6.639531      -180.6708
  14   2.0000      -6.639322      -180.6651
  15   2.0000      -6.639322      -180.6651
  16   2.0000      -1.315717       -35.8025
  17   2.0000      -1.303256       -35.4634
  18   2.0000      -1.115137       -30.3444
  19   2.0000      -1.051775       -28.6202
  20   2.0000      -1.022908       -27.8347
  21   2.0000      -0.945881       -25.7387
  22   2.0000      -0.780212       -21.2306
  23   2.0000      -0.722294       -19.6546
  24   2.0000      -0.712378       -19.3848
  25   2.0000      -0.653682       -17.7876
  26   2.0000      -0.627921       -17.0866
  27   2.0000      -0.606185       -16.4951
  28   2.0000      -0.603012       -16.4088
  29   2.0000      -0.571669       -15.5559
  30   2.0000      -0.548020       -14.9124
  31   2.0000      -0.523928       -14.2568
  32   2.0000      -0.523377       -14.2418
  33   2.0000      -0.377471       -10.2715
  34   2.0000      -0.375299       -10.2124
  35   2.0000      -0.368513       -10.0278
  36   2.0000      -0.365111        -9.9352
  37   0.0000       0.019266         0.5242
  38   0.0000       0.030574         0.8319
  39   0.0000       0.031180         0.8485
  40   0.0000       0.042083         1.1451
  41   0.0000       0.049657         1.3512

MULLIKEN ATOMIC CHARGES
-----------------------
   0 S :    0.026504
   1 S :    0.026505
   2 N :   -0.746062
   3 N :   -0.746046
   4 C :   -0.216238
   5 C :   -0.216235
   6 C :    0.354113
   7 C :    0.354094
   8 H :    0.290837
   9 H :    0.290848
  10 H :    0.290839
  11 H :    0.290841
Sum of atomic charges:   -0.0000000

LOEWDIN ATOMIC CHARGES
----------------------
   0 S :    0.943652
   1 S :    0.943653
   2 N :    0.400138
   3 N :    0.400138
   4 C :    0.255958
   5 C :    0.255957
   6 C :   -1.007340
   7 C :   -1.007339
   8 H :   -0.296205
   9 H :   -0.296203
  10 H :   -0.296203
  11 H :   -0.296205

  Mayer bond orders larger than 0.100000
B(  0-S ,  2-N ) :   0.1107 B(  0-S ,  6-C ) :   1.4384 B(  1-S ,  3-N ) :   0.1107
B(  1-S ,  7-C ) :   1.4384 B(  2-N ,  4-C ) :   0.7648 B(  2-N ,  5-C ) :   0.1000
B(  2-N ,  6-C ) :   2.3548 B(  3-N ,  4-C ) :   0.1001 B(  3-N ,  5-C ) :   0.7648
B(  3-N ,  7-C ) :   2.3547 B(  4-C ,  5-C ) :   1.1891 B(  4-C ,  8-H ) :   0.8537
B(  4-C ,  9-H ) :   0.8537 B(  5-C , 10-H ) :   0.8537 B(  5-C , 11-H ) :   0.8537

MP2 TOTAL ENERGY:    -1059.352209936 Eh
FINAL SINGLE POINT ENERGY     -1059.352209936133

DIPOLE MOMENT
-------------
                                X             Y             Z
Electronic contribution:      0.00000      -0.00001      -0.00031
Nuclear contribution   :     -0.00000       0.00001       0.00037
                        -----------------------------------------
Total Dipole Moment    :      0.00000       0.00000       0.00006
                        -----------------------------------------
Magnitude (a.u.)       :      0.00006
Magnitude (Debye)      :      0.00015

Rotational constants in cm-1:     1.085603     0.010039     0.009984
Rotational constants in MHz : 32545.573212   300.966902   299.320649

                             ****ORCA TERMINATED NORMALLY****
TOTAL RUN TIME: 0 days 0 hours 18 minutes 30 seconds 700 msec
