                         Program Version 5.0.4 -  RELEASE  -
|  1> !ri-mp2 aug-cc-pvqz aug-cc-pvqz/c tightscf
|  2> %pal nprocs 16 end
|  3>
|  4> * xyz 0 1
|  5> C      1.353737   -0.368467    0.037834
|  6> C      0.245113    0.262988    0.434823
|  7> C      2.645333    0.319343   -0.004122
|  8> C     -3.556610   -0.151254   -0.231842
|  9> C     -1.123680   -0.325197    0.512772
| 10> C     -2.146913    0.421382   -0.360045
| 11> O      3.687325   -0.191449   -0.351651
| 12> H      1.345138   -1.409243   -0.265925
| 13> H      0.332449    1.309202    0.722433
| 14> H      2.616706    1.382207    0.314022
| 15> H     -3.585524   -1.200760   -0.530463
| 16> H     -3.915768   -0.089864    0.797239
| 17> H     -4.260573    0.392160   -0.862658
| 18> H     -1.094232   -1.380186    0.232496
| 19> H     -1.463655   -0.283003    1.554077
| 20> H     -2.152324    1.478782   -0.082114
| 21> H     -1.822698    0.379526   -1.402423
| 22> *
| 23>
| 24>                          ****END OF INPUT****

CARTESIAN COORDINATES (ANGSTROEM)
---------------------------------
  C      1.353737   -0.368467    0.037834
  C      0.245113    0.262988    0.434823
  C      2.645333    0.319343   -0.004122
  C     -3.556610   -0.151254   -0.231842
  C     -1.123680   -0.325197    0.512772
  C     -2.146913    0.421382   -0.360045
  O      3.687325   -0.191449   -0.351651
  H      1.345138   -1.409243   -0.265925
  H      0.332449    1.309202    0.722433
  H      2.616706    1.382207    0.314022
  H     -3.585524   -1.200760   -0.530463
  H     -3.915768   -0.089864    0.797239
  H     -4.260573    0.392160   -0.862658
  H     -1.094232   -1.380186    0.232496
  H     -1.463655   -0.283003    1.554077
  H     -2.152324    1.478782   -0.082114
  H     -1.822698    0.379526   -1.402423

 Total Charge           Charge          ....    0
 Multiplicity           Mult            ....    1
 Number of Electrons    NEL             ....   54
 Basis Dimension        Dim             .... 1020

ORBITAL ENERGIES
----------------

  NO   OCC          E(Eh)            E(eV)
   0   2.0000     -20.545683      -559.0765
   1   2.0000     -11.326501      -308.2098
   2   2.0000     -11.269672      -306.6634
   3   2.0000     -11.245069      -305.9939
   4   2.0000     -11.240152      -305.8601
   5   2.0000     -11.238263      -305.8087
   6   2.0000     -11.224977      -305.4471
   7   2.0000      -1.382742       -37.6263
   8   2.0000      -1.119784       -30.4709
   9   2.0000      -1.057214       -28.7682
  10   2.0000      -0.964027       -26.2325
  11   2.0000      -0.855321       -23.2745
  12   2.0000      -0.808951       -22.0127
  13   2.0000      -0.781605       -21.2686
  14   2.0000      -0.682022       -18.5588
  15   2.0000      -0.651407       -17.7257
  16   2.0000      -0.636401       -17.3174
  17   2.0000      -0.603571       -16.4240
  18   2.0000      -0.584798       -15.9132
  19   2.0000      -0.566512       -15.4156
  20   2.0000      -0.535966       -14.5844
  21   2.0000      -0.532589       -14.4925
  22   2.0000      -0.506276       -13.7765
  23   2.0000      -0.499182       -13.5834
  24   2.0000      -0.490308       -13.3420
  25   2.0000      -0.422098       -11.4859
  26   2.0000      -0.380913       -10.3652
  27   0.0000       0.021227         0.5776
  28   0.0000       0.026736         0.7275
  29   0.0000       0.030176         0.8211
  30   0.0000       0.032972         0.8972
  31   0.0000       0.044141         1.2011

MULLIKEN ATOMIC CHARGES
-----------------------
   0 C :   -0.856341
   1 C :   -0.322212
   2 C :    0.405348
   3 C :   -0.820285
   4 C :   -0.199211
   5 C :   -0.401597
   6 O :   -0.751509
   7 H :    0.390842
   8 H :    0.381770
   9 H :    0.406405
  10 H :    0.230000
  11 H :    0.221476
  12 H :    0.262548
  13 H :    0.262758
  14 H :    0.291453
  15 H :    0.240710
  16 H :    0.257845
Sum of atomic charges:   -0.0000000

LOEWDIN ATOMIC CHARGES
----------------------
   0 C :    0.341046
   1 C :    0.372987
   2 C :   -0.304909
   3 C :    0.929529
   4 C :    0.492073
   5 C :    0.507604
   6 O :    0.674465
   7 H :   -0.350721
   8 H :   -0.318141
   9 H :   -0.378740
  10 H :   -0.282886
  11 H :   -0.284109
  12 H :   -0.282347
  13 H :   -0.294149
  14 H :   -0.275037
  15 H :   -0.276114
  16 H :   -0.270550

  Mayer bond orders larger than 0.100000
B(  0-C ,  1-C ) :   1.4852 B(  0-C ,  2-C ) :   1.3467 B(  0-C ,  4-C ) :  -0.2937
B(  0-C ,  6-O ) :   0.1925 B(  0-C ,  7-H ) :   0.7865 B(  1-C ,  2-C ) :  -0.3197
B(  1-C ,  4-C ) :   0.9915 B(  1-C ,  8-H ) :   0.8061 B(  2-C ,  6-O ) :   1.4129
B(  2-C ,  9-H ) :   0.8198 B(  3-C ,  5-C ) :   0.9712 B(  3-C , 10-H ) :   0.9558
B(  3-C , 11-H ) :   0.9549 B(  3-C , 12-H ) :   0.9878 B(  4-C ,  5-C ) :   0.9784
B(  4-C , 13-H ) :   0.8917 B(  4-C , 14-H ) :   0.8243 B(  5-C , 15-H ) :   0.8661
B(  5-C , 16-H ) :   0.8793

MP2 TOTAL ENERGY:     -309.324767717 Eh
FINAL SINGLE POINT ENERGY      -309.324767717229

DIPOLE MOMENT
-------------
                                X             Y             Z
Electronic contribution:     12.62005      -0.16621      -0.09505
Nuclear contribution   :    -14.40702       0.59499       0.48684
                        -----------------------------------------
Total Dipole Moment    :     -1.78697       0.42878       0.39179
                        -----------------------------------------
Magnitude (a.u.)       :      1.87899
Magnitude (Debye)      :      4.77602

Rotational constants in cm-1:     0.468135     0.026838     0.026697
Rotational constants in MHz : 14034.331672   804.572683   800.355631

                             ****ORCA TERMINATED NORMALLY****
TOTAL RUN TIME: 0 days 0 hours 44 minutes 16 seconds 312 msec
