                         Program Version 5.0.4 -  RELEASE  -
|  1> !ri-mp2 aug-cc-pvqz aug-cc-pvqz/c tightscf
|  2> %pal nprocs 16 end
|  3>
|  4> * xyz 0 1
|  5> C      0.000000    0.531086    0.000000
|  6> C     -1.331860    0.464679    0.000000
|  7> C      0.850788   -0.688356    0.000000
|  8> C     -2.260297    1.629509    0.000000
|  9> C      2.345543   -0.454617    0.000000
| 10> O      0.383363   -1.811009    0.000000
| 11> H      0.503575    1.491936    0.000000
| 12> H     -1.777905   -0.525425    0.000000
| 13> H     -1.728950    2.580430    0.000000
| 14> H     -2.916004    1.597195    0.874296
| 15> H     -2.916004    1.597195   -0.874296
| 16> H      2.872893   -1.404393    0.000000
| 17> H      2.635225    0.128660    0.877308
| 18> H      2.635225    0.128660   -0.877308
| 19> *
| 20>
| 21>                          ****END OF INPUT****

CARTESIAN COORDINATES (ANGSTROEM)
---------------------------------
  C      0.000000    0.531086    0.000000
  C     -1.331860    0.464679    0.000000
  C      0.850788   -0.688356    0.000000
  C     -2.260297    1.629509    0.000000
  C      2.345543   -0.454617    0.000000
  O      0.383363   -1.811009    0.000000
  H      0.503575    1.491936    0.000000
  H     -1.777905   -0.525425    0.000000
  H     -1.728950    2.580430    0.000000
  H     -2.916004    1.597195    0.874296
  H     -2.916004    1.597195   -0.874296
  H      2.872893   -1.404393    0.000000
  H      2.635225    0.128660    0.877308
  H      2.635225    0.128660   -0.877308

 Total Charge           Charge          ....    0
 Multiplicity           Mult            ....    1
 Number of Electrons    NEL             ....   46
 Basis Dimension        Dim             ....  848

ORBITAL ENERGIES
----------------

  NO   OCC          E(Eh)            E(eV)
   0   2.0000     -20.531523      -558.6911
   1   2.0000     -11.326134      -308.1998
   2   2.0000     -11.258759      -306.3664
   3   2.0000     -11.236220      -305.7531
   4   2.0000     -11.229244      -305.5633
   5   2.0000     -11.228993      -305.5564
   6   2.0000      -1.375128       -37.4191
   7   2.0000      -1.093679       -29.7605
   8   2.0000      -1.017473       -27.6869
   9   2.0000      -0.956108       -26.0170
  10   2.0000      -0.810715       -22.0607
  11   2.0000      -0.730281       -19.8720
  12   2.0000      -0.665986       -18.1224
  13   2.0000      -0.634364       -17.2619
  14   2.0000      -0.599211       -16.3053
  15   2.0000      -0.581210       -15.8155
  16   2.0000      -0.578974       -15.7547
  17   2.0000      -0.574306       -15.6277
  18   2.0000      -0.537731       -14.6324
  19   2.0000      -0.516445       -14.0532
  20   2.0000      -0.500871       -13.6294
  21   2.0000      -0.411137       -11.1876
  22   2.0000      -0.371762       -10.1161
  23   0.0000       0.022510         0.6125
  24   0.0000       0.027623         0.7517
  25   0.0000       0.035918         0.9774
  26   0.0000       0.037146         1.0108
  27   0.0000       0.046892         1.2760

MULLIKEN ATOMIC CHARGES
-----------------------
   0 C :   -0.625592
   1 C :   -0.159604
   2 C :    0.754702
   3 C :   -0.711595
   4 C :   -0.884483
   5 O :   -0.772235
   6 H :    0.387250
   7 H :    0.488160
   8 H :    0.242194
   9 H :    0.233956
  10 H :    0.233956
  11 H :    0.326183
  12 H :    0.243555
  13 H :    0.243555
Sum of atomic charges:   -0.0000000

LOEWDIN ATOMIC CHARGES
----------------------
   0 C :    0.328016
   1 C :    0.367928
   2 C :   -0.697206
   3 C :    0.908511
   4 C :    0.873930
   5 O :    0.713646
   6 H :   -0.354824
   7 H :   -0.335246
   8 H :   -0.309542
   9 H :   -0.290708
  10 H :   -0.290708
  11 H :   -0.320182
  12 H :   -0.296807
  13 H :   -0.296807

  Mayer bond orders larger than 0.100000
B(  0-C ,  1-C ) :   1.3591 B(  0-C ,  2-C ) :   0.9128 B(  0-C ,  3-C ) :  -0.1848
B(  0-C ,  4-C ) :  -0.1151 B(  0-C ,  5-O ) :   0.1841 B(  0-C ,  6-H ) :   0.8110
B(  1-C ,  2-C ) :  -0.2322 B(  1-C ,  3-C ) :   0.9368 B(  1-C ,  7-H ) :   0.6941
B(  2-C ,  4-C ) :   1.0423 B(  2-C ,  5-O ) :   1.1244 B(  3-C ,  8-H ) :   0.9587
B(  3-C ,  9-H ) :   0.9854 B(  3-C , 10-H ) :   0.9854 B(  4-C , 11-H ) :   0.9627
B(  4-C , 12-H ) :   0.9507 B(  4-C , 13-H ) :   0.9507

MP2 TOTAL ENERGY:     -270.096185533 Eh
FINAL SINGLE POINT ENERGY      -270.096185532586

DIPOLE MOMENT
-------------
                                X             Y             Z
Electronic contribution:      0.70599      -4.37986       0.00000
Nuclear contribution   :     -0.70444       5.71613       0.00000
                        -----------------------------------------
Total Dipole Moment    :      0.00155       1.33627       0.00000
                        -----------------------------------------
Magnitude (a.u.)       :      1.33627
Magnitude (Debye)      :      3.39654

Rotational constants in cm-1:     0.306449     0.062105     0.052637
Rotational constants in MHz :  9187.107124  1861.875078  1578.028416

                             ****ORCA TERMINATED NORMALLY****
TOTAL RUN TIME: 0 days 0 hours 25 minutes 39 seconds 140 msec
