                         Program Version 5.0.4 -  RELEASE  -
|  1> !ri-mp2 aug-cc-pvqz aug-cc-pvqz/c tightscf
|  2> %pal nprocs 16 end
|  3>
|  4> * xyz 0 1
|  5> C      1.249205   -0.196057    0.013814
|  6> C      0.069711    0.426754   -0.000397
|  7> N     -1.181689   -0.169404   -0.079242
|  8> H      1.330242   -1.275684    0.016682
|  9> H      2.164905    0.373573    0.006405
| 10> H      0.029960    1.509834   -0.008170
| 11> H     -1.221005   -1.153102    0.136560
| 12> H     -1.945772    0.347030    0.322711
| 13> *
| 14>
| 15>                          ****END OF INPUT****

CARTESIAN COORDINATES (ANGSTROEM)
---------------------------------
  C      1.249205   -0.196057    0.013814
  C      0.069711    0.426754   -0.000397
  N     -1.181689   -0.169404   -0.079242
  H      1.330242   -1.275684    0.016682
  H      2.164905    0.373573    0.006405
  H      0.029960    1.509834   -0.008170
  H     -1.221005   -1.153102    0.136560
  H     -1.945772    0.347030    0.322711

 Total Charge           Charge          ....    0
 Multiplicity           Mult            ....    1
 Number of Electrons    NEL             ....   24
 Basis Dimension        Dim             ....  470

ORBITAL ENERGIES
----------------

  NO   OCC          E(Eh)            E(eV)
   0   2.0000     -15.562580      -423.4793
   1   2.0000     -11.267451      -306.6029
   2   2.0000     -11.197325      -304.6947
   3   2.0000      -1.211176       -32.9578
   4   2.0000      -0.994830       -27.0707
   5   2.0000      -0.790842       -21.5199
   6   2.0000      -0.701757       -19.0958
   7   2.0000      -0.638129       -17.3644
   8   2.0000      -0.573684       -15.6107
   9   2.0000      -0.518993       -14.1225
  10   2.0000      -0.494829       -13.4650
  11   2.0000      -0.317030        -8.6268
  12   0.0000       0.024496         0.6666
  13   0.0000       0.035079         0.9546
  14   0.0000       0.036798         1.0013
  15   0.0000       0.052973         1.4415
  16   0.0000       0.056886         1.5480

MULLIKEN ATOMIC CHARGES
-----------------------
   0 C :   -0.818626
   1 C :   -0.269852
   2 N :   -0.664448
   3 H :    0.384827
   4 H :    0.316261
   5 H :    0.486612
   6 H :    0.296380
   7 H :    0.268845
Sum of atomic charges:   -0.0000000

LOEWDIN ATOMIC CHARGES
----------------------
   0 C :    0.753748
   1 C :    0.166320
   2 N :    1.231993
   3 H :   -0.376894
   4 H :   -0.392416
   5 H :   -0.350799
   6 H :   -0.518595
   7 H :   -0.513356

  Mayer bond orders larger than 0.100000
B(  0-C ,  1-C ) :   1.7092 B(  0-C ,  3-H ) :   0.8444 B(  0-C ,  4-H ) :   0.9733
B(  1-C ,  2-N ) :   1.1136 B(  1-C ,  5-H ) :   0.7461 B(  2-N ,  6-H ) :   0.8712
B(  2-N ,  7-H ) :   0.9325

MP2 TOTAL ENERGY:     -133.715733374 Eh
FINAL SINGLE POINT ENERGY      -133.715733374006

DIPOLE MOMENT
-------------
                                X             Y             Z
Electronic contribution:     -0.85017       0.22322      -0.13694
Nuclear contribution   :      0.36775      -0.20862       0.49577
                        -----------------------------------------
Total Dipole Moment    :     -0.48242       0.01460       0.35883
                        -----------------------------------------
Magnitude (a.u.)       :      0.60141
Magnitude (Debye)      :      1.52867

Rotational constants in cm-1:     1.918156     0.334511     0.286749
Rotational constants in MHz : 57504.874685 10028.375310  8596.529436

                             ****ORCA TERMINATED NORMALLY****
TOTAL RUN TIME: 0 days 0 hours 3 minutes 6 seconds 861 msec
