                         Program Version 5.0.4 -  RELEASE  -
|  1> !ri-mp2 aug-cc-pvqz aug-cc-pvqz/c tightscf
|  2> %pal nprocs 16 end
|  3>
|  4> * xyz 0 1
|  5> C      2.441663    0.162598   -0.365182
|  6> C      1.385172    0.126631    0.440416
|  7> C      3.766263   -0.479321   -0.089056
|  8> C     -3.620200   -0.583267   -0.136932
|  9> C      0.056507    0.764266    0.164386
| 10> C     -2.466044    0.416907   -0.102935
| 11> C     -1.104645   -0.239625    0.126643
| 12> H      2.358643    0.700966   -1.306573
| 13> H      1.466900   -0.412762    1.382304
| 14> H      4.569757    0.262058   -0.075544
| 15> H      4.024236   -1.204082   -0.865896
| 16> H      3.767683   -0.996869    0.870489
| 17> H     -3.485464   -1.314681   -0.936498
| 18> H     -3.692335   -1.134107    0.803175
| 19> H     -4.576083   -0.084249   -0.302393
| 20> H     -0.155903    1.508409    0.940995
| 21> H      0.100952    1.309497   -0.782195
| 22> H     -2.646373    1.155223    0.684348
| 23> H     -2.441268    0.977092   -1.042548
| 24> H     -1.127620   -0.800201    1.066921
| 25> H     -0.915420   -0.975427   -0.660622
| 26> *
| 27>
| 28>                          ****END OF INPUT****

CARTESIAN COORDINATES (ANGSTROEM)
---------------------------------
  C      2.441663    0.162598   -0.365182
  C      1.385172    0.126631    0.440416
  C      3.766263   -0.479321   -0.089056
  C     -3.620200   -0.583267   -0.136932
  C      0.056507    0.764266    0.164386
  C     -2.466044    0.416907   -0.102935
  C     -1.104645   -0.239625    0.126643
  H      2.358643    0.700966   -1.306573
  H      1.466900   -0.412762    1.382304
  H      4.569757    0.262058   -0.075544
  H      4.024236   -1.204082   -0.865896
  H      3.767683   -0.996869    0.870489
  H     -3.485464   -1.314681   -0.936498
  H     -3.692335   -1.134107    0.803175
  H     -4.576083   -0.084249   -0.302393
  H     -0.155903    1.508409    0.940995
  H      0.100952    1.309497   -0.782195
  H     -2.646373    1.155223    0.684348
  H     -2.441268    0.977092   -1.042548
  H     -1.127620   -0.800201    1.066921
  H     -0.915420   -0.975427   -0.660622

 Total Charge           Charge          ....    0
 Multiplicity           Mult            ....    1
 Number of Electrons    NEL             ....   56
 Basis Dimension        Dim             .... 1204

ORBITAL ENERGIES
----------------

  NO   OCC          E(Eh)            E(eV)
   0   2.0000     -11.220504      -305.3254
   1   2.0000     -11.217975      -305.2566
   2   2.0000     -11.216897      -305.2273
   3   2.0000     -11.215534      -305.1902
   4   2.0000     -11.214932      -305.1738
   5   2.0000     -11.213791      -305.1428
   6   2.0000     -11.208496      -304.9987
   7   2.0000      -1.092661       -29.7328
   8   2.0000      -1.054621       -28.6977
   9   2.0000      -0.992643       -27.0112
  10   2.0000      -0.920989       -25.0614
  11   2.0000      -0.846816       -23.0430
  12   2.0000      -0.789421       -21.4812
  13   2.0000      -0.743998       -20.2452
  14   2.0000      -0.642885       -17.4938
  15   2.0000      -0.613355       -16.6902
  16   2.0000      -0.599318       -16.3083
  17   2.0000      -0.583747       -15.8846
  18   2.0000      -0.561865       -15.2891
  19   2.0000      -0.549987       -14.9659
  20   2.0000      -0.535160       -14.5625
  21   2.0000      -0.514990       -14.0136
  22   2.0000      -0.497903       -13.5486
  23   2.0000      -0.483818       -13.1654
  24   2.0000      -0.470900       -12.8139
  25   2.0000      -0.462502       -12.5853
  26   2.0000      -0.454561       -12.3692
  27   2.0000      -0.341786        -9.3005
  28   0.0000       0.026823         0.7299
  29   0.0000       0.028650         0.7796
  30   0.0000       0.031598         0.8598
  31   0.0000       0.034305         0.9335
  32   0.0000       0.040983         1.1152

MULLIKEN ATOMIC CHARGES
-----------------------
   0 C :   -0.407546
   1 C :   -0.649335
   2 C :   -0.732164
   3 C :   -0.898589
   4 C :   -0.286766
   5 C :   -0.416926
   6 C :   -0.238333
   7 H :    0.364818
   8 H :    0.368429
   9 H :    0.227279
  10 H :    0.229358
  11 H :    0.225619
  12 H :    0.222196
  13 H :    0.221259
  14 H :    0.266477
  15 H :    0.311758
  16 H :    0.237746
  17 H :    0.226015
  18 H :    0.226413
  19 H :    0.257865
  20 H :    0.244428
Sum of atomic charges:   -0.0000000

LOEWDIN ATOMIC CHARGES
----------------------
   0 C :    0.387575
   1 C :    0.386372
   2 C :    0.886334
   3 C :    0.925875
   4 C :    0.485165
   5 C :    0.505107
   6 C :    0.503677
   7 H :   -0.325344
   8 H :   -0.318654
   9 H :   -0.297590
  10 H :   -0.297517
  11 H :   -0.318053
  12 H :   -0.285355
  13 H :   -0.285704
  14 H :   -0.284951
  15 H :   -0.277194
  16 H :   -0.300437
  17 H :   -0.274827
  18 H :   -0.273325
  19 H :   -0.272887
  20 H :   -0.268264

  Mayer bond orders larger than 0.100000
B(  0-C ,  1-C ) :   1.6366 B(  0-C ,  2-C ) :   0.8528 B(  0-C ,  4-C ) :  -0.2274
B(  0-C ,  7-H ) :   0.8144 B(  1-C ,  2-C ) :  -0.1219 B(  1-C ,  4-C ) :   1.1274
B(  1-C ,  6-C ) :  -0.1533 B(  1-C ,  8-H ) :   0.8315 B(  2-C ,  9-H ) :   1.0175
B(  2-C , 10-H ) :   0.9960 B(  2-C , 11-H ) :   0.9687 B(  3-C ,  5-C ) :   0.9982
B(  3-C , 12-H ) :   0.9600 B(  3-C , 13-H ) :   0.9582 B(  3-C , 14-H ) :   1.0197
B(  4-C ,  6-C ) :   1.0136 B(  4-C , 15-H ) :   0.8133 B(  4-C , 16-H ) :   0.8744
B(  5-C ,  6-C ) :   0.9045 B(  5-C , 17-H ) :   0.8892 B(  5-C , 18-H ) :   0.8839
B(  6-C , 19-H ) :   0.8368 B(  6-C , 20-H ) :   0.8912

MP2 TOTAL ENERGY:     -274.617342013 Eh
FINAL SINGLE POINT ENERGY      -274.617342013400

DIPOLE MOMENT
-------------
                                X             Y             Z
Electronic contribution:      2.93761       1.09037       0.22526
Nuclear contribution   :     -2.94804      -1.08090      -0.23997
                        -----------------------------------------
Total Dipole Moment    :     -0.01042       0.00947      -0.01471
                        -----------------------------------------
Magnitude (a.u.)       :      0.02037
Magnitude (Debye)      :      0.05176

Rotational constants in cm-1:     0.353593     0.026008     0.025416
Rotational constants in MHz : 10600.446206   779.695495   761.949883

                             ****ORCA TERMINATED NORMALLY****
TOTAL RUN TIME: 0 days 1 hours 2 minutes 36 seconds 281 msec
