                         Program Version 5.0.4 -  RELEASE  -
|  1> !ri-mp2 aug-cc-pvqz aug-cc-pvqz/c tightscf
|  2> %pal nprocs 16 end
|  3> %maxcore 3800
|  4>
|  5> * xyz 0 1
|  6> C      0.023324   -0.446803   -0.001938
|  7> C     -1.248311    0.370867   -0.000992
|  8> O     -1.311122    1.575337   -0.000848
|  9> C      1.295426    0.393952    0.000986
| 10> H     -0.011251   -1.111297    0.865725
| 11> H     -0.010002   -1.106796   -0.873123
| 12> O     -2.335846   -0.428912   -0.000518
| 13> C     -3.622317    0.232251   -0.000074
| 14> H     -3.685904    0.871725   -0.880589
| 15> H     -3.684388    0.873508    0.879239
| 16> C     -4.691361   -0.836651    0.001907
| 17> H     -5.676911   -0.369592    0.002210
| 18> H     -4.612492   -1.468437    0.886478
| 19> H     -4.613940   -1.470332   -0.881440
| 20> H      1.291757    1.055257   -0.868109
| 21> C      2.564097   -0.458735   -0.000991
| 22> H      1.291137    1.050182    0.873940
| 23> H      2.560871   -1.120937    0.871655
| 24> C      3.850414    0.368061    0.002127
| 25> H      2.561668   -1.115615   -0.877655
| 26> H      3.854143    1.028939   -0.869607
| 27> C      5.116582   -0.486575   -0.000026
| 28> H      3.853418    1.023461    0.877993
| 29> H      5.157271   -1.133612    0.878700
| 30> H      6.015118    0.131837    0.002416
| 31> H      5.158130   -1.127901   -0.882890
| 32> *
| 33>
| 34>                          ****END OF INPUT****

CARTESIAN COORDINATES (ANGSTROEM)
---------------------------------
  C      0.023324   -0.446803   -0.001938
  C     -1.248311    0.370867   -0.000992
  O     -1.311122    1.575337   -0.000848
  C      1.295426    0.393952    0.000986
  H     -0.011251   -1.111297    0.865725
  H     -0.010002   -1.106796   -0.873123
  O     -2.335846   -0.428912   -0.000518
  C     -3.622317    0.232251   -0.000074
  H     -3.685904    0.871725   -0.880589
  H     -3.684388    0.873508    0.879239
  C     -4.691361   -0.836651    0.001907
  H     -5.676911   -0.369592    0.002210
  H     -4.612492   -1.468437    0.886478
  H     -4.613940   -1.470332   -0.881440
  H      1.291757    1.055257   -0.868109
  C      2.564097   -0.458735   -0.000991
  H      1.291137    1.050182    0.873940
  H      2.560871   -1.120937    0.871655
  C      3.850414    0.368061    0.002127
  H      2.561668   -1.115615   -0.877655
  H      3.854143    1.028939   -0.869607
  C      5.116582   -0.486575   -0.000026
  H      3.853418    1.023461    0.877993
  H      5.157271   -1.133612    0.878700
  H      6.015118    0.131837    0.002416
  H      5.158130   -1.127901   -0.882890

 Total Charge           Charge          ....    0
 Multiplicity           Mult            ....    1
 Number of Electrons    NEL             ....   80
 Basis Dimension        Dim             .... 1536

ORBITAL ENERGIES
----------------

  NO   OCC          E(Eh)            E(eV)
   0   2.0000     -20.592779      -560.3580
   1   2.0000     -20.536789      -558.8344
   2   2.0000     -11.371964      -309.4469
   3   2.0000     -11.285714      -307.0999
   4   2.0000     -11.237931      -305.7997
   5   2.0000     -11.222796      -305.3878
   6   2.0000     -11.219558      -305.2997
   7   2.0000     -11.218121      -305.2606
   8   2.0000     -11.216703      -305.2220
   9   2.0000     -11.210260      -305.0467
  10   2.0000      -1.452048       -39.5122
  11   2.0000      -1.352803       -36.8116
  12   2.0000      -1.092624       -29.7318
  13   2.0000      -1.051745       -28.6194
  14   2.0000      -1.024695       -27.8834
  15   2.0000      -0.950004       -25.8509
  16   2.0000      -0.874176       -23.7875
  17   2.0000      -0.831465       -22.6253
  18   2.0000      -0.792923       -21.5765
  19   2.0000      -0.767674       -20.8895
  20   2.0000      -0.690654       -18.7936
  21   2.0000      -0.684303       -18.6208
  22   2.0000      -0.661869       -18.0104
  23   2.0000      -0.653134       -17.7727
  24   2.0000      -0.614205       -16.7134
  25   2.0000      -0.586868       -15.9695
  26   2.0000      -0.574154       -15.6235
  27   2.0000      -0.567555       -15.4440
  28   2.0000      -0.562375       -15.3030
  29   2.0000      -0.543666       -14.7939
  30   2.0000      -0.535357       -14.5678
  31   2.0000      -0.510420       -13.8892
  32   2.0000      -0.507014       -13.7966
  33   2.0000      -0.503036       -13.6883
  34   2.0000      -0.482661       -13.1339
  35   2.0000      -0.470042       -12.7905
  36   2.0000      -0.465314       -12.6618
  37   2.0000      -0.464029       -12.6269
  38   2.0000      -0.454900       -12.3785
  39   2.0000      -0.438113       -11.9217
  40   0.0000       0.024485         0.6663
  41   0.0000       0.026230         0.7138
  42   0.0000       0.032478         0.8838
  43   0.0000       0.032694         0.8896
  44   0.0000       0.038739         1.0541

MULLIKEN ATOMIC CHARGES
-----------------------
   0 C :   -0.560373
   1 C :    1.187216
   2 O :   -0.889422
   3 C :   -0.207569
   4 H :    0.257878
   5 H :    0.257980
   6 O :   -0.830087
   7 C :   -0.132375
   8 H :    0.287633
   9 H :    0.287469
  10 C :   -0.822026
  11 H :    0.272286
  12 H :    0.229223
  13 H :    0.229288
  14 H :    0.237713
  15 C :   -0.269935
  16 H :    0.237582
  17 H :    0.231543
  18 C :   -0.495175
  19 H :    0.231365
  20 H :    0.227536
  21 C :   -0.912872
  22 H :    0.227517
  23 H :    0.225992
  24 H :    0.265612
  25 H :    0.226000
Sum of atomic charges:   -0.0000000

LOEWDIN ATOMIC CHARGES
----------------------
   0 C :    0.464850
   1 C :   -1.039496
   2 O :    0.733799
   3 C :    0.494410
   4 H :   -0.283325
   5 H :   -0.283191
   6 O :    0.862729
   7 C :    0.157924
   8 H :   -0.307234
   9 H :   -0.307409
  10 C :    0.911571
  11 H :   -0.291446
  12 H :   -0.291304
  13 H :   -0.291300
  14 H :   -0.272433
  15 C :    0.511487
  16 H :   -0.272280
  17 H :   -0.267960
  18 C :    0.510872
  19 H :   -0.267964
  20 H :   -0.272169
  21 C :    0.927153
  22 H :   -0.272171
  23 H :   -0.285366
  24 H :   -0.284387
  25 H :   -0.285361

  Mayer bond orders larger than 0.100000
B(  0-C ,  1-C ) :   1.3046 B(  0-C ,  2-O ) :   0.1968 B(  0-C ,  3-C ) :   1.0818
B(  0-C ,  4-H ) :   0.8643 B(  0-C ,  5-H ) :   0.8636 B(  0-C ,  6-O ) :   0.1672
B(  0-C , 15-C ) :  -0.1391 B(  1-C ,  2-O ) :   1.0496 B(  1-C ,  3-C ) :  -0.3416
B(  1-C ,  6-O ) :   0.9252 B(  2-O ,  6-O ) :   0.1357 B(  2-O ,  7-C ) :   0.1152
B(  3-C , 14-H ) :   0.8300 B(  3-C , 15-C ) :   1.0884 B(  3-C , 16-H ) :   0.8300
B(  6-O ,  7-C ) :   0.8298 B(  7-C ,  8-H ) :   0.8495 B(  7-C ,  9-H ) :   0.8497
B(  7-C , 10-C ) :   0.9565 B( 10-C , 11-H ) :   0.9922 B( 10-C , 12-H ) :   0.9476
B( 10-C , 13-H ) :   0.9475 B( 15-C , 17-H ) :   0.8587 B( 15-C , 18-C ) :   1.0014
B( 15-C , 19-H ) :   0.8592 B( 15-C , 21-C ) :  -0.1200 B( 18-C , 20-H ) :   0.8780
B( 18-C , 21-C ) :   1.0429 B( 18-C , 22-H ) :   0.8783 B( 21-C , 23-H ) :   0.9541
B( 21-C , 24-H ) :   1.0239 B( 21-C , 25-H ) :   0.9541

MP2 TOTAL ENERGY:     -464.191506513 Eh
FINAL SINGLE POINT ENERGY      -464.191506513260

DIPOLE MOMENT
-------------
                                X             Y             Z
Electronic contribution:     -9.94127       3.39998      -0.00513
Nuclear contribution   :      9.78392      -4.13765       0.00513
                        -----------------------------------------
Total Dipole Moment    :     -0.15735      -0.73767      -0.00000
                        -----------------------------------------
Magnitude (a.u.)       :      0.75426
Magnitude (Debye)      :      1.91718

Rotational constants in cm-1:     0.180654     0.012069     0.011480
Rotational constants in MHz :  5415.860187   361.828803   344.174791

                             ****ORCA TERMINATED NORMALLY****
TOTAL RUN TIME: 0 days 2 hours 47 minutes 0 seconds 7 msec
