                         Program Version 5.0.4 -  RELEASE  -
|  1> !ri-mp2 aug-cc-pvqz aug-cc-pvqz/c tightscf
|  2> %pal nprocs 16 end
|  3>
|  4> * xyz 0 1
|  5> O      0.000000    0.357505    0.000000
|  6> H      0.720823   -1.378199    0.885457
|  7> H      0.720823   -1.378199   -0.885457
|  8> C      0.166852   -1.039701    0.000000
|  9> H      1.824588    0.770257    0.885970
| 10> H      1.824588    0.770257   -0.885970
| 11> C      1.244020    1.056932    0.000000
| 12> H      0.387071    2.824218   -0.883974
| 13> H      1.894071    3.101369    0.000000
| 14> H      0.387071    2.824218    0.883974
| 15> C      0.957977    2.542132    0.000000
| 16> N     -2.157411   -2.231286    0.000000
| 17> C     -1.145041   -1.688522    0.000000
| 18> *
| 19>
| 20>                          ****END OF INPUT****

CARTESIAN COORDINATES (ANGSTROEM)
---------------------------------
  O      0.000000    0.357505    0.000000
  H      0.720823   -1.378199    0.885457
  H      0.720823   -1.378199   -0.885457
  C      0.166852   -1.039701    0.000000
  H      1.824588    0.770257    0.885970
  H      1.824588    0.770257   -0.885970
  C      1.244020    1.056932    0.000000
  H      0.387071    2.824218   -0.883974
  H      1.894071    3.101369    0.000000
  H      0.387071    2.824218    0.883974
  C      0.957977    2.542132    0.000000
  N     -2.157411   -2.231286    0.000000
  C     -1.145041   -1.688522    0.000000

 Total Charge           Charge          ....    0
 Multiplicity           Mult            ....    1
 Number of Electrons    NEL             ....   46
 Basis Dimension        Dim             ....  802

ORBITAL ENERGIES
----------------

  NO   OCC          E(Eh)            E(eV)
   0   2.0000     -20.587960      -560.2269
   1   2.0000     -15.573704      -423.7820
   2   2.0000     -11.340260      -308.5842
   3   2.0000     -11.299051      -307.4628
   4   2.0000     -11.274619      -306.7980
   5   2.0000     -11.229411      -305.5678
   6   2.0000      -1.410108       -38.3710
   7   2.0000      -1.224727       -33.3265
   8   2.0000      -1.062094       -28.9010
   9   2.0000      -0.985537       -26.8178
  10   2.0000      -0.859650       -23.3923
  11   2.0000      -0.726731       -19.7753
  12   2.0000      -0.711180       -19.3522
  13   2.0000      -0.696971       -18.9656
  14   2.0000      -0.628753       -17.1092
  15   2.0000      -0.582208       -15.8427
  16   2.0000      -0.559189       -15.2163
  17   2.0000      -0.546362       -14.8673
  18   2.0000      -0.534820       -14.5532
  19   2.0000      -0.511284       -13.9127
  20   2.0000      -0.475759       -12.9461
  21   2.0000      -0.474423       -12.9097
  22   2.0000      -0.450288       -12.2530
  23   0.0000       0.019319         0.5257
  24   0.0000       0.029407         0.8002
  25   0.0000       0.030952         0.8422
  26   0.0000       0.036551         0.9946
  27   0.0000       0.050243         1.3672

MULLIKEN ATOMIC CHARGES
-----------------------
   0 O :   -0.757611
   1 H :    0.305192
   2 H :    0.305192
   3 C :   -0.039424
   4 H :    0.257677
   5 H :    0.257677
   6 C :    0.072373
   7 H :    0.255756
   8 H :    0.286359
   9 H :    0.255756
  10 C :   -0.909207
  11 N :   -0.649042
  12 C :    0.359300
Sum of atomic charges:   -0.0000000

LOEWDIN ATOMIC CHARGES
----------------------
   0 O :    0.867520
   1 H :   -0.323476
   2 H :   -0.323476
   3 C :    0.048599
   4 H :   -0.295573
   5 H :   -0.295573
   6 C :    0.150978
   7 H :   -0.289391
   8 H :   -0.290260
   9 H :   -0.289391
  10 C :    0.913697
  11 N :    0.399220
  12 C :   -0.272875

  Mayer bond orders larger than 0.100000
B(  0-O ,  3-C ) :   0.9139 B(  0-O ,  6-C ) :   0.7984 B(  1-H ,  3-C ) :   0.8505
B(  2-H ,  3-C ) :   0.8505 B(  3-C , 12-C ) :   1.1590 B(  4-H ,  6-C ) :   0.8669
B(  5-H ,  6-C ) :   0.8669 B(  6-C , 10-C ) :   0.9147 B(  7-H , 10-C ) :   0.9374
B(  8-H , 10-C ) :   0.9665 B(  9-H , 10-C ) :   0.9374 B( 11-N , 12-C ) :   2.5183

MP2 TOTAL ENERGY:     -286.127819178 Eh
FINAL SINGLE POINT ENERGY      -286.127819177665

DIPOLE MOMENT
-------------
                                X             Y             Z
Electronic contribution:     -5.91258      -6.94208       0.00000
Nuclear contribution   :      7.86336       7.64013       0.00000
                        -----------------------------------------
Total Dipole Moment    :      1.95079       0.69805       0.00000
                        -----------------------------------------
Magnitude (a.u.)       :      2.07192
Magnitude (Debye)      :      5.26640

Rotational constants in cm-1:     0.526140     0.049655     0.046561
Rotational constants in MHz : 15773.286452  1488.621240  1395.850485

                             ****ORCA TERMINATED NORMALLY****
TOTAL RUN TIME: 0 days 0 hours 16 minutes 29 seconds 79 msec
