                         Program Version 5.0.4 -  RELEASE  -
|  1> !ri-mp2 aug-cc-pvqz aug-cc-pvqz/c tightscf
|  2> %pal nprocs 16 end
|  3>
|  4> * xyz 0 1
|  5> Cl    4.447941   -0.116167    0.000012
|  6> N    -3.025270   -0.496796   -0.000055
|  7> N    -4.225241   -0.238014   -0.000076
|  8> N    -5.349023   -0.121568   -0.000107
|  9> C    -2.135877    0.693862    0.000077
| 10> C    -0.744389    0.279137    0.000046
| 11> C     0.418235   -0.030637    0.000023
| 12> C     1.770768   -0.449000   -0.000006
| 13> C     2.794415    0.405041    0.000048
| 14> H    -2.339149    1.308733   -0.883213
| 15> H    -2.339163    1.308547    0.883494
| 16> H     1.960606   -1.516013   -0.000076
| 17> H     2.680539    1.477792    0.000117
| 18> *
| 19>
| 20>                          ****END OF INPUT****

CARTESIAN COORDINATES (ANGSTROEM)
---------------------------------
  Cl     4.447941   -0.116167    0.000012
  N     -3.025270   -0.496796   -0.000055
  N     -4.225241   -0.238014   -0.000076
  N     -5.349023   -0.121568   -0.000107
  C     -2.135877    0.693862    0.000077
  C     -0.744389    0.279137    0.000046
  C      0.418235   -0.030637    0.000023
  C      1.770768   -0.449000   -0.000006
  C      2.794415    0.405041    0.000048
  H     -2.339149    1.308733   -0.883213
  H     -2.339163    1.308547    0.883494
  H      1.960606   -1.516013   -0.000076
  H      2.680539    1.477792    0.000117

 Total Charge           Charge          ....    0
 Multiplicity           Mult            ....    1
 Number of Electrons    NEL             ....   72
 Basis Dimension        Dim             ....  908

ORBITAL ENERGIES
----------------

  NO   OCC          E(Eh)            E(eV)
   0   2.0000    -104.851638     -2853.1581
   1   2.0000     -15.790681      -429.6863
   2   2.0000     -15.674844      -426.5342
   3   2.0000     -15.617221      -424.9662
   4   2.0000     -11.319805      -308.0276
   5   2.0000     -11.316004      -307.9241
   6   2.0000     -11.277191      -306.8680
   7   2.0000     -11.251581      -306.1711
   8   2.0000     -11.247747      -306.0668
   9   2.0000     -10.576788      -287.8090
  10   2.0000      -8.043932      -218.8865
  11   2.0000      -8.042147      -218.8379
  12   2.0000      -8.042143      -218.8378
  13   2.0000      -1.516891       -41.2767
  14   2.0000      -1.306107       -35.5410
  15   2.0000      -1.173390       -31.9296
  16   2.0000      -1.099474       -29.9182
  17   2.0000      -1.053782       -28.6749
  18   2.0000      -0.974465       -26.5166
  19   2.0000      -0.831470       -22.6255
  20   2.0000      -0.765444       -20.8288
  21   2.0000      -0.738039       -20.0831
  22   2.0000      -0.723765       -19.6947
  23   2.0000      -0.711014       -19.3477
  24   2.0000      -0.681756       -18.5515
  25   2.0000      -0.640967       -17.4416
  26   2.0000      -0.638271       -17.3682
  27   2.0000      -0.630242       -17.1498
  28   2.0000      -0.561330       -15.2746
  29   2.0000      -0.529899       -14.4193
  30   2.0000      -0.465687       -12.6720
  31   2.0000      -0.458962       -12.4890
  32   2.0000      -0.457222       -12.4416
  33   2.0000      -0.406824       -11.0702
  34   2.0000      -0.392065       -10.6686
  35   2.0000      -0.341623        -9.2960
  36   0.0000       0.022222         0.6047
  37   0.0000       0.032601         0.8871
  38   0.0000       0.034108         0.9281
  39   0.0000       0.037182         1.0118
  40   0.0000       0.057319         1.5597

MULLIKEN ATOMIC CHARGES
-----------------------
   0 Cl:   -0.188531
   1 N :   -0.300829
   2 N :    0.230671
   3 N :   -0.273017
   4 C :    0.075598
   5 C :   -0.306407
   6 C :   -0.077688
   7 C :   -0.002726
   8 C :   -0.659956
   9 H :    0.269410
  10 H :    0.269416
  11 H :    0.497633
  12 H :    0.466424
Sum of atomic charges:   -0.0000000

LOEWDIN ATOMIC CHARGES
----------------------
   0 Cl:    1.126135
   1 N :    0.318570
   2 N :   -0.281836
   3 N :    0.363945
   4 C :    0.142205
   5 C :    0.126245
   6 C :    0.083670
   7 C :    0.097601
   8 C :   -0.434245
   9 H :   -0.337466
  10 H :   -0.337464
  11 H :   -0.401521
  12 H :   -0.465840

  Mayer bond orders larger than 0.100000
B(  0-Cl,  7-C ) :  -0.1998 B(  0-Cl,  8-C ) :   1.0291 B(  1-N ,  2-N ) :   1.4700
B(  1-N ,  3-N ) :   0.2096 B(  1-N ,  4-C ) :   0.9397 B(  1-N ,  5-C ) :  -0.1072
B(  2-N ,  3-N ) :   2.2936 B(  2-N ,  4-C ) :  -0.1167 B(  4-C ,  5-C ) :   0.8421
B(  4-C ,  6-C ) :  -0.1691 B(  4-C ,  9-H ) :   0.9268 B(  4-C , 10-H ) :   0.9267
B(  5-C ,  6-C ) :   3.0044 B(  5-C ,  7-C ) :  -0.1056 B(  6-C ,  7-C ) :   0.8143
B(  6-C ,  8-C ) :  -0.1829 B(  7-C ,  8-C ) :   1.6823 B(  7-C , 11-H ) :   0.7844
B(  8-C , 12-H ) :   0.7128

MP2 TOTAL ENERGY:     -816.199188180 Eh
FINAL SINGLE POINT ENERGY      -816.199188179956

DIPOLE MOMENT
-------------
                                X             Y             Z
Electronic contribution:      6.04514      -1.85822      -0.00021
Nuclear contribution   :     -6.18463       2.61751       0.00029
                        -----------------------------------------
Total Dipole Moment    :     -0.13949       0.75929       0.00008
                        -----------------------------------------
Magnitude (a.u.)       :      0.77199
Magnitude (Debye)      :      1.96225

Rotational constants in cm-1:     0.660128     0.009923     0.009794
Rotational constants in MHz : 19790.143717   297.478130   293.608462

                             ****ORCA TERMINATED NORMALLY****
TOTAL RUN TIME: 0 days 0 hours 25 minutes 52 seconds 98 msec
