                         Program Version 5.0.4 -  RELEASE  -
|  1> !ri-mp2 aug-cc-pvqz aug-cc-pvqz/c tightscf
|  2> %pal nprocs 16 end
|  3>
|  4> * xyz 0 1
|  5> C      0.000000    0.000000       0.662415
|  6> C      0.000000    0.000000      -0.662415
|  7> H      0.000000    0.920717       1.231649
|  8> H      0.000000   -0.920717       1.231649
|  9> H      0.000000   -0.920717      -1.231649
| 10> H      0.000000    0.920717      -1.231649
| 11> *
| 12>
| 13>                          ****END OF INPUT****

CARTESIAN COORDINATES (ANGSTROEM)
---------------------------------
  C      0.000000    0.000000    0.662415
  C      0.000000    0.000000   -0.662415
  H      0.000000    0.920717    1.231649
  H      0.000000   -0.920717    1.231649
  H      0.000000   -0.920717   -1.231649
  H      0.000000    0.920717   -1.231649

 Total Charge           Charge          ....    0
 Multiplicity           Mult            ....    1
 Number of Electrons    NEL             ....   16
 Basis Dimension        Dim             ....  344

ORBITAL ENERGIES
----------------

  NO   OCC          E(Eh)            E(eV)
   0   2.0000     -11.229426      -305.5682
   1   2.0000     -11.227632      -305.5194
   2   2.0000      -1.036210       -28.1967
   3   2.0000      -0.792817       -21.5737
   4   2.0000      -0.643837       -17.5197
   5   2.0000      -0.590684       -16.0733
   6   2.0000      -0.506029       -13.7697
   7   2.0000      -0.379248       -10.3199
   8   0.0000       0.029234         0.7955
   9   0.0000       0.036217         0.9855
  10   0.0000       0.038299         1.0422
  11   0.0000       0.052931         1.4403
  12   0.0000       0.081083         2.2064

MULLIKEN ATOMIC CHARGES
-----------------------
   0 C :   -0.864633
   1 C :   -0.864633
   2 H :    0.432317
   3 H :    0.432317
   4 H :    0.432317
   5 H :    0.432317
Sum of atomic charges:    0.0000000

LOEWDIN ATOMIC CHARGES
----------------------
   0 C :    0.745318
   1 C :    0.745318
   2 H :   -0.372659
   3 H :   -0.372659
   4 H :   -0.372659
   5 H :   -0.372659

  Mayer bond orders larger than 0.100000
B(  0-C ,  1-C ) :   1.9504 B(  0-C ,  2-H ) :   0.8074 B(  0-C ,  3-H ) :   0.8074
B(  1-C ,  4-H ) :   0.8074 B(  1-C ,  5-H ) :   0.8074

MP2 TOTAL ENERGY:      -78.427597299 Eh
FINAL SINGLE POINT ENERGY       -78.427597298865

DIPOLE MOMENT
-------------
                                X             Y             Z
Electronic contribution:      0.00000      -0.00000       0.00000
Nuclear contribution   :      0.00000       0.00000       0.00000
                        -----------------------------------------
Total Dipole Moment    :      0.00000      -0.00000       0.00000
                        -----------------------------------------
Magnitude (a.u.)       :      0.00000
Magnitude (Debye)      :      0.00000

Rotational constants in cm-1:     4.932011     1.012041     0.839730
Rotational constants in MHz : 147857.975870 30340.219809 25174.460781

                             ****ORCA TERMINATED NORMALLY****
TOTAL RUN TIME: 0 days 0 hours 1 minutes 32 seconds 778 msec
