                         Program Version 5.0.4 -  RELEASE  -
|  1> !ri-mp2 aug-cc-pvqz aug-cc-pvqz/c tightscf
|  2> %pal nprocs 16 end
|  3>
|  4> * xyz 0 1
|  5> H      0.284273   -0.845671    1.087487
|  6> C      0.403159   -0.010172    0.405810
|  7> H     -0.632701    1.282616   -0.927159
|  8> Cl    -2.268012   -0.194803   -0.026317
|  9> C     -0.658000    0.458163   -0.230058
| 10> H      1.762492    1.394082   -0.449259
| 11> H      2.138737    0.922123    1.195638
| 12> C      1.787551    0.540851    0.231531
| 13> H      3.784823   -0.084931   -0.358058
| 14> H      2.833963   -1.363785    0.395683
| 15> H      2.491345   -0.877346   -1.263208
| 16> C      2.782835   -0.508081   -0.279571
| 17> *
| 18>
| 19>                          ****END OF INPUT****

CARTESIAN COORDINATES (ANGSTROEM)
---------------------------------
  H      0.284273   -0.845671    1.087487
  C      0.403159   -0.010172    0.405810
  H     -0.632701    1.282616   -0.927159
  Cl    -2.268012   -0.194803   -0.026317
  C     -0.658000    0.458163   -0.230058
  H      1.762492    1.394082   -0.449259
  H      2.138737    0.922123    1.195638
  C      1.787551    0.540851    0.231531
  H      3.784823   -0.084931   -0.358058
  H      2.833963   -1.363785    0.395683
  H      2.491345   -0.877346   -1.263208
  C      2.782835   -0.508081   -0.279571

 Total Charge           Charge          ....    0
 Multiplicity           Mult            ....    1
 Number of Electrons    NEL             ....   48
 Basis Dimension        Dim             ....  726

ORBITAL ENERGIES
----------------

  NO   OCC          E(Eh)            E(eV)
   0   2.0000    -104.832506     -2852.6375
   1   2.0000     -11.288313      -307.1706
   2   2.0000     -11.246758      -306.0398
   3   2.0000     -11.239979      -305.8554
   4   2.0000     -11.224058      -305.4221
   5   2.0000     -10.557660      -287.2885
   6   2.0000      -8.024789      -218.3656
   7   2.0000      -8.023097      -218.3196
   8   2.0000      -8.023062      -218.3186
   9   2.0000      -1.150314       -31.3016
  10   2.0000      -1.075454       -29.2646
  11   2.0000      -0.981554       -26.7094
  12   2.0000      -0.856259       -23.3000
  13   2.0000      -0.774970       -21.0880
  14   2.0000      -0.645507       -17.5651
  15   2.0000      -0.635424       -17.2908
  16   2.0000      -0.590107       -16.0576
  17   2.0000      -0.558804       -15.2058
  18   2.0000      -0.532471       -14.4893
  19   2.0000      -0.500798       -13.6274
  20   2.0000      -0.494728       -13.4622
  21   2.0000      -0.494184       -13.4474
  22   2.0000      -0.447115       -12.1666
  23   2.0000      -0.357216        -9.7203
  24   0.0000       0.025206         0.6859
  25   0.0000       0.032190         0.8759
  26   0.0000       0.035729         0.9722
  27   0.0000       0.036335         0.9887
  28   0.0000       0.051964         1.4140

MULLIKEN ATOMIC CHARGES
-----------------------
   0 H :    0.453329
   1 C :   -0.242620
   2 H :    0.419427
   3 Cl:   -0.254034
   4 C :   -0.534968
   5 H :    0.250957
   6 H :    0.275650
   7 C :   -0.309648
   8 H :    0.288909
   9 H :    0.238083
  10 H :    0.264655
  11 C :   -0.849742
Sum of atomic charges:    0.0000000

LOEWDIN ATOMIC CHARGES
----------------------
   0 H :   -0.359861
   1 C :    0.207102
   2 H :   -0.468277
   3 Cl:    1.087129
   4 C :   -0.384870
   5 H :   -0.310243
   6 H :   -0.284392
   7 C :    0.453597
   8 H :   -0.285178
   9 H :   -0.288957
  10 H :   -0.285215
  11 C :    0.919166

  Mayer bond orders larger than 0.100000
B(  0-H ,  1-C ) :   0.7636 B(  1-C ,  3-Cl) :  -0.1547 B(  1-C ,  4-C ) :   1.6521
B(  1-C ,  7-C ) :   0.8613 B(  2-H ,  4-C ) :   0.7616 B(  3-Cl,  4-C ) :   0.9210
B(  4-C ,  7-C ) :  -0.1125 B(  5-H ,  7-C ) :   0.9087 B(  6-H ,  7-C ) :   0.8634
B(  7-C , 11-C ) :   1.0466 B(  8-H , 11-C ) :   0.9435 B(  9-H , 11-C ) :   0.9315
B( 10-H , 11-C ) :   0.9304

MP2 TOTAL ENERGY:     -616.047316916 Eh
FINAL SINGLE POINT ENERGY      -616.047316915689

DIPOLE MOMENT
-------------
                                X             Y             Z
Electronic contribution:    -14.94111      -0.49128       0.26995
Nuclear contribution   :     15.83644       0.70262      -0.27997
                        -----------------------------------------
Total Dipole Moment    :      0.89533       0.21135      -0.01002
                        -----------------------------------------
Magnitude (a.u.)       :      0.91999
Magnitude (Debye)      :      2.33844

Rotational constants in cm-1:     0.599699     0.046198     0.045119
Rotational constants in MHz : 17978.528810  1384.969394  1352.634733

                             ****ORCA TERMINATED NORMALLY****
TOTAL RUN TIME: 0 days 0 hours 14 minutes 58 seconds 814 msec
