                         Program Version 5.0.4 -  RELEASE  -
|  1> !ri-mp2 aug-cc-pvqz aug-cc-pvqz/c tightscf
|  2> %pal nprocs 16 end
|  3>
|  4> * xyz 0 1
|  5> C     -0.154478    1.510212    0.000000
|  6> H     -1.217229    1.713662    0.000000
|  7> F      0.576176    2.632653    0.000000
|  8> C      0.400564    0.312634    0.000000
|  9> H      1.474625    0.185038    0.000000
| 10> C     -0.438047   -0.911202    0.000000
| 11> H     -1.510614   -0.713266    0.000000
| 12> F     -0.154478   -1.686065    1.097573
| 13> F     -0.154478   -1.686065   -1.097573
| 14> *
| 15>
| 16>                          ****END OF INPUT****

CARTESIAN COORDINATES (ANGSTROEM)
---------------------------------
  C     -0.154478    1.510212    0.000000
  H     -1.217229    1.713662    0.000000
  F      0.576176    2.632653    0.000000
  C      0.400564    0.312634    0.000000
  H      1.474625    0.185038    0.000000
  C     -0.438047   -0.911202    0.000000
  H     -1.510614   -0.713266    0.000000
  F     -0.154478   -1.686065    1.097573
  F     -0.154478   -1.686065   -1.097573

 Total Charge           Charge          ....    0
 Multiplicity           Mult            ....    1
 Number of Electrons    NEL             ....   48
 Basis Dimension        Dim             ....  618

ORBITAL ENERGIES
----------------

  NO   OCC          E(Eh)            E(eV)
   0   2.0000     -26.332128      -716.5336
   1   2.0000     -26.310408      -715.9426
   2   2.0000     -26.310390      -715.9421
   3   2.0000     -11.424541      -310.8776
   4   2.0000     -11.358358      -309.0766
   5   2.0000     -11.263894      -306.5061
   6   2.0000      -1.658931       -45.1418
   7   2.0000      -1.651584       -44.9419
   8   2.0000      -1.597635       -43.4739
   9   2.0000      -1.116506       -30.3817
  10   2.0000      -0.963185       -26.2096
  11   2.0000      -0.861173       -23.4337
  12   2.0000      -0.788241       -21.4491
  13   2.0000      -0.778050       -21.1718
  14   2.0000      -0.756668       -20.5900
  15   2.0000      -0.734500       -19.9867
  16   2.0000      -0.714574       -19.4445
  17   2.0000      -0.681316       -18.5395
  18   2.0000      -0.668240       -18.1837
  19   2.0000      -0.631831       -17.1930
  20   2.0000      -0.623096       -16.9553
  21   2.0000      -0.590662       -16.0727
  22   2.0000      -0.542228       -14.7548
  23   2.0000      -0.416202       -11.3254
  24   0.0000       0.023402         0.6368
  25   0.0000       0.033898         0.9224
  26   0.0000       0.038390         1.0446
  27   0.0000       0.063832         1.7370
  28   0.0000       0.072364         1.9691

MULLIKEN ATOMIC CHARGES
-----------------------
   0 C :    0.231445
   1 H :    0.576590
   2 F :   -0.671684
   3 C :   -0.708628
   4 H :    0.535120
   5 C :    0.960932
   6 H :    0.345548
   7 F :   -0.634662
   8 F :   -0.634662
Sum of atomic charges:   -0.0000000

LOEWDIN ATOMIC CHARGES
----------------------
   0 C :   -0.220631
   1 H :   -0.386861
   2 F :    0.758502
   3 C :    0.233832
   4 H :   -0.358880
   5 C :   -1.099198
   6 H :   -0.423296
   7 F :    0.748266
   8 F :    0.748266

  Mayer bond orders larger than 0.100000
B(  0-C ,  1-H ) :   0.6386 B(  0-C ,  2-F ) :   0.4768 B(  0-C ,  3-C ) :   1.9954
B(  2-F ,  3-C ) :   0.1954 B(  3-C ,  4-H ) :   0.6191 B(  3-C ,  5-C ) :   1.0579
B(  5-C ,  6-H ) :   0.8427 B(  5-C ,  7-F ) :   0.4450 B(  5-C ,  8-F ) :   0.4450

MP2 TOTAL ENERGY:     -415.167428960 Eh
FINAL SINGLE POINT ENERGY      -415.167428960093

DIPOLE MOMENT
-------------
                                X             Y             Z
Electronic contribution:      0.82691      -1.24515      -0.00000
Nuclear contribution   :     -1.42388       1.79799       0.00000
                        -----------------------------------------
Total Dipole Moment    :     -0.59696       0.55284      -0.00000
                        -----------------------------------------
Magnitude (a.u.)       :      0.81363
Magnitude (Debye)      :      2.06809

Rotational constants in cm-1:     0.295245     0.056306     0.050496
Rotational constants in MHz :  8851.213370  1688.016409  1513.835890

                             ****ORCA TERMINATED NORMALLY****
TOTAL RUN TIME: 0 days 0 hours 8 minutes 53 seconds 818 msec
