                         Program Version 5.0.4 -  RELEASE  -
|  1> !ri-mp2 aug-cc-pvqz aug-cc-pvqz/c tightscf
|  2> %pal nprocs 16 end
|  3>
|  4> * xyz 0 1
|  5> C     -0.252597    1.434985    0.748313
|  6> C     -0.252597    1.434985   -0.748313
|  7> C      0.389449    0.284544    0.000000
|  8> C     -0.252597   -1.039865    0.000000
|  9> C      0.387394   -2.205488    0.000000
| 10> H      0.401712    2.122298    1.265403
| 11> H     -1.185014    1.236819    1.258413
| 12> H     -1.185014    1.236819   -1.258413
| 13> H      0.401712    2.122298   -1.265403
| 14> H      1.471951    0.266496    0.000000
| 15> H     -1.339751   -1.036337    0.000000
| 16> H      1.469284   -2.259461    0.000000
| 17> H     -0.149199   -3.143904    0.000000
| 18> *
| 19>
| 20>                          ****END OF INPUT****

CARTESIAN COORDINATES (ANGSTROEM)
---------------------------------
  C     -0.252597    1.434985    0.748313
  C     -0.252597    1.434985   -0.748313
  C      0.389449    0.284544    0.000000
  C     -0.252597   -1.039865    0.000000
  C      0.387394   -2.205488    0.000000
  H      0.401712    2.122298    1.265403
  H     -1.185014    1.236819    1.258413
  H     -1.185014    1.236819   -1.258413
  H      0.401712    2.122298   -1.265403
  H      1.471951    0.266496    0.000000
  H     -1.339751   -1.036337    0.000000
  H      1.469284   -2.259461    0.000000
  H     -0.149199   -3.143904    0.000000

 Total Charge           Charge          ....    0
 Multiplicity           Mult            ....    1
 Number of Electrons    NEL             ....   38
 Basis Dimension        Dim             ....  768

ORBITAL ENERGIES
----------------

  NO   OCC          E(Eh)            E(eV)
   0   2.0000     -11.234602      -305.7091
   1   2.0000     -11.233231      -305.6718
   2   2.0000     -11.227914      -305.5271
   3   2.0000     -11.227241      -305.5087
   4   2.0000     -11.213733      -305.1412
   5   2.0000      -1.151491       -31.3337
   6   2.0000      -1.033524       -28.1236
   7   2.0000      -0.847154       -23.0522
   8   2.0000      -0.825611       -22.4660
   9   2.0000      -0.759021       -20.6540
  10   2.0000      -0.663529       -18.0555
  11   2.0000      -0.647417       -17.6171
  12   2.0000      -0.587215       -15.9789
  13   2.0000      -0.555569       -15.1178
  14   2.0000      -0.519701       -14.1418
  15   2.0000      -0.489279       -13.3140
  16   2.0000      -0.461990       -12.5714
  17   2.0000      -0.427495       -11.6327
  18   2.0000      -0.338155        -9.2017
  19   0.0000       0.027739         0.7548
  20   0.0000       0.031300         0.8517
  21   0.0000       0.032737         0.8908
  22   0.0000       0.037106         1.0097
  23   0.0000       0.048507         1.3199

MULLIKEN ATOMIC CHARGES
-----------------------
   0 C :   -0.723333
   1 C :   -0.723333
   2 C :   -0.207398
   3 C :   -0.596503
   4 C :   -0.740518
   5 H :    0.369309
   6 H :    0.338907
   7 H :    0.338907
   8 H :    0.369309
   9 H :    0.499589
  10 H :    0.434143
  11 H :    0.343597
  12 H :    0.297325
Sum of atomic charges:    0.0000000

LOEWDIN ATOMIC CHARGES
----------------------
   0 C :    0.591162
   1 C :    0.591162
   2 C :    0.114869
   3 C :    0.355069
   4 C :    0.795739
   5 H :   -0.272443
   6 H :   -0.279099
   7 H :   -0.279099
   8 H :   -0.272443
   9 H :   -0.291833
  10 H :   -0.331141
  11 H :   -0.358601
  12 H :   -0.363342

  Mayer bond orders larger than 0.100000
B(  0-C ,  1-C ) :   1.0978 B(  0-C ,  2-C ) :   0.8846 B(  0-C ,  5-H ) :   0.8417
B(  0-C ,  6-H ) :   0.8762 B(  1-C ,  2-C ) :   0.8846 B(  1-C ,  7-H ) :   0.8762
B(  1-C ,  8-H ) :   0.8417 B(  2-C ,  3-C ) :   0.7408 B(  2-C ,  4-C ) :  -0.1922
B(  2-C ,  9-H ) :   0.7062 B(  3-C ,  4-C ) :   1.7666 B(  3-C , 10-H ) :   0.7927
B(  3-C , 12-H ) :  -0.1197 B(  4-C , 11-H ) :   0.8933 B(  4-C , 12-H ) :   1.0319

MP2 TOTAL ENERGY:     -194.910496724 Eh
FINAL SINGLE POINT ENERGY      -194.910496724352

DIPOLE MOMENT
-------------
                                X             Y             Z
Electronic contribution:      0.10987      -0.33990      -0.00000
Nuclear contribution   :     -0.11977       0.57102       0.00000
                        -----------------------------------------
Total Dipole Moment    :     -0.00990       0.23111      -0.00000
                        -----------------------------------------
Magnitude (a.u.)       :      0.23133
Magnitude (Debye)      :      0.58798

Rotational constants in cm-1:     0.509525     0.101832     0.097894
Rotational constants in MHz : 15275.189038  3052.838927  2934.776601

                             ****ORCA TERMINATED NORMALLY****
TOTAL RUN TIME: 0 days 0 hours 22 minutes 53 seconds 177 msec
