                         Program Version 5.0.4 -  RELEASE  -
|  1> !ri-mp2 aug-cc-pvqz aug-cc-pvqz/c tightscf
|  2> %pal nprocs 16 end
|  3>
|  4> * xyz 0 1
|  5> C      3.202611   -0.606388   -0.196480
|  6> C      2.057940    0.309114    0.175790
|  7> O      0.826178   -0.417197   -0.065662
|  8> S     -0.533353    0.384629    0.403904
|  9> O     -0.730154    1.533535   -0.482721
| 10> O     -1.448610   -0.871512   -0.158233
| 11> C     -2.865846   -0.639006   -0.072695
| 12> H      3.194710   -1.508286    0.414470
| 13> H      3.137485   -0.896520   -1.244359
| 14> H      4.150175   -0.089481   -0.039400
| 15> H      2.057795    1.214467   -0.432283
| 16> H      2.110019    0.595329    1.230062
| 17> H     -3.159148    0.196081   -0.707639
| 18> H     -3.330310   -1.554113   -0.428240
| 19> H     -3.174611   -0.452460    0.958160
| 20> *
| 21>
| 22>                          ****END OF INPUT****

CARTESIAN COORDINATES (ANGSTROEM)
---------------------------------
  C      3.202611   -0.606388   -0.196480
  C      2.057940    0.309114    0.175790
  O      0.826178   -0.417197   -0.065662
  S     -0.533353    0.384629    0.403904
  O     -0.730154    1.533535   -0.482721
  O     -1.448610   -0.871512   -0.158233
  C     -2.865846   -0.639006   -0.072695
  H      3.194710   -1.508286    0.414470
  H      3.137485   -0.896520   -1.244359
  H      4.150175   -0.089481   -0.039400
  H      2.057795    1.214467   -0.432283
  H      2.110019    0.595329    1.230062
  H     -3.159148    0.196081   -0.707639
  H     -3.330310   -1.554113   -0.428240
  H     -3.174611   -0.452460    0.958160

 Total Charge           Charge          ....    0
 Multiplicity           Mult            ....    1
 Number of Electrons    NEL             ....   66
 Basis Dimension        Dim             ....  932

ORBITAL ENERGIES
----------------

  NO   OCC          E(Eh)            E(eV)
   0   2.0000     -92.155980     -2507.6917
   1   2.0000     -20.600851      -560.5776
   2   2.0000     -20.598686      -560.5188
   3   2.0000     -20.544109      -559.0336
   4   2.0000     -11.298667      -307.4524
   5   2.0000     -11.293366      -307.3081
   6   2.0000     -11.227937      -305.5277
   7   2.0000      -9.129806      -248.4347
   8   2.0000      -6.812050      -185.3653
   9   2.0000      -6.811570      -185.3523
  10   2.0000      -6.809269      -185.2896
  11   2.0000      -1.462691       -39.8018
  12   2.0000      -1.375179       -37.4205
  13   2.0000      -1.346217       -36.6324
  14   2.0000      -1.045790       -28.4574
  15   2.0000      -0.970604       -26.4115
  16   2.0000      -0.876570       -23.8527
  17   2.0000      -0.841915       -22.9097
  18   2.0000      -0.718195       -19.5431
  19   2.0000      -0.695623       -18.9289
  20   2.0000      -0.681259       -18.5380
  21   2.0000      -0.660183       -17.9645
  22   2.0000      -0.624504       -16.9936
  23   2.0000      -0.596022       -16.2186
  24   2.0000      -0.592619       -16.1260
  25   2.0000      -0.549858       -14.9624
  26   2.0000      -0.547277       -14.8922
  27   2.0000      -0.537023       -14.6131
  28   2.0000      -0.525652       -14.3037
  29   2.0000      -0.486665       -13.2428
  30   2.0000      -0.478119       -13.0103
  31   2.0000      -0.466886       -12.7046
  32   2.0000      -0.410420       -11.1681
  33   0.0000       0.025843         0.7032
  34   0.0000       0.028753         0.7824
  35   0.0000       0.035172         0.9571
  36   0.0000       0.038721         1.0537
  37   0.0000       0.046337         1.2609

MULLIKEN ATOMIC CHARGES
-----------------------
   0 C :   -0.890912
   1 C :   -0.015741
   2 O :   -0.874960
   3 S :    1.868095
   4 O :   -1.094335
   5 O :   -0.726328
   6 C :   -0.647213
   7 H :    0.246520
   8 H :    0.270471
   9 H :    0.289946
  10 H :    0.293666
  11 H :    0.285512
  12 H :    0.325762
  13 H :    0.405786
  14 H :    0.263731
Sum of atomic charges:   -0.0000000

LOEWDIN ATOMIC CHARGES
----------------------
   0 C :    0.896222
   1 C :    0.051045
   2 O :    0.502032
   3 S :    0.040055
   4 O :    0.108627
   5 O :    0.486446
   6 C :    0.467300
   7 H :   -0.293534
   8 H :   -0.292502
   9 H :   -0.291407
  10 H :   -0.330010
  11 H :   -0.324089
  12 H :   -0.344176
  13 H :   -0.341699
  14 H :   -0.334309

  Mayer bond orders larger than 0.100000
B(  0-C ,  1-C ) :   0.9838 B(  0-C ,  7-H ) :   0.9339 B(  0-C ,  8-H ) :   0.9164
B(  0-C ,  9-H ) :   0.9507 B(  1-C ,  2-O ) :   0.7154 B(  1-C , 10-H ) :   0.8562
B(  1-C , 11-H ) :   0.8694 B(  2-O ,  3-S ) :   0.8998 B(  2-O ,  5-O ) :  -0.1941
B(  3-S ,  4-O ) :   1.3895 B(  3-S ,  5-O ) :   0.7937 B(  5-O ,  6-C ) :   0.8515
B(  6-C , 12-H ) :   0.8803 B(  6-C , 13-H ) :   0.8587 B(  6-C , 14-H ) :   0.9268

MP2 TOTAL ENERGY:     -742.049361343 Eh
FINAL SINGLE POINT ENERGY      -742.049361342952

DIPOLE MOMENT
-------------
                                X             Y             Z
Electronic contribution:     -4.81489       2.11606       0.98946
Nuclear contribution   :      4.97318      -2.49894      -0.27239
                        -----------------------------------------
Total Dipole Moment    :      0.15829      -0.38288       0.71707
                        -----------------------------------------
Magnitude (a.u.)       :      0.82815
Magnitude (Debye)      :      2.10500

Rotational constants in cm-1:     0.185780     0.039408     0.034562
Rotational constants in MHz :  5569.544100  1181.431062  1036.143402

                             ****ORCA TERMINATED NORMALLY****
TOTAL RUN TIME: 0 days 0 hours 29 minutes 46 seconds 294 msec
