                         Program Version 5.0.4 -  RELEASE  -
|  1> !ri-mp2 aug-cc-pvqz aug-cc-pvqz/c tightscf
|  2> %pal nprocs 16 end
|  3>
|  4> * xyz 0 1
|  5> C     -2.320917   -0.461628    0.000000
|  6> H     -2.746079   -0.959757    0.875622
|  7> H     -2.746079   -0.959757   -0.875622
|  8> H     -2.655927    0.575371    0.000000
|  9> C     -0.831837   -0.562138    0.000000
| 10> H     -0.407944   -1.560710    0.000000
| 11> C      0.000000    0.484435    0.000000
| 12> H     -0.409236    1.490531    0.000000
| 13> C      1.415974    0.385941    0.000000
| 14> C      2.618043    0.340629    0.000000
| 15> H      3.677687    0.290883    0.000000
| 16> *
| 17>
| 18>                          ****END OF INPUT****

CARTESIAN COORDINATES (ANGSTROEM)
---------------------------------
  C     -2.320917   -0.461628    0.000000
  H     -2.746079   -0.959757    0.875622
  H     -2.746079   -0.959757   -0.875622
  H     -2.655927    0.575371    0.000000
  C     -0.831837   -0.562138    0.000000
  H     -0.407944   -1.560710    0.000000
  C      0.000000    0.484435    0.000000
  H     -0.409236    1.490531    0.000000
  C      1.415974    0.385941    0.000000
  C      2.618043    0.340629    0.000000
  H      3.677687    0.290883    0.000000

 Total Charge           Charge          ....    0
 Multiplicity           Mult            ....    1
 Number of Electrons    NEL             ....   36
 Basis Dimension        Dim             ....  676

ORBITAL ENERGIES
----------------

  NO   OCC          E(Eh)            E(eV)
   0   2.0000     -11.251958      -306.1813
   1   2.0000     -11.247796      -306.0681
   2   2.0000     -11.233448      -305.6777
   3   2.0000     -11.231860      -305.6344
   4   2.0000     -11.221621      -305.3558
   5   2.0000      -1.102964       -30.0132
   6   2.0000      -1.025633       -27.9089
   7   2.0000      -0.948049       -25.7977
   8   2.0000      -0.801937       -21.8218
   9   2.0000      -0.723041       -19.6750
  10   2.0000      -0.672537       -18.3007
  11   2.0000      -0.611236       -16.6326
  12   2.0000      -0.579078       -15.7575
  13   2.0000      -0.549266       -14.9463
  14   2.0000      -0.518031       -14.0963
  15   2.0000      -0.455761       -12.4019
  16   2.0000      -0.391496       -10.6531
  17   2.0000      -0.332119        -9.0374
  18   0.0000       0.025340         0.6895
  19   0.0000       0.029587         0.8051
  20   0.0000       0.033949         0.9238
  21   0.0000       0.041208         1.1213
  22   0.0000       0.044243         1.2039

MULLIKEN ATOMIC CHARGES
-----------------------
   0 C :   -0.671740
   1 H :    0.244007
   2 H :    0.244007
   3 H :    0.245229
   4 C :   -0.386360
   5 H :    0.435049
   6 C :   -0.256469
   7 H :    0.445725
   8 C :   -0.055122
   9 C :   -0.679328
  10 H :    0.435001
Sum of atomic charges:    0.0000000

LOEWDIN ATOMIC CHARGES
----------------------
   0 C :    0.892330
   1 H :   -0.292802
   2 H :   -0.292802
   3 H :   -0.314525
   4 C :    0.348533
   5 H :   -0.322899
   6 C :    0.243965
   7 H :   -0.368453
   8 C :    0.024325
   9 C :    0.552399
  10 H :   -0.470071

  Mayer bond orders larger than 0.100000
B(  0-C ,  1-H ) :   0.9769 B(  0-C ,  2-H ) :   0.9769 B(  0-C ,  3-H ) :   0.9525
B(  0-C ,  4-C ) :   0.8526 B(  4-C ,  5-H ) :   0.7545 B(  4-C ,  6-C ) :   1.5500
B(  4-C ,  8-C ) :  -0.1876 B(  6-C ,  7-H ) :   0.7496 B(  6-C ,  8-C ) :   1.0609
B(  6-C ,  9-C ) :  -0.2702 B(  8-C ,  9-C ) :   2.6568 B(  9-C , 10-H ) :   0.9497

MP2 TOTAL ENERGY:     -193.681968840 Eh
FINAL SINGLE POINT ENERGY      -193.681968840326

DIPOLE MOMENT
-------------
                                X             Y             Z
Electronic contribution:      4.95004       0.98900      -0.00000
Nuclear contribution   :     -5.40817      -1.14906       0.00000
                        -----------------------------------------
Total Dipole Moment    :     -0.45814      -0.16006      -0.00000
                        -----------------------------------------
Magnitude (a.u.)       :      0.48529
Magnitude (Debye)      :      1.23351

Rotational constants in cm-1:     1.317498     0.074961     0.071860
Rotational constants in MHz : 39497.602125  2247.259660  2154.302195

                             ****ORCA TERMINATED NORMALLY****
TOTAL RUN TIME: 0 days 0 hours 12 minutes 45 seconds 598 msec
