                         Program Version 5.0.4 -  RELEASE  -
|  1> !ri-mp2 aug-cc-pvqz aug-cc-pvqz/c tightscf
|  2> %pal nprocs 16 end
|  3>
|  4> * xyz 0 1
|  5> N    -0.059500     0.647189    0.000000
|  6> N     0.059500    -0.647189    0.000000
|  7> O    -1.192188     1.211304    0.000000
|  8> O     1.192188    -1.211304    0.000000
|  9> C     1.192188     1.415406    0.000000
| 10> C    -1.192188    -1.415406    0.000000
| 11> H     0.895007     2.456379    0.000000
| 12> H     1.774488     1.156491    0.882046
| 13> H     1.774488     1.156491   -0.882046
| 14> H    -0.895007    -2.456379    0.000000
| 15> H    -1.774488    -1.156491    0.882046
| 16> H    -1.774488    -1.156491   -0.882046
| 17> *
| 18>
| 19>                          ****END OF INPUT****

CARTESIAN COORDINATES (ANGSTROEM)
---------------------------------
  N     -0.059500    0.647189    0.000000
  N      0.059500   -0.647189    0.000000
  O     -1.192188    1.211304    0.000000
  O      1.192188   -1.211304    0.000000
  C      1.192188    1.415406    0.000000
  C     -1.192188   -1.415406    0.000000
  H      0.895007    2.456379    0.000000
  H      1.774488    1.156491    0.882046
  H      1.774488    1.156491   -0.882046
  H     -0.895007   -2.456379    0.000000
  H     -1.774488   -1.156491    0.882046
  H     -1.774488   -1.156491   -0.882046

 Total Charge           Charge          ....    0
 Multiplicity           Mult            ....    1
 Number of Electrons    NEL             ....   48
 Basis Dimension        Dim             ....  756

ORBITAL ENERGIES
----------------

  NO   OCC          E(Eh)            E(eV)
   0   2.0000     -20.551233      -559.2275
   1   2.0000     -20.551225      -559.2273
   2   2.0000     -15.776144      -429.2907
   3   2.0000     -15.775144      -429.2635
   4   2.0000     -11.293817      -307.3204
   5   2.0000     -11.293813      -307.3203
   6   2.0000      -1.551758       -42.2255
   7   2.0000      -1.431115       -38.9426
   8   2.0000      -1.203486       -32.7485
   9   2.0000      -1.115855       -30.3640
  10   2.0000      -0.997499       -27.1433
  11   2.0000      -0.811043       -22.0696
  12   2.0000      -0.760257       -20.6877
  13   2.0000      -0.746288       -20.3075
  14   2.0000      -0.717074       -19.5126
  15   2.0000      -0.626144       -17.0382
  16   2.0000      -0.622463       -16.9381
  17   2.0000      -0.614220       -16.7138
  18   2.0000      -0.592851       -16.1323
  19   2.0000      -0.563839       -15.3428
  20   2.0000      -0.539247       -14.6737
  21   2.0000      -0.490206       -13.3392
  22   2.0000      -0.441935       -12.0257
  23   2.0000      -0.333844        -9.0844
  24   0.0000       0.024852         0.6762
  25   0.0000       0.031685         0.8622
  26   0.0000       0.038689         1.0528
  27   0.0000       0.042538         1.1575
  28   0.0000       0.050733         1.3805

MULLIKEN ATOMIC CHARGES
-----------------------
   0 N :    0.550256
   1 N :    0.550256
   2 O :   -0.850430
   3 O :   -0.850430
   4 C :   -0.758649
   5 C :   -0.758649
   6 H :    0.466208
   7 H :    0.296307
   8 H :    0.296307
   9 H :    0.466208
  10 H :    0.296307
  11 H :    0.296307
Sum of atomic charges:   -0.0000000

LOEWDIN ATOMIC CHARGES
----------------------
   0 N :   -0.376789
   1 N :   -0.376789
   2 O :    0.517751
   3 O :    0.517751
   4 C :    0.769444
   5 C :    0.769444
   6 H :   -0.320548
   7 H :   -0.294929
   8 H :   -0.294929
   9 H :   -0.320548
  10 H :   -0.294929
  11 H :   -0.294929

  Mayer bond orders larger than 0.100000
B(  0-N ,  1-N ) :   1.3811 B(  0-N ,  2-O ) :   0.7964 B(  0-N ,  3-O ) :   0.2730
B(  0-N ,  4-C ) :   0.7395 B(  1-N ,  2-O ) :   0.2730 B(  1-N ,  3-O ) :   0.7964
B(  1-N ,  5-C ) :   0.7395 B(  4-C ,  6-H ) :   0.7799 B(  4-C ,  7-H ) :   0.9363
B(  4-C ,  8-H ) :   0.9363 B(  5-C ,  9-H ) :   0.7799 B(  5-C , 10-H ) :   0.9363
B(  5-C , 11-H ) :   0.9363

MP2 TOTAL ENERGY:     -339.176307227 Eh
FINAL SINGLE POINT ENERGY      -339.176307227335

DIPOLE MOMENT
-------------
                                X             Y             Z
Electronic contribution:      0.00000       0.00000       0.00000
Nuclear contribution   :     -0.00000       0.00000       0.00000
                        -----------------------------------------
Total Dipole Moment    :      0.00000       0.00000       0.00000
                        -----------------------------------------
Magnitude (a.u.)       :      0.00000
Magnitude (Debye)      :      0.00000

Rotational constants in cm-1:     0.175524     0.131056     0.077188
Rotational constants in MHz :  5262.081209  3928.970039  2314.041314

                             ****ORCA TERMINATED NORMALLY****
TOTAL RUN TIME: 0 days 0 hours 14 minutes 23 seconds 896 msec
