                         Program Version 5.0.4 -  RELEASE  -
|  1> !ri-mp2 aug-cc-pvqz aug-cc-pvqz/c tightscf
|  2> %pal nprocs 16 end
|  3>
|  4> * xyz 0 1
|  5> C      0.000000    0.452712    0.000000
|  6> C      0.928558   -0.489343    0.000000
|  7> C      2.397943   -0.202796    0.000000
|  8> Cl    -1.714743    0.109952    0.000000
|  9> H      0.209814    1.512034    0.000000
| 10> H      0.622206   -1.529082    0.000000
| 11> H      2.601687    0.867563    0.000000
| 12> H      2.878957   -0.641565    0.877384
| 13> H      2.878957   -0.641565   -0.877384
| 14> *
| 15>
| 16>                          ****END OF INPUT****

CARTESIAN COORDINATES (ANGSTROEM)
---------------------------------
  C      0.000000    0.452712    0.000000
  C      0.928558   -0.489343    0.000000
  C      2.397943   -0.202796    0.000000
  Cl    -1.714743    0.109952    0.000000
  H      0.209814    1.512034    0.000000
  H      0.622206   -1.529082    0.000000
  H      2.601687    0.867563    0.000000
  H      2.878957   -0.641565    0.877384
  H      2.878957   -0.641565   -0.877384

 Total Charge           Charge          ....    0
 Multiplicity           Mult            ....    1
 Number of Electrons    NEL             ....   40
 Basis Dimension        Dim             ....  554

ORBITAL ENERGIES
----------------

  NO   OCC          E(Eh)            E(eV)
   0   2.0000    -104.833095     -2852.6535
   1   2.0000     -11.288703      -307.1812
   2   2.0000     -11.250247      -306.1348
   3   2.0000     -11.236241      -305.7537
   4   2.0000     -10.558251      -287.3046
   5   2.0000      -8.025382      -218.3817
   6   2.0000      -8.023688      -218.3356
   7   2.0000      -8.023651      -218.3347
   8   2.0000      -1.150254       -31.3000
   9   2.0000      -1.055792       -28.7296
  10   2.0000      -0.926293       -25.2057
  11   2.0000      -0.776163       -21.1205
  12   2.0000      -0.635751       -17.2997
  13   2.0000      -0.622096       -16.9281
  14   2.0000      -0.584143       -15.8954
  15   2.0000      -0.539127       -14.6704
  16   2.0000      -0.513450       -13.9717
  17   2.0000      -0.498786       -13.5727
  18   2.0000      -0.448141       -12.1945
  19   2.0000      -0.358054        -9.7431
  20   0.0000       0.025330         0.6893
  21   0.0000       0.033684         0.9166
  22   0.0000       0.038672         1.0523
  23   0.0000       0.040321         1.0972
  24   0.0000       0.055669         1.5148

MULLIKEN ATOMIC CHARGES
-----------------------
   0 C :   -0.515063
   1 C :   -0.274372
   2 C :   -0.670288
   3 Cl:   -0.222586
   4 H :    0.456153
   5 H :    0.497179
   6 H :    0.252744
   7 H :    0.238116
   8 H :    0.238116
Sum of atomic charges:   -0.0000000

LOEWDIN ATOMIC CHARGES
----------------------
   0 C :   -0.400739
   1 C :    0.205571
   2 C :    0.868795
   3 Cl:    1.083128
   4 H :   -0.473862
   5 H :   -0.370754
   6 H :   -0.319165
   7 H :   -0.296487
   8 H :   -0.296487

  Mayer bond orders larger than 0.100000
B(  0-C ,  1-C ) :   1.7236 B(  0-C ,  3-Cl) :   0.9167 B(  0-C ,  4-H ) :   0.7166
B(  1-C ,  2-C ) :   0.8524 B(  1-C ,  5-H ) :   0.7224 B(  2-C ,  6-H ) :   0.9404
B(  2-C ,  7-H ) :   0.9702 B(  2-C ,  8-H ) :   0.9702

MP2 TOTAL ENERGY:     -576.811062280 Eh
FINAL SINGLE POINT ENERGY      -576.811062280484

DIPOLE MOMENT
-------------
                                X             Y             Z
Electronic contribution:    -10.54061       0.58784      -0.00000
Nuclear contribution   :     11.43132      -0.57910       0.00000
                        -----------------------------------------
Total Dipole Moment    :      0.89071       0.00874      -0.00000
                        -----------------------------------------
Magnitude (a.u.)       :      0.89075
Magnitude (Debye)      :      2.26411

Rotational constants in cm-1:     1.403118     0.080475     0.077191
Rotational constants in MHz : 42064.424391  2412.580115  2314.142782

                             ****ORCA TERMINATED NORMALLY****
TOTAL RUN TIME: 0 days 0 hours 7 minutes 23 seconds 231 msec
