                         Program Version 5.0.4 -  RELEASE  -
|  1> !ri-mp2 aug-cc-pvqz aug-cc-pvqz/c tightscf
|  2> %pal nprocs 16 end
|  3>
|  4> * xyz 0 1
|  5> C    -0.321563    -3.165600    0.000000
|  6> C     0.321563     3.165600    0.000000
|  7> C     0.321563     0.650169    0.000000
|  8> C    -0.321563    -0.650169    0.000000
|  9> C    -0.327188     1.819192    0.000000
| 10> C     0.327188    -1.819192    0.000000
| 11> H    -1.408837    -3.086565    0.000000
| 12> H     1.408837     3.086565    0.000000
| 13> H    -0.023595    -3.749001    0.875844
| 14> H    -0.023595    -3.749001   -0.875844
| 15> H     0.023595     3.749001    0.875844
| 16> H     0.023595     3.749001   -0.875844
| 17> H     1.408805     0.652661    0.000000
| 18> H    -1.408805    -0.652661    0.000000
| 19> H    -1.414062     1.807646    0.000000
| 20> H     1.414062    -1.807646    0.000000
| 21> *
| 22>
| 23>                          ****END OF INPUT****

CARTESIAN COORDINATES (ANGSTROEM)
---------------------------------
  C     -0.321563   -3.165600    0.000000
  C      0.321563    3.165600    0.000000
  C      0.321563    0.650169    0.000000
  C     -0.321563   -0.650169    0.000000
  C     -0.327188    1.819192    0.000000
  C      0.327188   -1.819192    0.000000
  H     -1.408837   -3.086565    0.000000
  H      1.408837    3.086565    0.000000
  H     -0.023595   -3.749001    0.875844
  H     -0.023595   -3.749001   -0.875844
  H      0.023595    3.749001    0.875844
  H      0.023595    3.749001   -0.875844
  H      1.408805    0.652661    0.000000
  H     -1.408805   -0.652661    0.000000
  H     -1.414062    1.807646    0.000000
  H      1.414062   -1.807646    0.000000

 Total Charge           Charge          ....    0
 Multiplicity           Mult            ....    1
 Number of Electrons    NEL             ....   46
 Basis Dimension        Dim             ....  940

ORBITAL ENERGIES
----------------

  NO   OCC          E(Eh)            E(eV)
   0   2.0000     -11.227370      -305.5123
   1   2.0000     -11.227350      -305.5117
   2   2.0000     -11.223018      -305.3938
   3   2.0000     -11.222173      -305.3708
   4   2.0000     -11.218986      -305.2841
   5   2.0000     -11.218986      -305.2841
   6   2.0000      -1.098888       -29.9023
   7   2.0000      -1.047681       -28.5088
   8   2.0000      -0.967820       -26.3357
   9   2.0000      -0.895371       -24.3643
  10   2.0000      -0.764457       -20.8019
  11   2.0000      -0.749847       -20.4044
  12   2.0000      -0.646624       -17.5955
  13   2.0000      -0.612392       -16.6640
  14   2.0000      -0.567032       -15.4297
  15   2.0000      -0.563851       -15.3432
  16   2.0000      -0.557979       -15.1834
  17   2.0000      -0.548162       -14.9163
  18   2.0000      -0.513824       -13.9819
  19   2.0000      -0.502426       -13.6717
  20   2.0000      -0.481068       -13.0905
  21   2.0000      -0.424814       -11.5598
  22   2.0000      -0.300627        -8.1805
  23   0.0000       0.026487         0.7207
  24   0.0000       0.028283         0.7696
  25   0.0000       0.031156         0.8478
  26   0.0000       0.041330         1.1247
  27   0.0000       0.044617         1.2141

MULLIKEN ATOMIC CHARGES
-----------------------
   0 C :   -0.707525
   1 C :   -0.707525
   2 C :   -0.429126
   3 C :   -0.429094
   4 C :   -0.365649
   5 C :   -0.365631
   6 H :    0.239854
   7 H :    0.239862
   8 H :    0.225382
   9 H :    0.225382
  10 H :    0.225382
  11 H :    0.225382
  12 H :    0.404911
  13 H :    0.404912
  14 H :    0.406735
  15 H :    0.406748
Sum of atomic charges:    0.0000000

LOEWDIN ATOMIC CHARGES
----------------------
   0 C :    0.884908
   1 C :    0.884908
   2 C :    0.332852
   3 C :    0.332852
   4 C :    0.372135
   5 C :    0.372135
   6 H :   -0.317320
   7 H :   -0.317320
   8 H :   -0.296609
   9 H :   -0.296609
  10 H :   -0.296609
  11 H :   -0.296609
  12 H :   -0.349408
  13 H :   -0.349408
  14 H :   -0.329950
  15 H :   -0.329950

  Mayer bond orders larger than 0.100000
B(  0-C ,  3-C ) :  -0.1991 B(  0-C ,  5-C ) :   0.9570 B(  0-C ,  6-H ) :   0.9578
B(  0-C ,  8-H ) :   0.9931 B(  0-C ,  9-H ) :   0.9931 B(  1-C ,  2-C ) :  -0.1991
B(  1-C ,  4-C ) :   0.9570 B(  1-C ,  7-H ) :   0.9578 B(  1-C , 10-H ) :   0.9931
B(  1-C , 11-H ) :   0.9931 B(  2-C ,  3-C ) :   1.0483 B(  2-C ,  4-C ) :   1.6127
B(  2-C ,  5-C ) :  -0.3625 B(  2-C , 12-H ) :   0.7821 B(  3-C ,  4-C ) :  -0.3625
B(  3-C ,  5-C ) :   1.6127 B(  3-C , 13-H ) :   0.7821 B(  4-C , 14-H ) :   0.7693
B(  5-C , 15-H ) :   0.7693

MP2 TOTAL ENERGY:     -234.164671274 Eh
FINAL SINGLE POINT ENERGY      -234.164671273760

DIPOLE MOMENT
-------------
                                X             Y             Z
Electronic contribution:      0.00000      -0.00000      -0.00000
Nuclear contribution   :      0.00000       0.00000       0.00000
                        -----------------------------------------
Total Dipole Moment    :      0.00000      -0.00000      -0.00000
                        -----------------------------------------
Magnitude (a.u.)       :      0.00000
Magnitude (Debye)      :      0.00000

Rotational constants in cm-1:     0.782163     0.040338     0.038907
Rotational constants in MHz : 23448.646717  1209.300989  1166.411682

                             ****ORCA TERMINATED NORMALLY****
TOTAL RUN TIME: 0 days 0 hours 30 minutes 40 seconds 548 msec
