                         Program Version 5.0.4 -  RELEASE  -
|  1> !ri-mp2 aug-cc-pvqz aug-cc-pvqz/c tightscf
|  2> %pal nprocs 16 end
|  3>
|  4> * xyz 0 1
|  5> C     0.123949    -1.862885       0.000000
|  6> C    -0.123949     1.862885       0.000000
|  7> C    -0.463693     0.483335       0.000000
|  8> C     0.463693    -0.483335       0.000000
|  9> N    -0.123949    -2.988322       0.000000
| 10> N     0.123949     2.988322       0.000000
| 11> H    -1.519242     0.244524       0.000000
| 12> H     1.519242    -0.244524       0.000000
| 13> *
| 14>
| 15>                          ****END OF INPUT****

CARTESIAN COORDINATES (ANGSTROEM)
---------------------------------
  C      0.123949   -1.862885    0.000000
  C     -0.123949    1.862885    0.000000
  C     -0.463693    0.483335    0.000000
  C      0.463693   -0.483335    0.000000
  N     -0.123949   -2.988322    0.000000
  N      0.123949    2.988322    0.000000
  H     -1.519242    0.244524    0.000000
  H      1.519242   -0.244524    0.000000

 Total Charge           Charge          ....    0
 Multiplicity           Mult            ....    1
 Number of Electrons    NEL             ....   40
 Basis Dimension        Dim             ....  572

ORBITAL ENERGIES
----------------

  NO   OCC          E(Eh)            E(eV)
   0   2.0000     -15.607395      -424.6988
   1   2.0000     -15.607394      -424.6988
   2   2.0000     -11.339730      -308.5697
   3   2.0000     -11.338071      -308.5246
   4   2.0000     -11.307002      -307.6792
   5   2.0000     -11.306999      -307.6791
   6   2.0000      -1.260404       -34.2973
   7   2.0000      -1.253757       -34.1165
   8   2.0000      -1.154188       -31.4070
   9   2.0000      -0.970634       -26.4123
  10   2.0000      -0.782119       -21.2825
  11   2.0000      -0.761139       -20.7116
  12   2.0000      -0.652705       -17.7610
  13   2.0000      -0.595544       -16.2056
  14   2.0000      -0.585944       -15.9443
  15   2.0000      -0.572146       -15.5689
  16   2.0000      -0.523243       -14.2382
  17   2.0000      -0.505990       -13.7687
  18   2.0000      -0.498419       -13.5627
  19   2.0000      -0.416634       -11.3372
  20   0.0000       0.014472         0.3938
  21   0.0000       0.019320         0.5257
  22   0.0000       0.026094         0.7101
  23   0.0000       0.049513         1.3473
  24   0.0000       0.054598         1.4857

MULLIKEN ATOMIC CHARGES
-----------------------
   0 C :    0.506196
   1 C :    0.506196
   2 C :   -0.396294
   3 C :   -0.396294
   4 N :   -0.621825
   5 N :   -0.621825
   6 H :    0.511923
   7 H :    0.511923
Sum of atomic charges:    0.0000000

LOEWDIN ATOMIC CHARGES
----------------------
   0 C :   -0.306012
   1 C :   -0.306012
   2 C :    0.240961
   3 C :    0.240961
   4 N :    0.415059
   5 N :    0.415059
   6 H :   -0.350008
   7 H :   -0.350008

  Mayer bond orders larger than 0.100000
B(  0-C ,  2-C ) :  -0.2589 B(  0-C ,  3-C ) :   1.3294 B(  0-C ,  4-N ) :   2.5364
B(  1-C ,  2-C ) :   1.3294 B(  1-C ,  3-C ) :  -0.2589 B(  1-C ,  5-N ) :   2.5364
B(  2-C ,  3-C ) :   1.4552 B(  2-C ,  6-H ) :   0.6872 B(  3-C ,  7-H ) :   0.6872

MP2 TOTAL ENERGY:     -262.646399905 Eh
FINAL SINGLE POINT ENERGY      -262.646399905368

DIPOLE MOMENT
-------------
                                X             Y             Z
Electronic contribution:     -0.00000      -0.00000       0.00000
Nuclear contribution   :      0.00000       0.00000       0.00000
                        -----------------------------------------
Total Dipole Moment    :     -0.00000      -0.00000       0.00000
                        -----------------------------------------
Magnitude (a.u.)       :      0.00000
Magnitude (Debye)      :      0.00000

Rotational constants in cm-1:     1.588485     0.049688     0.048181
Rotational constants in MHz : 47621.592615  1489.612868  1444.430787

                             ****ORCA TERMINATED NORMALLY****
TOTAL RUN TIME: 0 days 0 hours 5 minutes 51 seconds 722 msec
