                         Program Version 5.0.4 -  RELEASE  -
|  1> !ri-mp2 aug-cc-pvqz aug-cc-pvqz/c tightscf
|  2> %pal nprocs 16 end
|  3>
|  4> * xyz 0 1
|  5> C      0.000000    0.000000   -1.828651
|  6> C      0.000000    1.203661   -1.131682
|  7> C      0.000000   -1.203661   -1.131682
|  8> C      0.000000    1.212801    0.259047
|  9> C      0.000000   -1.212801    0.259047
| 10> C      0.000000    0.000000    0.924672
| 11> F      0.000000    0.000000    2.277491
| 12> H      0.000000    0.000000   -2.909624
| 13> H      0.000000    2.141917   -1.669399
| 14> H      0.000000   -2.141917   -1.669399
| 15> H      0.000000    2.134302    0.823249
| 16> H      0.000000   -2.134302    0.823249
| 17> *
| 18>
| 19>                          ****END OF INPUT****

CARTESIAN COORDINATES (ANGSTROEM)
---------------------------------
  C      0.000000    0.000000   -1.828651
  C      0.000000    1.203661   -1.131682
  C      0.000000   -1.203661   -1.131682
  C      0.000000    1.212801    0.259047
  C      0.000000   -1.212801    0.259047
  C      0.000000    0.000000    0.924672
  F      0.000000    0.000000    2.277491
  H      0.000000    0.000000   -2.909624
  H      0.000000    2.141917   -1.669399
  H      0.000000   -2.141917   -1.669399
  H      0.000000    2.134302    0.823249
  H      0.000000   -2.134302    0.823249

 Total Charge           Charge          ....    0
 Multiplicity           Mult            ....    1
 Number of Electrons    NEL             ....   50
 Basis Dimension        Dim             ....  790

ORBITAL ENERGIES
----------------

  NO   OCC          E(Eh)            E(eV)
   0   2.0000     -26.304504      -715.7819
   1   2.0000     -11.328200      -308.2560
   2   2.0000     -11.249696      -306.1198
   3   2.0000     -11.249635      -306.1181
   4   2.0000     -11.243472      -305.9504
   5   2.0000     -11.243455      -305.9500
   6   2.0000     -11.239550      -305.8437
   7   2.0000      -1.622096       -44.1395
   8   2.0000      -1.167110       -31.7587
   9   2.0000      -1.034526       -28.1509
  10   2.0000      -1.024283       -27.8722
  11   2.0000      -0.856834       -23.3156
  12   2.0000      -0.842226       -22.9181
  13   2.0000      -0.745538       -20.2871
  14   2.0000      -0.700030       -19.0488
  15   2.0000      -0.691496       -18.8166
  16   2.0000      -0.688339       -18.7307
  17   2.0000      -0.625291       -17.0150
  18   2.0000      -0.607746       -16.5376
  19   2.0000      -0.596630       -16.2351
  20   2.0000      -0.532596       -14.4927
  21   2.0000      -0.512141       -13.9361
  22   2.0000      -0.509168       -13.8552
  23   2.0000      -0.353429        -9.6173
  24   2.0000      -0.342295        -9.3143
  25   0.0000       0.024604         0.6695
  26   0.0000       0.028608         0.7785
  27   0.0000       0.032947         0.8965
  28   0.0000       0.042676         1.1613
  29   0.0000       0.046318         1.2604

MULLIKEN ATOMIC CHARGES
-----------------------
   0 C :   -0.266992
   1 C :   -0.377957
   2 C :   -0.377964
   3 C :   -0.416799
   4 C :   -0.416799
   5 C :    0.846830
   6 F :   -0.731786
   7 H :    0.311443
   8 H :    0.260337
   9 H :    0.260336
  10 H :    0.454678
  11 H :    0.454675
Sum of atomic charges:    0.0000000

LOEWDIN ATOMIC CHARGES
----------------------
   0 C :    0.330874
   1 C :    0.321866
   2 C :    0.321866
   3 C :    0.294994
   4 C :    0.294994
   5 C :   -0.690721
   6 F :    0.764615
   7 H :   -0.328112
   8 H :   -0.322131
   9 H :   -0.322131
  10 H :   -0.333056
  11 H :   -0.333056

  Mayer bond orders larger than 0.100000
B(  0-C ,  1-C ) :   1.1861 B(  0-C ,  2-C ) :   1.1861 B(  0-C ,  5-C ) :   0.1296
B(  0-C ,  7-H ) :   1.0010 B(  1-C ,  3-C ) :   1.2646 B(  1-C ,  5-C ) :  -0.1471
B(  1-C ,  8-H ) :   1.0813 B(  2-C ,  4-C ) :   1.2646 B(  2-C ,  5-C ) :  -0.1471
B(  2-C ,  9-H ) :   1.0813 B(  3-C ,  5-C ) :   1.3715 B(  3-C ,  6-F ) :   0.1590
B(  3-C , 10-H ) :   0.7876 B(  4-C ,  5-C ) :   1.3714 B(  4-C ,  6-F ) :   0.1590
B(  4-C , 11-H ) :   0.7876

MP2 TOTAL ENERGY:     -330.974656212 Eh
FINAL SINGLE POINT ENERGY      -330.974656211876

DIPOLE MOMENT
-------------
                                X             Y             Z
Electronic contribution:     -0.00000      -0.00000       5.98645
Nuclear contribution   :      0.00000       0.00000      -6.69429
                        -----------------------------------------
Total Dipole Moment    :     -0.00000      -0.00000      -0.70784
                        -----------------------------------------
Magnitude (a.u.)       :      0.70784
Magnitude (Debye)      :      1.79919

Rotational constants in cm-1:     0.190333     0.085838     0.059158
Rotational constants in MHz :  5706.047718  2573.359945  1773.522363

                             ****ORCA TERMINATED NORMALLY****
TOTAL RUN TIME: 0 days 0 hours 25 minutes 8 seconds 517 msec
