                         Program Version 5.0.4 -  RELEASE  -
|  1> !ri-mp2 aug-cc-pvqz aug-cc-pvqz/c tightscf
|  2> %pal nprocs 16 end
|  3>
|  4> * xyz 0 1
|  5> F      0.332657   -1.506812    0.000000
|  6> N      0.468461    1.859310    0.000000
|  7> C     -0.629654   -0.510772    0.000000
|  8> C      0.000000    0.810536    0.000000
|  9> H     -1.247608   -0.626221    0.891185
| 10> H     -1.247608   -0.626221   -0.891185
| 11> *
| 12>
| 13>                          ****END OF INPUT****

CARTESIAN COORDINATES (ANGSTROEM)
---------------------------------
  F      0.332657   -1.506812    0.000000
  N      0.468461    1.859310    0.000000
  C     -0.629654   -0.510772    0.000000
  C      0.000000    0.810536    0.000000
  H     -1.247608   -0.626221    0.891185
  H     -1.247608   -0.626221   -0.891185

 Total Charge           Charge          ....    0
 Multiplicity           Mult            ....    1
 Number of Electrons    NEL             ....   30
 Basis Dimension        Dim             ....  412

ORBITAL ENERGIES
----------------

  NO   OCC          E(Eh)            E(eV)
   0   2.0000     -26.322499      -716.2716
   1   2.0000     -15.596366      -424.3987
   2   2.0000     -11.384156      -309.7786
   3   2.0000     -11.293396      -307.3089
   4   2.0000      -1.633768       -44.4571
   5   2.0000      -1.245447       -33.8903
   6   2.0000      -1.047060       -28.4920
   7   2.0000      -0.784956       -21.3597
   8   2.0000      -0.753323       -20.4989
   9   2.0000      -0.735711       -20.0197
  10   2.0000      -0.631995       -17.1975
  11   2.0000      -0.601097       -16.3567
  12   2.0000      -0.575095       -15.6491
  13   2.0000      -0.497521       -13.5382
  14   2.0000      -0.486247       -13.2314
  15   0.0000       0.019441         0.5290
  16   0.0000       0.034588         0.9412
  17   0.0000       0.051203         1.3933
  18   0.0000       0.060773         1.6537
  19   0.0000       0.085248         2.3197

MULLIKEN ATOMIC CHARGES
-----------------------
   0 F :   -0.588905
   1 N :   -0.529860
   2 C :    0.231669
   3 C :    0.206916
   4 H :    0.340090
   5 H :    0.340090
Sum of atomic charges:    0.0000000

LOEWDIN ATOMIC CHARGES
----------------------
   0 F :    0.755779
   1 N :    0.392307
   2 C :   -0.121195
   3 C :   -0.297258
   4 H :   -0.364817
   5 H :   -0.364817

  Mayer bond orders larger than 0.100000
B(  0-F ,  2-C ) :   0.5227 B(  1-N ,  3-C ) :   2.6588 B(  2-C ,  3-C ) :   0.9466
B(  2-C ,  4-H ) :   0.8645 B(  2-C ,  5-H ) :   0.8645

MP2 TOTAL ENERGY:     -231.681304725 Eh
FINAL SINGLE POINT ENERGY      -231.681304724971

DIPOLE MOMENT
-------------
                                X             Y             Z
Electronic contribution:      1.54672      -1.00305       0.00000
Nuclear contribution   :     -2.69195       0.23530       0.00000
                        -----------------------------------------
Total Dipole Moment    :     -1.14524      -0.76775       0.00000
                        -----------------------------------------
Magnitude (a.u.)       :      1.37877
Magnitude (Debye)      :      3.50455

Rotational constants in cm-1:     1.219841     0.159490     0.144932
Rotational constants in MHz : 36569.923875  4781.400259  4344.949230

                             ****ORCA TERMINATED NORMALLY****
TOTAL RUN TIME: 0 days 0 hours 1 minutes 49 seconds 589 msec
