                         Program Version 5.0.4 -  RELEASE  -
|  1> !ri-mp2 aug-cc-pvqz aug-cc-pvqz/c tightscf
|  2> %pal nprocs 16 end
|  3>
|  4> * xyz 0 1
|  5> C      0.000000    0.000000   -0.095596
|  6> C      0.000000    0.000000   -1.287136
|  7> F      0.000000    0.000000    1.182582
|  8> H      0.000000    0.000000   -2.346846
|  9> *
| 10>
| 11>                          ****END OF INPUT****

CARTESIAN COORDINATES (ANGSTROEM)
---------------------------------
  C      0.000000    0.000000   -0.095596
  C      0.000000    0.000000   -1.287136
  F      0.000000    0.000000    1.182582
  H      0.000000    0.000000   -2.346846

 Total Charge           Charge          ....    0
 Multiplicity           Mult            ....    1
 Number of Electrons    NEL             ....   22
 Basis Dimension        Dim             ....  286

ORBITAL ENERGIES
----------------

  NO   OCC          E(Eh)            E(eV)
   0   2.0000     -26.382337      -717.8999
   1   2.0000     -11.338203      -308.5282
   2   2.0000     -11.245913      -306.0168
   3   2.0000      -1.705164       -46.3999
   4   2.0000      -1.053409       -28.6647
   5   2.0000      -0.860656       -23.4196
   6   2.0000      -0.760132       -20.6842
   7   2.0000      -0.760132       -20.6842
   8   2.0000      -0.724238       -19.7075
   9   2.0000      -0.419332       -11.4106
  10   2.0000      -0.419332       -11.4106
  11   0.0000       0.025243         0.6869
  12   0.0000       0.046359         1.2615
  13   0.0000       0.073473         1.9993
  14   0.0000       0.073473         1.9993
  15   0.0000       0.086452         2.3525

MULLIKEN ATOMIC CHARGES
-----------------------
   0 C :    0.657617
   1 C :   -0.663676
   2 F :   -0.533934
   3 H :    0.539993
Sum of atomic charges:    0.0000000

LOEWDIN ATOMIC CHARGES
----------------------
   0 C :   -0.608524
   1 C :    0.422515
   2 F :    0.687534
   3 H :   -0.501525

  Mayer bond orders larger than 0.100000
B(  0-C ,  1-C ) :   2.8047 B(  0-C ,  2-F ) :   0.6511 B(  1-C ,  3-H ) :   0.7215

MP2 TOTAL ENERGY:     -176.324011038 Eh
FINAL SINGLE POINT ENERGY      -176.324011038124

DIPOLE MOMENT
-------------
                                X             Y             Z
Electronic contribution:     -0.00000       0.00000       2.94426
Nuclear contribution   :      0.00000       0.00000      -3.29838
                        -----------------------------------------
Total Dipole Moment    :     -0.00000       0.00000      -0.35412
                        -----------------------------------------
Magnitude (a.u.)       :      0.35412
Magnitude (Debye)      :      0.90011

Rotational constants in cm-1:     0.000000     0.325111     0.325111
Rotational constants in MHz :     0.000000  9746.588029  9746.588029

                             ****ORCA TERMINATED NORMALLY****
TOTAL RUN TIME: 0 days 0 hours 0 minutes 50 seconds 941 msec
