                         Program Version 5.0.4 -  RELEASE  -
|  1> !ri-mp2 aug-cc-pvqz aug-cc-pvqz/c tightscf
|  2> %pal nprocs 16 end
|  3>
|  4> * xyz 0 1
|  5> C      0.000000    0.000000   -0.526958
|  6> O      0.000000    0.000000    0.673270
|  7> H      0.000000    0.938263   -1.112205
|  8> H      0.000000   -0.938263   -1.112205
|  9> *
| 10>
| 11>                          ****END OF INPUT****

CARTESIAN COORDINATES (ANGSTROEM)
---------------------------------
  C      0.000000    0.000000   -0.526958
  O      0.000000    0.000000    0.673270
  H      0.000000    0.938263   -1.112205
  H      0.000000   -0.938263   -1.112205

 Total Charge           Charge          ....    0
 Multiplicity           Mult            ....    1
 Number of Electrons    NEL             ....   16
 Basis Dimension        Dim             ....  252

ORBITAL ENERGIES
----------------

  NO   OCC          E(Eh)            E(eV)
   0   2.0000     -20.576137      -559.9051
   1   2.0000     -11.341080      -308.6065
   2   2.0000      -1.409838       -38.3637
   3   2.0000      -0.869070       -23.6486
   4   2.0000      -0.695160       -18.9163
   5   2.0000      -0.654292       -17.8042
   6   2.0000      -0.540026       -14.6948
   7   2.0000      -0.442771       -12.0484
   8   0.0000       0.023507         0.6397
   9   0.0000       0.038044         1.0352
  10   0.0000       0.056544         1.5386
  11   0.0000       0.067160         1.8275
  12   0.0000       0.118553         3.2260

MULLIKEN ATOMIC CHARGES
-----------------------
   0 C :   -0.221552
   1 O :   -0.578366
   2 H :    0.399959
   3 H :    0.399959
Sum of atomic charges:    0.0000000

LOEWDIN ATOMIC CHARGES
----------------------
   0 C :    0.130047
   1 O :    0.644887
   2 H :   -0.387467
   3 H :   -0.387467

  Mayer bond orders larger than 0.100000
B(  0-C ,  1-O ) :   1.8684 B(  0-C ,  2-H ) :   0.7984 B(  0-C ,  3-H ) :   0.7984

MP2 TOTAL ENERGY:     -114.348493248 Eh
FINAL SINGLE POINT ENERGY      -114.348493247576

DIPOLE MOMENT
-------------
                                X             Y             Z
Electronic contribution:      0.00000      -0.00000       1.10703
Nuclear contribution   :      0.00000       0.00000      -2.21550
                        -----------------------------------------
Total Dipole Moment    :      0.00000      -0.00000      -1.10847
                        -----------------------------------------
Magnitude (a.u.)       :      1.10847
Magnitude (Debye)      :      2.81751

Rotational constants in cm-1:     9.498547     1.304764     1.147182
Rotational constants in MHz : 284759.285973 39115.833550 34391.640977

                             ****ORCA TERMINATED NORMALLY****
TOTAL RUN TIME: 0 days 0 hours 1 minutes 10 seconds 690 msec
