                         Program Version 5.0.4 -  RELEASE  -
|  1> !ri-mp2 aug-cc-pvqz aug-cc-pvqz/c tightscf
|  2> %pal nprocs 16 end
|  3>
|  4> * xyz 0 1
|  5> C      0.000000    0.806204        0.000000
|  6> O      1.118460    1.175635        0.000000
|  7> Cl    -0.473479   -0.921920        0.000000
|  8> H     -0.898535    1.430335        0.000000
|  9> *
| 10>
| 11>                          ****END OF INPUT****

CARTESIAN COORDINATES (ANGSTROEM)
---------------------------------
  C      0.000000    0.806204    0.000000
  O      1.118460    1.175635    0.000000
  Cl    -0.473479   -0.921920    0.000000
  H     -0.898535    1.430335    0.000000

 Total Charge           Charge          ....    0
 Multiplicity           Mult            ....    1
 Number of Electrons    NEL             ....   32
 Basis Dimension        Dim             ....  290

ORBITAL ENERGIES
----------------

  NO   OCC          E(Eh)            E(eV)
   0   2.0000    -104.861082     -2853.4151
   1   2.0000     -20.612053      -560.8825
   2   2.0000     -11.418858      -310.7229
   3   2.0000     -10.586711      -288.0791
   4   2.0000      -8.053556      -219.1484
   5   2.0000      -8.051970      -219.1052
   6   2.0000      -8.051846      -219.1019
   7   2.0000      -1.464867       -39.8610
   8   2.0000      -1.140828       -31.0435
   9   2.0000      -0.860422       -23.4133
  10   2.0000      -0.718491       -19.5511
  11   2.0000      -0.672748       -18.3064
  12   2.0000      -0.606938       -16.5156
  13   2.0000      -0.482847       -13.1389
  14   2.0000      -0.478983       -13.0338
  15   2.0000      -0.472606       -12.8603
  16   0.0000       0.024666         0.6712
  17   0.0000       0.052751         1.4354
  18   0.0000       0.063558         1.7295
  19   0.0000       0.067883         1.8472
  20   0.0000       0.095627         2.6022

MULLIKEN ATOMIC CHARGES
-----------------------
   0 C :    0.089493
   1 O :   -0.501421
   2 Cl:   -0.083410
   3 H :    0.495338
Sum of atomic charges:    0.0000000

LOEWDIN ATOMIC CHARGES
----------------------
   0 C :   -1.004514
   1 O :    0.552149
   2 Cl:    0.964904
   3 H :   -0.512538

  Mayer bond orders larger than 0.100000
B(  0-C ,  1-O ) :   1.9404 B(  0-C ,  2-Cl) :   1.0610 B(  0-C ,  3-H ) :   0.6799

MP2 TOTAL ENERGY:     -573.509200301 Eh
FINAL SINGLE POINT ENERGY      -573.509200300889

DIPOLE MOMENT
-------------
                                X             Y             Z
Electronic contribution:     -0.61718      -2.29674       0.00000
Nuclear contribution   :     -0.18971       2.58009       0.00000
                        -----------------------------------------
Total Dipole Moment    :     -0.80689       0.28335       0.00000
                        -----------------------------------------
Magnitude (a.u.)       :      0.85520
Magnitude (Debye)      :      2.17374

Rotational constants in cm-1:     2.617587     0.199897     0.185714
Rotational constants in MHz : 78473.292386  5992.746676  5567.569728

                             ****ORCA TERMINATED NORMALLY****
TOTAL RUN TIME: 0 days 0 hours 1 minutes 32 seconds 479 msec
