                         Program Version 5.0.4 -  RELEASE  -
|  1> !ri-mp2 aug-cc-pvqz aug-cc-pvqz/c tightscf
|  2> %pal nprocs 16 end
|  3>
|  4> * xyz 0 1
|  5> C      0.000000    0.421048        0.000000
|  6> O     -1.028183   -0.446144        0.000000
|  7> O      1.158545    0.117343        0.000000
|  8> H     -0.383251    1.447877        0.000000
|  9> H     -0.659642   -1.343762        0.000000
| 10> *
| 11>
| 12>                          ****END OF INPUT****

CARTESIAN COORDINATES (ANGSTROEM)
---------------------------------
  C      0.000000    0.421048    0.000000
  O     -1.028183   -0.446144    0.000000
  O      1.158545    0.117343    0.000000
  H     -0.383251    1.447877    0.000000
  H     -0.659642   -1.343762    0.000000

 Total Charge           Charge          ....    0
 Multiplicity           Mult            ....    1
 Number of Electrons    NEL             ....   24
 Basis Dimension        Dim             ....  332

ORBITAL ENERGIES
----------------

  NO   OCC          E(Eh)            E(eV)
   0   2.0000     -20.625844      -561.2577
   1   2.0000     -20.565470      -559.6149
   2   2.0000     -11.395868      -310.0973
   3   2.0000      -1.477216       -40.1971
   4   2.0000      -1.379107       -37.5274
   5   2.0000      -0.897214       -24.4144
   6   2.0000      -0.726450       -19.7677
   7   2.0000      -0.714182       -19.4339
   8   2.0000      -0.638907       -17.3856
   9   2.0000      -0.605757       -16.4835
  10   2.0000      -0.498973       -13.5778
  11   2.0000      -0.475245       -12.9321
  12   0.0000       0.026115         0.7106
  13   0.0000       0.034321         0.9339
  14   0.0000       0.064593         1.7577
  15   0.0000       0.069943         1.9032
  16   0.0000       0.096020         2.6128

MULLIKEN ATOMIC CHARGES
-----------------------
   0 C :    0.338313
   1 O :   -0.584170
   2 O :   -0.633844
   3 H :    0.530511
   4 H :    0.349190
Sum of atomic charges:   -0.0000000

LOEWDIN ATOMIC CHARGES
----------------------
   0 C :   -0.632643
   1 O :    1.214479
   2 O :    0.648399
   3 H :   -0.404186
   4 H :   -0.826049

  Mayer bond orders larger than 0.100000
B(  0-C ,  1-O ) :   1.0657 B(  0-C ,  2-O ) :   1.8071 B(  0-C ,  3-H ) :   0.6882
B(  1-O ,  4-H ) :   0.8700

MP2 TOTAL ENERGY:     -189.540407134 Eh
FINAL SINGLE POINT ENERGY      -189.540407134143

DIPOLE MOMENT
-------------
                                X             Y             Z
Electronic contribution:      0.34383      -0.14514      -0.00000
Nuclear contribution   :     -1.01933       0.09689       0.00000
                        -----------------------------------------
Total Dipole Moment    :     -0.67549      -0.04825      -0.00000
                        -----------------------------------------
Magnitude (a.u.)       :      0.67721
Magnitude (Debye)      :      1.72134

Rotational constants in cm-1:     2.601862     0.401953     0.348166
Rotational constants in MHz : 78001.849825 12050.254170 10437.758524

                             ****ORCA TERMINATED NORMALLY****
TOTAL RUN TIME: 0 days 0 hours 2 minutes 37 seconds 129 msec
