                         Program Version 5.0.4 -  RELEASE  -
|  1> !ri-mp2 aug-cc-pvqz aug-cc-pvqz/c tightscf
|  2> %pal nprocs 16 end
|  3>
|  4> * xyz 0 1
|  5> C      0.000000    0.716076   -0.955449
|  6> C      0.000000   -0.716076   -0.955449
|  7> C      0.000000    1.093572    0.345603
|  8> C      0.000000   -1.093572    0.345603
|  9> O      0.000000    0.000000    1.157159
| 10> H      0.000000    1.369847   -1.810079
| 11> H      0.000000   -1.369847   -1.810079
| 12> H      0.000000    2.047381    0.840519
| 13> H      0.000000   -2.047381    0.840519
| 14> *
| 15>
| 16>                          ****END OF INPUT****

CARTESIAN COORDINATES (ANGSTROEM)
---------------------------------
  C      0.000000    0.716076   -0.955449
  C      0.000000   -0.716076   -0.955449
  C      0.000000    1.093572    0.345603
  C      0.000000   -1.093572    0.345603
  O      0.000000    0.000000    1.157159
  H      0.000000    1.369847   -1.810079
  H      0.000000   -1.369847   -1.810079
  H      0.000000    2.047381    0.840519
  H      0.000000   -2.047381    0.840519

 Total Charge           Charge          ....    0
 Multiplicity           Mult            ....    1
 Number of Electrons    NEL             ....   36
 Basis Dimension        Dim             ....  584

ORBITAL ENERGIES
----------------

  NO   OCC          E(Eh)            E(eV)
   0   2.0000     -20.620797      -561.1204
   1   2.0000     -11.286811      -307.1297
   2   2.0000     -11.286766      -307.1285
   3   2.0000     -11.229815      -305.5788
   4   2.0000     -11.228832      -305.5520
   5   2.0000      -1.457530       -39.6614
   6   2.0000      -1.085160       -29.5287
   7   2.0000      -1.005405       -27.3585
   8   2.0000      -0.807333       -21.9687
   9   2.0000      -0.782162       -21.2837
  10   2.0000      -0.740507       -20.1502
  11   2.0000      -0.634010       -17.2523
  12   2.0000      -0.610380       -16.6093
  13   2.0000      -0.578068       -15.7300
  14   2.0000      -0.565191       -15.3796
  15   2.0000      -0.541163       -14.7258
  16   2.0000      -0.399293       -10.8653
  17   2.0000      -0.321544        -8.7497
  18   0.0000       0.026371         0.7176
  19   0.0000       0.030708         0.8356
  20   0.0000       0.033483         0.9111
  21   0.0000       0.043424         1.1816
  22   0.0000       0.068580         1.8662

MULLIKEN ATOMIC CHARGES
-----------------------
   0 C :   -0.506937
   1 C :   -0.506932
   2 C :   -0.198832
   3 C :   -0.198834
   4 O :   -0.646057
   5 H :    0.455138
   6 H :    0.455138
   7 H :    0.573659
   8 H :    0.573659
Sum of atomic charges:    0.0000000

LOEWDIN ATOMIC CHARGES
----------------------
   0 C :    0.280063
   1 C :    0.280063
   2 C :   -0.018416
   3 C :   -0.018416
   4 O :    0.823359
   5 H :   -0.334679
   6 H :   -0.334679
   7 H :   -0.338647
   8 H :   -0.338647

  Mayer bond orders larger than 0.100000
B(  0-C ,  1-C ) :   1.0784 B(  0-C ,  2-C ) :   1.6181 B(  0-C ,  3-C ) :  -0.1603
B(  0-C ,  5-H ) :   0.8262 B(  1-C ,  2-C ) :  -0.1603 B(  1-C ,  3-C ) :   1.6181
B(  1-C ,  6-H ) :   0.8262 B(  2-C ,  4-O ) :   0.8992 B(  2-C ,  7-H ) :   0.7263
B(  3-C ,  4-O ) :   0.8992 B(  3-C ,  8-H ) :   0.7263

MP2 TOTAL ENERGY:     -229.656979230 Eh
FINAL SINGLE POINT ENERGY      -229.656979230301

DIPOLE MOMENT
-------------
                                X             Y             Z
Electronic contribution:      0.00000      -0.00000       1.59867
Nuclear contribution   :      0.00000       0.00000      -1.90778
                        -----------------------------------------
Total Dipole Moment    :      0.00000      -0.00000      -0.30910
                        -----------------------------------------
Magnitude (a.u.)       :      0.30910
Magnitude (Debye)      :      0.78568

Rotational constants in cm-1:     0.316402     0.311042     0.156850
Rotational constants in MHz :  9485.505213  9324.803721  4702.234005

                             ****ORCA TERMINATED NORMALLY****
TOTAL RUN TIME: 0 days 0 hours 8 minutes 52 seconds 507 msec
