                         Program Version 5.0.4 -  RELEASE  -
|  1> !ri-mp2 aug-cc-pvqz aug-cc-pvqz/c tightscf
|  2> %pal nprocs 16 end
|  3>
|  4> * xyz 0 1
|  5> C      0.000000    0.418868        0.000000
|  6> N     -0.937301   -0.562370        0.000000
|  7> O      1.196475    0.233417        0.000000
|  8> H     -0.446375    1.428379        0.000000
|  9> H     -0.646660   -1.526108        0.000000
| 10> H     -1.917653   -0.346222        0.000000
| 11> *
| 12>
| 13>                          ****END OF INPUT****

CARTESIAN COORDINATES (ANGSTROEM)
---------------------------------
  C      0.000000    0.418868    0.000000
  N     -0.937301   -0.562370    0.000000
  O      1.196475    0.233417    0.000000
  H     -0.446375    1.428379    0.000000
  H     -0.646660   -1.526108    0.000000
  H     -1.917653   -0.346222    0.000000

 Total Charge           Charge          ....    0
 Multiplicity           Mult            ....    1
 Number of Electrons    NEL             ....   24
 Basis Dimension        Dim             ....  378

ORBITAL ENERGIES
----------------

  NO   OCC          E(Eh)            E(eV)
   0   2.0000     -20.528053      -558.5967
   1   2.0000     -15.594984      -424.3611
   2   2.0000     -11.355997      -309.0124
   3   2.0000      -1.387643       -37.7597
   4   2.0000      -1.221685       -33.2437
   5   2.0000      -0.853049       -23.2126
   6   2.0000      -0.752968       -20.4893
   7   2.0000      -0.676564       -18.4102
   8   2.0000      -0.610909       -16.6237
   9   2.0000      -0.573815       -15.6143
  10   2.0000      -0.438055       -11.9201
  11   2.0000      -0.423742       -11.5306
  12   0.0000       0.018222         0.4959
  13   0.0000       0.033130         0.9015
  14   0.0000       0.043917         1.1950
  15   0.0000       0.068998         1.8775
  16   0.0000       0.086651         2.3579

MULLIKEN ATOMIC CHARGES
-----------------------
   0 C :    0.268879
   1 N :   -0.615794
   2 O :   -0.712629
   3 H :    0.467771
   4 H :    0.296816
   5 H :    0.294958
Sum of atomic charges:   -0.0000000

LOEWDIN ATOMIC CHARGES
----------------------
   0 C :   -0.457578
   1 N :    1.211662
   2 O :    0.634673
   3 H :   -0.372890
   4 H :   -0.508462
   5 H :   -0.507406

  Mayer bond orders larger than 0.100000
B(  0-C ,  1-N ) :   1.1721 B(  0-C ,  2-O ) :   1.6980 B(  0-C ,  3-H ) :   0.7856
B(  1-N ,  2-O ) :   0.1011 B(  1-N ,  4-H ) :   0.9170 B(  1-N ,  5-H ) :   0.9293

MP2 TOTAL ENERGY:     -169.669261021 Eh
FINAL SINGLE POINT ENERGY      -169.669261020530

DIPOLE MOMENT
-------------
                                X             Y             Z
Electronic contribution:      1.33611       0.25910      -0.00000
Nuclear contribution   :     -2.99951      -0.44390       0.00000
                        -----------------------------------------
Total Dipole Moment    :     -1.66339      -0.18480      -0.00000
                        -----------------------------------------
Magnitude (a.u.)       :      1.67363
Magnitude (Debye)      :      4.25402

Rotational constants in cm-1:     2.460151     0.379518     0.328796
Rotational constants in MHz : 73753.485774 11377.676741  9857.064027

                             ****ORCA TERMINATED NORMALLY****
TOTAL RUN TIME: 0 days 0 hours 1 minutes 33 seconds 883 msec
