                         Program Version 5.0.4 -  RELEASE  -
|  1> !ri-mp2 aug-cc-pvqz aug-cc-pvqz/c tightscf
|  2> %pal nprocs 16 end
|  3>
|  4> * xyz 0 1
|  5> C     0.000000     0.000000   -0.637684
|  6> F     0.000000     0.000000    0.754062
|  7> H     0.000000     1.032068   -0.986819
|  8> H     0.893797    -0.516034   -0.986819
|  9> H    -0.893797    -0.516034   -0.986819
| 10> *
| 11>
| 12>                          ****END OF INPUT****

CARTESIAN COORDINATES (ANGSTROEM)
---------------------------------
  C      0.000000    0.000000   -0.637684
  F      0.000000    0.000000    0.754062
  H      0.000000    1.032068   -0.986819
  H      0.893797   -0.516034   -0.986819
  H     -0.893797   -0.516034   -0.986819

 Total Charge           Charge          ....    0
 Multiplicity           Mult            ....    1
 Number of Electrons    NEL             ....   18
 Basis Dimension        Dim             ....  298

ORBITAL ENERGIES
----------------

  NO   OCC          E(Eh)            E(eV)
   0   2.0000     -26.273977      -714.9513
   1   2.0000     -11.306393      -307.6626
   2   2.0000      -1.582153       -43.0526
   3   2.0000      -0.954979       -25.9863
   4   2.0000      -0.693397       -18.8683
   5   2.0000      -0.693397       -18.8683
   6   2.0000      -0.671124       -18.2622
   7   2.0000      -0.532514       -14.4904
   8   2.0000      -0.532514       -14.4904
   9   0.0000       0.025573         0.6959
  10   0.0000       0.041781         1.1369
  11   0.0000       0.041781         1.1369
  12   0.0000       0.064937         1.7670
  13   0.0000       0.106184         2.8894

MULLIKEN ATOMIC CHARGES
-----------------------
   0 C :   -0.229528
   1 F :   -0.566336
   2 H :    0.265288
   3 H :    0.265288
   4 H :    0.265288
Sum of atomic charges:    0.0000000

LOEWDIN ATOMIC CHARGES
----------------------
   0 C :    0.370655
   1 F :    0.710985
   2 H :   -0.360547
   3 H :   -0.360547
   4 H :   -0.360547

  Mayer bond orders larger than 0.100000
B(  0-C ,  1-F ) :   0.6353 B(  0-C ,  2-H ) :   0.9089 B(  0-C ,  3-H ) :   0.9089
B(  0-C ,  4-H ) :   0.9089

MP2 TOTAL ENERGY:     -139.581235949 Eh
FINAL SINGLE POINT ENERGY      -139.581235949345

DIPOLE MOMENT
-------------
                                X             Y             Z
Electronic contribution:     -0.00000      -0.00000       2.85964
Nuclear contribution   :      0.00000       0.00000      -3.68037
                        -----------------------------------------
Total Dipole Moment    :     -0.00000      -0.00000      -0.82073
                        -----------------------------------------
Magnitude (a.u.)       :      0.82073
Magnitude (Debye)      :      2.08614

Rotational constants in cm-1:     5.233576     0.849529     0.849529
Rotational constants in MHz : 156898.663266 25468.233514 25468.233022

                             ****ORCA TERMINATED NORMALLY****
TOTAL RUN TIME: 0 days 0 hours 0 minutes 51 seconds 430 msec
