                         Program Version 5.0.4 -  RELEASE  -
|  1> !ri-mp2 aug-cc-pvqz aug-cc-pvqz/c tightscf
|  2> %pal nprocs 16 end
|  3>
|  4> * xyz 0 1
|  5> C      0.000000    0.735787   -1.400081
|  6> C      0.000000   -0.735787   -1.400081
|  7> C      0.000000    1.175419   -0.125488
|  8> C      0.000000   -1.175419   -0.125488
|  9> C      0.000000    0.000000    0.758403
| 10> C      0.000000    0.000000    2.096421
| 11> H      0.000000    1.347657   -2.289398
| 12> H      0.000000   -1.347657   -2.289398
| 13> H      0.000000    2.197794    0.217520
| 14> H      0.000000   -2.197794    0.217520
| 15> H      0.000000   -0.923202    2.660823
| 16> H      0.000000    0.923202    2.660823
| 17> *
| 18>
| 19>                          ****END OF INPUT****

CARTESIAN COORDINATES (ANGSTROEM)
---------------------------------
  C      0.000000    0.735787   -1.400081
  C      0.000000   -0.735787   -1.400081
  C      0.000000    1.175419   -0.125488
  C      0.000000   -1.175419   -0.125488
  C      0.000000    0.000000    0.758403
  C      0.000000    0.000000    2.096421
  H      0.000000    1.347657   -2.289398
  H      0.000000   -1.347657   -2.289398
  H      0.000000    2.197794    0.217520
  H      0.000000   -2.197794    0.217520
  H      0.000000   -0.923202    2.660823
  H      0.000000    0.923202    2.660823

 Total Charge           Charge          ....    0
 Multiplicity           Mult            ....    1
 Number of Electrons    NEL             ....   42
 Basis Dimension        Dim             ....  756

ORBITAL ENERGIES
----------------

  NO   OCC          E(Eh)            E(eV)
   0   2.0000     -11.247562      -306.0617
   1   2.0000     -11.242207      -305.9160
   2   2.0000     -11.231457      -305.6235
   3   2.0000     -11.230674      -305.6022
   4   2.0000     -11.224837      -305.4433
   5   2.0000     -11.224805      -305.4425
   6   2.0000      -1.163867       -31.6704
   7   2.0000      -1.027642       -27.9636
   8   2.0000      -0.970155       -26.3993
   9   2.0000      -0.860919       -23.4268
  10   2.0000      -0.744269       -20.2526
  11   2.0000      -0.726956       -19.7815
  12   2.0000      -0.688576       -18.7371
  13   2.0000      -0.608496       -16.5580
  14   2.0000      -0.565663       -15.3925
  15   2.0000      -0.556841       -15.1524
  16   2.0000      -0.521181       -14.1820
  17   2.0000      -0.504166       -13.7190
  18   2.0000      -0.490576       -13.3492
  19   2.0000      -0.346258        -9.4222
  20   2.0000      -0.310202        -8.4410
  21   0.0000       0.026484         0.7207
  22   0.0000       0.029241         0.7957
  23   0.0000       0.031264         0.8507
  24   0.0000       0.042352         1.1525
  25   0.0000       0.045121         1.2278

MULLIKEN ATOMIC CHARGES
-----------------------
   0 C :   -0.497628
   1 C :   -0.497618
   2 C :   -0.338853
   3 C :   -0.338857
   4 C :    0.222964
   5 C :   -0.750070
   6 H :    0.396869
   7 H :    0.396870
   8 H :    0.386921
   9 H :    0.386916
  10 H :    0.316252
  11 H :    0.316235
Sum of atomic charges:    0.0000000

LOEWDIN ATOMIC CHARGES
----------------------
   0 C :    0.336154
   1 C :    0.336154
   2 C :    0.315479
   3 C :    0.315479
   4 C :   -0.169814
   5 C :    0.818658
   6 H :   -0.319061
   7 H :   -0.319061
   8 H :   -0.315989
   9 H :   -0.315989
  10 H :   -0.341005
  11 H :   -0.341005

  Mayer bond orders larger than 0.100000
B(  0-C ,  1-C ) :   1.0936 B(  0-C ,  2-C ) :   1.5769 B(  0-C ,  4-C ) :  -0.2487
B(  0-C ,  6-H ) :   0.9210 B(  1-C ,  3-C ) :   1.5769 B(  1-C ,  4-C ) :  -0.2487
B(  1-C ,  7-H ) :   0.9210 B(  2-C ,  4-C ) :   0.7976 B(  2-C ,  8-H ) :   0.8725
B(  3-C ,  4-C ) :   0.7976 B(  3-C ,  9-H ) :   0.8725 B(  4-C ,  5-C ) :   1.3717
B(  4-C , 10-H ) :  -0.1042 B(  4-C , 11-H ) :  -0.1042 B(  5-C , 10-H ) :   0.9914
B(  5-C , 11-H ) :   0.9915

MP2 TOTAL ENERGY:     -231.751295275 Eh
FINAL SINGLE POINT ENERGY      -231.751295274969

DIPOLE MOMENT
-------------
                                X             Y             Z
Electronic contribution:     -0.00000       0.00000      -0.98935
Nuclear contribution   :      0.00000       0.00000       1.18943
                        -----------------------------------------
Total Dipole Moment    :     -0.00000       0.00000       0.20007
                        -----------------------------------------
Magnitude (a.u.)       :      0.20007
Magnitude (Debye)      :      0.50855

Rotational constants in cm-1:     0.274950     0.127631     0.087168
Rotational constants in MHz :  8242.795315  3826.283796  2613.229548

                             ****ORCA TERMINATED NORMALLY****
TOTAL RUN TIME: 0 days 0 hours 21 minutes 10 seconds 616 msec
