                         Program Version 5.0.4 -  RELEASE  -
|  1> !ri-mp2 aug-cc-pvqz aug-cc-pvqz/c tightscf
|  2> %pal nprocs 16 end
|  3>
|  4> * xyz 0 1
|  5> C      0.000000    0.434774        0.000000
|  6> C      1.185792   -0.138856        0.000000
|  7> F     -1.143002   -0.282121        0.000000
|  8> H     -0.195129    1.498103        0.000000
|  9> H      1.296848   -1.213206        0.000000
| 10> H      2.070547    0.478682        0.000000
| 11> *
| 12>
| 13>                          ****END OF INPUT****

CARTESIAN COORDINATES (ANGSTROEM)
---------------------------------
  C      0.000000    0.434774    0.000000
  C      1.185792   -0.138856    0.000000
  F     -1.143002   -0.282121    0.000000
  H     -0.195129    1.498103    0.000000
  H      1.296848   -1.213206    0.000000
  H      2.070547    0.478682    0.000000

 Total Charge           Charge          ....    0
 Multiplicity           Mult            ....    1
 Number of Electrons    NEL             ....   24
 Basis Dimension        Dim             ....  378

ORBITAL ENERGIES
----------------

  NO   OCC          E(Eh)            E(eV)
   0   2.0000     -26.305067      -715.7973
   1   2.0000     -11.326969      -308.2225
   2   2.0000     -11.235029      -305.7207
   3   2.0000      -1.622138       -44.1406
   4   2.0000      -1.053976       -28.6801
   5   2.0000      -0.836284       -22.7565
   6   2.0000      -0.736492       -20.0410
   7   2.0000      -0.688069       -18.7233
   8   2.0000      -0.683894       -18.6097
   9   2.0000      -0.589677       -16.0459
  10   2.0000      -0.559807       -15.2331
  11   2.0000      -0.387664       -10.5489
  12   0.0000       0.026944         0.7332
  13   0.0000       0.035014         0.9528
  14   0.0000       0.040778         1.1096
  15   0.0000       0.076054         2.0695
  16   0.0000       0.077058         2.0969

MULLIKEN ATOMIC CHARGES
-----------------------
   0 C :    0.115574
   1 C :   -0.921590
   2 F :   -0.617406
   3 H :    0.599073
   4 H :    0.488420
   5 H :    0.335929
Sum of atomic charges:   -0.0000000

LOEWDIN ATOMIC CHARGES
----------------------
   0 C :   -0.245039
   1 C :    0.713487
   2 F :    0.717521
   3 H :   -0.409438
   4 H :   -0.383717
   5 H :   -0.392814

  Mayer bond orders larger than 0.100000
B(  0-C ,  1-C ) :   1.8898 B(  0-C ,  2-F ) :   0.5963 B(  0-C ,  3-H ) :   0.6230
B(  1-C ,  2-F ) :   0.1322 B(  1-C ,  4-H ) :   0.7338 B(  1-C ,  5-H ) :   0.9407

MP2 TOTAL ENERGY:     -177.593226862 Eh
FINAL SINGLE POINT ENERGY      -177.593226862321

DIPOLE MOMENT
-------------
                                X             Y             Z
Electronic contribution:     -3.67665      -0.66498       0.00000
Nuclear contribution   :      4.21045       1.02024       0.00000
                        -----------------------------------------
Total Dipole Moment    :      0.53380       0.35525       0.00000
                        -----------------------------------------
Magnitude (a.u.)       :      0.64120
Magnitude (Debye)      :      1.62981

Rotational constants in cm-1:     2.185296     0.353999     0.304649
Rotational constants in MHz : 65513.538543 10612.637307  9133.145275

                             ****ORCA TERMINATED NORMALLY****
TOTAL RUN TIME: 0 days 0 hours 1 minutes 55 seconds 809 msec
