                         Program Version 5.0.4 -  RELEASE  -
|  1> !ri-mp2 aug-cc-pvqz aug-cc-pvqz/c tightscf
|  2> %pal nprocs 16 end
|  3>
|  4> * xyz 0 1
|  5> C      0.000000    0.557702    0.000000
|  6> C      1.131396   -0.441623    0.000000
|  7> F     -1.231732   -0.112505    0.000000
|  8> H      0.016530    1.191540    0.888182
|  9> H      0.016530    1.191540   -0.888182
| 10> H      2.088160    0.083890    0.000000
| 11> H      1.087998   -1.075450    0.885435
| 12> H      1.087998   -1.075450   -0.885435
| 13> *
| 14>
| 15>                          ****END OF INPUT****

CARTESIAN COORDINATES (ANGSTROEM)
---------------------------------
  C      0.000000    0.557702    0.000000
  C      1.131396   -0.441623    0.000000
  F     -1.231732   -0.112505    0.000000
  H      0.016530    1.191540    0.888182
  H      0.016530    1.191540   -0.888182
  H      2.088160    0.083890    0.000000
  H      1.087998   -1.075450    0.885435
  H      1.087998   -1.075450   -0.885435

 Total Charge           Charge          ....    0
 Multiplicity           Mult            ....    1
 Number of Electrons    NEL             ....   26
 Basis Dimension        Dim             ....  470

ORBITAL ENERGIES
----------------

  NO   OCC          E(Eh)            E(eV)
   0   2.0000     -26.266211      -714.7399
   1   2.0000     -11.307210      -307.6848
   2   2.0000     -11.226269      -305.4823
   3   2.0000      -1.574452       -42.8430
   4   2.0000      -1.035476       -28.1767
   5   2.0000      -0.862849       -23.4793
   6   2.0000      -0.698656       -19.0114
   7   2.0000      -0.687506       -18.7080
   8   2.0000      -0.648322       -17.6417
   9   2.0000      -0.580062       -15.7843
  10   2.0000      -0.551003       -14.9936
  11   2.0000      -0.511200       -13.9105
  12   2.0000      -0.497979       -13.5507
  13   0.0000       0.026006         0.7077
  14   0.0000       0.036234         0.9860
  15   0.0000       0.036806         1.0015
  16   0.0000       0.043958         1.1962
  17   0.0000       0.059843         1.6284

MULLIKEN ATOMIC CHARGES
-----------------------
   0 C :    0.139989
   1 C :   -0.848007
   2 F :   -0.681113
   3 H :    0.291199
   4 H :    0.291199
   5 H :    0.272081
   6 H :    0.267327
   7 H :    0.267327
Sum of atomic charges:    0.0000000

LOEWDIN ATOMIC CHARGES
----------------------
   0 C :   -0.034862
   1 C :    0.882792
   2 F :    0.736273
   3 H :   -0.341014
   4 H :   -0.341014
   5 H :   -0.299007
   6 H :   -0.301585
   7 H :   -0.301585

  Mayer bond orders larger than 0.100000
B(  0-C ,  1-C ) :   1.0603 B(  0-C ,  2-F ) :   0.4323 B(  0-C ,  3-H ) :   0.8697
B(  0-C ,  4-H ) :   0.8697 B(  1-C ,  5-H ) :   0.9143 B(  1-C ,  6-H ) :   0.9107
B(  1-C ,  7-H ) :   0.9107

MP2 TOTAL ENERGY:     -178.822785255 Eh
FINAL SINGLE POINT ENERGY      -178.822785254712

DIPOLE MOMENT
-------------
                                X             Y             Z
Electronic contribution:     -4.80665      -0.09771      -0.00000
Nuclear contribution   :      5.60199       0.43402       0.00000
                        -----------------------------------------
Total Dipole Moment    :      0.79534       0.33631      -0.00000
                        -----------------------------------------
Magnitude (a.u.)       :      0.86352
Magnitude (Debye)      :      2.19489

Rotational constants in cm-1:     1.212188     0.310417     0.272463
Rotational constants in MHz : 36340.482216  9306.077825  8168.224649

                             ****ORCA TERMINATED NORMALLY****
TOTAL RUN TIME: 0 days 0 hours 3 minutes 18 seconds 894 msec
