                         Program Version 5.0.4 -  RELEASE  -
|  1> !ri-mp2 aug-cc-pvqz aug-cc-pvqz/c tightscf
|  2> %pal nprocs 16 end
|  3>
|  4> * xyz 0 1
|  5> O      0.000000    0.000000    1.179618
|  6> N      0.000000    0.000000   -0.020937
|  7> C      0.000000    0.000000   -1.175868
|  8> H      0.000000    0.000000   -2.235178
|  9> *
| 10>
| 11>                          ****END OF INPUT****

CARTESIAN COORDINATES (ANGSTROEM)
---------------------------------
  O      0.000000    0.000000    1.179618
  N      0.000000    0.000000   -0.020937
  C      0.000000    0.000000   -1.175868
  H      0.000000    0.000000   -2.235178

 Total Charge           Charge          ....    0
 Multiplicity           Mult            ....    1
 Number of Electrons    NEL             ....   22
 Basis Dimension        Dim             ....  286

ORBITAL ENERGIES
----------------

  NO   OCC          E(Eh)            E(eV)
   0   2.0000     -20.583024      -560.0926
   1   2.0000     -15.758804      -428.8188
   2   2.0000     -11.316026      -307.9247
   3   2.0000      -1.512593       -41.1598
   4   2.0000      -1.231537       -33.5118
   5   2.0000      -0.819996       -22.3132
   6   2.0000      -0.733132       -19.9495
   7   2.0000      -0.681249       -18.5377
   8   2.0000      -0.681249       -18.5377
   9   2.0000      -0.409554       -11.1445
  10   2.0000      -0.409554       -11.1445
  11   0.0000       0.017494         0.4760
  12   0.0000       0.052749         1.4354
  13   0.0000       0.052749         1.4354
  14   0.0000       0.060546         1.6475
  15   0.0000       0.106498         2.8980

MULLIKEN ATOMIC CHARGES
-----------------------
   0 O :   -0.572323
   1 N :    0.080586
   2 C :   -0.058005
   3 H :    0.549743
Sum of atomic charges:    0.0000000

LOEWDIN ATOMIC CHARGES
----------------------
   0 O :    0.352303
   1 N :   -0.325657
   2 C :    0.411593
   3 H :   -0.438238

  Mayer bond orders larger than 0.100000
B(  0-O ,  1-N ) :   1.3074 B(  0-O ,  2-C ) :   0.3133 B(  1-N ,  2-C ) :   2.6453
B(  2-C ,  3-H ) :   0.6542

MP2 TOTAL ENERGY:     -168.358312209 Eh
FINAL SINGLE POINT ENERGY      -168.358312209035

DIPOLE MOMENT
-------------
                                X             Y             Z
Electronic contribution:      0.00000      -0.00000       0.44628
Nuclear contribution   :      0.00000       0.00000      -2.12874
                        -----------------------------------------
Total Dipole Moment    :      0.00000      -0.00000      -1.68246
                        -----------------------------------------
Magnitude (a.u.)       :      1.68246
Magnitude (Debye)      :      4.27647

Rotational constants in cm-1:     0.000000     0.384886     0.384886
Rotational constants in MHz :     0.000000 11538.579218 11538.579218

                             ****ORCA TERMINATED NORMALLY****
TOTAL RUN TIME: 0 days 0 hours 0 minutes 32 seconds 898 msec
