                         Program Version 5.0.4 -  RELEASE  -
|  1> !ri-mp2 aug-cc-pvqz aug-cc-pvqz/c tightscf
|  2> %pal nprocs 16 end
|  3>
|  4> * xyz 0 1
|  5> C      0.000000    0.400163        0.000000
|  6> O      1.146373    0.135369        0.000000
|  7> F     -0.967416   -0.541572        0.000000
|  8> H     -0.464239    1.390219        0.000000
|  9> *
| 10>
| 11>                          ****END OF INPUT****

CARTESIAN COORDINATES (ANGSTROEM)
---------------------------------
  C      0.000000    0.400163    0.000000
  O      1.146373    0.135369    0.000000
  F     -0.967416   -0.541572    0.000000
  H     -0.464239    1.390219    0.000000

 Total Charge           Charge          ....    0
 Multiplicity           Mult            ....    1
 Number of Electrons    NEL             ....   24
 Basis Dimension        Dim             ....  286

ORBITAL ENERGIES
----------------

  NO   OCC          E(Eh)            E(eV)
   0   2.0000     -26.341992      -716.8020
   1   2.0000     -20.602236      -560.6153
   2   2.0000     -11.436564      -311.2047
   3   2.0000      -1.666404       -45.3451
   4   2.0000      -1.451106       -39.4866
   5   2.0000      -0.912953       -24.8427
   6   2.0000      -0.793453       -21.5909
   7   2.0000      -0.731293       -19.8995
   8   2.0000      -0.729112       -19.8402
   9   2.0000      -0.642725       -17.4894
  10   2.0000      -0.561334       -15.2747
  11   2.0000      -0.515522       -14.0281
  12   0.0000       0.023412         0.6371
  13   0.0000       0.059747         1.6258
  14   0.0000       0.066253         1.8028
  15   0.0000       0.066988         1.8228
  16   0.0000       0.115597         3.1456

MULLIKEN ATOMIC CHARGES
-----------------------
   0 C :    0.509637
   1 O :   -0.521427
   2 F :   -0.482489
   3 H :    0.494279
Sum of atomic charges:   -0.0000000

LOEWDIN ATOMIC CHARGES
----------------------
   0 C :   -0.853726
   1 O :    0.607924
   2 F :    0.683480
   3 H :   -0.437679

  Mayer bond orders larger than 0.100000
B(  0-C ,  1-O ) :   1.9413 B(  0-C ,  2-F ) :   0.8304 B(  0-C ,  3-H ) :   0.7111

MP2 TOTAL ENERGY:     -213.546613746 Eh
FINAL SINGLE POINT ENERGY      -213.546613745603

DIPOLE MOMENT
-------------
                                X             Y             Z
Electronic contribution:     -1.07124      -1.04619       0.00000
Nuclear contribution   :      0.47804       1.80911       0.00000
                        -----------------------------------------
Total Dipole Moment    :     -0.59320       0.76292       0.00000
                        -----------------------------------------
Magnitude (a.u.)       :      0.96640
Magnitude (Debye)      :      2.45640

Rotational constants in cm-1:     3.050046     0.390668     0.346311
Rotational constants in MHz : 91438.071768 11711.932836 10382.128041

                             ****ORCA TERMINATED NORMALLY****
TOTAL RUN TIME: 0 days 0 hours 1 minutes 12 seconds 671 msec
