                         Program Version 5.0.4 -  RELEASE  -
|  1> !ri-mp2 aug-cc-pvqz aug-cc-pvqz/c tightscf
|  2> %pal nprocs 16 end
|  3>
|  4> * xyz 0 1
|  5> C     -0.300615   -1.924790        0.000000
|  6> C     -0.970523   -0.674797        0.000000
|  7> C      1.032092   -1.640070        0.000000
|  8> C      0.000000    0.288032        0.000000
|  9> C     -0.029988    1.739577        0.000000
| 10> O     -1.049576    2.396115        0.000000
| 11> O      1.237658   -0.307636        0.000000
| 12> H     -0.741739   -2.906165        0.000000
| 13> H     -2.030305   -0.489429        0.000000
| 14> H      1.913637   -2.256025        0.000000
| 15> H      0.967952    2.216073        0.000000
| 16> *
| 17>
| 18>                          ****END OF INPUT****

CARTESIAN COORDINATES (ANGSTROEM)
---------------------------------
  C     -0.300615   -1.924790    0.000000
  C     -0.970523   -0.674797    0.000000
  C      1.032092   -1.640070    0.000000
  C      0.000000    0.288032    0.000000
  C     -0.029988    1.739577    0.000000
  O     -1.049576    2.396115    0.000000
  O      1.237658   -0.307636    0.000000
  H     -0.741739   -2.906165    0.000000
  H     -2.030305   -0.489429    0.000000
  H      1.913637   -2.256025    0.000000
  H      0.967952    2.216073    0.000000

 Total Charge           Charge          ....    0
 Multiplicity           Mult            ....    1
 Number of Electrons    NEL             ....   50
 Basis Dimension        Dim             ....  744

ORBITAL ENERGIES
----------------

  NO   OCC          E(Eh)            E(eV)
   0   2.0000     -20.646421      -561.8177
   1   2.0000     -20.555885      -559.3541
   2   2.0000     -11.341068      -308.6061
   3   2.0000     -11.318052      -307.9798
   4   2.0000     -11.301433      -307.5276
   5   2.0000     -11.262151      -306.4587
   6   2.0000     -11.249916      -306.1258
   7   2.0000      -1.485294       -40.4169
   8   2.0000      -1.392219       -37.8842
   9   2.0000      -1.111421       -30.2433
  10   2.0000      -1.051056       -28.6007
  11   2.0000      -0.894914       -24.3519
  12   2.0000      -0.829480       -22.5713
  13   2.0000      -0.785542       -21.3757
  14   2.0000      -0.736203       -20.0331
  15   2.0000      -0.673860       -18.3367
  16   2.0000      -0.663726       -18.0609
  17   2.0000      -0.630962       -17.1694
  18   2.0000      -0.598786       -16.2938
  19   2.0000      -0.592195       -16.1144
  20   2.0000      -0.568185       -15.4611
  21   2.0000      -0.538203       -14.6452
  22   2.0000      -0.439801       -11.9676
  23   2.0000      -0.420380       -11.4391
  24   2.0000      -0.339745        -9.2449
  25   0.0000       0.020471         0.5570
  26   0.0000       0.028013         0.7623
  27   0.0000       0.033964         0.9242
  28   0.0000       0.043207         1.1757
  29   0.0000       0.052224         1.4211

MULLIKEN ATOMIC CHARGES
-----------------------
   0 C :   -0.551647
   1 C :   -0.242540
   2 C :   -0.236233
   3 C :   -0.005122
   4 C :    0.478788
   5 O :   -0.728681
   6 O :   -0.625867
   7 H :    0.429092
   8 H :    0.441242
   9 H :    0.599390
  10 H :    0.441578
Sum of atomic charges:    0.0000000

LOEWDIN ATOMIC CHARGES
----------------------
   0 C :    0.319049
   1 C :    0.299625
   2 C :    0.003226
   3 C :   -0.507788
   4 C :   -0.296827
   5 O :    0.675496
   6 O :    0.835636
   7 H :   -0.327802
   8 H :   -0.304662
   9 H :   -0.325379
  10 H :   -0.370576

  Mayer bond orders larger than 0.100000
B(  0-C ,  1-C ) :   1.1221 B(  0-C ,  2-C ) :   1.6365 B(  0-C ,  3-C ) :  -0.2344
B(  0-C ,  7-H ) :   0.8585 B(  1-C ,  2-C ) :  -0.1177 B(  1-C ,  3-C ) :   1.3543
B(  1-C ,  4-C ) :  -0.1355 B(  1-C ,  8-H ) :   0.7905 B(  2-C ,  6-O ) :   1.0427
B(  2-C ,  9-H ) :   0.6799 B(  3-C ,  4-C ) :   1.0725 B(  3-C ,  5-O ) :   0.1758
B(  3-C ,  6-O ) :   0.6016 B(  3-C , 10-H ) :  -0.1359 B(  4-C ,  5-O ) :   1.4651
B(  4-C , 10-H ) :   0.8177

MP2 TOTAL ENERGY:     -342.840045290 Eh
FINAL SINGLE POINT ENERGY      -342.840045290068

DIPOLE MOMENT
-------------
                                X             Y             Z
Electronic contribution:      0.52334       1.94658       0.00000
Nuclear contribution   :      0.10996      -3.32538       0.00000
                        -----------------------------------------
Total Dipole Moment    :      0.63329      -1.37879       0.00000
                        -----------------------------------------
Magnitude (a.u.)       :      1.51728
Magnitude (Debye)      :      3.85661

Rotational constants in cm-1:     0.275709     0.068182     0.054664
Rotational constants in MHz :  8265.554192  2044.055691  1638.786848

                             ****ORCA TERMINATED NORMALLY****
TOTAL RUN TIME: 0 days 0 hours 22 minutes 22 seconds 948 msec
