                         Program Version 5.0.4 -  RELEASE  -
|  1> !ri-mp2 aug-cc-pvqz aug-cc-pvqz/c tightscf
|  2> %pal nprocs 16 end
|  3> %maxcore 3800
|  4>
|  5> * xyz 0 1
|  6> C      1.115853    0.989979    0.201060
|  7> C     -0.314474    1.262685   -0.244860
|  8> C      1.590049   -0.399146   -0.223279
|  9> C     -1.222885    0.133264    0.240191
| 10> C      0.581955   -1.449023    0.245268
| 11> C     -2.647642    0.247392   -0.273872
| 12> O     -0.712544   -1.117915   -0.238783
| 13> O      1.938737    2.012668   -0.343122
| 14> O     -0.797977    2.486634    0.288000
| 15> O      2.916634   -0.629266    0.240675
| 16> O      0.944839   -2.686590   -0.268393
| 17> O     -3.477430   -0.790535    0.223836
| 18> H      1.140111    1.046893    1.299737
| 19> H     -0.336642    1.288486   -1.341217
| 20> H      1.646637   -0.454256   -1.310960
| 21> H     -1.241659    0.127736    1.337503
| 22> H      0.545143   -1.472520    1.349105
| 23> H     -2.633844    0.247751   -1.369821
| 24> H     -3.076579    1.187253    0.065541
| 25> H      2.858515    1.774040   -0.179127
| 26> H     -0.153038    3.172141    0.080576
| 27> H      2.899013   -0.846682    1.179337
| 28> H      0.327548   -3.352594    0.052774
| 29> H     -3.090410   -1.629125   -0.048206
| 30> *
| 31>
| 32>                          ****END OF INPUT****

CARTESIAN COORDINATES (ANGSTROEM)
---------------------------------
  C      1.115853    0.989979    0.201060
  C     -0.314474    1.262685   -0.244860
  C      1.590049   -0.399146   -0.223279
  C     -1.222885    0.133264    0.240191
  C      0.581955   -1.449023    0.245268
  C     -2.647642    0.247392   -0.273872
  O     -0.712544   -1.117915   -0.238783
  O      1.938737    2.012668   -0.343122
  O     -0.797977    2.486634    0.288000
  O      2.916634   -0.629266    0.240675
  O      0.944839   -2.686590   -0.268393
  O     -3.477430   -0.790535    0.223836
  H      1.140111    1.046893    1.299737
  H     -0.336642    1.288486   -1.341217
  H      1.646637   -0.454256   -1.310960
  H     -1.241659    0.127736    1.337503
  H      0.545143   -1.472520    1.349105
  H     -2.633844    0.247751   -1.369821
  H     -3.076579    1.187253    0.065541
  H      2.858515    1.774040   -0.179127
  H     -0.153038    3.172141    0.080576
  H      2.899013   -0.846682    1.179337
  H      0.327548   -3.352594    0.052774
  H     -3.090410   -1.629125   -0.048206

 Total Charge           Charge          ....    0
 Multiplicity           Mult            ....    1
 Number of Electrons    NEL             ....   96
 Basis Dimension        Dim             .... 1512

ORBITAL ENERGIES
----------------

  NO   OCC          E(Eh)            E(eV)
   0   2.0000     -20.584153      -560.1233
   1   2.0000     -20.582748      -560.0850
   2   2.0000     -20.582352      -560.0743
   3   2.0000     -20.574424      -559.8585
   4   2.0000     -20.568909      -559.7085
   5   2.0000     -20.556081      -559.3594
   6   2.0000     -11.359988      -309.1210
   7   2.0000     -11.300367      -307.4986
   8   2.0000     -11.298658      -307.4521
   9   2.0000     -11.296804      -307.4017
  10   2.0000     -11.295945      -307.3783
  11   2.0000     -11.277611      -306.8794
  12   2.0000      -1.441866       -39.2352
  13   2.0000      -1.398046       -38.0428
  14   2.0000      -1.384723       -37.6802
  15   2.0000      -1.369345       -37.2618
  16   2.0000      -1.363018       -37.0896
  17   2.0000      -1.352853       -36.8130
  18   2.0000      -1.073107       -29.2007
  19   2.0000      -1.048700       -28.5366
  20   2.0000      -0.945822       -25.7371
  21   2.0000      -0.882068       -24.0023
  22   2.0000      -0.853541       -23.2260
  23   2.0000      -0.821655       -22.3584
  24   2.0000      -0.757218       -20.6050
  25   2.0000      -0.732945       -19.9444
  26   2.0000      -0.726945       -19.7812
  27   2.0000      -0.713307       -19.4101
  28   2.0000      -0.683915       -18.6103
  29   2.0000      -0.674018       -18.3410
  30   2.0000      -0.665067       -18.0974
  31   2.0000      -0.636781       -17.3277
  32   2.0000      -0.630468       -17.1559
  33   2.0000      -0.603937       -16.4340
  34   2.0000      -0.597952       -16.2711
  35   2.0000      -0.590102       -16.0575
  36   2.0000      -0.572031       -15.5657
  37   2.0000      -0.558310       -15.1924
  38   2.0000      -0.551297       -15.0016
  39   2.0000      -0.526010       -14.3134
  40   2.0000      -0.520316       -14.1585
  41   2.0000      -0.516769       -14.0620
  42   2.0000      -0.497232       -13.5304
  43   2.0000      -0.482535       -13.1305
  44   2.0000      -0.463324       -12.6077
  45   2.0000      -0.455641       -12.3986
  46   2.0000      -0.440610       -11.9896
  47   2.0000      -0.434620       -11.8266
  48   0.0000       0.018600         0.5061
  49   0.0000       0.026637         0.7248
  50   0.0000       0.029942         0.8148
  51   0.0000       0.035430         0.9641
  52   0.0000       0.043103         1.1729

MULLIKEN ATOMIC CHARGES
-----------------------
   0 C :    0.496317
   1 C :    0.730548
   2 C :    0.572311
   3 C :    0.416285
   4 C :    0.994682
   5 C :   -0.013152
   6 O :   -1.030797
   7 O :   -1.043669
   8 O :   -1.025162
   9 O :   -1.048868
  10 O :   -0.982298
  11 O :   -0.957601
  12 H :    0.116608
  13 H :    0.134885
  14 H :    0.158492
  15 H :    0.186034
  16 H :    0.110596
  17 H :    0.203546
  18 H :    0.311227
  19 H :    0.319581
  20 H :    0.317845
  21 H :    0.354415
  22 H :    0.322727
  23 H :    0.355447
Sum of atomic charges:    0.0000000

LOEWDIN ATOMIC CHARGES
----------------------
   0 C :   -0.253177
   1 C :   -0.250980
   2 C :   -0.238474
   3 C :   -0.254155
   4 C :   -0.590286
   5 C :    0.178610
   6 O :    0.923349
   7 O :    1.314025
   8 O :    1.315571
   9 O :    1.310490
  10 O :    1.290412
  11 O :    1.282014
  12 H :   -0.292540
  13 H :   -0.285762
  14 H :   -0.310436
  15 H :   -0.289308
  16 H :   -0.304759
  17 H :   -0.288077
  18 H :   -0.315375
  19 H :   -0.791641
  20 H :   -0.791829
  21 H :   -0.773050
  22 H :   -0.766746
  23 H :   -0.817877

  Mayer bond orders larger than 0.100000
B(  0-C ,  1-C ) :   0.8462 B(  0-C ,  2-C ) :   0.9533 B(  0-C ,  8-O ) :   0.2499
B(  0-C ,  9-O ) :   0.1989 B(  0-C , 12-H ) :   1.0327 B(  1-C ,  3-C ) :   0.7030
B(  1-C ,  6-O ) :   0.1370 B(  1-C ,  7-O ) :   0.1316 B(  1-C , 13-H ) :   1.0610
B(  2-C ,  4-C ) :   0.8047 B(  2-C ,  7-O ) :   0.2366 B(  2-C , 10-O ) :   0.1055
B(  2-C , 14-H ) :   0.9631 B(  3-C ,  5-C ) :   0.5885 B(  3-C ,  6-O ) :   0.3694
B(  3-C ,  8-O ) :   0.1410 B(  3-C , 15-H ) :   1.0619 B(  3-C , 17-H ) :  -0.1260
B(  4-C ,  6-O ) :   0.6263 B(  4-C ,  9-O ) :   0.1167 B(  4-C , 10-O ) :   0.1677
B(  4-C , 16-H ) :   1.0351 B(  5-C , 11-O ) :   0.5884 B(  5-C , 17-H ) :   1.0371
B(  5-C , 18-H ) :   0.9813 B(  6-O , 10-O ) :   0.1579 B(  7-O , 19-H ) :   0.9467
B(  8-O , 20-H ) :   0.9529 B(  9-O , 21-H ) :   0.8943 B( 10-O , 22-H ) :   0.9516
B( 11-O , 23-H ) :   0.8467

MP2 TOTAL ENERGY:     -686.300709257 Eh
FINAL SINGLE POINT ENERGY      -686.300709256873

DIPOLE MOMENT
-------------
                                X             Y             Z
Electronic contribution:      1.76117      -1.38310      -0.45694
Nuclear contribution   :     -1.10325       1.07853       1.11456
                        -----------------------------------------
Total Dipole Moment    :      0.65792      -0.30457       0.65762
                        -----------------------------------------
Magnitude (a.u.)       :      0.97882
Magnitude (Debye)      :      2.48797

Rotational constants in cm-1:     0.038973     0.026040     0.016313
Rotational constants in MHz :  1168.376073   780.672134   489.064600

                             ****ORCA TERMINATED NORMALLY****
TOTAL RUN TIME: 0 days 2 hours 43 minutes 19 seconds 65 msec
