                         Program Version 5.0.4 -  RELEASE  -
|  1> !ri-mp2 aug-cc-pvqz aug-cc-pvqz/c tightscf
|  2> %pal nprocs 16 end
|  3>
|  4> * xyz 0 1
|  5> H     -0.333392    2.025670   -0.458487
|  6> H      1.594629    0.802015   -1.272848
|  7> H      1.833366   -1.474020   -0.539014
|  8> H     -0.033157    1.529153    1.201325
|  9> C      0.022543    1.205712    0.159355
| 10> H      2.219734    1.139182    0.340551
| 11> C      1.405703    0.669564   -0.207531
| 12> H      1.546270   -1.040847    1.156693
| 13> C      1.270591   -0.821031    0.123306
| 14> O     -2.082550   -0.030351   -0.067109
| 15> C     -0.888795   -0.002092    0.002806
| 16> O     -0.128413   -1.131408   -0.044870
| 17> *
| 18>
| 19>                          ****END OF INPUT****

CARTESIAN COORDINATES (ANGSTROEM)
---------------------------------
  H     -0.333392    2.025670   -0.458487
  H      1.594629    0.802015   -1.272848
  H      1.833366   -1.474020   -0.539014
  H     -0.033157    1.529153    1.201325
  C      0.022543    1.205712    0.159355
  H      2.219734    1.139182    0.340551
  C      1.405703    0.669564   -0.207531
  H      1.546270   -1.040847    1.156693
  C      1.270591   -0.821031    0.123306
  O     -2.082550   -0.030351   -0.067109
  C     -0.888795   -0.002092    0.002806
  O     -0.128413   -1.131408   -0.044870

 Total Charge           Charge          ....    0
 Multiplicity           Mult            ....    1
 Number of Electrons    NEL             ....   46
 Basis Dimension        Dim             ....  756

ORBITAL ENERGIES
----------------

  NO   OCC          E(Eh)            E(eV)
   0   2.0000     -20.599704      -560.5465
   1   2.0000     -20.538617      -558.8842
   2   2.0000     -11.377109      -309.5869
   3   2.0000     -11.303931      -307.5956
   4   2.0000     -11.256244      -306.2980
   5   2.0000     -11.253989      -306.2366
   6   2.0000      -1.456392       -39.6305
   7   2.0000      -1.365314       -37.1521
   8   2.0000      -1.094506       -29.7830
   9   2.0000      -0.992079       -26.9958
  10   2.0000      -0.857633       -23.3374
  11   2.0000      -0.777446       -21.1554
  12   2.0000      -0.711958       -19.3734
  13   2.0000      -0.695681       -18.9305
  14   2.0000      -0.649320       -17.6689
  15   2.0000      -0.612117       -16.6565
  16   2.0000      -0.596576       -16.2337
  17   2.0000      -0.581413       -15.8211
  18   2.0000      -0.540368       -14.7042
  19   2.0000      -0.518665       -14.1136
  20   2.0000      -0.501477       -13.6459
  21   2.0000      -0.455208       -12.3868
  22   2.0000      -0.437475       -11.9043
  23   0.0000       0.019303         0.5253
  24   0.0000       0.029919         0.8141
  25   0.0000       0.030974         0.8428
  26   0.0000       0.038706         1.0533
  27   0.0000       0.049429         1.3450

MULLIKEN ATOMIC CHARGES
-----------------------
   0 H :    0.327417
   1 H :    0.276528
   2 H :    0.406301
   3 H :    0.262131
   4 C :   -0.566438
   5 H :    0.322597
   6 C :   -0.592068
   7 H :    0.243662
   8 C :   -0.174203
   9 O :   -0.824021
  10 C :    1.055450
  11 O :   -0.737355
Sum of atomic charges:   -0.0000000

LOEWDIN ATOMIC CHARGES
----------------------
   0 H :   -0.280985
   1 H :   -0.272216
   2 H :   -0.294724
   3 H :   -0.273880
   4 C :    0.484118
   5 H :   -0.263938
   6 C :    0.515193
   7 H :   -0.288190
   8 C :    0.212272
   9 O :    0.656641
  10 C :   -1.046451
  11 O :    0.852158

  Mayer bond orders larger than 0.100000
B(  0-H ,  4-C ) :   0.8444 B(  1-H ,  6-C ) :   0.8788 B(  2-H ,  8-C ) :   0.8109
B(  3-H ,  4-C ) :   0.8699 B(  4-C ,  6-C ) :   1.0169 B(  4-C ,  9-O ) :   0.1304
B(  4-C , 10-C ) :   1.1017 B(  5-H ,  6-C ) :   0.8580 B(  6-C ,  8-C ) :   1.0774
B(  6-C , 10-C ) :  -0.1040 B(  7-H ,  8-C ) :   0.9330 B(  8-C , 11-O ) :   0.6798
B(  9-O , 10-C ) :   1.3778 B( 10-C , 11-O ) :   0.9209

MP2 TOTAL ENERGY:     -306.044522570 Eh
FINAL SINGLE POINT ENERGY      -306.044522569670

DIPOLE MOMENT
-------------
                                X             Y             Z
Electronic contribution:     -4.88871      -2.28095      -0.25865
Nuclear contribution   :      6.81637       2.97321       0.42795
                        -----------------------------------------
Total Dipole Moment    :      1.92766       0.69226       0.16930
                        -----------------------------------------
Magnitude (a.u.)       :      2.05518
Magnitude (Debye)      :      5.22386

Rotational constants in cm-1:     0.243541     0.119253     0.085032
Rotational constants in MHz :  7301.161003  3575.103980  2549.186775

                             ****ORCA TERMINATED NORMALLY****
TOTAL RUN TIME: 0 days 0 hours 19 minutes 58 seconds 227 msec
