                         Program Version 5.0.4 -  RELEASE  -
|  1> !ri-mp2 aug-cc-pvqz aug-cc-pvqz/c tightscf
|  2> %pal nprocs 16 end
|  3>
|  4> * xyz 0 1
|  5> O     -2.417963    0.047987   -0.123897
|  6> H     -1.254547   -0.774720    1.304580
|  7> H     -1.302489   -1.718686   -0.195314
|  8> C     -1.251091   -0.706463    0.216624
|  9> O      0.061919    1.328254    0.263126
| 10> H      0.015456    0.038391   -1.353421
| 11> C      0.012297    0.000165   -0.254588
| 12> H      1.281639   -0.756010    1.300499
| 13> H      1.324011   -1.707294   -0.195753
| 14> C      1.283432   -0.694142    0.205599
| 15> H      2.364208    0.899324   -0.013832
| 16> O      2.446879   -0.029282   -0.258813
| 17> H     -0.816557    1.714063    0.164460
| 18> H     -2.606229   -0.068088   -1.060358
| 19> *
| 20>
| 21>                          ****END OF INPUT****

CARTESIAN COORDINATES (ANGSTROEM)
---------------------------------
  O     -2.417963    0.047987   -0.123897
  H     -1.254547   -0.774720    1.304580
  H     -1.302489   -1.718686   -0.195314
  C     -1.251091   -0.706463    0.216624
  O      0.061919    1.328254    0.263126
  H      0.015456    0.038391   -1.353421
  C      0.012297    0.000165   -0.254588
  H      1.281639   -0.756010    1.300499
  H      1.324011   -1.707294   -0.195753
  C      1.283432   -0.694142    0.205599
  H      2.364208    0.899324   -0.013832
  O      2.446879   -0.029282   -0.258813
  H     -0.816557    1.714063    0.164460
  H     -2.606229   -0.068088   -1.060358

 Total Charge           Charge          ....    0
 Multiplicity           Mult            ....    1
 Number of Electrons    NEL             ....   50
 Basis Dimension        Dim             ....  848

ORBITAL ENERGIES
----------------

  NO   OCC          E(Eh)            E(eV)
   0   2.0000     -20.577656      -559.9465
   1   2.0000     -20.562610      -559.5371
   2   2.0000     -20.552511      -559.2623
   3   2.0000     -11.291388      -307.2543
   4   2.0000     -11.287655      -307.1527
   5   2.0000     -11.278892      -306.9143
   6   2.0000      -1.390120       -37.8271
   7   2.0000      -1.367709       -37.2172
   8   2.0000      -1.347078       -36.6558
   9   2.0000      -1.041256       -28.3340
  10   2.0000      -0.922295       -25.0969
  11   2.0000      -0.827678       -22.5223
  12   2.0000      -0.732871       -19.9424
  13   2.0000      -0.708128       -19.2691
  14   2.0000      -0.679633       -18.4937
  15   2.0000      -0.649363       -17.6701
  16   2.0000      -0.626078       -17.0365
  17   2.0000      -0.588963       -16.0265
  18   2.0000      -0.581204       -15.8154
  19   2.0000      -0.541047       -14.7226
  20   2.0000      -0.531256       -14.4562
  21   2.0000      -0.507956       -13.8222
  22   2.0000      -0.484997       -13.1974
  23   2.0000      -0.445287       -12.1169
  24   2.0000      -0.440004       -11.9731
  25   0.0000       0.021595         0.5876
  26   0.0000       0.031350         0.8531
  27   0.0000       0.035064         0.9541
  28   0.0000       0.038644         1.0516
  29   0.0000       0.052322         1.4238

MULLIKEN ATOMIC CHARGES
-----------------------
   0 O :   -0.846078
   1 H :    0.300129
   2 H :    0.283014
   3 C :   -0.121139
   4 O :   -0.872506
   5 H :    0.319591
   6 C :    0.313008
   7 H :    0.209499
   8 H :    0.319446
   9 C :   -0.037184
  10 H :    0.356580
  11 O :   -0.873312
  12 H :    0.299857
  13 H :    0.349094
Sum of atomic charges:    0.0000000

LOEWDIN ATOMIC CHARGES
----------------------
   0 O :    1.279134
   1 H :   -0.312533
   2 H :   -0.285507
   3 C :    0.184741
   4 O :    1.290139
   5 H :   -0.296778
   6 C :   -0.254606
   7 H :   -0.296398
   8 H :   -0.311695
   9 C :    0.152577
  10 H :   -0.829104
  11 O :    1.277456
  12 H :   -0.819886
  13 H :   -0.777542

  Mayer bond orders larger than 0.100000
B(  0-O ,  3-C ) :   0.6848 B(  0-O , 13-H ) :   0.8614 B(  1-H ,  3-C ) :   0.8684
B(  2-H ,  3-C ) :   0.8999 B(  3-C ,  4-O ) :   0.1045 B(  3-C ,  6-C ) :   0.9285
B(  4-O ,  6-C ) :   0.4129 B(  4-O , 12-H ) :   0.9238 B(  5-H ,  6-C ) :   0.8344
B(  6-C ,  9-C ) :   0.8851 B(  7-H ,  9-C ) :   0.9486 B(  8-H ,  9-C ) :   0.8923
B(  9-C , 11-O ) :   0.6480 B( 10-H , 11-O ) :   0.8484

MP2 TOTAL ENERGY:     -344.336045799 Eh
FINAL SINGLE POINT ENERGY      -344.336045798949

DIPOLE MOMENT
-------------
                                X             Y             Z
Electronic contribution:      0.21870       1.97705      -0.29947
Nuclear contribution   :     -1.01259      -2.39800      -0.05203
                        -----------------------------------------
Total Dipole Moment    :     -0.79389      -0.42096      -0.35150
                        -----------------------------------------
Magnitude (a.u.)       :      0.96489
Magnitude (Debye)      :      2.45256

Rotational constants in cm-1:     0.273546     0.065189     0.056423
Rotational constants in MHz :  8200.708611  1954.318977  1691.529264

                             ****ORCA TERMINATED NORMALLY****
TOTAL RUN TIME: 0 days 0 hours 27 minutes 58 seconds 250 msec
