                         Program Version 5.0.4 -  RELEASE  -
|  1> !ri-mp2 aug-cc-pvqz aug-cc-pvqz/c tightscf
|  2> %pal nprocs 16 end
|  3>
|  4> * xyz 0 1
|  5> C      0.000000    0.554399    0.000000
|  6> O      1.166268    0.850486    0.000000
|  7> O     -0.993246    1.475442    0.000000
|  8> C     -0.558650   -0.860872    0.000000
|  9> N      0.418261   -1.927134    0.000000
| 10> H     -0.577661    2.350468    0.000000
| 11> H     -1.213149   -0.954876    0.869365
| 12> H     -1.213149   -0.954876   -0.869365
| 13> H      1.021928   -1.859686    0.809956
| 14> H      1.021928   -1.859686   -0.809956
| 15> *
| 16>
| 17>                          ****END OF INPUT****

CARTESIAN COORDINATES (ANGSTROEM)
---------------------------------
  C      0.000000    0.554399    0.000000
  O      1.166268    0.850486    0.000000
  O     -0.993246    1.475442    0.000000
  C     -0.558650   -0.860872    0.000000
  N      0.418261   -1.927134    0.000000
  H     -0.577661    2.350468    0.000000
  H     -1.213149   -0.954876    0.869365
  H     -1.213149   -0.954876   -0.869365
  H      1.021928   -1.859686    0.809956
  H      1.021928   -1.859686   -0.809956

 Total Charge           Charge          ....    0
 Multiplicity           Mult            ....    1
 Number of Electrons    NEL             ....   40
 Basis Dimension        Dim             ....  630

ORBITAL ENERGIES
----------------

  NO   OCC          E(Eh)            E(eV)
   0   2.0000     -20.616424      -561.0014
   1   2.0000     -20.555030      -559.3308
   2   2.0000     -15.552692      -423.2103
   3   2.0000     -11.387971      -309.8825
   4   2.0000     -11.279368      -306.9272
   5   2.0000      -1.470298       -40.0088
   6   2.0000      -1.368983       -37.2519
   7   2.0000      -1.197551       -32.5870
   8   2.0000      -0.979250       -26.6467
   9   2.0000      -0.817980       -22.2584
  10   2.0000      -0.711301       -19.3555
  11   2.0000      -0.700349       -19.0575
  12   2.0000      -0.696766       -18.9600
  13   2.0000      -0.631416       -17.1817
  14   2.0000      -0.604630       -16.4528
  15   2.0000      -0.589091       -16.0300
  16   2.0000      -0.537332       -14.6215
  17   2.0000      -0.492244       -13.3947
  18   2.0000      -0.469890       -12.7864
  19   2.0000      -0.413475       -11.2512
  20   0.0000       0.024621         0.6700
  21   0.0000       0.034432         0.9370
  22   0.0000       0.037116         1.0100
  23   0.0000       0.041751         1.1361
  24   0.0000       0.061121         1.6632

MULLIKEN ATOMIC CHARGES
-----------------------
   0 C :    0.897783
   1 O :   -0.738740
   2 O :   -0.669459
   3 C :   -0.343707
   4 N :   -0.666269
   5 H :    0.344411
   6 H :    0.321251
   7 H :    0.321251
   8 H :    0.266741
   9 H :    0.266741
Sum of atomic charges:   -0.0000000

LOEWDIN ATOMIC CHARGES
----------------------
   0 C :   -1.018486
   1 O :    0.691770
   2 O :    1.243226
   3 C :    0.287564
   4 N :    1.264431
   5 H :   -0.815930
   6 H :   -0.310129
   7 H :   -0.310129
   8 H :   -0.516159
   9 H :   -0.516159

  Mayer bond orders larger than 0.100000
B(  0-C ,  1-O ) :   1.4932 B(  0-C ,  2-O ) :   0.9195 B(  0-C ,  3-C ) :   1.0414
B(  1-O ,  3-C ) :   0.1025 B(  2-O ,  5-H ) :   0.9007 B(  3-C ,  4-N ) :   0.9773
B(  3-C ,  6-H ) :   0.8745 B(  3-C ,  7-H ) :   0.8745 B(  4-N ,  8-H ) :   0.8906
B(  4-N ,  9-H ) :   0.8906

MP2 TOTAL ENERGY:     -284.062098741 Eh
FINAL SINGLE POINT ENERGY      -284.062098740909

DIPOLE MOMENT
-------------
                                X             Y             Z
Electronic contribution:      0.54493       3.51472       0.00000
Nuclear contribution   :     -0.95563      -3.25572       0.00000
                        -----------------------------------------
Total Dipole Moment    :     -0.41070       0.25900       0.00000
                        -----------------------------------------
Magnitude (a.u.)       :      0.48555
Magnitude (Debye)      :      1.23416

Rotational constants in cm-1:     0.345713     0.128365     0.096664
Rotational constants in MHz : 10364.225556  3848.297845  2897.902897

                             ****ORCA TERMINATED NORMALLY****
TOTAL RUN TIME: 0 days 0 hours 7 minutes 44 seconds 97 msec
