                         Program Version 5.0.4 -  RELEASE  -
|  1> !ri-mp2 aug-cc-pvqz aug-cc-pvqz/c tightscf
|  2> %pal nprocs 16 end
|  3>
|  4> * xyz 0 1
|  5> C     -0.017919    0.121480    0.000209
|  6> N     -0.222845    1.381237    0.009408
|  7> N     -0.973006   -0.891055    0.074673
|  8> N      1.277018   -0.374139   -0.080092
|  9> H     -1.210366    1.609782   -0.043242
| 10> H     -1.924501   -0.586118   -0.046428
| 11> H     -0.761135   -1.727618   -0.447294
| 12> H      1.968806    0.351343    0.024724
| 13> H      1.466538   -1.188574    0.483063
| 14> *
| 15>
| 16>                          ****END OF INPUT****

CARTESIAN COORDINATES (ANGSTROEM)
---------------------------------
  C     -0.017919    0.121480    0.000209
  N     -0.222845    1.381237    0.009408
  N     -0.973006   -0.891055    0.074673
  N      1.277018   -0.374139   -0.080092
  H     -1.210366    1.609782   -0.043242
  H     -1.924501   -0.586118   -0.046428
  H     -0.761135   -1.727618   -0.447294
  H      1.968806    0.351343    0.024724
  H      1.466538   -1.188574    0.483063

 Total Charge           Charge          ....    0
 Multiplicity           Mult            ....    1
 Number of Electrons    NEL             ....   32
 Basis Dimension        Dim             ....  550

ORBITAL ENERGIES
----------------

  NO   OCC          E(Eh)            E(eV)
   0   2.0000     -15.578706      -423.9182
   1   2.0000     -15.567705      -423.6188
   2   2.0000     -15.508918      -422.0191
   3   2.0000     -11.343478      -308.6717
   4   2.0000      -1.295097       -35.2414
   5   2.0000      -1.168323       -31.7917
   6   2.0000      -1.132456       -30.8157
   7   2.0000      -0.811829       -22.0910
   8   2.0000      -0.729992       -19.8641
   9   2.0000      -0.710105       -19.3229
  10   2.0000      -0.630150       -17.1473
  11   2.0000      -0.611968       -16.6525
  12   2.0000      -0.564637       -15.3646
  13   2.0000      -0.435864       -11.8605
  14   2.0000      -0.422070       -11.4851
  15   2.0000      -0.364826        -9.9274
  16   0.0000       0.020452         0.5565
  17   0.0000       0.031329         0.8525
  18   0.0000       0.039096         1.0639
  19   0.0000       0.050183         1.3656
  20   0.0000       0.055870         1.5203

MULLIKEN ATOMIC CHARGES
-----------------------
   0 C :    0.683646
   1 N :   -0.788093
   2 N :   -0.682726
   3 N :   -0.660193
   4 H :    0.276586
   5 H :    0.271871
   6 H :    0.304716
   7 H :    0.302892
   8 H :    0.291301
Sum of atomic charges:   -0.0000000

LOEWDIN ATOMIC CHARGES
----------------------
   0 C :   -0.665907
   1 N :    0.951944
   2 N :    1.257280
   3 N :    1.228626
   4 H :   -0.706298
   5 H :   -0.517712
   6 H :   -0.506691
   7 H :   -0.533587
   8 H :   -0.507654

  Mayer bond orders larger than 0.100000
B(  0-C ,  1-N ) :   1.7071 B(  0-C ,  2-N ) :   1.0814 B(  0-C ,  3-N ) :   1.1173
B(  1-N ,  4-H ) :   0.8593 B(  2-N ,  5-H ) :   0.9187 B(  2-N ,  6-H ) :   0.8833
B(  3-N ,  7-H ) :   0.8759 B(  3-N ,  8-H ) :   0.8901

MP2 TOTAL ENERGY:     -205.077411250 Eh
FINAL SINGLE POINT ENERGY      -205.077411249805

DIPOLE MOMENT
-------------
                                X             Y             Z
Electronic contribution:      0.13180       0.40881       0.01211
Nuclear contribution   :     -0.46818      -1.56727      -0.02966
                        -----------------------------------------
Total Dipole Moment    :     -0.33637      -1.15846      -0.01755
                        -----------------------------------------
Magnitude (a.u.)       :      1.20643
Magnitude (Debye)      :      3.06651

Rotational constants in cm-1:     0.352438     0.340669     0.175312
Rotational constants in MHz : 10565.814728 10212.998553  5255.719686

                             ****ORCA TERMINATED NORMALLY****
TOTAL RUN TIME: 0 days 0 hours 4 minutes 26 seconds 509 msec
