                         Program Version 5.0.4 -  RELEASE  -
|  1> !ri-mp2 aug-cc-pvqz aug-cc-pvqz/c tightscf
|  2> %pal nprocs 16 end
|  3> %maxcore 3800
|  4>
|  5> * xyz 0 1
|  6> N     -1.424042    1.687954   -0.315662
|  7> C     -1.175219    0.248620   -0.494595
|  8> C     -2.365563   -0.567051    0.058790
|  9> O     -2.366240   -1.768365    0.103385
| 10> O     -3.404107    0.178411    0.450947
| 11> H     -3.124488    1.108651    0.299481
| 12> C      0.140646   -0.242894    0.117615
| 13> C      1.376852    0.225616   -0.655543
| 14> C      2.649673    0.036162    0.158499
| 15> O      2.767995    0.503567    1.276755
| 16> N      3.647934   -0.665145   -0.444780
| 17> H     -1.174045    0.033000   -1.566491
| 18> H      0.210972    0.115142    1.147316
| 19> H      0.114142   -1.330876    0.160468
| 20> H      1.436071   -0.283556   -1.619729
| 21> H      1.310231    1.297639   -0.858898
| 22> H      3.536523   -1.093206   -1.344786
| 23> H      4.500031   -0.822115    0.066469
| 24> H     -0.866188    2.078023    0.433662
| 25> H     -1.250015    2.226005   -1.151686
| 26> *
| 27>
| 28>                          ****END OF INPUT****

CARTESIAN COORDINATES (ANGSTROEM)
---------------------------------
  N     -1.424042    1.687954   -0.315662
  C     -1.175219    0.248620   -0.494595
  C     -2.365563   -0.567051    0.058790
  O     -2.366240   -1.768365    0.103385
  O     -3.404107    0.178411    0.450947
  H     -3.124488    1.108651    0.299481
  C      0.140646   -0.242894    0.117615
  C      1.376852    0.225616   -0.655543
  C      2.649673    0.036162    0.158499
  O      2.767995    0.503567    1.276755
  N      3.647934   -0.665145   -0.444780
  H     -1.174045    0.033000   -1.566491
  H      0.210972    0.115142    1.147316
  H      0.114142   -1.330876    0.160468
  H      1.436071   -0.283556   -1.619729
  H      1.310231    1.297639   -0.858898
  H      3.536523   -1.093206   -1.344786
  H      4.500031   -0.822115    0.066469
  H     -0.866188    2.078023    0.433662
  H     -1.250015    2.226005   -1.151686

 Total Charge           Charge          ....    0
 Multiplicity           Mult            ....    1
 Number of Electrons    NEL             ....   78
 Basis Dimension        Dim             .... 1260

ORBITAL ENERGIES
----------------

  NO   OCC          E(Eh)            E(eV)
   0   2.0000     -20.594309      -560.3996
   1   2.0000     -20.533562      -558.7466
   2   2.0000     -20.525847      -558.5367
   3   2.0000     -15.596413      -424.4000
   4   2.0000     -15.584580      -424.0780
   5   2.0000     -11.374529      -309.5167
   6   2.0000     -11.363437      -309.2148
   7   2.0000     -11.298191      -307.4394
   8   2.0000     -11.258652      -306.3635
   9   2.0000     -11.248505      -306.0874
  10   2.0000      -1.451735       -39.5037
  11   2.0000      -1.391931       -37.8764
  12   2.0000      -1.356089       -36.9011
  13   2.0000      -1.227350       -33.3979
  14   2.0000      -1.223712       -33.2989
  15   2.0000      -1.082534       -29.4573
  16   2.0000      -0.986757       -26.8510
  17   2.0000      -0.881113       -23.9763
  18   2.0000      -0.806770       -21.9533
  19   2.0000      -0.801522       -21.8105
  20   2.0000      -0.748758       -20.3748
  21   2.0000      -0.729433       -19.8489
  22   2.0000      -0.705682       -19.2026
  23   2.0000      -0.689862       -18.7721
  24   2.0000      -0.667069       -18.1519
  25   2.0000      -0.635575       -17.2949
  26   2.0000      -0.625222       -17.0132
  27   2.0000      -0.620080       -16.8732
  28   2.0000      -0.602633       -16.3985
  29   2.0000      -0.583250       -15.8710
  30   2.0000      -0.564210       -15.3529
  31   2.0000      -0.533926       -14.5289
  32   2.0000      -0.516323       -14.0499
  33   2.0000      -0.512190       -13.9374
  34   2.0000      -0.472585       -12.8597
  35   2.0000      -0.466549       -12.6954
  36   2.0000      -0.438622       -11.9355
  37   2.0000      -0.426535       -11.6066
  38   2.0000      -0.416337       -11.3291
  39   0.0000       0.012549         0.3415
  40   0.0000       0.020577         0.5599
  41   0.0000       0.029405         0.8002
  42   0.0000       0.036671         0.9979
  43   0.0000       0.042330         1.1519

MULLIKEN ATOMIC CHARGES
-----------------------
   0 N :   -0.660658
   1 C :   -0.065738
   2 C :    1.204792
   3 O :   -0.833596
   4 O :   -0.916442
   5 H :    0.388483
   6 C :   -0.336477
   7 C :   -0.371212
   8 C :    0.929088
   9 O :   -0.871509
  10 N :   -0.807659
  11 H :    0.288668
  12 H :    0.254852
  13 H :    0.321146
  14 H :    0.237657
  15 H :    0.257478
  16 H :    0.337856
  17 H :    0.187206
  18 H :    0.241074
  19 H :    0.214992
Sum of atomic charges:   -0.0000000

LOEWDIN ATOMIC CHARGES
----------------------
   0 N :    1.306504
   1 C :   -0.036965
   2 C :   -1.007813
   3 O :    0.682890
   4 O :    1.254231
   5 H :   -0.952923
   6 C :    0.501604
   7 C :    0.486606
   8 C :   -0.819278
   9 O :    0.705061
  10 N :    1.252357
  11 H :   -0.291741
  12 H :   -0.288645
  13 H :   -0.291109
  14 H :   -0.290616
  15 H :   -0.290347
  16 H :   -0.498157
  17 H :   -0.494456
  18 H :   -0.471128
  19 H :   -0.456078

  Mayer bond orders larger than 0.100000
B(  0-N ,  1-C ) :   0.7403 B(  0-N ,  5-H ) :   0.1244 B(  0-N , 18-H ) :   0.9362
B(  0-N , 19-H ) :   1.0058 B(  1-C ,  2-C ) :   1.1819 B(  1-C ,  3-O ) :   0.2925
B(  1-C ,  4-O ) :   0.1180 B(  1-C ,  6-C ) :   0.8844 B(  1-C , 11-H ) :   0.8881
B(  2-C ,  3-O ) :   1.2758 B(  2-C ,  4-O ) :   0.6348 B(  3-O ,  4-O ) :   0.1511
B(  4-O ,  5-H ) :   0.7504 B(  6-C ,  7-C ) :   0.8892 B(  6-C ,  8-C ) :  -0.1013
B(  6-C , 12-H ) :   0.8810 B(  6-C , 13-H ) :   0.8664 B(  7-C ,  8-C ) :   1.0916
B(  7-C ,  9-O ) :   0.2085 B(  7-C , 10-N ) :  -0.1342 B(  7-C , 14-H ) :   0.9686
B(  7-C , 15-H ) :   0.8657 B(  8-C ,  9-O ) :   1.1153 B(  8-C , 10-N ) :   1.1096
B(  9-O , 10-N ) :   0.1802 B( 10-N , 16-H ) :   0.8507 B( 10-N , 17-H ) :   1.0675

MP2 TOTAL ENERGY:     -531.028867683 Eh
FINAL SINGLE POINT ENERGY      -531.028867682976

DIPOLE MOMENT
-------------
                                X             Y             Z
Electronic contribution:     -3.25455      -2.28837       2.54321
Nuclear contribution   :      4.66992       3.32539      -4.42016
                        -----------------------------------------
Total Dipole Moment    :      1.41536       1.03702      -1.87695
                        -----------------------------------------
Magnitude (a.u.)       :      2.56936
Magnitude (Debye)      :      6.53078

Rotational constants in cm-1:     0.096270     0.018589     0.017264
Rotational constants in MHz :  2886.106752   557.277388   517.562243

                             ****ORCA TERMINATED NORMALLY****
TOTAL RUN TIME: 0 days 1 hours 35 minutes 41 seconds 335 msec
