                         Program Version 5.0.4 -  RELEASE  -
|  1> !ri-mp2 aug-cc-pvqz aug-cc-pvqz/c tightscf
|  2> %pal nprocs 16 end
|  3> %maxcore 3800
|  4>
|  5> * xyz 0 1
|  6> N      0.630582    1.427132    0.497820
|  7> C      0.942174   -0.008642    0.479325
|  8> C      2.405547   -0.219182    0.025066
|  9> O      2.939125   -1.297716    0.031446
| 10> O      3.012778    0.899944   -0.375393
| 11> H      2.332608    1.605804   -0.257569
| 12> C      0.024429   -0.827843   -0.440883
| 13> C     -1.389805   -1.084945    0.084499
| 14> C     -2.385902    0.029375   -0.119800
| 15> O     -2.158654    1.123873   -0.578738
| 16> O     -3.623769   -0.339435    0.271599
| 17> H      0.891335   -0.439220    1.483407
| 18> H     -0.025257   -0.346028   -1.419975
| 19> H      0.508995   -1.791744   -0.586679
| 20> H     -1.813631   -1.966586   -0.401442
| 21> H     -1.380996   -1.327411    1.150793
| 22> H     -0.248077    1.634248    0.037933
| 23> H      0.602211    1.803939    1.434644
| 24> H     -4.215760    0.411176    0.113596
| 25> *
| 26>
| 27>                          ****END OF INPUT****

CARTESIAN COORDINATES (ANGSTROEM)
---------------------------------
  N      0.630582    1.427132    0.497820
  C      0.942174   -0.008642    0.479325
  C      2.405547   -0.219182    0.025066
  O      2.939125   -1.297716    0.031446
  O      3.012778    0.899944   -0.375393
  H      2.332608    1.605804   -0.257569
  C      0.024429   -0.827843   -0.440883
  C     -1.389805   -1.084945    0.084499
  C     -2.385902    0.029375   -0.119800
  O     -2.158654    1.123873   -0.578738
  O     -3.623769   -0.339435    0.271599
  H      0.891335   -0.439220    1.483407
  H     -0.025257   -0.346028   -1.419975
  H      0.508995   -1.791744   -0.586679
  H     -1.813631   -1.966586   -0.401442
  H     -1.380996   -1.327411    1.150793
  H     -0.248077    1.634248    0.037933
  H      0.602211    1.803939    1.434644
  H     -4.215760    0.411176    0.113596

 Total Charge           Charge          ....    0
 Multiplicity           Mult            ....    1
 Number of Electrons    NEL             ....   78
 Basis Dimension        Dim             .... 1214

ORBITAL ENERGIES
----------------

  NO   OCC          E(Eh)            E(eV)
   0   2.0000     -20.632613      -561.4419
   1   2.0000     -20.589425      -560.2667
   2   2.0000     -20.573813      -559.8419
   3   2.0000     -20.529583      -558.6383
   4   2.0000     -15.568412      -423.6380
   5   2.0000     -11.412202      -310.5418
   6   2.0000     -11.369419      -309.3776
   7   2.0000     -11.293006      -307.2983
   8   2.0000     -11.271362      -306.7094
   9   2.0000     -11.255214      -306.2700
  10   2.0000      -1.490068       -40.5468
  11   2.0000      -1.447369       -39.3849
  12   2.0000      -1.387185       -37.7472
  13   2.0000      -1.351605       -36.7790
  14   2.0000      -1.215886       -33.0859
  15   2.0000      -1.095826       -29.8189
  16   2.0000      -0.997742       -27.1500
  17   2.0000      -0.899600       -24.4794
  18   2.0000      -0.817944       -22.2574
  19   2.0000      -0.797533       -21.7020
  20   2.0000      -0.735718       -20.0199
  21   2.0000      -0.730923       -19.8894
  22   2.0000      -0.726958       -19.7815
  23   2.0000      -0.690802       -18.7977
  24   2.0000      -0.680059       -18.5053
  25   2.0000      -0.659914       -17.9572
  26   2.0000      -0.626618       -17.0511
  27   2.0000      -0.618677       -16.8351
  28   2.0000      -0.611077       -16.6282
  29   2.0000      -0.597465       -16.2579
  30   2.0000      -0.569504       -15.4970
  31   2.0000      -0.542783       -14.7699
  32   2.0000      -0.531283       -14.4569
  33   2.0000      -0.516179       -14.0460
  34   2.0000      -0.508933       -13.8488
  35   2.0000      -0.479214       -13.0401
  36   2.0000      -0.466954       -12.7065
  37   2.0000      -0.459266       -12.4973
  38   2.0000      -0.410630       -11.1738
  39   0.0000       0.015758         0.4288
  40   0.0000       0.025818         0.7025
  41   0.0000       0.029791         0.8107
  42   0.0000       0.033543         0.9127
  43   0.0000       0.047330         1.2879

MULLIKEN ATOMIC CHARGES
-----------------------
   0 N :   -0.612387
   1 C :    0.016090
   2 C :    1.174824
   3 O :   -0.820621
   4 O :   -0.944748
   5 H :    0.373013
   6 C :   -0.360973
   7 C :   -0.604375
   8 C :    1.190577
   9 O :   -0.844272
  10 O :   -0.763055
  11 H :    0.305638
  12 H :    0.314920
  13 H :    0.275582
  14 H :    0.285621
  15 H :    0.220861
  16 H :    0.221321
  17 H :    0.202809
  18 H :    0.369175
Sum of atomic charges:   -0.0000000

LOEWDIN ATOMIC CHARGES
----------------------
   0 N :    1.306106
   1 C :   -0.034424
   2 C :   -1.020484
   3 O :    0.679089
   4 O :    1.253225
   5 H :   -0.958207
   6 C :    0.508858
   7 C :    0.499990
   8 C :   -0.956843
   9 O :    0.780731
  10 O :    1.265184
  11 H :   -0.295413
  12 H :   -0.266495
  13 H :   -0.303200
  14 H :   -0.285828
  15 H :   -0.281830
  16 H :   -0.639525
  17 H :   -0.445980
  18 H :   -0.804956

  Mayer bond orders larger than 0.100000
B(  0-N ,  1-C ) :   0.7436 B(  0-N ,  5-H ) :   0.1542 B(  0-N , 16-H ) :   1.0391
B(  0-N , 17-H ) :   0.9962 B(  1-C ,  2-C ) :   1.1162 B(  1-C ,  3-O ) :   0.2199
B(  1-C ,  6-C ) :   0.7729 B(  1-C , 11-H ) :   0.8679 B(  2-C ,  3-O ) :   1.3528
B(  2-C ,  4-O ) :   0.6834 B(  3-O ,  4-O ) :   0.1540 B(  4-O ,  5-H ) :   0.7400
B(  6-C ,  7-C ) :   0.9681 B(  6-C ,  8-C ) :  -0.1202 B(  6-C , 12-H ) :   0.8558
B(  6-C , 13-H ) :   0.9263 B(  7-C ,  8-C ) :   1.0818 B(  7-C ,  9-O ) :   0.1006
B(  7-C , 10-O ) :   0.1434 B(  7-C , 14-H ) :   0.9388 B(  7-C , 15-H ) :   0.9328
B(  8-C ,  9-O ) :   1.3906 B(  8-C , 10-O ) :   0.7443 B( 10-O , 18-H ) :   0.9041

MP2 TOTAL ENERGY:     -550.904443599 Eh
FINAL SINGLE POINT ENERGY      -550.904443598889

DIPOLE MOMENT
-------------
                                X             Y             Z
Electronic contribution:      1.04976       0.78052      -0.80117
Nuclear contribution   :     -3.32765      -0.39960       1.54063
                        -----------------------------------------
Total Dipole Moment    :     -2.27790       0.38091       0.73946
                        -----------------------------------------
Magnitude (a.u.)       :      2.42502
Magnitude (Debye)      :      6.16391

Rotational constants in cm-1:     0.107230     0.021037     0.018588
Rotational constants in MHz :  3214.677791   630.674440   557.259974

                             ****ORCA TERMINATED NORMALLY****
TOTAL RUN TIME: 0 days 1 hours 7 minutes 9 seconds 221 msec
