                         Program Version 5.0.4 -  RELEASE  -
|  1> !ri-mp2 aug-cc-pvqz aug-cc-pvqz/c tightscf
|  2> %pal nprocs 16 end
|  3>
|  4> * xyz 0 1
|  5> C     -0.738863   -0.744609    0.000092
|  6> C      0.514163    0.098603    0.000027
|  7> O      1.636178   -0.642444   -0.000068
|  8> O      0.505630    1.304270    0.000046
|  9> O     -1.893095    0.053802   -0.000097
| 10> H     -0.715437   -1.394908   -0.880519
| 11> H     -0.715499   -1.394600    0.880937
| 12> H     -1.602727    0.976904   -0.000086
| 13> H      2.392158   -0.036383   -0.000096
| 14> *
| 15>
| 16>                          ****END OF INPUT****

CARTESIAN COORDINATES (ANGSTROEM)
---------------------------------
  C     -0.738863   -0.744609    0.000092
  C      0.514163    0.098603    0.000027
  O      1.636178   -0.642444   -0.000068
  O      0.505630    1.304270    0.000046
  O     -1.893095    0.053802   -0.000097
  H     -0.715437   -1.394908   -0.880519
  H     -0.715499   -1.394600    0.880937
  H     -1.602727    0.976904   -0.000086
  H      2.392158   -0.036383   -0.000096

 Total Charge           Charge          ....    0
 Multiplicity           Mult            ....    1
 Number of Electrons    NEL             ....   40
 Basis Dimension        Dim             ....  584

ORBITAL ENERGIES
----------------

  NO   OCC          E(Eh)            E(eV)
   0   2.0000     -20.631970      -561.4244
   1   2.0000     -20.570458      -559.7506
   2   2.0000     -20.567408      -559.6676
   3   2.0000     -11.404612      -310.3353
   4   2.0000     -11.307720      -307.6987
   5   2.0000      -1.488410       -40.5017
   6   2.0000      -1.393950       -37.9313
   7   2.0000      -1.368917       -37.2501
   8   2.0000      -1.009462       -27.4689
   9   2.0000      -0.839607       -22.8469
  10   2.0000      -0.746472       -20.3125
  11   2.0000      -0.728018       -19.8104
  12   2.0000      -0.686993       -18.6940
  13   2.0000      -0.650311       -17.6959
  14   2.0000      -0.615401       -16.7459
  15   2.0000      -0.614405       -16.7188
  16   2.0000      -0.545615       -14.8470
  17   2.0000      -0.507439       -13.8081
  18   2.0000      -0.478241       -13.0136
  19   2.0000      -0.467092       -12.7102
  20   0.0000       0.022350         0.6082
  21   0.0000       0.035621         0.9693
  22   0.0000       0.039469         1.0740
  23   0.0000       0.045855         1.2478
  24   0.0000       0.072535         1.9738

MULLIKEN ATOMIC CHARGES
-----------------------
   0 C :   -0.043205
   1 C :    0.812833
   2 O :   -0.647454
   3 O :   -0.712460
   4 O :   -0.768758
   5 H :    0.310640
   6 H :    0.310639
   7 H :    0.390889
   8 H :    0.346876
Sum of atomic charges:   -0.0000000

LOEWDIN ATOMIC CHARGES
----------------------
   0 C :    0.117663
   1 C :   -1.015668
   2 O :    1.255379
   3 O :    0.738777
   4 O :    1.259239
   5 H :   -0.317519
   6 H :   -0.317509
   7 H :   -0.917158
   8 H :   -0.803205

  Mayer bond orders larger than 0.100000
B(  0-C ,  1-C ) :   1.0823 B(  0-C ,  4-O ) :   0.7803 B(  0-C ,  5-H ) :   0.8614
B(  0-C ,  6-H ) :   0.8614 B(  1-C ,  2-O ) :   0.9581 B(  1-C ,  3-O ) :   1.4963
B(  2-O ,  8-H ) :   0.8996 B(  4-O ,  7-H ) :   0.8526

MP2 TOTAL ENERGY:     -303.929934572 Eh
FINAL SINGLE POINT ENERGY      -303.929934572325

DIPOLE MOMENT
-------------
                                X             Y             Z
Electronic contribution:      1.43241       1.33219      -0.00015
Nuclear contribution   :     -0.62980      -1.81528       0.00023
                        -----------------------------------------
Total Dipole Moment    :      0.80261      -0.48309       0.00008
                        -----------------------------------------
Magnitude (a.u.)       :      0.93678
Magnitude (Debye)      :      2.38111

Rotational constants in cm-1:     0.358326     0.134926     0.099833
Rotational constants in MHz : 10742.349264  4044.974863  2992.924897

                             ****ORCA TERMINATED NORMALLY****
TOTAL RUN TIME: 0 days 0 hours 9 minutes 23 seconds 29 msec
