                         Program Version 5.0.4 -  RELEASE  -
|  1> !ri-mp2 aug-cc-pvqz aug-cc-pvqz/c tightscf
|  2> %pal nprocs 16 end
|  3>
|  4> * xyz 0 1
|  5> O     1.166590     2.672477       0.000000
|  6> O    -1.166590    -2.672477       0.000000
|  7> N     1.166590     1.298532       0.000000
|  8> N    -1.166590    -1.298532       0.000000
|  9> C     0.027863     0.723227       0.000000
| 10> C    -0.027863    -0.723227       0.000000
| 11> H     0.248784     2.997834       0.000000
| 12> H    -0.248784    -2.997834       0.000000
| 13> H    -0.917383     1.269774       0.000000
| 14> H     0.917383    -1.269774       0.000000
| 15> *
| 16>
| 17>                          ****END OF INPUT****

CARTESIAN COORDINATES (ANGSTROEM)
---------------------------------
  O      1.166590    2.672477    0.000000
  O     -1.166590   -2.672477    0.000000
  N      1.166590    1.298532    0.000000
  N     -1.166590   -1.298532    0.000000
  C      0.027863    0.723227    0.000000
  C     -0.027863   -0.723227    0.000000
  H      0.248784    2.997834    0.000000
  H     -0.248784   -2.997834    0.000000
  H     -0.917383    1.269774    0.000000
  H      0.917383   -1.269774    0.000000

 Total Charge           Charge          ....    0
 Multiplicity           Mult            ....    1
 Number of Electrons    NEL             ....   46
 Basis Dimension        Dim             ....  664

ORBITAL ENERGIES
----------------

  NO   OCC          E(Eh)            E(eV)
   0   2.0000     -20.623881      -561.2043
   1   2.0000     -20.623881      -561.2043
   2   2.0000     -15.657242      -426.0552
   3   2.0000     -15.657239      -426.0551
   4   2.0000     -11.304758      -307.6181
   5   2.0000     -11.303884      -307.5943
   6   2.0000      -1.459498       -39.7150
   7   2.0000      -1.457081       -39.6492
   8   2.0000      -1.211722       -32.9726
   9   2.0000      -1.152787       -31.3689
  10   2.0000      -0.919472       -25.0201
  11   2.0000      -0.837794       -22.7975
  12   2.0000      -0.760237       -20.6871
  13   2.0000      -0.749424       -20.3929
  14   2.0000      -0.672187       -18.2911
  15   2.0000      -0.631463       -17.1830
  16   2.0000      -0.619000       -16.8438
  17   2.0000      -0.614722       -16.7274
  18   2.0000      -0.560035       -15.2393
  19   2.0000      -0.487301       -13.2601
  20   2.0000      -0.485596       -13.2137
  21   2.0000      -0.479054       -13.0357
  22   2.0000      -0.378623       -10.3029
  23   0.0000       0.023589         0.6419
  24   0.0000       0.023601         0.6422
  25   0.0000       0.044492         1.2107
  26   0.0000       0.051252         1.3947
  27   0.0000       0.060063         1.6344

MULLIKEN ATOMIC CHARGES
-----------------------
   0 O :   -0.574416
   1 O :   -0.574416
   2 N :   -0.139363
   3 N :   -0.139363
   4 C :   -0.123504
   5 C :   -0.123504
   6 H :    0.338845
   7 H :    0.338845
   8 H :    0.498438
   9 H :    0.498438
Sum of atomic charges:    0.0000000

LOEWDIN ATOMIC CHARGES
----------------------
   0 O :    0.992892
   1 O :    0.992892
   2 N :    0.259905
   3 N :    0.259905
   4 C :   -0.009992
   5 C :   -0.009992
   6 H :   -0.885566
   7 H :   -0.885566
   8 H :   -0.357240
   9 H :   -0.357240

  Mayer bond orders larger than 0.100000
B(  0-O ,  2-N ) :   0.7519 B(  0-O ,  6-H ) :   0.8738 B(  1-O ,  3-N ) :   0.7519
B(  1-O ,  7-H ) :   0.8738 B(  2-N ,  4-C ) :   1.7389 B(  3-N ,  5-C ) :   1.7389
B(  4-C ,  5-C ) :   1.0435 B(  4-C ,  8-H ) :   0.7262 B(  5-C ,  9-H ) :   0.7262

MP2 TOTAL ENERGY:     -337.979752493 Eh
FINAL SINGLE POINT ENERGY      -337.979752492811

DIPOLE MOMENT
-------------
                                X             Y             Z
Electronic contribution:      0.00000       0.00000      -0.00000
Nuclear contribution   :      0.00000       0.00000       0.00000
                        -----------------------------------------
Total Dipole Moment    :      0.00000       0.00000      -0.00000
                        -----------------------------------------
Magnitude (a.u.)       :      0.00000
Magnitude (Debye)      :      0.00000

Rotational constants in cm-1:     1.108899     0.044595     0.042871
Rotational constants in MHz : 33243.945083  1336.932851  1285.245631

                             ****ORCA TERMINATED NORMALLY****
TOTAL RUN TIME: 0 days 0 hours 7 minutes 41 seconds 538 msec
