                         Program Version 5.0.4 -  RELEASE  -
|  1> !ri-mp2 aug-cc-pvqz aug-cc-pvqz/c tightscf
|  2> %pal nprocs 16 end
|  3>
|  4> * xyz 0 1
|  5> C      1.752978    0.132983    0.595759
|  6> C      2.270241   -1.006545   -0.282683
|  7> C      0.797724    1.099291   -0.117681
|  8> C     -0.524607    0.497784   -0.611141
|  9> C     -1.447868   -0.017439    0.494787
| 10> C     -2.787022   -0.527764   -0.035684
| 11> H     -2.645338   -1.354700   -0.734820
| 12> H      2.766819   -0.619752   -1.175521
| 13> H     -3.427267   -0.884472    0.772434
| 14> H      2.992417   -1.620604    0.257299
| 15> H      1.465980   -1.665190   -0.613039
| 16> H     -3.327819    0.259908   -0.564432
| 17> H      1.267957   -0.282455    1.482703
| 18> H     -0.954091   -0.819080    1.049556
| 19> H      2.605211    0.708606    0.966413
| 20> H     -1.624471    0.786112    1.216882
| 21> H      0.573150    1.931568    0.556617
| 22> H      1.322016    1.537463   -0.972764
| 23> H     -0.325283   -0.311677   -1.319828
| 24> H     -1.057960    1.264417   -1.181643
| 25> *
| 26>
| 27>                          ****END OF INPUT****

CARTESIAN COORDINATES (ANGSTROEM)
---------------------------------
  C      1.752978    0.132983    0.595759
  C      2.270241   -1.006545   -0.282683
  C      0.797724    1.099291   -0.117681
  C     -0.524607    0.497784   -0.611141
  C     -1.447868   -0.017439    0.494787
  C     -2.787022   -0.527764   -0.035684
  H     -2.645338   -1.354700   -0.734820
  H      2.766819   -0.619752   -1.175521
  H     -3.427267   -0.884472    0.772434
  H      2.992417   -1.620604    0.257299
  H      1.465980   -1.665190   -0.613039
  H     -3.327819    0.259908   -0.564432
  H      1.267957   -0.282455    1.482703
  H     -0.954091   -0.819080    1.049556
  H      2.605211    0.708606    0.966413
  H     -1.624471    0.786112    1.216882
  H      0.573150    1.931568    0.556617
  H      1.322016    1.537463   -0.972764
  H     -0.325283   -0.311677   -1.319828
  H     -1.057960    1.264417   -1.181643

 Total Charge           Charge          ....    0
 Multiplicity           Mult            ....    1
 Number of Electrons    NEL             ....   50
 Basis Dimension        Dim             .... 1124

ORBITAL ENERGIES
----------------

  NO   OCC          E(Eh)            E(eV)
   0   2.0000     -11.212951      -305.1199
   1   2.0000     -11.212788      -305.1155
   2   2.0000     -11.211667      -305.0850
   3   2.0000     -11.210440      -305.0516
   4   2.0000     -11.207474      -304.9709
   5   2.0000     -11.207117      -304.9612
   6   2.0000      -1.083413       -29.4812
   7   2.0000      -1.031209       -28.0606
   8   2.0000      -0.958531       -26.0830
   9   2.0000      -0.878095       -23.8942
  10   2.0000      -0.816760       -22.2252
  11   2.0000      -0.757907       -20.6237
  12   2.0000      -0.640543       -17.4301
  13   2.0000      -0.621158       -16.9026
  14   2.0000      -0.591509       -16.0958
  15   2.0000      -0.578498       -15.7417
  16   2.0000      -0.554091       -15.0776
  17   2.0000      -0.532274       -14.4839
  18   2.0000      -0.526168       -14.3178
  19   2.0000      -0.492533       -13.4025
  20   2.0000      -0.487256       -13.2589
  21   2.0000      -0.473812       -12.8931
  22   2.0000      -0.451644       -12.2899
  23   2.0000      -0.445807       -12.1310
  24   2.0000      -0.441768       -12.0211
  25   0.0000       0.027147         0.7387
  26   0.0000       0.030696         0.8353
  27   0.0000       0.031904         0.8682
  28   0.0000       0.032952         0.8967
  29   0.0000       0.046955         1.2777

MULLIKEN ATOMIC CHARGES
-----------------------
   0 C :   -0.389121
   1 C :   -0.923689
   2 C :   -0.472938
   3 C :   -0.313161
   4 C :   -0.389525
   5 C :   -0.828188
   6 H :    0.221173
   7 H :    0.191405
   8 H :    0.243771
   9 H :    0.307960
  10 H :    0.223068
  11 H :    0.216305
  12 H :    0.229073
  13 H :    0.230584
  14 H :    0.273731
  15 H :    0.215015
  16 H :    0.229485
  17 H :    0.203743
  18 H :    0.249516
  19 H :    0.281791
Sum of atomic charges:    0.0000000

LOEWDIN ATOMIC CHARGES
----------------------
   0 C :    0.515499
   1 C :    0.926967
   2 C :    0.530196
   3 C :    0.513844
   4 C :    0.506339
   5 C :    0.929875
   6 H :   -0.283339
   7 H :   -0.279342
   8 H :   -0.283621
   9 H :   -0.280852
  10 H :   -0.293263
  11 H :   -0.285345
  12 H :   -0.288501
  13 H :   -0.285558
  14 H :   -0.274949
  15 H :   -0.268087
  16 H :   -0.271666
  17 H :   -0.272763
  18 H :   -0.284346
  19 H :   -0.271087

  Mayer bond orders larger than 0.100000
B(  0-C ,  1-C ) :   0.9341 B(  0-C ,  2-C ) :   0.8434 B(  0-C , 12-H ) :   0.9335
B(  0-C , 14-H ) :   0.9050 B(  1-C ,  7-H ) :   0.9890 B(  1-C ,  9-H ) :   0.9557
B(  1-C , 10-H ) :   0.9632 B(  2-C ,  3-C ) :   0.8745 B(  2-C , 16-H ) :   0.9433
B(  2-C , 17-H ) :   1.0007 B(  3-C ,  4-C ) :   0.8678 B(  3-C , 18-H ) :   0.9118
B(  3-C , 19-H ) :   0.8914 B(  4-C ,  5-C ) :   0.8973 B(  4-C ,  8-H ) :  -0.1120
B(  4-C , 13-H ) :   0.8955 B(  4-C , 15-H ) :   0.9108 B(  5-C ,  6-H ) :   0.9609
B(  5-C ,  8-H ) :   1.0372 B(  5-C , 11-H ) :   0.9761

MP2 TOTAL ENERGY:     -236.602970454 Eh
FINAL SINGLE POINT ENERGY      -236.602970454483

DIPOLE MOMENT
-------------
                                X             Y             Z
Electronic contribution:      0.41850       1.18911       0.31332
Nuclear contribution   :     -0.40173      -1.16577      -0.28346
                        -----------------------------------------
Total Dipole Moment    :      0.01677       0.02335       0.02985
                        -----------------------------------------
Magnitude (a.u.)       :      0.04144
Magnitude (Debye)      :      0.10534

Rotational constants in cm-1:     0.216658     0.052864     0.048997
Rotational constants in MHz :  6495.243664  1584.811670  1468.885724

                             ****ORCA TERMINATED NORMALLY****
TOTAL RUN TIME: 0 days 0 hours 56 minutes 46 seconds 910 msec
