                         Program Version 5.0.4 -  RELEASE  -
|  1> !ri-mp2 aug-cc-pvqz aug-cc-pvqz/c tightscf
|  2> %pal nprocs 16 end
|  3> %maxcore 3800
|  4>
|  5> * xyz 0 1
|  6> N     -1.201957    1.645890    0.152460
|  7> C     -1.122137    0.221629   -0.199424
|  8> C     -2.533221   -0.393283   -0.152217
|  9> O     -2.748314   -1.574901   -0.095497
| 10> O     -3.514020    0.517294   -0.229519
| 11> H     -3.060866    1.389226   -0.232101
| 12> C     -0.112058   -0.609453    0.605562
| 13> C      1.310812   -0.315666    0.248158
| 14> N      1.798228    0.972889    0.135796
| 15> C      3.064823    0.857017   -0.182550
| 16> N      3.431444   -0.446678   -0.283277
| 17> C      2.315898   -1.207793   -0.013417
| 18> H     -0.839634    0.175548   -1.255509
| 19> H     -0.281816   -0.417857    1.670751
| 20> H     -0.320702   -1.665837    0.443593
| 21> H      3.752508    1.668827   -0.350821
| 22> H      4.345579   -0.792723   -0.516050
| 23> H      2.335670   -2.282388   -0.032339
| 24> H     -1.210332    1.750849    1.162273
| 25> H     -0.360429    2.115801   -0.161192
| 26> *
| 27>
| 28>                          ****END OF INPUT****

CARTESIAN COORDINATES (ANGSTROEM)
---------------------------------
  N     -1.201957    1.645890    0.152460
  C     -1.122137    0.221629   -0.199424
  C     -2.533221   -0.393283   -0.152217
  O     -2.748314   -1.574901   -0.095497
  O     -3.514020    0.517294   -0.229519
  H     -3.060866    1.389226   -0.232101
  C     -0.112058   -0.609453    0.605562
  C      1.310812   -0.315666    0.248158
  N      1.798228    0.972889    0.135796
  C      3.064823    0.857017   -0.182550
  N      3.431444   -0.446678   -0.283277
  C      2.315898   -1.207793   -0.013417
  H     -0.839634    0.175548   -1.255509
  H     -0.281816   -0.417857    1.670751
  H     -0.320702   -1.665837    0.443593
  H      3.752508    1.668827   -0.350821
  H      4.345579   -0.792723   -0.516050
  H      2.335670   -2.282388   -0.032339
  H     -1.210332    1.750849    1.162273
  H     -0.360429    2.115801   -0.161192

 Total Charge           Charge          ....    0
 Multiplicity           Mult            ....    1
 Number of Electrons    NEL             ....   82
 Basis Dimension        Dim             .... 1294

ORBITAL ENERGIES
----------------

  NO   OCC          E(Eh)            E(eV)
   0   2.0000     -20.586098      -560.1762
   1   2.0000     -20.527627      -558.5851
   2   2.0000     -15.633565      -425.4109
   3   2.0000     -15.561496      -423.4498
   4   2.0000     -15.557789      -423.3490
   5   2.0000     -11.367253      -309.3187
   6   2.0000     -11.312754      -307.8357
   7   2.0000     -11.282477      -307.0118
   8   2.0000     -11.269118      -306.6483
   9   2.0000     -11.262684      -306.4732
  10   2.0000     -11.238974      -305.8280
  11   2.0000      -1.443571       -39.2816
  12   2.0000      -1.357285       -36.9336
  13   2.0000      -1.348541       -36.6957
  14   2.0000      -1.210830       -32.9484
  15   2.0000      -1.181843       -32.1596
  16   2.0000      -1.061273       -28.8787
  17   2.0000      -0.995188       -27.0804
  18   2.0000      -0.906073       -24.6555
  19   2.0000      -0.844007       -22.9666
  20   2.0000      -0.798935       -21.7401
  21   2.0000      -0.788473       -21.4554
  22   2.0000      -0.757384       -20.6095
  23   2.0000      -0.732424       -19.9303
  24   2.0000      -0.670541       -18.2463
  25   2.0000      -0.652411       -17.7530
  26   2.0000      -0.635106       -17.2821
  27   2.0000      -0.622446       -16.9376
  28   2.0000      -0.615447       -16.7472
  29   2.0000      -0.614018       -16.7083
  30   2.0000      -0.602020       -16.3818
  31   2.0000      -0.582541       -15.8517
  32   2.0000      -0.551303       -15.0017
  33   2.0000      -0.529985       -14.4216
  34   2.0000      -0.522835       -14.2271
  35   2.0000      -0.463891       -12.6231
  36   2.0000      -0.461290       -12.5524
  37   2.0000      -0.443544       -12.0694
  38   2.0000      -0.415869       -11.3164
  39   2.0000      -0.408237       -11.1087
  40   2.0000      -0.330415        -8.9911
  41   0.0000       0.011806         0.3212
  42   0.0000       0.024423         0.6646
  43   0.0000       0.030394         0.8271
  44   0.0000       0.035098         0.9551
  45   0.0000       0.040668         1.1066

MULLIKEN ATOMIC CHARGES
-----------------------
   0 N :   -0.664710
   1 C :   -0.077978
   2 C :    1.224342
   3 O :   -0.823444
   4 O :   -0.913909
   5 H :    0.400405
   6 C :   -0.130600
   7 C :    0.212770
   8 N :   -0.716837
   9 C :   -0.013407
  10 N :   -0.642893
  11 C :   -0.307291
  12 H :    0.349441
  13 H :    0.275217
  14 H :    0.272746
  15 H :    0.603662
  16 H :    0.063987
  17 H :    0.405038
  18 H :    0.274201
  19 H :    0.209259
Sum of atomic charges:   -0.0000000

LOEWDIN ATOMIC CHARGES
----------------------
   0 N :    1.302888
   1 C :   -0.065102
   2 C :   -1.007087
   3 O :    0.682127
   4 O :    1.253780
   5 H :   -0.950240
   6 C :    0.482718
   7 C :   -0.344931
   8 N :    0.590744
   9 C :   -0.036438
  10 N :    0.798199
  11 C :    0.226905
  12 H :   -0.289534
  13 H :   -0.271957
  14 H :   -0.328335
  15 H :   -0.315361
  16 H :   -0.443093
  17 H :   -0.295682
  18 H :   -0.465529
  19 H :   -0.524071

  Mayer bond orders larger than 0.100000
B(  0-N ,  1-C ) :   0.7877 B(  0-N ,  5-H ) :   0.1102 B(  0-N , 18-H ) :   0.8770
B(  0-N , 19-H ) :   0.9934 B(  1-C ,  2-C ) :   1.1668 B(  1-C ,  3-O ) :   0.2820
B(  1-C ,  4-O ) :   0.1347 B(  1-C ,  6-C ) :   0.9993 B(  1-C ,  7-C ) :  -0.2015
B(  1-C , 12-H ) :   0.8127 B(  2-C ,  3-O ) :   1.2459 B(  2-C ,  4-O ) :   0.6303
B(  3-O ,  4-O ) :   0.1397 B(  4-O ,  5-H ) :   0.7436 B(  6-C ,  7-C ) :   0.5697
B(  6-C , 11-C ) :  -0.3314 B(  6-C , 13-H ) :   0.8641 B(  6-C , 14-H ) :   0.9749
B(  7-C ,  8-N ) :   0.7358 B(  7-C ,  9-C ) :  -0.1362 B(  7-C , 10-N ) :  -0.1706
B(  7-C , 11-C ) :   1.8030 B(  8-N ,  9-C ) :   1.7477 B(  9-C , 10-N ) :   1.2855
B(  9-C , 11-C ) :   0.1903 B(  9-C , 15-H ) :   0.6538 B( 10-N , 11-C ) :   0.9201
B( 10-N , 16-H ) :   1.2436 B( 11-C , 16-H ) :  -0.1081 B( 11-C , 17-H ) :   0.8920

MP2 TOTAL ENERGY:     -547.983458776 Eh
FINAL SINGLE POINT ENERGY      -547.983458776451

DIPOLE MOMENT
-------------
                                X             Y             Z
Electronic contribution:     -1.29025      -1.37102      -0.78506
Nuclear contribution   :      4.25300       1.92310       0.71812
                        -----------------------------------------
Total Dipole Moment    :      2.96275       0.55207      -0.06694
                        -----------------------------------------
Magnitude (a.u.)       :      3.01449
Magnitude (Debye)      :      7.66222

Rotational constants in cm-1:     0.099788     0.018623     0.016158
Rotational constants in MHz :  2991.555146   558.311047   484.405716

                             ****ORCA TERMINATED NORMALLY****
TOTAL RUN TIME: 0 days 1 hours 12 minutes 55 seconds 473 msec
