                         Program Version 5.0.4 -  RELEASE  -
|  1> !ri-mp2 aug-cc-pvqz aug-cc-pvqz/c tightscf
|  2> %pal nprocs 16 end
|  3>
|  4> * xyz 0 1
|  5> C      1.730475    2.260799    0.000000
|  6> C     -1.877092   -3.067542    0.000000
|  7> C      1.469179    0.778822    0.000000
|  8> C     -1.675526   -1.553237    0.000000
|  9> C      0.000000    0.375846    0.000000
| 10> C     -0.203783   -1.139524    0.000000
| 11> O      0.882361    3.116832    0.000000
| 12> H      2.805089    2.541058    0.000000
| 13> H     -2.936193   -3.328318    0.000000
| 14> H     -1.423356   -3.526632    0.880821
| 15> H     -1.423356   -3.526632   -0.880821
| 16> H      1.999279    0.364970    0.867425
| 17> H      1.999279    0.364970   -0.867425
| 18> H     -2.170087   -1.119104    0.873840
| 19> H     -2.170087   -1.119104   -0.873840
| 20> H     -0.491084    0.816415    0.870631
| 21> H     -0.491084    0.816415   -0.870631
| 22> H      0.291599   -1.574837   -0.874744
| 23> H      0.291599   -1.574837    0.874744
| 24> *
| 25>
| 26>                          ****END OF INPUT****

CARTESIAN COORDINATES (ANGSTROEM)
---------------------------------
  C      1.730475    2.260799    0.000000
  C     -1.877092   -3.067542    0.000000
  C      1.469179    0.778822    0.000000
  C     -1.675526   -1.553237    0.000000
  C      0.000000    0.375846    0.000000
  C     -0.203783   -1.139524    0.000000
  O      0.882361    3.116832    0.000000
  H      2.805089    2.541058    0.000000
  H     -2.936193   -3.328318    0.000000
  H     -1.423356   -3.526632    0.880821
  H     -1.423356   -3.526632   -0.880821
  H      1.999279    0.364970    0.867425
  H      1.999279    0.364970   -0.867425
  H     -2.170087   -1.119104    0.873840
  H     -2.170087   -1.119104   -0.873840
  H     -0.491084    0.816415    0.870631
  H     -0.491084    0.816415   -0.870631
  H      0.291599   -1.574837   -0.874744
  H      0.291599   -1.574837    0.874744

 Total Charge           Charge          ....    0
 Multiplicity           Mult            ....    1
 Number of Electrons    NEL             ....   56
 Basis Dimension        Dim             .... 1112

ORBITAL ENERGIES
----------------

  NO   OCC          E(Eh)            E(eV)
   0   2.0000     -20.554089      -559.3052
   1   2.0000     -11.329928      -308.3030
   2   2.0000     -11.241297      -305.8913
   3   2.0000     -11.223567      -305.4088
   4   2.0000     -11.221485      -305.3521
   5   2.0000     -11.219190      -305.2897
   6   2.0000     -11.212379      -305.1044
   7   2.0000      -1.393738       -37.9255
   8   2.0000      -1.094432       -29.7810
   9   2.0000      -1.040962       -28.3260
  10   2.0000      -0.957642       -26.0588
  11   2.0000      -0.862109       -23.4592
  12   2.0000      -0.797774       -21.7085
  13   2.0000      -0.769745       -20.9458
  14   2.0000      -0.673858       -18.3366
  15   2.0000      -0.660114       -17.9626
  16   2.0000      -0.629946       -17.1417
  17   2.0000      -0.615486       -16.7482
  18   2.0000      -0.578792       -15.7497
  19   2.0000      -0.561907       -15.2903
  20   2.0000      -0.554372       -15.0852
  21   2.0000      -0.508605       -13.8399
  22   2.0000      -0.507428       -13.8078
  23   2.0000      -0.484071       -13.1723
  24   2.0000      -0.474960       -12.9243
  25   2.0000      -0.470119       -12.7926
  26   2.0000      -0.467419       -12.7191
  27   2.0000      -0.416727       -11.3397
  28   0.0000       0.022921         0.6237
  29   0.0000       0.026505         0.7212
  30   0.0000       0.032376         0.8810
  31   0.0000       0.035140         0.9562
  32   0.0000       0.042390         1.1535

MULLIKEN ATOMIC CHARGES
-----------------------
   0 C :    0.199598
   1 C :   -0.911787
   2 C :   -0.580183
   3 C :   -0.473652
   4 C :   -0.071254
   5 C :   -0.231694
   6 O :   -0.764513
   7 H :    0.330153
   8 H :    0.266211
   9 H :    0.226551
  10 H :    0.226538
  11 H :    0.204399
  12 H :    0.204379
  13 H :    0.232258
  14 H :    0.232168
  15 H :    0.212650
  16 H :    0.212842
  17 H :    0.242677
  18 H :    0.242659
Sum of atomic charges:   -0.0000000

LOEWDIN ATOMIC CHARGES
----------------------
   0 C :   -0.230190
   1 C :    0.927508
   2 C :    0.474036
   3 C :    0.510445
   4 C :    0.488597
   5 C :    0.509089
   6 O :    0.717716
   7 H :   -0.342064
   8 H :   -0.284267
   9 H :   -0.285176
  10 H :   -0.285176
  11 H :   -0.286260
  12 H :   -0.286260
  13 H :   -0.272131
  14 H :   -0.272131
  15 H :   -0.273087
  16 H :   -0.273087
  17 H :   -0.268780
  18 H :   -0.268780

  Mayer bond orders larger than 0.100000
B(  0-C ,  2-C ) :   1.0318 B(  0-C ,  4-C ) :  -0.3272 B(  0-C ,  6-O ) :   1.4526
B(  0-C ,  7-H ) :   0.9829 B(  1-C ,  3-C ) :   1.0210 B(  1-C ,  8-H ) :   1.0216
B(  1-C ,  9-H ) :   0.9558 B(  1-C , 10-H ) :   0.9558 B(  2-C ,  4-C ) :   0.8640
B(  2-C ,  6-O ) :   0.2264 B(  2-C ,  7-H ) :  -0.1444 B(  2-C , 11-H ) :   0.9204
B(  2-C , 12-H ) :   0.9204 B(  3-C ,  5-C ) :   0.9638 B(  3-C , 13-H ) :   0.8783
B(  3-C , 14-H ) :   0.8784 B(  4-C ,  5-C ) :   0.9917 B(  4-C , 15-H ) :   0.8539
B(  4-C , 16-H ) :   0.8538 B(  5-C , 17-H ) :   0.8594 B(  5-C , 18-H ) :   0.8595

MP2 TOTAL ENERGY:     -310.542988921 Eh
FINAL SINGLE POINT ENERGY      -310.542988921312

DIPOLE MOMENT
-------------
                                X             Y             Z
Electronic contribution:      4.49574      10.32791       0.00000
Nuclear contribution   :     -3.88983     -11.35766       0.00000
                        -----------------------------------------
Total Dipole Moment    :      0.60591      -1.02975       0.00000
                        -----------------------------------------
Magnitude (a.u.)       :      1.19478
Magnitude (Debye)      :      3.03690

Rotational constants in cm-1:     0.331527     0.028654     0.027024
Rotational constants in MHz :  9938.923932   859.012889   810.172946

                             ****ORCA TERMINATED NORMALLY****
TOTAL RUN TIME: 0 days 1 hours 3 minutes 42 seconds 589 msec
