                         Program Version 5.0.4 -  RELEASE  -
|  1> !ri-mp2 aug-cc-pvqz aug-cc-pvqz/c tightscf
|  2> %pal nprocs 16 end
|  3> %maxcore 3800
|  4>
|  5> * xyz 0 1
|  6> C      1.510583    1.057959   -0.207635
|  7> C      1.131202    2.378179   -0.627087
|  8> C     -0.031282    3.021695   -0.376287
|  9> C     -1.131202    2.495684    0.390765
| 10> C     -1.415623    1.207590    0.659413
| 11> C     -0.736352    0.000021    0.155956
| 12> C      0.736352   -0.000021    0.155956
| 13> C      1.415623   -1.207590    0.659413
| 14> C      1.131202   -2.495684    0.390765
| 15> C      0.031282   -3.021695   -0.376287
| 16> C     -1.131202   -2.378179   -0.627087
| 17> C     -1.510583   -1.057959   -0.207635
| 18> H      2.580111    0.874669   -0.203910
| 19> H      1.905624    2.939917   -1.136925
| 20> H     -0.119386    4.051335   -0.699854
| 21> H     -1.817588    3.233906    0.791454
| 22> H     -2.284527    1.012644    1.278492
| 23> H      2.284527   -1.012644    1.278492
| 24> H      1.817588   -3.233906    0.791454
| 25> H      0.119386   -4.051335   -0.699854
| 26> H     -1.905624   -2.939917   -1.136925
| 27> H     -2.580111   -0.874669   -0.203910
| 28> *
| 29>
| 30>                          ****END OF INPUT****

CARTESIAN COORDINATES (ANGSTROEM)
---------------------------------
  C      1.510583    1.057959   -0.207635
  C      1.131202    2.378179   -0.627087
  C     -0.031282    3.021695   -0.376287
  C     -1.131202    2.495684    0.390765
  C     -1.415623    1.207590    0.659413
  C     -0.736352    0.000021    0.155956
  C      0.736352   -0.000021    0.155956
  C      1.415623   -1.207590    0.659413
  C      1.131202   -2.495684    0.390765
  C      0.031282   -3.021695   -0.376287
  C     -1.131202   -2.378179   -0.627087
  C     -1.510583   -1.057959   -0.207635
  H      2.580111    0.874669   -0.203910
  H      1.905624    2.939917   -1.136925
  H     -0.119386    4.051335   -0.699854
  H     -1.817588    3.233906    0.791454
  H     -2.284527    1.012644    1.278492
  H      2.284527   -1.012644    1.278492
  H      1.817588   -3.233906    0.791454
  H      0.119386   -4.051335   -0.699854
  H     -1.905624   -2.939917   -1.136925
  H     -2.580111   -0.874669   -0.203910

 Total Charge           Charge          ....    0
 Multiplicity           Mult            ....    1
 Number of Electrons    NEL             ....   82
 Basis Dimension        Dim             .... 1420

ORBITAL ENERGIES
----------------

  NO   OCC          E(Eh)            E(eV)
   0   2.0000     -11.259533      -306.3875
   1   2.0000     -11.258743      -306.3660
   2   2.0000     -11.240642      -305.8734
   3   2.0000     -11.240641      -305.8734
   4   2.0000     -11.239733      -305.8487
   5   2.0000     -11.239732      -305.8487
   6   2.0000     -11.238642      -305.8190
   7   2.0000     -11.238641      -305.8190
   8   2.0000     -11.233437      -305.6773
   9   2.0000     -11.233436      -305.6773
  10   2.0000     -11.230067      -305.5857
  11   2.0000     -11.230067      -305.5857
  12   2.0000      -1.160875       -31.5890
  13   2.0000      -1.109166       -30.1820
  14   2.0000      -1.073639       -29.2152
  15   2.0000      -1.053470       -28.6664
  16   2.0000      -1.023183       -27.8422
  17   2.0000      -0.942240       -25.6396
  18   2.0000      -0.898211       -24.4416
  19   2.0000      -0.861762       -23.4497
  20   2.0000      -0.805006       -21.9053
  21   2.0000      -0.737347       -20.0642
  22   2.0000      -0.727586       -19.7986
  23   2.0000      -0.699062       -19.0225
  24   2.0000      -0.668974       -18.2037
  25   2.0000      -0.661590       -18.0028
  26   2.0000      -0.618664       -16.8347
  27   2.0000      -0.613910       -16.7054
  28   2.0000      -0.590549       -16.0697
  29   2.0000      -0.579512       -15.7693
  30   2.0000      -0.554103       -15.0779
  31   2.0000      -0.525431       -14.2977
  32   2.0000      -0.523561       -14.2468
  33   2.0000      -0.510334       -13.8869
  34   2.0000      -0.477946       -13.0056
  35   2.0000      -0.473205       -12.8766
  36   2.0000      -0.453525       -12.3410
  37   2.0000      -0.396156       -10.7800
  38   2.0000      -0.368011       -10.0141
  39   2.0000      -0.341775        -9.3002
  40   2.0000      -0.249379        -6.7859
  41   0.0000       0.024690         0.6719
  42   0.0000       0.026496         0.7210
  43   0.0000       0.028179         0.7668
  44   0.0000       0.033191         0.9032
  45   0.0000       0.037281         1.0145

MULLIKEN ATOMIC CHARGES
-----------------------
   0 C :   -0.480476
   1 C :   -0.452843
   2 C :   -0.493723
   3 C :   -0.366362
   4 C :   -0.311820
   5 C :    0.567456
   6 C :    0.566979
   7 C :   -0.312152
   8 C :   -0.366074
   9 C :   -0.493220
  10 C :   -0.452585
  11 C :   -0.480779
  12 H :    0.266784
  13 H :    0.304608
  14 H :    0.330080
  15 H :    0.332707
  16 H :    0.303817
  17 H :    0.303819
  18 H :    0.332523
  19 H :    0.330050
  20 H :    0.304525
  21 H :    0.266686
Sum of atomic charges:   -0.0000000

LOEWDIN ATOMIC CHARGES
----------------------
   0 C :    0.348480
   1 C :    0.359033
   2 C :    0.354833
   3 C :    0.358311
   4 C :    0.352657
   5 C :   -0.067925
   6 C :   -0.067925
   7 C :    0.352657
   8 C :    0.358311
   9 C :    0.354834
  10 C :    0.359033
  11 C :    0.348480
  12 H :   -0.347645
  13 H :   -0.339532
  14 H :   -0.343189
  15 H :   -0.339534
  16 H :   -0.335490
  17 H :   -0.335490
  18 H :   -0.339534
  19 H :   -0.343190
  20 H :   -0.339532
  21 H :   -0.347645

  Mayer bond orders larger than 0.100000
B(  0-C ,  1-C ) :   1.0271 B(  0-C ,  6-C ) :   1.5074 B(  0-C ,  7-C ) :  -0.3257
B(  0-C , 12-H ) :   1.0085 B(  0-C , 13-H ) :  -0.1253 B(  1-C ,  2-C ) :   1.6744
B(  1-C ,  4-C ) :   0.1322 B(  1-C ,  6-C ) :  -0.1653 B(  1-C , 13-H ) :   1.0020
B(  2-C ,  3-C ) :   0.9810 B(  2-C , 14-H ) :   0.9658 B(  3-C ,  4-C ) :   1.7505
B(  3-C ,  5-C ) :  -0.2265 B(  3-C , 15-H ) :   0.9646 B(  4-C ,  5-C ) :   0.7680
B(  4-C , 11-C ) :  -0.3256 B(  4-C , 15-H ) :  -0.1352 B(  4-C , 16-H ) :   0.9576
B(  5-C ,  6-C ) :   0.6973 B(  5-C , 10-C ) :  -0.1654 B(  5-C , 11-C ) :   1.5075
B(  6-C ,  7-C ) :   0.7683 B(  6-C ,  8-C ) :  -0.2263 B(  7-C ,  8-C ) :   1.7506
B(  7-C , 10-C ) :   0.1322 B(  7-C , 17-H ) :   0.9577 B(  7-C , 18-H ) :  -0.1351
B(  8-C ,  9-C ) :   0.9806 B(  8-C , 18-H ) :   0.9648 B(  9-C , 10-C ) :   1.6736
B(  9-C , 19-H ) :   0.9659 B( 10-C , 11-C ) :   1.0272 B( 10-C , 20-H ) :   1.0022
B( 11-C , 20-H ) :  -0.1252 B( 11-C , 21-H ) :   1.0086

MP2 TOTAL ENERGY:     -462.342331988 Eh
FINAL SINGLE POINT ENERGY      -462.342331988063

DIPOLE MOMENT
-------------
                                X             Y             Z
Electronic contribution:     -0.00000       0.00000       0.00978
Nuclear contribution   :      0.00000       0.00000       0.05843
                        -----------------------------------------
Total Dipole Moment    :     -0.00000       0.00000       0.06822
                        -----------------------------------------
Magnitude (a.u.)       :      0.06822
Magnitude (Debye)      :      0.17339

Rotational constants in cm-1:     0.066889     0.024828     0.019662
Rotational constants in MHz :  2005.275353   744.317892   589.449142

                             ****ORCA TERMINATED NORMALLY****
TOTAL RUN TIME: 0 days 3 hours 13 minutes 28 seconds 242 msec
