                         Program Version 5.0.4 -  RELEASE  -
|  1> !ri-mp2 aug-cc-pvqz aug-cc-pvqz/c tightscf
|  2> %pal nprocs 16 end
|  3> %maxcore 3800
|  4>
|  5> * xyz 0 1
|  6> C     0.000000     1.402717    0.011190
|  7> C     1.214788     0.701358   -0.011190
|  8> C    -1.214788     0.701358   -0.011190
|  9> C     1.214788    -0.701358    0.011190
| 10> C    -1.214788    -0.701358    0.011190
| 11> C     0.000000    -1.402717   -0.011190
| 12> C     0.000000     2.914685    0.082337
| 13> C     2.524191     1.457342   -0.082337
| 14> C    -2.524191     1.457342   -0.082337
| 15> C     2.524191    -1.457342    0.082337
| 16> C    -2.524191    -1.457342    0.082337
| 17> C     0.000000    -2.914685   -0.082337
| 18> H    -0.873575     3.289820    0.610244
| 19> H     0.873575     3.289820    0.610244
| 20> H     0.000000     3.376329   -0.910531
| 21> H     2.923987     1.688164    0.910531
| 22> H     3.285855     0.888372   -0.610244
| 23> H     2.412280     2.401448   -0.610244
| 24> H    -3.285855     0.888372   -0.610244
| 25> H    -2.923987     1.688164    0.910531
| 26> H    -2.412280     2.401448   -0.610244
| 27> H     2.412280    -2.401448    0.610244
| 28> H     2.923987    -1.688164   -0.910531
| 29> H     3.285855    -0.888372    0.610244
| 30> H    -2.923987    -1.688164   -0.910531
| 31> H    -2.412280    -2.401448    0.610244
| 32> H    -3.285855    -0.888372    0.610244
| 33> H    -0.873575    -3.289820   -0.610244
| 34> H     0.873575    -3.289820   -0.610244
| 35> H     0.000000    -3.376329    0.910531
| 36> *
| 37>
| 38>                          ****END OF INPUT****

CARTESIAN COORDINATES (ANGSTROEM)
---------------------------------
  C      0.000000    1.402717    0.011190
  C      1.214788    0.701358   -0.011190
  C     -1.214788    0.701358   -0.011190
  C      1.214788   -0.701358    0.011190
  C     -1.214788   -0.701358    0.011190
  C      0.000000   -1.402717   -0.011190
  C      0.000000    2.914685    0.082337
  C      2.524191    1.457342   -0.082337
  C     -2.524191    1.457342   -0.082337
  C      2.524191   -1.457342    0.082337
  C     -2.524191   -1.457342    0.082337
  C      0.000000   -2.914685   -0.082337
  H     -0.873575    3.289820    0.610244
  H      0.873575    3.289820    0.610244
  H      0.000000    3.376329   -0.910531
  H      2.923987    1.688164    0.910531
  H      3.285855    0.888372   -0.610244
  H      2.412280    2.401448   -0.610244
  H     -3.285855    0.888372   -0.610244
  H     -2.923987    1.688164    0.910531
  H     -2.412280    2.401448   -0.610244
  H      2.412280   -2.401448    0.610244
  H      2.923987   -1.688164   -0.910531
  H      3.285855   -0.888372    0.610244
  H     -2.923987   -1.688164   -0.910531
  H     -2.412280   -2.401448    0.610244
  H     -3.285855   -0.888372    0.610244
  H     -0.873575   -3.289820   -0.610244
  H      0.873575   -3.289820   -0.610244
  H      0.000000   -3.376329    0.910531

 Total Charge           Charge          ....    0
 Multiplicity           Mult            ....    1
 Number of Electrons    NEL             ....   90
 Basis Dimension        Dim             .... 1788

ORBITAL ENERGIES
----------------

  NO   OCC          E(Eh)            E(eV)
   0   2.0000     -11.221854      -305.3622
   1   2.0000     -11.221300      -305.3471
   2   2.0000     -11.221300      -305.3471
   3   2.0000     -11.220106      -305.3146
   4   2.0000     -11.220106      -305.3146
   5   2.0000     -11.219520      -305.2987
   6   2.0000     -11.211724      -305.0865
   7   2.0000     -11.211724      -305.0865
   8   2.0000     -11.211724      -305.0865
   9   2.0000     -11.211720      -305.0864
  10   2.0000     -11.211720      -305.0864
  11   2.0000     -11.211716      -305.0863
  12   2.0000      -1.155767       -31.4500
  13   2.0000      -1.066425       -29.0189
  14   2.0000      -1.066425       -29.0189
  15   2.0000      -0.976907       -26.5830
  16   2.0000      -0.976907       -26.5830
  17   2.0000      -0.943818       -25.6826
  18   2.0000      -0.939349       -25.5610
  19   2.0000      -0.867271       -23.5996
  20   2.0000      -0.867270       -23.5996
  21   2.0000      -0.746757       -20.3203
  22   2.0000      -0.746757       -20.3203
  23   2.0000      -0.680230       -18.5100
  24   2.0000      -0.618089       -16.8191
  25   2.0000      -0.601014       -16.3544
  26   2.0000      -0.573335       -15.6012
  27   2.0000      -0.573335       -15.6012
  28   2.0000      -0.572556       -15.5800
  29   2.0000      -0.572556       -15.5800
  30   2.0000      -0.570156       -15.5147
  31   2.0000      -0.547361       -14.8945
  32   2.0000      -0.547361       -14.8945
  33   2.0000      -0.537807       -14.6345
  34   2.0000      -0.528999       -14.3948
  35   2.0000      -0.528999       -14.3948
  36   2.0000      -0.523587       -14.2475
  37   2.0000      -0.523587       -14.2475
  38   2.0000      -0.515492       -14.0272
  39   2.0000      -0.497524       -13.5383
  40   2.0000      -0.451408       -12.2834
  41   2.0000      -0.451408       -12.2834
  42   2.0000      -0.440522       -11.9872
  43   2.0000      -0.295880        -8.0513
  44   2.0000      -0.295880        -8.0513
  45   0.0000       0.026131         0.7111
  46   0.0000       0.027085         0.7370
  47   0.0000       0.027087         0.7371
  48   0.0000       0.034087         0.9276
  49   0.0000       0.037662         1.0248

MULLIKEN ATOMIC CHARGES
-----------------------
   0 C :    0.357671
   1 C :    0.358252
   2 C :    0.358085
   3 C :    0.357644
   4 C :    0.358519
   5 C :    0.357262
   6 C :   -1.040540
   7 C :   -1.040499
   8 C :   -1.040354
   9 C :   -1.040395
  10 C :   -1.040411
  11 C :   -1.040688
  12 H :    0.212325
  13 H :    0.212511
  14 H :    0.257895
  15 H :    0.257753
  16 H :    0.212500
  17 H :    0.212234
  18 H :    0.212345
  19 H :    0.257760
  20 H :    0.212450
  21 H :    0.212293
  22 H :    0.257760
  23 H :    0.212442
  24 H :    0.257864
  25 H :    0.212258
  26 H :    0.212423
  27 H :    0.212374
  28 H :    0.212417
  29 H :    0.257846
Sum of atomic charges:    0.0000000

LOEWDIN ATOMIC CHARGES
----------------------
   0 C :   -0.024406
   1 C :   -0.024407
   2 C :   -0.024407
   3 C :   -0.024407
   4 C :   -0.024407
   5 C :   -0.024406
   6 C :    0.905241
   7 C :    0.905241
   8 C :    0.905241
   9 C :    0.905241
  10 C :    0.905241
  11 C :    0.905241
  12 H :   -0.315597
  13 H :   -0.315597
  14 H :   -0.249641
  15 H :   -0.249641
  16 H :   -0.315597
  17 H :   -0.315597
  18 H :   -0.315597
  19 H :   -0.249641
  20 H :   -0.315597
  21 H :   -0.315597
  22 H :   -0.249641
  23 H :   -0.315597
  24 H :   -0.249641
  25 H :   -0.315597
  26 H :   -0.315597
  27 H :   -0.315597
  28 H :   -0.315597
  29 H :   -0.249641

  Mayer bond orders larger than 0.100000
B(  0-C ,  1-C ) :   0.7346 B(  0-C ,  2-C ) :   0.7344 B(  0-C ,  3-C ) :  -0.2622
B(  0-C ,  4-C ) :  -0.2627 B(  0-C ,  5-C ) :   0.3530 B(  0-C ,  6-C ) :   0.3919
B(  0-C , 12-H ) :  -0.2094 B(  0-C , 13-H ) :  -0.2094 B(  0-C , 14-H ) :  -0.1629
B(  1-C ,  2-C ) :  -0.2620 B(  1-C ,  3-C ) :   0.7347 B(  1-C ,  4-C ) :   0.3534
B(  1-C ,  5-C ) :  -0.2620 B(  1-C ,  7-C ) :   0.3911 B(  1-C , 15-H ) :  -0.1631
B(  1-C , 16-H ) :  -0.2094 B(  1-C , 17-H ) :  -0.2094 B(  2-C ,  3-C ) :   0.3531
B(  2-C ,  4-C ) :   0.7350 B(  2-C ,  5-C ) :  -0.2622 B(  2-C ,  8-C ) :   0.3912
B(  2-C , 18-H ) :  -0.2094 B(  2-C , 19-H ) :  -0.1631 B(  2-C , 20-H ) :  -0.2095
B(  3-C ,  4-C ) :  -0.2619 B(  3-C ,  5-C ) :   0.7344 B(  3-C ,  9-C ) :   0.3916
B(  3-C , 21-H ) :  -0.2093 B(  3-C , 22-H ) :  -0.1630 B(  3-C , 23-H ) :  -0.2094
B(  4-C ,  5-C ) :   0.7350 B(  4-C , 10-C ) :   0.3914 B(  4-C , 24-H ) :  -0.1630
B(  4-C , 25-H ) :  -0.2096 B(  4-C , 26-H ) :  -0.2094 B(  5-C , 11-C ) :   0.3916
B(  5-C , 27-H ) :  -0.2093 B(  5-C , 28-H ) :  -0.2094 B(  5-C , 29-H ) :  -0.1630
B(  6-C , 12-H ) :   1.0910 B(  6-C , 13-H ) :   1.0909 B(  6-C , 14-H ) :   1.0160
B(  7-C , 15-H ) :   1.0162 B(  7-C , 16-H ) :   1.0908 B(  7-C , 17-H ) :   1.0911
B(  8-C , 18-H ) :   1.0910 B(  8-C , 19-H ) :   1.0162 B(  8-C , 20-H ) :   1.0909
B(  9-C , 21-H ) :   1.0909 B(  9-C , 22-H ) :   1.0161 B(  9-C , 23-H ) :   1.0909
B( 10-C , 24-H ) :   1.0160 B( 10-C , 25-H ) :   1.0910 B( 10-C , 26-H ) :   1.0909
B( 11-C , 27-H ) :   1.0910 B( 11-C , 28-H ) :   1.0910 B( 11-C , 29-H ) :   1.0161

MP2 TOTAL ENERGY:     -467.243884749 Eh
FINAL SINGLE POINT ENERGY      -467.243884748537

DIPOLE MOMENT
-------------
                                X             Y             Z
Electronic contribution:     -0.00000      -0.00000       0.00000
Nuclear contribution   :     -0.00000      -0.00000       0.00000
                        -----------------------------------------
Total Dipole Moment    :     -0.00000      -0.00000       0.00000
                        -----------------------------------------
Magnitude (a.u.)       :      0.00000
Magnitude (Debye)      :      0.00000

Rotational constants in cm-1:     0.034293     0.034293     0.017503
Rotational constants in MHz :  1028.083411  1028.083378   524.733655

                             ****ORCA TERMINATED NORMALLY****
TOTAL RUN TIME: 0 days 5 hours 6 minutes 7 seconds 179 msec
