                         Program Version 5.0.4 -  RELEASE  -
|  1> !ri-mp2 aug-cc-pvqz aug-cc-pvqz/c tightscf
|  2> %pal nprocs 16 end
|  3>
|  4> * xyz 0 1
|  5> C      0.000000    0.000000    0.778102
|  6> C      0.000000    0.000000   -0.778102
|  7> F      0.000000    1.254581    1.232191
|  8> F     -1.086499   -0.627290    1.232191
|  9> F      1.086499   -0.627291    1.232191
| 10> F      0.000000   -1.254581   -1.232191
| 11> F     -1.086499    0.627291   -1.232191
| 12> F      1.086499    0.627290   -1.232191
| 13> *
| 14>
| 15>                          ****END OF INPUT****

CARTESIAN COORDINATES (ANGSTROEM)
---------------------------------
  C      0.000000    0.000000    0.778102
  C      0.000000    0.000000   -0.778102
  F      0.000000    1.254581    1.232191
  F     -1.086499   -0.627290    1.232191
  F      1.086499   -0.627291    1.232191
  F      0.000000   -1.254581   -1.232191
  F     -1.086499    0.627291   -1.232191
  F      1.086499    0.627290   -1.232191

 Total Charge           Charge          ....    0
 Multiplicity           Mult            ....    1
 Number of Electrons    NEL             ....   66
 Basis Dimension        Dim             ....  640

ORBITAL ENERGIES
----------------

  NO   OCC          E(Eh)            E(eV)
   0   2.0000     -26.375484      -717.7134
   1   2.0000     -26.375484      -717.7134
   2   2.0000     -26.375481      -717.7133
   3   2.0000     -26.375481      -717.7133
   4   2.0000     -26.375452      -717.7125
   5   2.0000     -26.375451      -717.7125
   6   2.0000     -11.556940      -314.4803
   7   2.0000     -11.556394      -314.4655
   8   2.0000      -1.781239       -48.4700
   9   2.0000      -1.756909       -47.8079
  10   2.0000      -1.679284       -45.6956
  11   2.0000      -1.679284       -45.6956
  12   2.0000      -1.669594       -45.4320
  13   2.0000      -1.669594       -45.4320
  14   2.0000      -1.092201       -29.7203
  15   2.0000      -0.972093       -26.4520
  16   2.0000      -0.905211       -24.6320
  17   2.0000      -0.878021       -23.8922
  18   2.0000      -0.878021       -23.8922
  19   2.0000      -0.847706       -23.0673
  20   2.0000      -0.847706       -23.0673
  21   2.0000      -0.765602       -20.8331
  22   2.0000      -0.745496       -20.2860
  23   2.0000      -0.745496       -20.2860
  24   2.0000      -0.743464       -20.2307
  25   2.0000      -0.743464       -20.2307
  26   2.0000      -0.710389       -19.3307
  27   2.0000      -0.710389       -19.3307
  28   2.0000      -0.692717       -18.8498
  29   2.0000      -0.692717       -18.8498
  30   2.0000      -0.690957       -18.8019
  31   2.0000      -0.682951       -18.5840
  32   2.0000      -0.597530       -16.2596
  33   0.0000       0.052004         1.4151
  34   0.0000       0.054521         1.4836
  35   0.0000       0.063259         1.7214
  36   0.0000       0.063259         1.7214
  37   0.0000       0.087848         2.3905

MULLIKEN ATOMIC CHARGES
-----------------------
   0 C :    1.740156
   1 C :    1.740156
   2 F :   -0.580052
   3 F :   -0.580052
   4 F :   -0.580052
   5 F :   -0.580052
   6 F :   -0.580052
   7 F :   -0.580052
Sum of atomic charges:    0.0000000

LOEWDIN ATOMIC CHARGES
----------------------
   0 C :   -2.274257
   1 C :   -2.274257
   2 F :    0.758086
   3 F :    0.758086
   4 F :    0.758085
   5 F :    0.758086
   6 F :    0.758085
   7 F :    0.758086

  Mayer bond orders larger than 0.100000
B(  0-C ,  1-C ) :   0.9970 B(  0-C ,  2-F ) :   0.5155 B(  0-C ,  3-F ) :   0.5155
B(  0-C ,  4-F ) :   0.5155 B(  1-C ,  5-F ) :   0.5155 B(  1-C ,  6-F ) :   0.5155
B(  1-C ,  7-F ) :   0.5155

MP2 TOTAL ENERGY:     -674.684508769 Eh
FINAL SINGLE POINT ENERGY      -674.684508769322

DIPOLE MOMENT
-------------
                                X             Y             Z
Electronic contribution:      0.00000      -0.00000      -0.00000
Nuclear contribution   :      0.00000       0.00000       0.00000
                        -----------------------------------------
Total Dipole Moment    :      0.00000      -0.00000      -0.00000
                        -----------------------------------------
Magnitude (a.u.)       :      0.00000
Magnitude (Debye)      :      0.00000

Rotational constants in cm-1:     0.093959     0.060788     0.060788
Rotational constants in MHz :  2816.832773  1822.380438  1822.379896

                             ****ORCA TERMINATED NORMALLY****
TOTAL RUN TIME: 0 days 0 hours 11 minutes 39 seconds 694 msec
