                         Program Version 5.0.4 -  RELEASE  -
|  1> !ri-mp2 aug-cc-pvqz aug-cc-pvqz/c tightscf
|  2> %pal nprocs 16 end
|  3>
|  4> * xyz 0 1
|  5> O      0.500202    0.649433   -0.012191
|  6> O      1.498887   -0.464552   -0.099113
|  7> C     -0.689930    0.150600    0.001728
|  8> C     -1.824334   -0.241903    0.015562
|  9> H      1.923095   -0.355188    0.766050
| 10> H     -2.830223   -0.576039    0.020646
| 11> *
| 12>
| 13>                          ****END OF INPUT****

CARTESIAN COORDINATES (ANGSTROEM)
---------------------------------
  O      0.500202    0.649433   -0.012191
  O      1.498887   -0.464552   -0.099113
  C     -0.689930    0.150600    0.001728
  C     -1.824334   -0.241903    0.015562
  H      1.923095   -0.355188    0.766050
  H     -2.830223   -0.576039    0.020646

 Total Charge           Charge          ....    0
 Multiplicity           Mult            ....    1
 Number of Electrons    NEL             ....   30
 Basis Dimension        Dim             ....  412

ORBITAL ENERGIES
----------------

  NO   OCC          E(Eh)            E(eV)
   0   2.0000     -20.689870      -563.0000
   1   2.0000     -20.673133      -562.5446
   2   2.0000     -11.300951      -307.5145
   3   2.0000     -11.235688      -305.7386
   4   2.0000      -1.522386       -41.4262
   5   2.0000      -1.302883       -35.4532
   6   2.0000      -1.024622       -27.8814
   7   2.0000      -0.790106       -21.4999
   8   2.0000      -0.752467       -20.4757
   9   2.0000      -0.708953       -19.2916
  10   2.0000      -0.675347       -18.3771
  11   2.0000      -0.595936       -16.2162
  12   2.0000      -0.550268       -14.9736
  13   2.0000      -0.404869       -11.0170
  14   2.0000      -0.385295       -10.4844
  15   0.0000       0.022823         0.6210
  16   0.0000       0.031428         0.8552
  17   0.0000       0.060571         1.6482
  18   0.0000       0.075049         2.0422
  19   0.0000       0.075551         2.0558

MULLIKEN ATOMIC CHARGES
-----------------------
   0 O :   -0.456123
   1 O :   -0.323995
   2 C :    0.624564
   3 C :   -0.650306
   4 H :    0.353991
   5 H :    0.451869
Sum of atomic charges:   -0.0000000

LOEWDIN ATOMIC CHARGES
----------------------
   0 O :    0.432772
   1 O :    0.960703
   2 C :   -0.485953
   3 C :    0.477423
   4 H :   -0.890958
   5 H :   -0.493986

  Mayer bond orders larger than 0.100000
B(  0-O ,  1-O ) :   0.8792 B(  0-O ,  2-C ) :   0.7589 B(  0-O ,  3-C ) :   0.1099
B(  1-O ,  2-C ) :  -0.1001 B(  1-O ,  4-H ) :   0.9138 B(  2-C ,  3-C ) :   2.6757
B(  3-C ,  5-H ) :   0.8515

MP2 TOTAL ENERGY:     -227.364272992 Eh
FINAL SINGLE POINT ENERGY      -227.364272991629

DIPOLE MOMENT
-------------
                                X             Y             Z
Electronic contribution:      1.03279       0.70779      -0.17099
Nuclear contribution   :     -0.85006      -0.90122       0.76203
                        -----------------------------------------
Total Dipole Moment    :      0.18273      -0.19343       0.59104
                        -----------------------------------------
Magnitude (a.u.)       :      0.64818
Magnitude (Debye)      :      1.64754

Rotational constants in cm-1:     1.366532     0.171708     0.154546
Rotational constants in MHz : 40967.588616  5147.690308  4633.166922

                             ****ORCA TERMINATED NORMALLY****
TOTAL RUN TIME: 0 days 0 hours 2 minutes 37 seconds 647 msec
