                         Program Version 5.0.4 -  RELEASE  -
|  1> !ri-mp2 aug-cc-pvqz aug-cc-pvqz/c tightscf
|  2> %pal nprocs 16 end
|  3> %maxcore 3800
|  4>
|  5> * xyz 0 1
|  6> C      2.331625    0.140596   -0.002766
|  7> C      3.562671   -0.742228    0.006967
|  8> C     -4.097798   -0.269419   -0.001780
|  9> C      0.990909   -0.574254   -0.007194
| 10> C     -2.775391    0.495292    0.007306
| 11> C     -0.224164    0.345462    0.004932
| 12> C     -1.548821   -0.417709   -0.003855
| 13> O      2.419096    1.348033   -0.005792
| 14> H      3.571661   -1.365777    0.903608
| 15> H      3.553384   -1.419544   -0.849424
| 16> H      4.460036   -0.129875   -0.019314
| 17> H     -4.183730   -0.919977    0.871115
| 18> H     -4.951146    0.409944    0.006808
| 19> H     -4.184176   -0.898252   -0.890409
| 20> H      0.972256   -1.232580   -0.883480
| 21> H      0.975011   -1.253830    0.852590
| 22> H     -2.733388    1.141611    0.888893
| 23> H     -2.733543    1.162627   -0.858464
| 24> H     -0.175148    1.014310   -0.856999
| 25> H     -0.174496    0.992679    0.883335
| 26> H     -1.591964   -1.065480   -0.886410
| 27> H     -1.591700   -1.086565    0.862830
| 28> *
| 29>
| 30>                          ****END OF INPUT****

CARTESIAN COORDINATES (ANGSTROEM)
---------------------------------
  C      2.331625    0.140596   -0.002766
  C      3.562671   -0.742228    0.006967
  C     -4.097798   -0.269419   -0.001780
  C      0.990909   -0.574254   -0.007194
  C     -2.775391    0.495292    0.007306
  C     -0.224164    0.345462    0.004932
  C     -1.548821   -0.417709   -0.003855
  O      2.419096    1.348033   -0.005792
  H      3.571661   -1.365777    0.903608
  H      3.553384   -1.419544   -0.849424
  H      4.460036   -0.129875   -0.019314
  H     -4.183730   -0.919977    0.871115
  H     -4.951146    0.409944    0.006808
  H     -4.184176   -0.898252   -0.890409
  H      0.972256   -1.232580   -0.883480
  H      0.975011   -1.253830    0.852590
  H     -2.733388    1.141611    0.888893
  H     -2.733543    1.162627   -0.858464
  H     -0.175148    1.014310   -0.856999
  H     -0.174496    0.992679    0.883335
  H     -1.591964   -1.065480   -0.886410
  H     -1.591700   -1.086565    0.862830

 Total Charge           Charge          ....    0
 Multiplicity           Mult            ....    1
 Number of Electrons    NEL             ....   64
 Basis Dimension        Dim             .... 1284

ORBITAL ENERGIES
----------------

  NO   OCC          E(Eh)            E(eV)
   0   2.0000     -20.540300      -558.9300
   1   2.0000     -11.327055      -308.2248
   2   2.0000     -11.235069      -305.7218
   3   2.0000     -11.231904      -305.6357
   4   2.0000     -11.218254      -305.2642
   5   2.0000     -11.217655      -305.2479
   6   2.0000     -11.216481      -305.2160
   7   2.0000     -11.210362      -305.0495
   8   2.0000      -1.384492       -37.6739
   9   2.0000      -1.090632       -29.6776
  10   2.0000      -1.044607       -28.4252
  11   2.0000      -1.002543       -27.2806
  12   2.0000      -0.935704       -25.4618
  13   2.0000      -0.841782       -22.9060
  14   2.0000      -0.792014       -21.5518
  15   2.0000      -0.731910       -19.9163
  16   2.0000      -0.658329       -17.9140
  17   2.0000      -0.650968       -17.7137
  18   2.0000      -0.623796       -16.9744
  19   2.0000      -0.621522       -16.9125
  20   2.0000      -0.583334       -15.8733
  21   2.0000      -0.582287       -15.8448
  22   2.0000      -0.559271       -15.2185
  23   2.0000      -0.546084       -14.8597
  24   2.0000      -0.537478       -14.6255
  25   2.0000      -0.504218       -13.7205
  26   2.0000      -0.491763       -13.3816
  27   2.0000      -0.480063       -13.0632
  28   2.0000      -0.469480       -12.7752
  29   2.0000      -0.464147       -12.6301
  30   2.0000      -0.463951       -12.6247
  31   2.0000      -0.406500       -11.0614
  32   0.0000       0.022070         0.6006
  33   0.0000       0.026521         0.7217
  34   0.0000       0.031936         0.8690
  35   0.0000       0.034433         0.9370
  36   0.0000       0.041291         1.1236

MULLIKEN ATOMIC CHARGES
-----------------------
   0 C :    0.635843
   1 C :   -0.945889
   2 C :   -0.915565
   3 C :   -0.413411
   4 C :   -0.483623
   5 C :   -0.214454
   6 C :   -0.264532
   7 O :   -0.812174
   8 H :    0.280291
   9 H :    0.271099
  10 H :    0.281435
  11 H :    0.226051
  12 H :    0.265159
  13 H :    0.226283
  14 H :    0.236598
  15 H :    0.234817
  16 H :    0.228789
  17 H :    0.229063
  18 H :    0.227896
  19 H :    0.234376
  20 H :    0.235813
  21 H :    0.236137
Sum of atomic charges:    0.0000000

LOEWDIN ATOMIC CHARGES
----------------------
   0 C :   -0.621951
   1 C :    0.897194
   2 C :    0.926852
   3 C :    0.477862
   4 C :    0.510769
   5 C :    0.495989
   6 C :    0.511907
   7 O :    0.747961
   8 H :   -0.293377
   9 H :   -0.294338
  10 H :   -0.318499
  11 H :   -0.285500
  12 H :   -0.284518
  13 H :   -0.285484
  14 H :   -0.279460
  15 H :   -0.279626
  16 H :   -0.272187
  17 H :   -0.272208
  18 H :   -0.272903
  19 H :   -0.271955
  20 H :   -0.268288
  21 H :   -0.268241

  Mayer bond orders larger than 0.100000
B(  0-C ,  1-C ) :   1.0936 B(  0-C ,  3-C ) :   0.8596 B(  0-C ,  5-C ) :  -0.2580
B(  0-C ,  7-O ) :   1.0530 B(  1-C ,  3-C ) :  -0.1134 B(  1-C ,  8-H ) :   0.9171
B(  1-C ,  9-H ) :   0.9329 B(  1-C , 10-H ) :   1.0118 B(  2-C ,  4-C ) :   1.0347
B(  2-C ,  6-C ) :  -0.1081 B(  2-C , 11-H ) :   0.9551 B(  2-C , 12-H ) :   1.0235
B(  2-C , 13-H ) :   0.9549 B(  3-C ,  5-C ) :   1.0199 B(  3-C ,  6-C ) :  -0.1515
B(  3-C ,  7-O ) :   0.3129 B(  3-C , 14-H ) :   0.8773 B(  3-C , 15-H ) :   0.8771
B(  4-C ,  6-C ) :   1.0089 B(  4-C , 16-H ) :   0.8819 B(  4-C , 17-H ) :   0.8811
B(  5-C ,  6-C ) :   1.0539 B(  5-C , 18-H ) :   0.8335 B(  5-C , 19-H ) :   0.8238
B(  6-C , 20-H ) :   0.8593 B(  6-C , 21-H ) :   0.8583

MP2 TOTAL ENERGY:     -349.790309749 Eh
FINAL SINGLE POINT ENERGY      -349.790309749204

DIPOLE MOMENT
-------------
                                X             Y             Z
Electronic contribution:      9.04946       3.66153      -0.02148
Nuclear contribution   :     -9.20918      -4.87306       0.02588
                        -----------------------------------------
Total Dipole Moment    :     -0.15973      -1.21153       0.00440
                        -----------------------------------------
Magnitude (a.u.)       :      1.22202
Magnitude (Debye)      :      3.10614

Rotational constants in cm-1:     0.233893     0.021521     0.020143
Rotational constants in MHz :  7011.928533   645.191676   603.882526

                             ****ORCA TERMINATED NORMALLY****
TOTAL RUN TIME: 0 days 1 hours 36 minutes 38 seconds 701 msec
