                         Program Version 5.0.4 -  RELEASE  -
|  1> !ri-mp2 aug-cc-pvqz aug-cc-pvqz/c tightscf
|  2> %pal nprocs 16 end
|  3>
|  4> * xyz 0 1
|  5> C     -0.164367    1.106122    0.000000
|  6> C      0.630174   -1.644396    0.000000
|  7> C     -0.028352   -1.065946    1.246291
|  8> C     -0.028352   -1.065946   -1.246291
|  9> N     -0.028352    0.386872    1.163911
| 10> N     -0.028352    0.386872   -1.163911
| 11> O     -0.348128    2.315601    0.000000
| 12> H      1.692401   -1.394346    0.000000
| 13> H      0.538186   -2.730567    0.000000
| 14> H     -1.047815   -1.460098    1.343027
| 15> H      0.519860   -1.364705    2.140522
| 16> H      0.519860   -1.364705   -2.140522
| 17> H     -1.047815   -1.460098   -1.343027
| 18> H     -0.223673    0.927248    1.988963
| 19> H     -0.223673    0.927248   -1.988963
| 20> *
| 21>
| 22>                          ****END OF INPUT****

CARTESIAN COORDINATES (ANGSTROEM)
---------------------------------
  C     -0.164367    1.106122    0.000000
  C      0.630174   -1.644396    0.000000
  C     -0.028352   -1.065946    1.246291
  C     -0.028352   -1.065946   -1.246291
  N     -0.028352    0.386872    1.163911
  N     -0.028352    0.386872   -1.163911
  O     -0.348128    2.315601    0.000000
  H      1.692401   -1.394346    0.000000
  H      0.538186   -2.730567    0.000000
  H     -1.047815   -1.460098    1.343027
  H      0.519860   -1.364705    2.140522
  H      0.519860   -1.364705   -2.140522
  H     -1.047815   -1.460098   -1.343027
  H     -0.223673    0.927248    1.988963
  H     -0.223673    0.927248   -1.988963

 Total Charge           Charge          ....    0
 Multiplicity           Mult            ....    1
 Number of Electrons    NEL             ....   54
 Basis Dimension        Dim             ....  928

ORBITAL ENERGIES
----------------

  NO   OCC          E(Eh)            E(eV)
   0   2.0000     -20.492620      -557.6326
   1   2.0000     -15.572497      -423.7492
   2   2.0000     -15.572472      -423.7485
   3   2.0000     -11.364495      -309.2436
   4   2.0000     -11.277267      -306.8700
   5   2.0000     -11.277262      -306.8699
   6   2.0000     -11.242569      -305.9259
   7   2.0000      -1.378167       -37.5018
   8   2.0000      -1.250546       -34.0291
   9   2.0000      -1.197704       -32.5912
  10   2.0000      -1.061200       -28.8767
  11   2.0000      -0.935471       -25.4555
  12   2.0000      -0.870022       -23.6745
  13   2.0000      -0.778449       -21.1827
  14   2.0000      -0.703698       -19.1486
  15   2.0000      -0.680718       -18.5233
  16   2.0000      -0.656760       -17.8713
  17   2.0000      -0.642415       -17.4810
  18   2.0000      -0.610391       -16.6096
  19   2.0000      -0.596169       -16.2226
  20   2.0000      -0.583983       -15.8910
  21   2.0000      -0.531034       -14.4502
  22   2.0000      -0.505929       -13.7670
  23   2.0000      -0.500891       -13.6299
  24   2.0000      -0.425547       -11.5797
  25   2.0000      -0.390379       -10.6228
  26   2.0000      -0.388659       -10.5759
  27   0.0000       0.019503         0.5307
  28   0.0000       0.027067         0.7365
  29   0.0000       0.030777         0.8375
  30   0.0000       0.034429         0.9369
  31   0.0000       0.047874         1.3027

MULLIKEN ATOMIC CHARGES
-----------------------
   0 C :    1.362645
   1 C :   -0.583516
   2 C :   -0.297059
   3 C :   -0.297058
   4 N :   -0.585487
   5 N :   -0.585487
   6 O :   -0.843444
   7 H :    0.233245
   8 H :    0.334656
   9 H :    0.196415
  10 H :    0.365100
  11 H :    0.365100
  12 H :    0.196415
  13 H :    0.069238
  14 H :    0.069238
Sum of atomic charges:    0.0000000

LOEWDIN ATOMIC CHARGES
----------------------
   0 C :   -1.010521
   1 C :    0.515644
   2 C :    0.391539
   3 C :    0.391539
   4 N :    0.840714
   5 N :    0.840714
   6 O :    0.663442
   7 H :   -0.265281
   8 H :   -0.262687
   9 H :   -0.266244
  10 H :   -0.275400
  11 H :   -0.275400
  12 H :   -0.266244
  13 H :   -0.510909
  14 H :   -0.510909

  Mayer bond orders larger than 0.100000
B(  0-C ,  4-N ) :   1.1488 B(  0-C ,  5-N ) :   1.1488 B(  0-C ,  6-O ) :   1.1576
B(  1-C ,  2-C ) :   1.0233 B(  1-C ,  3-C ) :   1.0233 B(  1-C ,  7-H ) :   0.9147
B(  1-C ,  8-H ) :   0.8512 B(  2-C ,  4-N ) :   0.6878 B(  2-C ,  9-H ) :   0.9777
B(  2-C , 10-H ) :   0.8647 B(  3-C ,  5-N ) :   0.6878 B(  3-C , 11-H ) :   0.8647
B(  3-C , 12-H ) :   0.9777 B(  4-N ,  6-O ) :   0.1817 B(  4-N , 13-H ) :   1.1838
B(  5-N ,  6-O ) :   0.1817 B(  5-N , 14-H ) :   1.1838

MP2 TOTAL ENERGY:     -341.473168859 Eh
FINAL SINGLE POINT ENERGY      -341.473168858849

DIPOLE MOMENT
-------------
                                X             Y             Z
Electronic contribution:     -0.68540       5.95585       0.00000
Nuclear contribution   :      0.73084      -7.98088       0.00000
                        -----------------------------------------
Total Dipole Moment    :      0.04544      -2.02504       0.00000
                        -----------------------------------------
Magnitude (a.u.)       :      2.02554
Magnitude (Debye)      :      5.14853

Rotational constants in cm-1:     0.161802     0.085918     0.059308
Rotational constants in MHz :  4850.701359  2575.771119  1778.004505

                             ****ORCA TERMINATED NORMALLY****
TOTAL RUN TIME: 0 days 0 hours 33 minutes 1 seconds 507 msec
