                         Program Version 5.0.4 -  RELEASE  -
|  1> !ri-mp2 aug-cc-pvqz aug-cc-pvqz/c tightscf
|  2> %pal nprocs 16 end
|  3> %maxcore 3800
|  4>
|  5> * xyz 0 1
|  6> C     -2.341682    0.111370    0.062323
|  7> C      4.074930   -0.182147    0.064954
|  8> C     -1.005389   -0.584989    0.280499
|  9> C      2.730567    0.451968   -0.287379
| 10> C      0.185855    0.257397   -0.174608
| 11> C      1.531563   -0.380318    0.168545
| 12> N     -3.379576   -0.706845   -0.277643
| 13> O     -2.490867    1.311718    0.200335
| 14> H      4.179038   -0.312677    1.144121
| 15> H      4.907792    0.434652   -0.275258
| 16> H      4.181268   -1.165989   -0.397058
| 17> H     -0.928223   -0.779637    1.355244
| 18> H     -0.998311   -1.560235   -0.212711
| 19> H      2.671429    0.604297   -1.369128
| 20> H      2.667243    1.447267    0.161800
| 21> H      0.120409    0.418511   -1.254432
| 22> H      0.107976    1.243573    0.284716
| 23> H      1.592586   -0.535216    1.251266
| 24> H      1.594355   -1.376608   -0.283106
| 25> H     -4.296353   -0.304735   -0.373362
| 26> H     -3.270304   -1.698720   -0.377277
| 27> *
| 28>
| 29>                          ****END OF INPUT****

CARTESIAN COORDINATES (ANGSTROEM)
---------------------------------
  C     -2.341682    0.111370    0.062323
  C      4.074930   -0.182147    0.064954
  C     -1.005389   -0.584989    0.280499
  C      2.730567    0.451968   -0.287379
  C      0.185855    0.257397   -0.174608
  C      1.531563   -0.380318    0.168545
  N     -3.379576   -0.706845   -0.277643
  O     -2.490867    1.311718    0.200335
  H      4.179038   -0.312677    1.144121
  H      4.907792    0.434652   -0.275258
  H      4.181268   -1.165989   -0.397058
  H     -0.928223   -0.779637    1.355244
  H     -0.998311   -1.560235   -0.212711
  H      2.671429    0.604297   -1.369128
  H      2.667243    1.447267    0.161800
  H      0.120409    0.418511   -1.254432
  H      0.107976    1.243573    0.284716
  H      1.592586   -0.535216    1.251266
  H      1.594355   -1.376608   -0.283106
  H     -4.296353   -0.304735   -0.373362
  H     -3.270304   -1.698720   -0.377277

 Total Charge           Charge          ....    0
 Multiplicity           Mult            ....    1
 Number of Electrons    NEL             ....   64
 Basis Dimension        Dim             .... 1238

ORBITAL ENERGIES
----------------

  NO   OCC          E(Eh)            E(eV)
   0   2.0000     -20.512299      -558.1680
   1   2.0000     -15.582201      -424.0133
   2   2.0000     -11.347998      -308.7947
   3   2.0000     -11.238052      -305.8029
   4   2.0000     -11.219697      -305.3035
   5   2.0000     -11.218198      -305.2627
   6   2.0000     -11.216599      -305.2192
   7   2.0000     -11.210335      -305.0487
   8   2.0000      -1.377574       -37.4857
   9   2.0000      -1.209212       -32.9043
  10   2.0000      -1.088971       -29.6324
  11   2.0000      -1.033017       -28.1098
  12   2.0000      -0.946768       -25.7629
  13   2.0000      -0.850960       -23.1558
  14   2.0000      -0.794340       -21.6151
  15   2.0000      -0.781428       -21.2637
  16   2.0000      -0.721037       -19.6204
  17   2.0000      -0.670911       -18.2564
  18   2.0000      -0.650512       -17.7013
  19   2.0000      -0.614024       -16.7084
  20   2.0000      -0.599761       -16.3203
  21   2.0000      -0.575159       -15.6509
  22   2.0000      -0.569096       -15.4859
  23   2.0000      -0.551804       -15.0154
  24   2.0000      -0.525458       -14.2984
  25   2.0000      -0.504036       -13.7155
  26   2.0000      -0.482677       -13.1343
  27   2.0000      -0.470241       -12.7959
  28   2.0000      -0.464665       -12.6442
  29   2.0000      -0.462451       -12.5839
  30   2.0000      -0.418075       -11.3764
  31   2.0000      -0.413642       -11.2558
  32   0.0000       0.019029         0.5178
  33   0.0000       0.027204         0.7403
  34   0.0000       0.033278         0.9055
  35   0.0000       0.034355         0.9349
  36   0.0000       0.041966         1.1420

MULLIKEN ATOMIC CHARGES
-----------------------
   0 C :    0.879387
   1 C :   -0.912767
   2 C :   -0.412267
   3 C :   -0.483950
   4 C :   -0.245102
   5 C :   -0.261448
   6 N :   -0.774509
   7 O :   -0.863992
   8 H :    0.225902
   9 H :    0.266071
  10 H :    0.226455
  11 H :    0.284044
  12 H :    0.174451
  13 H :    0.228421
  14 H :    0.236670
  15 H :    0.244470
  16 H :    0.195166
  17 H :    0.214978
  18 H :    0.257073
  19 H :    0.200809
  20 H :    0.320140
Sum of atomic charges:   -0.0000000

LOEWDIN ATOMIC CHARGES
----------------------
   0 C :   -0.820069
   1 C :    0.926948
   2 C :    0.478699
   3 C :    0.510918
   4 C :    0.504136
   5 C :    0.511792
   6 N :    1.243299
   7 O :    0.700126
   8 H :   -0.285246
   9 H :   -0.284459
  10 H :   -0.285531
  11 H :   -0.273942
  12 H :   -0.295871
  13 H :   -0.272465
  14 H :   -0.271703
  15 H :   -0.260803
  16 H :   -0.287840
  17 H :   -0.268874
  18 H :   -0.267821
  19 H :   -0.499283
  20 H :   -0.502010

  Mayer bond orders larger than 0.100000
B(  0-C ,  2-C ) :   1.1854 B(  0-C ,  4-C ) :  -0.1987 B(  0-C ,  6-N ) :   1.1422
B(  0-C ,  7-O ) :   1.1614 B(  1-C ,  3-C ) :   1.0371 B(  1-C ,  5-C ) :  -0.1132
B(  1-C ,  8-H ) :   0.9539 B(  1-C ,  9-H ) :   1.0230 B(  1-C , 10-H ) :   0.9554
B(  2-C ,  4-C ) :   1.0011 B(  2-C ,  6-N ) :  -0.1521 B(  2-C ,  7-O ) :   0.1911
B(  2-C , 11-H ) :   0.8065 B(  2-C , 12-H ) :   0.9725 B(  3-C ,  5-C ) :   0.9526
B(  3-C , 13-H ) :   0.8794 B(  3-C , 14-H ) :   0.8763 B(  4-C ,  5-C ) :   1.0130
B(  4-C , 15-H ) :   0.8611 B(  4-C , 16-H ) :   0.8656 B(  5-C , 17-H ) :   0.8895
B(  5-C , 18-H ) :   0.8391 B(  6-N ,  7-O ) :   0.1384 B(  6-N , 19-H ) :   1.0585
B(  6-N , 20-H ) :   0.8729

MP2 TOTAL ENERGY:     -365.859143729 Eh
FINAL SINGLE POINT ENERGY      -365.859143728856

DIPOLE MOMENT
-------------
                                X             Y             Z
Electronic contribution:    -12.98840       2.21171       0.16082
Nuclear contribution   :     13.01338      -3.72456      -0.35864
                        -----------------------------------------
Total Dipole Moment    :      0.02498      -1.51285      -0.19781
                        -----------------------------------------
Magnitude (a.u.)       :      1.52594
Magnitude (Debye)      :      3.87862

Rotational constants in cm-1:     0.235553     0.021688     0.020508
Rotational constants in MHz :  7061.703718   650.197356   614.811938

                             ****ORCA TERMINATED NORMALLY****
TOTAL RUN TIME: 0 days 1 hours 1 minutes 41 seconds 681 msec
