                         Program Version 5.0.4 -  RELEASE  -
|  1> !ri-mp2 aug-cc-pvqz aug-cc-pvqz/c tightscf
|  2> %pal nprocs 16 end
|  3>
|  4> * xyz 0 1
|  5> O      1.180945   -0.108391   -0.000024
|  6> C     -0.123542   -0.002551    0.000003
|  7> C     -1.320286    0.013531    0.000025
|  8> H      1.594854    0.763873   -0.000012
|  9> H     -2.379443    0.037377    0.000043
| 10> *
| 11>
| 12>                          ****END OF INPUT****

CARTESIAN COORDINATES (ANGSTROEM)
---------------------------------
  O      1.180945   -0.108391   -0.000024
  C     -0.123542   -0.002551    0.000003
  C     -1.320286    0.013531    0.000025
  H      1.594854    0.763873   -0.000012
  H     -2.379443    0.037377    0.000043

 Total Charge           Charge          ....    0
 Multiplicity           Mult            ....    1
 Number of Electrons    NEL             ....   22
 Basis Dimension        Dim             ....  332

ORBITAL ENERGIES
----------------

  NO   OCC          E(Eh)            E(eV)
   0   2.0000     -20.636921      -561.5592
   1   2.0000     -11.297050      -307.4084
   2   2.0000     -11.220821      -305.3341
   3   2.0000      -1.451648       -39.5014
   4   2.0000      -1.024221       -27.8705
   5   2.0000      -0.824777       -22.4433
   6   2.0000      -0.707813       -19.2606
   7   2.0000      -0.666216       -18.1287
   8   2.0000      -0.624535       -16.9945
   9   2.0000      -0.396846       -10.7987
  10   2.0000      -0.379447       -10.3253
  11   0.0000       0.021057         0.5730
  12   0.0000       0.032427         0.8824
  13   0.0000       0.065963         1.7949
  14   0.0000       0.077374         2.1055
  15   0.0000       0.079727         2.1695

MULLIKEN ATOMIC CHARGES
-----------------------
   0 O :   -0.645727
   1 C :    0.462210
   2 C :   -0.645959
   3 H :    0.354096
   4 H :    0.475380
Sum of atomic charges:    0.0000000

LOEWDIN ATOMIC CHARGES
----------------------
   0 O :    1.157763
   1 C :   -0.335340
   2 C :    0.479334
   3 H :   -0.798640
   4 H :   -0.503117

  Mayer bond orders larger than 0.100000
B(  0-O ,  1-C ) :   0.8304 B(  0-O ,  3-H ) :   0.9095 B(  1-C ,  2-C ) :   2.7521
B(  2-C ,  4-H ) :   0.8143

MP2 TOTAL ENERGY:     -152.323704381 Eh
FINAL SINGLE POINT ENERGY      -152.323704380502

DIPOLE MOMENT
-------------
                                X             Y             Z
Electronic contribution:      0.97791      -0.17244      -0.00002
Nuclear contribution   :     -0.75286       0.78586       0.00003
                        -----------------------------------------
Total Dipole Moment    :      0.22505       0.61342       0.00001
                        -----------------------------------------
Magnitude (a.u.)       :      0.65339
Magnitude (Debye)      :      1.66080

Rotational constants in cm-1:    22.756188     0.325977     0.321373
Rotational constants in MHz : 682213.350276  9772.541732  9634.529421

                             ****ORCA TERMINATED NORMALLY****
TOTAL RUN TIME: 0 days 0 hours 1 minutes 44 seconds 20 msec
