                         Program Version 5.0.4 -  RELEASE  -
|  1> !ri-mp2 aug-cc-pvqz aug-cc-pvqz/c tightscf
|  2> %pal nprocs 16 end
|  3>
|  4> * xyz 0 1
|  5> C      0.000000    0.607495        0.000000
|  6> C     -0.022300   -0.607096        0.000000
|  7> C      0.032288    1.961729        0.000000
|  8> C     -0.037787   -1.961626        0.000000
|  9> C      0.067261    3.167962        0.000000
| 10> C     -0.047216   -3.168328        0.000000
| 11> H      0.098665    4.228824        0.000000
| 12> H     -0.052142   -4.229643        0.000000
| 13> *
| 14>
| 15>                          ****END OF INPUT****

CARTESIAN COORDINATES (ANGSTROEM)
---------------------------------
  C      0.000000    0.607495    0.000000
  C     -0.022300   -0.607096    0.000000
  C      0.032288    1.961729    0.000000
  C     -0.037787   -1.961626    0.000000
  C      0.067261    3.167962    0.000000
  C     -0.047216   -3.168328    0.000000
  H      0.098665    4.228824    0.000000
  H     -0.052142   -4.229643    0.000000

 Total Charge           Charge          ....    0
 Multiplicity           Mult            ....    1
 Number of Electrons    NEL             ....   38
 Basis Dimension        Dim             ....  572

ORBITAL ENERGIES
----------------

  NO   OCC          E(Eh)            E(eV)
   0   2.0000     -11.281018      -306.9721
   1   2.0000     -11.277525      -306.8770
   2   2.0000     -11.270255      -306.6792
   3   2.0000     -11.270233      -306.6786
   4   2.0000     -11.264364      -306.5189
   5   2.0000     -11.264361      -306.5189
   6   2.0000      -1.117673       -30.4134
   7   2.0000      -1.073323       -29.2066
   8   2.0000      -1.018641       -27.7186
   9   2.0000      -0.890395       -24.2289
  10   2.0000      -0.809767       -22.0349
  11   2.0000      -0.728134       -19.8135
  12   2.0000      -0.718537       -19.5524
  13   2.0000      -0.525390       -14.2966
  14   2.0000      -0.525390       -14.2966
  15   2.0000      -0.451325       -12.2812
  16   2.0000      -0.451325       -12.2812
  17   2.0000      -0.348818        -9.4918
  18   2.0000      -0.348818        -9.4918
  19   0.0000       0.022720         0.6182
  20   0.0000       0.023420         0.6373
  21   0.0000       0.053783         1.4635
  22   0.0000       0.053783         1.4635
  23   0.0000       0.054921         1.4945

MULLIKEN ATOMIC CHARGES
-----------------------
   0 C :   -2.276106
   1 C :   -2.280512
   2 C :    1.151433
   3 C :    1.152839
   4 C :    0.713307
   5 C :    0.713711
   6 H :    0.412768
   7 H :    0.412559
Sum of atomic charges:    0.0000000

LOEWDIN ATOMIC CHARGES
----------------------
   0 C :   -0.040120
   1 C :   -0.040118
   2 C :   -0.059257
   3 C :   -0.059261
   4 C :    0.549170
   5 C :    0.549169
   6 H :   -0.449791
   7 H :   -0.449793

  Mayer bond orders larger than 0.100000
B(  0-C ,  1-C ) :  11.9116 B(  0-C ,  2-C ) :  -5.3290 B(  0-C ,  3-C ) :  -5.0150
B(  0-C ,  4-C ) :  -2.4781 B(  0-C ,  5-C ) :   0.5475 B(  0-C ,  6-H ) :  -0.1286
B(  1-C ,  2-C ) :  -5.0220 B(  1-C ,  3-C ) :  -5.3412 B(  1-C ,  4-C ) :   0.5455
B(  1-C ,  5-C ) :  -2.4829 B(  1-C ,  7-H ) :  -0.1284 B(  2-C ,  3-C ) :   6.6389
B(  2-C ,  4-C ) :   2.9803 B(  2-C ,  5-C ) :  -0.3211 B(  2-C ,  6-H ) :  -0.2127
B(  2-C ,  7-H ) :  -0.4434 B(  3-C ,  4-C ) :  -0.3220 B(  3-C ,  5-C ) :   2.9795
B(  3-C ,  6-H ) :  -0.4421 B(  3-C ,  7-H ) :  -0.2133 B(  4-C ,  6-H ) :   1.1513
B(  4-C ,  7-H ) :   0.2683 B(  5-C ,  6-H ) :   0.2687 B(  5-C ,  7-H ) :   1.1521
B(  6-H ,  7-H ) :   0.1269

MP2 TOTAL ENERGY:     -229.223220220 Eh
FINAL SINGLE POINT ENERGY      -229.223220219698

DIPOLE MOMENT
-------------
                                X             Y             Z
Electronic contribution:     -0.03106       0.00058       0.00000
Nuclear contribution   :      0.04482      -0.00079       0.00000
                        -----------------------------------------
Total Dipole Moment    :      0.01376      -0.00021       0.00000
                        -----------------------------------------
Magnitude (a.u.)       :      0.01376
Magnitude (Debye)      :      0.03498

Rotational constants in cm-1:  2534.866732     0.044527     0.044526
Rotational constants in MHz : 75993392.829783  1334.883870  1334.860422

                             ****ORCA TERMINATED NORMALLY****
TOTAL RUN TIME: 0 days 0 hours 6 minutes 38 seconds 758 msec
