                         Program Version 5.0.4 -  RELEASE  -
|  1> !ri-mp2 aug-cc-pvqz aug-cc-pvqz/c tightscf
|  2> %pal nprocs 16 end
|  3>
|  4> * xyz 0 1
|  5> O    -0.055278     2.766941       0.000000
|  6> C     0.001661     1.395041       0.000000
|  7> C     1.201394     0.689669       0.000000
|  8> C     1.201394    -0.699360       0.000000
|  9> C    -0.001661    -1.395041       0.000000
| 10> O     0.055278    -2.766941       0.000000
| 11> C    -1.201394    -0.689669       0.000000
| 12> C    -1.201394     0.699360       0.000000
| 13> H     0.835947     3.128399       0.000000
| 14> H     2.144114     1.223949       0.000000
| 15> H     2.130783    -1.251030       0.000000
| 16> H    -0.835947    -3.128399       0.000000
| 17> H    -2.144114    -1.223949       0.000000
| 18> H    -2.130783     1.251030       0.000000
| 19> *
| 20>
| 21>                          ****END OF INPUT****

CARTESIAN COORDINATES (ANGSTROEM)
---------------------------------
  O     -0.055278    2.766941    0.000000
  C      0.001661    1.395041    0.000000
  C      1.201394    0.689669    0.000000
  C      1.201394   -0.699360    0.000000
  C     -0.001661   -1.395041    0.000000
  O      0.055278   -2.766941    0.000000
  C     -1.201394   -0.689669    0.000000
  C     -1.201394    0.699360    0.000000
  H      0.835947    3.128399    0.000000
  H      2.144114    1.223949    0.000000
  H      2.130783   -1.251030    0.000000
  H     -0.835947   -3.128399    0.000000
  H     -2.144114   -1.223949    0.000000
  H     -2.130783    1.251030    0.000000

 Total Charge           Charge          ....    0
 Multiplicity           Mult            ....    1
 Number of Electrons    NEL             ....   58
 Basis Dimension        Dim             ....  916

ORBITAL ENERGIES
----------------

  NO   OCC          E(Eh)            E(eV)
   0   2.0000     -20.584997      -560.1462
   1   2.0000     -20.584997      -560.1462
   2   2.0000     -11.295604      -307.3690
   3   2.0000     -11.295585      -307.3685
   4   2.0000     -11.240015      -305.8564
   5   2.0000     -11.239990      -305.8557
   6   2.0000     -11.235504      -305.7336
   7   2.0000     -11.235492      -305.7333
   8   2.0000      -1.400636       -38.1133
   9   2.0000      -1.399234       -38.0751
  10   2.0000      -1.148766       -31.2595
  11   2.0000      -1.028009       -27.9736
  12   2.0000      -0.999567       -27.1996
  13   2.0000      -0.864572       -23.5262
  14   2.0000      -0.824559       -22.4374
  15   2.0000      -0.746216       -20.3056
  16   2.0000      -0.733670       -19.9642
  17   2.0000      -0.667939       -18.1756
  18   2.0000      -0.625796       -17.0288
  19   2.0000      -0.619116       -16.8470
  20   2.0000      -0.597610       -16.2618
  21   2.0000      -0.596933       -16.2434
  22   2.0000      -0.578148       -15.7322
  23   2.0000      -0.551461       -15.0060
  24   2.0000      -0.550825       -14.9887
  25   2.0000      -0.497239       -13.5306
  26   2.0000      -0.467477       -12.7207
  27   2.0000      -0.350412        -9.5352
  28   2.0000      -0.300238        -8.1699
  29   0.0000       0.023749         0.6462
  30   0.0000       0.024836         0.6758
  31   0.0000       0.033048         0.8993
  32   0.0000       0.041722         1.1353
  33   0.0000       0.047174         1.2837

MULLIKEN ATOMIC CHARGES
-----------------------
   0 O :   -0.811649
   1 C :    0.967358
   2 C :   -0.578599
   3 C :   -0.467535
   4 C :    0.967341
   5 O :   -0.811649
   6 C :   -0.578581
   7 C :   -0.467549
   8 H :    0.361749
   9 H :    0.191375
  10 H :    0.337303
  11 H :    0.361750
  12 H :    0.191382
  13 H :    0.337304
Sum of atomic charges:    0.0000000

LOEWDIN ATOMIC CHARGES
----------------------
   0 O :    1.263610
   1 C :   -0.439723
   2 C :    0.322373
   3 C :    0.315548
   4 C :   -0.439723
   5 O :    1.263610
   6 C :    0.322373
   7 C :    0.315548
   8 H :   -0.811623
   9 H :   -0.324320
  10 H :   -0.325864
  11 H :   -0.811623
  12 H :   -0.324320
  13 H :   -0.325864

  Mayer bond orders larger than 0.100000
B(  0-O ,  2-C ) :   0.2065 B(  0-O ,  7-C ) :   0.3016 B(  0-O ,  8-H ) :   0.8966
B(  1-C ,  2-C ) :   1.2913 B(  1-C ,  3-C ) :  -0.1354 B(  1-C ,  4-C ) :   0.1551
B(  1-C ,  6-C ) :  -0.1670 B(  1-C ,  7-C ) :   1.3595 B(  1-C ,  8-H ) :  -0.1051
B(  2-C ,  3-C ) :   1.2219 B(  2-C ,  4-C ) :  -0.1670 B(  2-C ,  9-H ) :   1.1095
B(  2-C , 10-H ) :  -0.1218 B(  3-C ,  4-C ) :   1.3595 B(  3-C ,  5-O ) :   0.3016
B(  3-C ,  9-H ) :  -0.1389 B(  3-C , 10-H ) :   0.9157 B(  4-C ,  6-C ) :   1.2913
B(  4-C ,  7-C ) :  -0.1354 B(  4-C , 11-H ) :  -0.1051 B(  5-O ,  6-C ) :   0.2065
B(  5-O , 11-H ) :   0.8966 B(  6-C ,  7-C ) :   1.2219 B(  6-C , 12-H ) :   1.1095
B(  6-C , 13-H ) :  -0.1218 B(  7-C , 12-H ) :  -0.1389 B(  7-C , 13-H ) :   0.9157

MP2 TOTAL ENERGY:     -382.113048524 Eh
FINAL SINGLE POINT ENERGY      -382.113048524106

DIPOLE MOMENT
-------------
                                X             Y             Z
Electronic contribution:     -0.00000       0.00000       0.00000
Nuclear contribution   :      0.00000       0.00000       0.00000
                        -----------------------------------------
Total Dipole Moment    :     -0.00000       0.00000       0.00000
                        -----------------------------------------
Magnitude (a.u.)       :      0.00000
Magnitude (Debye)      :      0.00000

Rotational constants in cm-1:     0.188835     0.049464     0.039197
Rotational constants in MHz :  5661.124294  1482.892927  1175.086918

                             ****ORCA TERMINATED NORMALLY****
TOTAL RUN TIME: 0 days 0 hours 33 minutes 52 seconds 353 msec
