                         Program Version 5.0.4 -  RELEASE  -
|  1> !ri-mp2 aug-cc-pvqz aug-cc-pvqz/c tightscf
|  2> %pal nprocs 16 end
|  3>
|  4> * xyz 0 1
|  5> C     0.000000    0.000000     0.792268
|  6> C     0.000000    0.000000    -0.792268
|  7> Cl    0.000000    1.679244     1.403393
|  8> Cl   -1.454268   -0.839622     1.403393
|  9> Cl    1.454268   -0.839622     1.403393
| 10> Cl    0.000000   -1.679244    -1.403393
| 11> Cl   -1.454268    0.839622    -1.403393
| 12> Cl    1.454268    0.839622    -1.403393
| 13> *
| 14>
| 15>                          ****END OF INPUT****

CARTESIAN COORDINATES (ANGSTROEM)
---------------------------------
  C      0.000000    0.000000    0.792268
  C      0.000000    0.000000   -0.792268
  Cl     0.000000    1.679244    1.403393
  Cl    -1.454268   -0.839622    1.403393
  Cl     1.454268   -0.839622    1.403393
  Cl     0.000000   -1.679244   -1.403393
  Cl    -1.454268    0.839622   -1.403393
  Cl     1.454268    0.839622   -1.403393

 Total Charge           Charge          ....    0
 Multiplicity           Mult            ....    1
 Number of Electrons    NEL             ....  114
 Basis Dimension        Dim             ....  664

ORBITAL ENERGIES
----------------

  NO   OCC          E(Eh)            E(eV)
   0   2.0000    -104.875202     -2853.7993
   1   2.0000    -104.875202     -2853.7993
   2   2.0000    -104.875201     -2853.7993
   3   2.0000    -104.875201     -2853.7993
   4   2.0000    -104.875201     -2853.7993
   5   2.0000    -104.875201     -2853.7993
   6   2.0000     -11.473209      -312.2019
   7   2.0000     -11.472713      -312.1884
   8   2.0000     -10.600627      -288.4577
   9   2.0000     -10.600627      -288.4577
  10   2.0000     -10.600623      -288.4576
  11   2.0000     -10.600623      -288.4576
  12   2.0000     -10.600613      -288.4573
  13   2.0000     -10.600610      -288.4573
  14   2.0000      -8.067576      -219.5299
  15   2.0000      -8.067576      -219.5299
  16   2.0000      -8.067576      -219.5299
  17   2.0000      -8.067576      -219.5299
  18   2.0000      -8.067574      -219.5298
  19   2.0000      -8.067572      -219.5298
  20   2.0000      -8.065548      -219.4747
  21   2.0000      -8.065548      -219.4747
  22   2.0000      -8.065548      -219.4747
  23   2.0000      -8.065548      -219.4747
  24   2.0000      -8.065546      -219.4747
  25   2.0000      -8.065546      -219.4747
  26   2.0000      -8.065534      -219.4743
  27   2.0000      -8.065533      -219.4743
  28   2.0000      -8.065532      -219.4743
  29   2.0000      -8.065532      -219.4743
  30   2.0000      -8.065532      -219.4743
  31   2.0000      -8.065532      -219.4743
  32   2.0000      -1.290611       -35.1193
  33   2.0000      -1.215430       -33.0735
  34   2.0000      -1.134524       -30.8720
  35   2.0000      -1.134524       -30.8720
  36   2.0000      -1.112957       -30.2851
  37   2.0000      -1.112957       -30.2851
  38   2.0000      -0.943162       -25.6647
  39   2.0000      -0.789465       -21.4824
  40   2.0000      -0.687816       -18.7164
  41   2.0000      -0.668802       -18.1990
  42   2.0000      -0.668802       -18.1990
  43   2.0000      -0.611298       -16.6343
  44   2.0000      -0.611298       -16.6343
  45   2.0000      -0.521528       -14.1915
  46   2.0000      -0.521528       -14.1915
  47   2.0000      -0.509903       -13.8752
  48   2.0000      -0.505273       -13.7492
  49   2.0000      -0.505273       -13.7492
  50   2.0000      -0.490322       -13.3423
  51   2.0000      -0.490322       -13.3423
  52   2.0000      -0.478687       -13.0257
  53   2.0000      -0.471438       -12.8285
  54   2.0000      -0.454268       -12.3613
  55   2.0000      -0.454268       -12.3613
  56   2.0000      -0.450362       -12.2550
  57   0.0000       0.038029         1.0348
  58   0.0000       0.052724         1.4347
  59   0.0000       0.052724         1.4347
  60   0.0000       0.052880         1.4389
  61   0.0000       0.068618         1.8672

MULLIKEN ATOMIC CHARGES
-----------------------
   0 C :    0.631457
   1 C :    0.631457
   2 Cl:   -0.210485
   3 Cl:   -0.210486
   4 Cl:   -0.210486
   5 Cl:   -0.210485
   6 Cl:   -0.210486
   7 Cl:   -0.210486
Sum of atomic charges:    0.0000000

LOEWDIN ATOMIC CHARGES
----------------------
   0 C :   -2.865055
   1 C :   -2.865055
   2 Cl:    0.955018
   3 Cl:    0.955018
   4 Cl:    0.955018
   5 Cl:    0.955018
   6 Cl:    0.955018
   7 Cl:    0.955018

  Mayer bond orders larger than 0.100000
B(  0-C ,  1-C ) :   0.9066 B(  0-C ,  2-Cl) :   0.7138 B(  0-C ,  3-Cl) :   0.7138
B(  0-C ,  4-Cl) :   0.7138 B(  1-C ,  5-Cl) :   0.7138 B(  1-C ,  6-Cl) :   0.7138
B(  1-C ,  7-Cl) :   0.7138

MP2 TOTAL ENERGY:    -2834.473297984 Eh
FINAL SINGLE POINT ENERGY     -2834.473297983984

DIPOLE MOMENT
-------------
                                X             Y             Z
Electronic contribution:     -0.00000      -0.00000      -0.00000
Nuclear contribution   :      0.00000       0.00000      -0.00000
                        -----------------------------------------
Total Dipole Moment    :     -0.00000      -0.00000      -0.00000
                        -----------------------------------------
Magnitude (a.u.)       :      0.00000
Magnitude (Debye)      :      0.00000

Rotational constants in cm-1:     0.028104     0.022968     0.022968
Rotational constants in MHz :   842.530713   688.578087   688.578073

                             ****ORCA TERMINATED NORMALLY****
TOTAL RUN TIME: 0 days 0 hours 17 minutes 30 seconds 705 msec
