                         Program Version 5.0.4 -  RELEASE  -
|  1> !ri-mp2 aug-cc-pvqz aug-cc-pvqz/c tightscf
|  2> %pal nprocs 16 end
|  3>
|  4> * xyz 0 1
|  5> C     -2.062686   -1.102443    0.000000
|  6> C      3.632108    1.858226    0.000000
|  7> C     -0.556479   -1.037078    0.000000
|  8> C      2.104874    1.829660    0.000000
|  9> C      0.000000    0.382472    0.000000
| 10> C      1.528055    0.413443    0.000000
| 11> O     -2.819045   -0.165656    0.000000
| 12> O     -2.503459   -2.387142    0.000000
| 13> H      4.011459    2.880818    0.000000
| 14> H      4.036027    1.354785    0.880787
| 15> H      4.036027    1.354785   -0.880787
| 16> H     -0.205394   -1.600622    0.869012
| 17> H     -0.205394   -1.600622   -0.869012
| 18> H      1.729349    2.370062    0.873830
| 19> H      1.729349    2.370062   -0.873830
| 20> H     -0.381981    0.918569    0.871350
| 21> H     -0.381981    0.918569   -0.871350
| 22> H      1.904359   -0.128002   -0.874719
| 23> H      1.904359   -0.128002    0.874719
| 24> H     -3.471375   -2.353691    0.000000
| 25> *
| 26>
| 27>                          ****END OF INPUT****

CARTESIAN COORDINATES (ANGSTROEM)
---------------------------------
  C     -2.062686   -1.102443    0.000000
  C      3.632108    1.858226    0.000000
  C     -0.556479   -1.037078    0.000000
  C      2.104874    1.829660    0.000000
  C      0.000000    0.382472    0.000000
  C      1.528055    0.413443    0.000000
  O     -2.819045   -0.165656    0.000000
  O     -2.503459   -2.387142    0.000000
  H      4.011459    2.880818    0.000000
  H      4.036027    1.354785    0.880787
  H      4.036027    1.354785   -0.880787
  H     -0.205394   -1.600622    0.869012
  H     -0.205394   -1.600622   -0.869012
  H      1.729349    2.370062    0.873830
  H      1.729349    2.370062   -0.873830
  H     -0.381981    0.918569    0.871350
  H     -0.381981    0.918569   -0.871350
  H      1.904359   -0.128002   -0.874719
  H      1.904359   -0.128002    0.874719
  H     -3.471375   -2.353691    0.000000

 Total Charge           Charge          ....    0
 Multiplicity           Mult            ....    1
 Number of Electrons    NEL             ....   64
 Basis Dimension        Dim             .... 1192

ORBITAL ENERGIES
----------------

  NO   OCC          E(Eh)            E(eV)
   0   2.0000     -20.607943      -560.7706
   1   2.0000     -20.546879      -559.1090
   2   2.0000     -11.383817      -309.7694
   3   2.0000     -11.245400      -306.0029
   4   2.0000     -11.224817      -305.4428
   5   2.0000     -11.221790      -305.3604
   6   2.0000     -11.219490      -305.2979
   7   2.0000     -11.212361      -305.1039
   8   2.0000      -1.462248       -39.7898
   9   2.0000      -1.360118       -37.0107
  10   2.0000      -1.096626       -29.8407
  11   2.0000      -1.043132       -28.3851
  12   2.0000      -0.959483       -26.1089
  13   2.0000      -0.865765       -23.5587
  14   2.0000      -0.800585       -21.7850
  15   2.0000      -0.787003       -21.4154
  16   2.0000      -0.702841       -19.1253
  17   2.0000      -0.684228       -18.6188
  18   2.0000      -0.670000       -18.2316
  19   2.0000      -0.636502       -17.3201
  20   2.0000      -0.597735       -16.2652
  21   2.0000      -0.592093       -16.1117
  22   2.0000      -0.571556       -15.5528
  23   2.0000      -0.566617       -15.4184
  24   2.0000      -0.537629       -14.6296
  25   2.0000      -0.512070       -13.9341
  26   2.0000      -0.487944       -13.2776
  27   2.0000      -0.484281       -13.1780
  28   2.0000      -0.474023       -12.8988
  29   2.0000      -0.468911       -12.7597
  30   2.0000      -0.467620       -12.7246
  31   2.0000      -0.448221       -12.1967
  32   0.0000       0.024614         0.6698
  33   0.0000       0.027873         0.7585
  34   0.0000       0.033507         0.9118
  35   0.0000       0.034008         0.9254
  36   0.0000       0.041169         1.1203

MULLIKEN ATOMIC CHARGES
-----------------------
   0 C :    1.188966
   1 C :   -0.914449
   2 C :   -0.719555
   3 C :   -0.483042
   4 C :   -0.109946
   5 C :   -0.230547
   6 O :   -0.828384
   7 O :   -0.739540
   8 H :    0.266766
   9 H :    0.226735
  10 H :    0.226736
  11 H :    0.208454
  12 H :    0.208395
  13 H :    0.229005
  14 H :    0.229009
  15 H :    0.217849
  16 H :    0.217733
  17 H :    0.236190
  18 H :    0.236086
  19 H :    0.333539
Sum of atomic charges:   -0.0000000

LOEWDIN ATOMIC CHARGES
----------------------
   0 C :   -1.003577
   1 C :    0.927793
   2 C :    0.459840
   3 C :    0.511355
   4 C :    0.493378
   5 C :    0.511532
   6 O :    0.716469
   7 O :    1.250256
   8 H :   -0.284086
   9 H :   -0.285089
  10 H :   -0.285089
  11 H :   -0.284388
  12 H :   -0.284388
  13 H :   -0.271947
  14 H :   -0.271947
  15 H :   -0.272239
  16 H :   -0.272239
  17 H :   -0.267723
  18 H :   -0.267723
  19 H :   -0.820188

  Mayer bond orders larger than 0.100000
B(  0-C ,  2-C ) :   1.3736 B(  0-C ,  4-C ) :  -0.3258 B(  0-C ,  6-O ) :   1.2924
B(  0-C ,  7-O ) :   0.7268 B(  1-C ,  3-C ) :   1.0324 B(  1-C ,  8-H ) :   1.0215
B(  1-C ,  9-H ) :   0.9545 B(  1-C , 10-H ) :   0.9545 B(  2-C ,  4-C ) :   0.9847
B(  2-C ,  5-C ) :  -0.1245 B(  2-C ,  6-O ) :   0.2253 B(  2-C , 11-H ) :   0.9047
B(  2-C , 12-H ) :   0.9047 B(  3-C ,  5-C ) :   0.9740 B(  3-C , 13-H ) :   0.8811
B(  3-C , 14-H ) :   0.8811 B(  4-C ,  5-C ) :   1.0232 B(  4-C ,  6-O ) :  -0.1328
B(  4-C , 15-H ) :   0.8484 B(  4-C , 16-H ) :   0.8485 B(  5-C , 17-H ) :   0.8636
B(  5-C , 18-H ) :   0.8636 B(  7-O , 19-H ) :   0.9258

MP2 TOTAL ENERGY:     -385.732571939 Eh
FINAL SINGLE POINT ENERGY      -385.732571939148

DIPOLE MOMENT
-------------
                                X             Y             Z
Electronic contribution:    -14.58381      -6.97421      -0.00000
Nuclear contribution   :     15.12899       6.53597       0.00000
                        -----------------------------------------
Total Dipole Moment    :      0.54518      -0.43824      -0.00000
                        -----------------------------------------
Magnitude (a.u.)       :      0.69948
Magnitude (Debye)      :      1.77793

Rotational constants in cm-1:     0.247796     0.021541     0.020184
Rotational constants in MHz :  7428.744570   645.789082   605.093413

                             ****ORCA TERMINATED NORMALLY****
TOTAL RUN TIME: 0 days 1 hours 8 minutes 30 seconds 461 msec
