                         Program Version 5.0.4 -  RELEASE  -
|  1> !ri-mp2 aug-cc-pvqz aug-cc-pvqz/c tightscf
|  2> %pal nprocs 16 end
|  3>
|  4> * xyz 0 1
|  5> C     0.000000     1.388365       0.000000
|  6> C     1.202359     0.694182       0.000000
|  7> C    -1.202359     0.694182       0.000000
|  8> C     1.202359    -0.694182       0.000000
|  9> C    -1.202359    -0.694182       0.000000
| 10> C     0.000000    -1.388365       0.000000
| 11> F     0.000000     2.719949       0.000000
| 12> F     2.355545     1.359975       0.000000
| 13> F    -2.355545     1.359975       0.000000
| 14> F     2.355545    -1.359975       0.000000
| 15> F    -2.355545    -1.359975       0.000000
| 16> F     0.000000    -2.719949       0.000000
| 17> *
| 18>
| 19>                          ****END OF INPUT****

CARTESIAN COORDINATES (ANGSTROEM)
---------------------------------
  C      0.000000    1.388365    0.000000
  C      1.202359    0.694182    0.000000
  C     -1.202359    0.694182    0.000000
  C      1.202359   -0.694182    0.000000
  C     -1.202359   -0.694182    0.000000
  C      0.000000   -1.388365    0.000000
  F      0.000000    2.719949    0.000000
  F      2.355545    1.359975    0.000000
  F     -2.355545    1.359975    0.000000
  F      2.355545   -1.359975    0.000000
  F     -2.355545   -1.359975    0.000000
  F      0.000000   -2.719949    0.000000

 Total Charge           Charge          ....    0
 Multiplicity           Mult            ....    1
 Number of Electrons    NEL             ....   90
 Basis Dimension        Dim             ....  960

ORBITAL ENERGIES
----------------

  NO   OCC          E(Eh)            E(eV)
   0   2.0000     -26.358814      -717.2598
   1   2.0000     -26.358813      -717.2598
   2   2.0000     -26.358813      -717.2598
   3   2.0000     -26.358812      -717.2597
   4   2.0000     -26.358811      -717.2597
   5   2.0000     -26.358810      -717.2597
   6   2.0000     -11.389266      -309.9177
   7   2.0000     -11.388676      -309.9016
   8   2.0000     -11.388676      -309.9016
   9   2.0000     -11.387412      -309.8672
  10   2.0000     -11.387412      -309.8672
  11   2.0000     -11.386789      -309.8503
  12   2.0000      -1.693836       -46.0916
  13   2.0000      -1.686400       -45.8893
  14   2.0000      -1.686400       -45.8893
  15   2.0000      -1.672676       -45.5158
  16   2.0000      -1.672675       -45.5158
  17   2.0000      -1.665906       -45.3316
  18   2.0000      -1.232718       -33.5440
  19   2.0000      -1.089079       -29.6353
  20   2.0000      -1.089079       -29.6353
  21   2.0000      -0.940203       -25.5842
  22   2.0000      -0.940203       -25.5842
  23   2.0000      -0.861070       -23.4309
  24   2.0000      -0.837014       -22.7763
  25   2.0000      -0.828567       -22.5464
  26   2.0000      -0.780135       -21.2285
  27   2.0000      -0.776758       -21.1367
  28   2.0000      -0.776758       -21.1367
  29   2.0000      -0.775721       -21.1084
  30   2.0000      -0.775720       -21.1084
  31   2.0000      -0.753586       -20.5061
  32   2.0000      -0.753586       -20.5061
  33   2.0000      -0.729266       -19.8443
  34   2.0000      -0.729266       -19.8443
  35   2.0000      -0.721590       -19.6355
  36   2.0000      -0.708700       -19.2847
  37   2.0000      -0.708700       -19.2847
  38   2.0000      -0.698153       -18.9977
  39   2.0000      -0.640077       -17.4174
  40   2.0000      -0.640077       -17.4174
  41   2.0000      -0.605412       -16.4741
  42   2.0000      -0.546255       -14.8644
  43   2.0000      -0.390704       -10.6316
  44   2.0000      -0.390704       -10.6316
  45   0.0000       0.037583         1.0227
  46   0.0000       0.045903         1.2491
  47   0.0000       0.045903         1.2491
  48   0.0000       0.064510         1.7554
  49   0.0000       0.064511         1.7554

MULLIKEN ATOMIC CHARGES
-----------------------
   0 C :    0.717787
   1 C :    0.717801
   2 C :    0.717794
   3 C :    0.717786
   4 C :    0.717828
   5 C :    0.717767
   6 F :   -0.717804
   7 F :   -0.717795
   8 F :   -0.717799
   9 F :   -0.717781
  10 F :   -0.717781
  11 F :   -0.717803
Sum of atomic charges:    0.0000000

LOEWDIN ATOMIC CHARGES
----------------------
   0 C :   -0.797463
   1 C :   -0.797463
   2 C :   -0.797463
   3 C :   -0.797463
   4 C :   -0.797463
   5 C :   -0.797463
   6 F :    0.797463
   7 F :    0.797463
   8 F :    0.797463
   9 F :    0.797463
  10 F :    0.797463
  11 F :    0.797463

  Mayer bond orders larger than 0.100000
B(  0-C ,  1-C ) :   1.4833 B(  0-C ,  2-C ) :   1.4833 B(  0-C ,  5-C ) :   0.1443
B(  0-C ,  6-F ) :   0.2678 B(  1-C ,  3-C ) :   1.4833 B(  1-C ,  4-C ) :   0.1443
B(  1-C ,  7-F ) :   0.2678 B(  2-C ,  3-C ) :   0.1443 B(  2-C ,  4-C ) :   1.4832
B(  2-C ,  8-F ) :   0.2678 B(  3-C ,  5-C ) :   1.4833 B(  3-C ,  9-F ) :   0.2678
B(  4-C ,  5-C ) :   1.4833 B(  4-C , 10-F ) :   0.2678 B(  5-C , 11-F ) :   0.2678

MP2 TOTAL ENERGY:     -826.744930447 Eh
FINAL SINGLE POINT ENERGY      -826.744930446703

DIPOLE MOMENT
-------------
                                X             Y             Z
Electronic contribution:     -0.00000       0.00000      -0.00000
Nuclear contribution   :      0.00000       0.00000       0.00000
                        -----------------------------------------
Total Dipole Moment    :     -0.00000       0.00000      -0.00000
                        -----------------------------------------
Magnitude (a.u.)       :      0.00000
Magnitude (Debye)      :      0.00000

Rotational constants in cm-1:     0.034326     0.034326     0.017163
Rotational constants in MHz :  1029.067605  1029.067423   514.533757

                             ****ORCA TERMINATED NORMALLY****
TOTAL RUN TIME: 0 days 0 hours 40 minutes 29 seconds 210 msec
