                         Program Version 5.0.4 -  RELEASE  -
|  1> !ri-mp2 aug-cc-pvqz aug-cc-pvqz/c tightscf
|  2> %pal nprocs 16 end
|  3> %maxcore 3800
|  4>
|  5> * xyz 0 1
|  6> C     0.000000     3.833474   -0.352624
|  7> C     0.000000    -3.833474   -0.352624
|  8> C     0.000000     2.560916    0.492939
|  9> C     0.000000    -2.560916    0.492939
| 10> C     0.000000     1.279918   -0.342345
| 11> C     0.000000    -1.279918   -0.342345
| 12> C     0.000000     0.000000    0.494121
| 13> H     0.000000     4.728440    0.271238
| 14> H    -0.880595     3.878602   -0.996848
| 15> H     0.880595     3.878602   -0.996848
| 16> H    -0.880595    -3.878602   -0.996848
| 17> H     0.880595    -3.878602   -0.996848
| 18> H     0.000000    -4.728440    0.271238
| 19> H    -0.873897     2.560727    1.151361
| 20> H     0.873897     2.560727    1.151361
| 21> H     0.873897    -2.560727    1.151361
| 22> H    -0.873897    -2.560727    1.151361
| 23> H    -0.874400     1.280845   -1.001938
| 24> H     0.874400     1.280845   -1.001938
| 25> H     0.874400    -1.280845   -1.001938
| 26> H    -0.874400    -1.280845   -1.001938
| 27> H     0.874450     0.000000    1.153429
| 28> H    -0.874450     0.000000    1.153429
| 29> *
| 30>
| 31>                          ****END OF INPUT****

CARTESIAN COORDINATES (ANGSTROEM)
---------------------------------
  C      0.000000    3.833474   -0.352624
  C      0.000000   -3.833474   -0.352624
  C      0.000000    2.560916    0.492939
  C      0.000000   -2.560916    0.492939
  C      0.000000    1.279918   -0.342345
  C      0.000000   -1.279918   -0.342345
  C      0.000000    0.000000    0.494121
  H      0.000000    4.728440    0.271238
  H     -0.880595    3.878602   -0.996848
  H      0.880595    3.878602   -0.996848
  H     -0.880595   -3.878602   -0.996848
  H      0.880595   -3.878602   -0.996848
  H      0.000000   -4.728440    0.271238
  H     -0.873897    2.560727    1.151361
  H      0.873897    2.560727    1.151361
  H      0.873897   -2.560727    1.151361
  H     -0.873897   -2.560727    1.151361
  H     -0.874400    1.280845   -1.001938
  H      0.874400    1.280845   -1.001938
  H      0.874400   -1.280845   -1.001938
  H     -0.874400   -1.280845   -1.001938
  H      0.874450    0.000000    1.153429
  H     -0.874450    0.000000    1.153429

 Total Charge           Charge          ....    0
 Multiplicity           Mult            ....    1
 Number of Electrons    NEL             ....   58
 Basis Dimension        Dim             .... 1296

ORBITAL ENERGIES
----------------

  NO   OCC          E(Eh)            E(eV)
   0   2.0000     -11.213111      -305.1243
   1   2.0000     -11.213110      -305.1242
   2   2.0000     -11.211219      -305.0728
   3   2.0000     -11.210784      -305.0609
   4   2.0000     -11.210355      -305.0493
   5   2.0000     -11.207344      -304.9673
   6   2.0000     -11.207344      -304.9673
   7   2.0000      -1.086977       -29.5782
   8   2.0000      -1.049655       -28.5626
   9   2.0000      -0.990254       -26.9462
  10   2.0000      -0.915006       -24.8986
  11   2.0000      -0.836567       -22.7641
  12   2.0000      -0.787007       -21.4156
  13   2.0000      -0.784152       -21.3379
  14   2.0000      -0.652896       -17.7662
  15   2.0000      -0.620636       -16.8884
  16   2.0000      -0.590890       -16.0789
  17   2.0000      -0.581508       -15.8236
  18   2.0000      -0.573667       -15.6103
  19   2.0000      -0.552256       -15.0277
  20   2.0000      -0.523147       -14.2356
  21   2.0000      -0.513129       -13.9630
  22   2.0000      -0.502578       -13.6758
  23   2.0000      -0.482771       -13.1369
  24   2.0000      -0.472604       -12.8602
  25   2.0000      -0.461504       -12.5582
  26   2.0000      -0.456965       -12.4347
  27   2.0000      -0.456120       -12.4117
  28   2.0000      -0.433865       -11.8061
  29   0.0000       0.027028         0.7355
  30   0.0000       0.027632         0.7519
  31   0.0000       0.032492         0.8842
  32   0.0000       0.033636         0.9153
  33   0.0000       0.040946         1.1142

MULLIKEN ATOMIC CHARGES
-----------------------
   0 C :   -0.907736
   1 C :   -0.907760
   2 C :   -0.512005
   3 C :   -0.511999
   4 C :   -0.300561
   5 C :   -0.300573
   6 C :   -0.309652
   7 H :    0.263399
   8 H :    0.224218
   9 H :    0.224215
  10 H :    0.224229
  11 H :    0.224226
  12 H :    0.263384
  13 H :    0.222913
  14 H :    0.222982
  15 H :    0.222964
  16 H :    0.222996
  17 H :    0.228327
  18 H :    0.228318
  19 H :    0.228320
  20 H :    0.228354
  21 H :    0.260776
  22 H :    0.260665
Sum of atomic charges:    0.0000000

LOEWDIN ATOMIC CHARGES
----------------------
   0 C :    0.925648
   1 C :    0.925648
   2 C :    0.508383
   3 C :    0.508383
   4 C :    0.512044
   5 C :    0.512044
   6 C :    0.521822
   7 H :   -0.285095
   8 H :   -0.285843
   9 H :   -0.285843
  10 H :   -0.285843
  11 H :   -0.285843
  12 H :   -0.285095
  13 H :   -0.273640
  14 H :   -0.273640
  15 H :   -0.273640
  16 H :   -0.273640
  17 H :   -0.268321
  18 H :   -0.268321
  19 H :   -0.268321
  20 H :   -0.268321
  21 H :   -0.266284
  22 H :   -0.266284

  Mayer bond orders larger than 0.100000
B(  0-C ,  2-C ) :   1.0528 B(  0-C ,  4-C ) :  -0.1314 B(  0-C ,  7-H ) :   1.0278
B(  0-C ,  8-H ) :   0.9563 B(  0-C ,  9-H ) :   0.9563 B(  1-C ,  3-C ) :   1.0528
B(  1-C ,  5-C ) :  -0.1314 B(  1-C , 10-H ) :   0.9563 B(  1-C , 11-H ) :   0.9563
B(  1-C , 12-H ) :   1.0278 B(  2-C ,  4-C ) :   1.0003 B(  2-C ,  7-H ) :  -0.1008
B(  2-C , 13-H ) :   0.8845 B(  2-C , 14-H ) :   0.8844 B(  3-C ,  5-C ) :   1.0002
B(  3-C , 12-H ) :  -0.1008 B(  3-C , 15-H ) :   0.8844 B(  3-C , 16-H ) :   0.8844
B(  4-C ,  5-C ) :  -0.1073 B(  4-C ,  6-C ) :   1.0674 B(  4-C , 17-H ) :   0.8658
B(  4-C , 18-H ) :   0.8658 B(  5-C ,  6-C ) :   1.0674 B(  5-C , 19-H ) :   0.8658
B(  5-C , 20-H ) :   0.8658 B(  6-C , 21-H ) :   0.8369 B(  6-C , 22-H ) :   0.8369

MP2 TOTAL ENERGY:     -275.840813628 Eh
FINAL SINGLE POINT ENERGY      -275.840813628187

DIPOLE MOMENT
-------------
                                X             Y             Z
Electronic contribution:      0.00000      -0.00000       0.62056
Nuclear contribution   :      0.00000       0.00000      -0.58741
                        -----------------------------------------
Total Dipole Moment    :      0.00000      -0.00000       0.03315
                        -----------------------------------------
Magnitude (a.u.)       :      0.03315
Magnitude (Debye)      :      0.08427

Rotational constants in cm-1:     0.404951     0.024099     0.023430
Rotational constants in MHz : 12140.115090   722.460539   702.409628

                             ****ORCA TERMINATED NORMALLY****
TOTAL RUN TIME: 0 days 1 hours 18 minutes 43 seconds 541 msec
