                         Program Version 5.0.4 -  RELEASE  -
|  1> !ri-mp2 aug-cc-pvqz aug-cc-pvqz/c tightscf
|  2> %pal nprocs 16 end
|  3>
|  4> * xyz 0 1
|  5> O      1.964875   -1.028829    0.000000
|  6> N     -2.725203   -0.414146    0.000000
|  7> N      0.766731    2.336947   -0.000002
|  8> C     -0.171149   -0.063923    0.000000
|  9> C      0.638308   -1.147035    0.000000
| 10> C     -1.584579   -0.252310    0.000000
| 11> C      0.348128    1.264198   -0.000001
| 12> H      2.392732   -1.891508    0.000000
| 13> H      0.213330   -2.143050    0.000002
| 14> *
| 15>
| 16>                          ****END OF INPUT****

CARTESIAN COORDINATES (ANGSTROEM)
---------------------------------
  O      1.964875   -1.028829    0.000000
  N     -2.725203   -0.414146    0.000000
  N      0.766731    2.336947   -0.000002
  C     -0.171149   -0.063923    0.000000
  C      0.638308   -1.147035    0.000000
  C     -1.584579   -0.252310    0.000000
  C      0.348128    1.264198   -0.000001
  H      2.392732   -1.891508    0.000000
  H      0.213330   -2.143050    0.000002

 Total Charge           Charge          ....    0
 Multiplicity           Mult            ....    1
 Number of Electrons    NEL             ....   48
 Basis Dimension        Dim             ....  652

ORBITAL ENERGIES
----------------

  NO   OCC          E(Eh)            E(eV)
   0   2.0000     -20.669612      -562.4487
   1   2.0000     -15.590303      -424.2337
   2   2.0000     -15.588526      -424.1854
   3   2.0000     -11.399339      -310.1918
   4   2.0000     -11.328436      -308.2624
   5   2.0000     -11.298498      -307.4478
   6   2.0000     -11.294554      -307.3404
   7   2.0000      -1.493323       -40.6354
   8   2.0000      -1.250943       -34.0399
   9   2.0000      -1.234619       -33.5957
  10   2.0000      -1.140889       -31.0452
  11   2.0000      -0.941721       -25.6255
  12   2.0000      -0.856425       -23.3045
  13   2.0000      -0.765043       -20.8179
  14   2.0000      -0.756350       -20.5813
  15   2.0000      -0.663999       -18.0683
  16   2.0000      -0.619541       -16.8586
  17   2.0000      -0.581044       -15.8110
  18   2.0000      -0.573412       -15.6033
  19   2.0000      -0.560549       -15.2533
  20   2.0000      -0.499491       -13.5918
  21   2.0000      -0.496918       -13.5218
  22   2.0000      -0.483204       -13.1487
  23   2.0000      -0.390153       -10.6166
  24   0.0000       0.002431         0.0662
  25   0.0000       0.029268         0.7964
  26   0.0000       0.037922         1.0319
  27   0.0000       0.049938         1.3589
  28   0.0000       0.058662         1.5963

MULLIKEN ATOMIC CHARGES
-----------------------
   0 O :   -0.682326
   1 N :   -0.666216
   2 N :   -0.647137
   3 C :   -0.353046
   4 C :    0.361584
   5 C :    0.555500
   6 C :    0.597995
   7 H :    0.342678
   8 H :    0.490969
Sum of atomic charges:    0.0000000

LOEWDIN ATOMIC CHARGES
----------------------
   0 O :    1.295253
   1 N :    0.413361
   2 N :    0.418785
   3 C :   -0.306983
   4 C :   -0.012938
   5 C :   -0.379649
   6 C :   -0.370593
   7 H :   -0.744305
   8 H :   -0.312930

  Mayer bond orders larger than 0.100000
B(  0-O ,  3-C ) :   0.2021 B(  0-O ,  4-C ) :   0.8692 B(  0-O ,  7-H ) :   0.9195
B(  1-N ,  5-C ) :   2.4495 B(  2-N ,  6-C ) :   2.4866 B(  3-C ,  4-C ) :   1.4651
B(  3-C ,  5-C ) :   1.2386 B(  3-C ,  6-C ) :   1.1833 B(  4-C ,  5-C ) :  -0.1918
B(  4-C ,  8-H ) :   0.7563

MP2 TOTAL ENERGY:     -337.798130456 Eh
FINAL SINGLE POINT ENERGY      -337.798130455880

DIPOLE MOMENT
-------------
                                X             Y             Z
Electronic contribution:     -1.03675       1.46410      -0.00000
Nuclear contribution   :      2.51598      -3.87093       0.00000
                        -----------------------------------------
Total Dipole Moment    :      1.47923      -2.40683       0.00000
                        -----------------------------------------
Magnitude (a.u.)       :      2.82505
Magnitude (Debye)      :      7.18071

Rotational constants in cm-1:     0.120950     0.077697     0.047307
Rotational constants in MHz :  3625.988866  2329.299603  1418.237667

                             ****ORCA TERMINATED NORMALLY****
TOTAL RUN TIME: 0 days 0 hours 14 minutes 16 seconds 992 msec
