                         Program Version 5.0.4 -  RELEASE  -
|  1> !ri-mp2 aug-cc-pvqz aug-cc-pvqz/c tightscf
|  2> %pal nprocs 16 end
|  3>
|  4> * xyz 0 1
|  5> C     -0.521080    0.491811    0.031617
|  6> O     -1.757960   -0.126244   -0.064518
|  7> O      0.469147   -0.535551   -0.126038
|  8> O      1.752362    0.137407   -0.041874
|  9> H     -1.897823   -0.685361    0.707197
| 10> H      2.117970   -0.266792    0.756685
| 11> H     -0.442357    1.205959   -0.787605
| 12> H     -0.359703    0.990434    0.993457
| 13> *
| 14>
| 15>                          ****END OF INPUT****

CARTESIAN COORDINATES (ANGSTROEM)
---------------------------------
  C     -0.521080    0.491811    0.031617
  O     -1.757960   -0.126244   -0.064518
  O      0.469147   -0.535551   -0.126038
  O      1.752362    0.137407   -0.041874
  H     -1.897823   -0.685361    0.707197
  H      2.117970   -0.266792    0.756685
  H     -0.442357    1.205959   -0.787605
  H     -0.359703    0.990434    0.993457

 Total Charge           Charge          ....    0
 Multiplicity           Mult            ....    1
 Number of Electrons    NEL             ....   34
 Basis Dimension        Dim             ....  504

ORBITAL ENERGIES
----------------

  NO   OCC          E(Eh)            E(eV)
   0   2.0000     -20.630842      -561.3937
   1   2.0000     -20.627904      -561.3138
   2   2.0000     -20.582253      -560.0716
   3   2.0000     -11.343176      -308.6635
   4   2.0000      -1.484773       -40.4027
   5   2.0000      -1.393970       -37.9319
   6   2.0000      -1.219608       -33.1872
   7   2.0000      -0.913742       -24.8642
   8   2.0000      -0.743197       -20.2234
   9   2.0000      -0.727992       -19.8097
  10   2.0000      -0.682145       -18.5621
  11   2.0000      -0.634202       -17.2575
  12   2.0000      -0.610406       -16.6100
  13   2.0000      -0.541176       -14.7262
  14   2.0000      -0.513510       -13.9733
  15   2.0000      -0.497133       -13.5277
  16   2.0000      -0.457104       -12.4384
  17   0.0000       0.021966         0.5977
  18   0.0000       0.035582         0.9682
  19   0.0000       0.041536         1.1303
  20   0.0000       0.045166         1.2290
  21   0.0000       0.083446         2.2707

MULLIKEN ATOMIC CHARGES
-----------------------
   0 C :    0.277414
   1 O :   -0.746958
   2 O :   -0.368011
   3 O :   -0.428017
   4 H :    0.368252
   5 H :    0.351990
   6 H :    0.300578
   7 H :    0.244752
Sum of atomic charges:   -0.0000000

LOEWDIN ATOMIC CHARGES
----------------------
   0 C :   -0.260437
   1 O :    1.234121
   2 O :    0.512325
   3 O :    0.912801
   4 H :   -0.792185
   5 H :   -0.898125
   6 H :   -0.361869
   7 H :   -0.346631

  Mayer bond orders larger than 0.100000
B(  0-C ,  1-O ) :   0.8745 B(  0-C ,  2-O ) :   0.7293 B(  0-C ,  6-H ) :   0.8799
B(  0-C ,  7-H ) :   0.9115 B(  1-O ,  4-H ) :   0.8599 B(  2-O ,  3-O ) :   0.8455
B(  3-O ,  5-H ) :   0.9070

MP2 TOTAL ENERGY:     -265.766368591 Eh
FINAL SINGLE POINT ENERGY      -265.766368591037

DIPOLE MOMENT
-------------
                                X             Y             Z
Electronic contribution:      0.68238      -1.12429      -0.51655
Nuclear contribution   :     -0.57294       1.23239       1.66124
                        -----------------------------------------
Total Dipole Moment    :      0.10944       0.10810       1.14469
                        -----------------------------------------
Magnitude (a.u.)       :      1.15498
Magnitude (Debye)      :      2.93572

Rotational constants in cm-1:     1.200164     0.144325     0.134963
Rotational constants in MHz : 35980.008682  4326.768184  4046.096188

                             ****ORCA TERMINATED NORMALLY****
TOTAL RUN TIME: 0 days 0 hours 4 minutes 13 seconds 458 msec
