                         Program Version 5.0.4 -  RELEASE  -
|  1> !ri-mp2 aug-cc-pvqz aug-cc-pvqz/c tightscf
|  2> %pal nprocs 16 end
|  3>
|  4> * xyz 0 1
|  5> C      0.000000    0.000000      -0.496902
|  6> N      0.000000    0.000000       0.649125
|  7> H      0.000000    0.000000      -1.562463
|  8> *
|  9>
| 10>                          ****END OF INPUT****

CARTESIAN COORDINATES (ANGSTROEM)
---------------------------------
  C      0.000000    0.000000   -0.496902
  N      0.000000    0.000000    0.649125
  H      0.000000    0.000000   -1.562463

 Total Charge           Charge          ....    0
 Multiplicity           Mult            ....    1
 Number of Electrons    NEL             ....   14
 Basis Dimension        Dim             ....  206

ORBITAL ENERGIES
----------------

  NO   OCC          E(Eh)            E(eV)
   0   2.0000     -15.595837      -424.3843
   1   2.0000     -11.288577      -307.1778
   2   2.0000      -1.239891       -33.7392
   3   2.0000      -0.812145       -22.0996
   4   2.0000      -0.581895       -15.8342
   5   2.0000      -0.499134       -13.5821
   6   2.0000      -0.499134       -13.5821
   7   0.0000       0.020563         0.5596
   8   0.0000       0.062673         1.7054
   9   0.0000       0.063580         1.7301
  10   0.0000       0.063580         1.7301
  11   0.0000       0.113025         3.0756

MULLIKEN ATOMIC CHARGES
-----------------------
   0 C :   -0.098960
   1 N :   -0.506903
   2 H :    0.605863
Sum of atomic charges:    0.0000000

LOEWDIN ATOMIC CHARGES
----------------------
   0 C :    0.138269
   1 N :    0.322159
   2 H :   -0.460428

  Mayer bond orders larger than 0.100000
B(  0-C ,  1-N ) :   2.7823 B(  0-C ,  2-H ) :   0.5931

MP2 TOTAL ENERGY:      -93.284090864 Eh
FINAL SINGLE POINT ENERGY       -93.284090863750

DIPOLE MOMENT
-------------
                                X             Y             Z
Electronic contribution:     -0.00000       0.00000       0.22284
Nuclear contribution   :      0.00000       0.00000      -1.51638
                        -----------------------------------------
Total Dipole Moment    :     -0.00000       0.00000      -1.29354
                        -----------------------------------------
Magnitude (a.u.)       :      1.29354
Magnitude (Debye)      :      3.28791

Rotational constants in cm-1:     0.000000     1.499827     1.499827
Rotational constants in MHz :     0.000000 44963.685360 44963.685360

                             ****ORCA TERMINATED NORMALLY****
TOTAL RUN TIME: 0 days 0 hours 0 minutes 19 seconds 649 msec
