                         Program Version 5.0.4 -  RELEASE  -
|  1> !ri-mp2 aug-cc-pvqz aug-cc-pvqz/c tightscf
|  2> %pal nprocs 16 end
|  3>
|  4> * xyz 0 1
|  5> C      3.128267   -0.342469   -0.000004
|  6> C      1.993557    0.059429   -0.000007
|  7> C      0.675269    0.570452   -0.000011
|  8> C     -0.435926   -0.189337    0.000004
|  9> C     -1.776186    0.350545    0.000000
| 10> C     -2.884737   -0.395944    0.000015
| 11> H      4.125512   -0.705141   -0.000001
| 12> H      0.578120    1.651724   -0.000027
| 13> H     -0.335274   -1.269130    0.000020
| 14> H     -1.864320    1.432522   -0.000016
| 15> H     -2.837239   -1.477747    0.000031
| 16> H     -3.868261    0.051719    0.000011
| 17> *
| 18>
| 19>                          ****END OF INPUT****

CARTESIAN COORDINATES (ANGSTROEM)
---------------------------------
  C      3.128267   -0.342469   -0.000004
  C      1.993557    0.059429   -0.000007
  C      0.675269    0.570452   -0.000011
  C     -0.435926   -0.189337    0.000004
  C     -1.776186    0.350545    0.000000
  C     -2.884737   -0.395944    0.000015
  H      4.125512   -0.705141   -0.000001
  H      0.578120    1.651724   -0.000027
  H     -0.335274   -1.269130    0.000020
  H     -1.864320    1.432522   -0.000016
  H     -2.837239   -1.477747    0.000031
  H     -3.868261    0.051719    0.000011

 Total Charge           Charge          ....    0
 Multiplicity           Mult            ....    1
 Number of Electrons    NEL             ....   42
 Basis Dimension        Dim             ....  756

ORBITAL ENERGIES
----------------

  NO   OCC          E(Eh)            E(eV)
   0   2.0000     -11.258017      -306.3462
   1   2.0000     -11.254779      -306.2581
   2   2.0000     -11.246978      -306.0458
   3   2.0000     -11.239252      -305.8356
   4   2.0000     -11.238154      -305.8057
   5   2.0000     -11.227894      -305.5265
   6   2.0000      -1.119398       -30.4604
   7   2.0000      -1.055997       -28.7351
   8   2.0000      -0.993565       -27.0363
   9   2.0000      -0.864897       -23.5350
  10   2.0000      -0.773743       -21.0546
  11   2.0000      -0.728217       -19.8158
  12   2.0000      -0.675018       -18.3682
  13   2.0000      -0.657127       -17.8813
  14   2.0000      -0.585069       -15.9205
  15   2.0000      -0.568756       -15.4766
  16   2.0000      -0.514029       -13.9874
  17   2.0000      -0.484819       -13.1926
  18   2.0000      -0.414698       -11.2845
  19   2.0000      -0.396146       -10.7797
  20   2.0000      -0.311948        -8.4885
  21   0.0000       0.024633         0.6703
  22   0.0000       0.027571         0.7503
  23   0.0000       0.031201         0.8490
  24   0.0000       0.040625         1.1055
  25   0.0000       0.050529         1.3750

MULLIKEN ATOMIC CHARGES
-----------------------
   0 C :   -0.816071
   1 C :   -0.089680
   2 C :   -0.019462
   3 C :   -0.384089
   4 C :   -0.471129
   5 C :   -0.778860
   6 H :    0.414548
   7 H :    0.492297
   8 H :    0.459897
   9 H :    0.468889
  10 H :    0.409290
  11 H :    0.314368
Sum of atomic charges:    0.0000000

LOEWDIN ATOMIC CHARGES
----------------------
   0 C :    0.558356
   1 C :    0.030825
   2 C :    0.242373
   3 C :    0.296848
   4 C :    0.313300
   5 C :    0.794503
   6 H :   -0.466619
   7 H :   -0.366777
   8 H :   -0.342694
   9 H :   -0.352324
  10 H :   -0.354574
  11 H :   -0.353218

  Mayer bond orders larger than 0.100000
B(  0-C ,  1-C ) :   2.6281 B(  0-C ,  2-C ) :  -0.2570 B(  0-C ,  6-H ) :   1.0110
B(  1-C ,  2-C ) :   1.1024 B(  1-C ,  3-C ) :  -0.2968 B(  1-C ,  6-H ) :  -0.1001
B(  2-C ,  3-C ) :   1.4212 B(  2-C ,  4-C ) :  -0.3013 B(  2-C ,  7-H ) :   0.7074
B(  3-C ,  4-C ) :   0.9343 B(  3-C ,  5-C ) :  -0.2450 B(  3-C ,  8-H ) :   0.7257
B(  4-C ,  5-C ) :   1.8094 B(  4-C ,  9-H ) :   0.7412 B(  5-C , 10-H ) :   0.8126
B(  5-C , 11-H ) :   1.0145

MP2 TOTAL ENERGY:     -231.697638932 Eh
FINAL SINGLE POINT ENERGY      -231.697638932244

DIPOLE MOMENT
-------------
                                X             Y             Z
Electronic contribution:      3.91193       0.30309      -0.00002
Nuclear contribution   :     -4.24261      -0.31915       0.00002
                        -----------------------------------------
Total Dipole Moment    :     -0.33068      -0.01605       0.00000
                        -----------------------------------------
Magnitude (a.u.)       :      0.33107
Magnitude (Debye)      :      0.84151

Rotational constants in cm-1:     0.921432     0.047491     0.045163
Rotational constants in MHz : 27623.828338  1423.750748  1353.966406

                             ****ORCA TERMINATED NORMALLY****
TOTAL RUN TIME: 0 days 0 hours 18 minutes 50 seconds 703 msec
