                         Program Version 5.0.4 -  RELEASE  -
|  1> !ri-mp2 aug-cc-pvqz aug-cc-pvqz/c tightscf
|  2> %pal nprocs 16 end
|  3>
|  4> * xyz 0 1
|  5> S     -0.560952   -0.610114    0.012357
|  6> O     -1.476085    0.795532   -0.118724
|  7> C      1.020613   -0.035441    0.000928
|  8> C      2.177382    0.307670   -0.001983
|  9> H     -1.598128    1.151695    0.770681
| 10> H      3.194069    0.612498   -0.012273
| 11> *
| 12>
| 13>                          ****END OF INPUT****

CARTESIAN COORDINATES (ANGSTROEM)
---------------------------------
  S     -0.560952   -0.610114    0.012357
  O     -1.476085    0.795532   -0.118724
  C      1.020613   -0.035441    0.000928
  C      2.177382    0.307670   -0.001983
  H     -1.598128    1.151695    0.770681
  H      3.194069    0.612498   -0.012273

 Total Charge           Charge          ....    0
 Multiplicity           Mult            ....    1
 Number of Electrons    NEL             ....   38
 Basis Dimension        Dim             ....  416

ORBITAL ENERGIES
----------------

  NO   OCC          E(Eh)            E(eV)
   0   2.0000     -92.038296     -2504.4894
   1   2.0000     -20.610341      -560.8359
   2   2.0000     -11.265651      -306.5539
   3   2.0000     -11.253445      -306.2218
   4   2.0000      -9.032559      -245.7884
   5   2.0000      -6.714164      -182.7017
   6   2.0000      -6.712812      -182.6649
   7   2.0000      -6.711691      -182.6344
   8   2.0000      -1.390171       -37.8285
   9   2.0000      -1.075512       -29.2662
  10   2.0000      -0.966058       -26.2878
  11   2.0000      -0.752996       -20.4901
  12   2.0000      -0.711477       -19.3603
  13   2.0000      -0.642582       -17.4855
  14   2.0000      -0.589028       -16.0283
  15   2.0000      -0.500064       -13.6074
  16   2.0000      -0.477721       -12.9994
  17   2.0000      -0.421162       -11.4604
  18   2.0000      -0.349377        -9.5070
  19   0.0000       0.024351         0.6626
  20   0.0000       0.031529         0.8579
  21   0.0000       0.052888         1.4391
  22   0.0000       0.064138         1.7453
  23   0.0000       0.068308         1.8587

MULLIKEN ATOMIC CHARGES
-----------------------
   0 S :    0.725191
   1 O :   -0.722505
   2 C :   -0.511588
   3 C :   -0.384735
   4 H :    0.338799
   5 H :    0.554838
Sum of atomic charges:   -0.0000000

LOEWDIN ATOMIC CHARGES
----------------------
   0 S :    0.836058
   1 O :    0.740467
   2 C :   -0.527589
   3 C :    0.412670
   4 H :   -0.986036
   5 H :   -0.475570

  Mayer bond orders larger than 0.100000
B(  0-S ,  1-O ) :   0.8618 B(  0-S ,  2-C ) :   0.8405 B(  1-O ,  4-H ) :   0.9148
B(  2-C ,  3-C ) :   2.5151 B(  3-C ,  5-H ) :   0.7300

MP2 TOTAL ENERGY:     -550.054772136 Eh
FINAL SINGLE POINT ENERGY      -550.054772136069

DIPOLE MOMENT
-------------
                                X             Y             Z
Electronic contribution:     -1.20243      -1.52096      -0.15964
Nuclear contribution   :      1.53140       1.72940       0.72829
                        -----------------------------------------
Total Dipole Moment    :      0.32897       0.20844       0.56866
                        -----------------------------------------
Magnitude (a.u.)       :      0.68923
Magnitude (Debye)      :      1.75189

Rotational constants in cm-1:     0.656123     0.131684     0.110792
Rotational constants in MHz : 19670.065282  3947.782394  3321.462544

                             ****ORCA TERMINATED NORMALLY****
TOTAL RUN TIME: 0 days 0 hours 3 minutes 18 seconds 217 msec
