                         Program Version 5.0.4 -  RELEASE  -
|  1> !ri-mp2 aug-cc-pvqz aug-cc-pvqz/c tightscf
|  2> %pal nprocs 16 end
|  3>
|  4> * xyz 0 1
|  5> S     -0.588948   -0.854750   -0.597619
|  6> S      0.588932    0.854989   -0.597326
|  7> O     -2.696710    0.623868    0.346427
|  8> O      2.696697   -0.624032    0.346082
|  9> C     -1.855232   -0.435708    0.688286
| 10> C      1.855275    0.435453    0.688361
| 11> H     -1.332873   -0.262522    1.630730
| 12> H     -2.466770   -1.333392    0.769900
| 13> H      1.332960    0.261952    1.630771
| 14> H      2.466846    1.333087    0.770258
| 15> H     -2.164171    1.423911    0.259063
| 16> H      2.164119   -1.424019    0.258442
| 17> *
| 18>
| 19>                          ****END OF INPUT****

CARTESIAN COORDINATES (ANGSTROEM)
---------------------------------
  S     -0.588948   -0.854750   -0.597619
  S      0.588932    0.854989   -0.597326
  O     -2.696710    0.623868    0.346427
  O      2.696697   -0.624032    0.346082
  C     -1.855232   -0.435708    0.688286
  C      1.855275    0.435453    0.688361
  H     -1.332873   -0.262522    1.630730
  H     -2.466770   -1.333392    0.769900
  H      1.332960    0.261952    1.630771
  H      2.466846    1.333087    0.770258
  H     -2.164171    1.423911    0.259063
  H      2.164119   -1.424019    0.258442

 Total Charge           Charge          ....    0
 Multiplicity           Mult            ....    1
 Number of Electrons    NEL             ....   66
 Basis Dimension        Dim             ....  764

ORBITAL ENERGIES
----------------

  NO   OCC          E(Eh)            E(eV)
   0   2.0000     -91.986363     -2503.0762
   1   2.0000     -91.986361     -2503.0761
   2   2.0000     -20.581229      -560.0437
   3   2.0000     -20.581228      -560.0437
   4   2.0000     -11.329699      -308.2968
   5   2.0000     -11.329698      -308.2968
   6   2.0000      -8.986519      -244.5356
   7   2.0000      -8.986338      -244.5307
   8   2.0000      -6.667801      -181.4401
   9   2.0000      -6.667475      -181.4312
  10   2.0000      -6.666489      -181.4044
  11   2.0000      -6.666435      -181.4029
  12   2.0000      -6.665772      -181.3849
  13   2.0000      -6.665770      -181.3848
  14   2.0000      -1.391737       -37.8711
  15   2.0000      -1.391127       -37.8545
  16   2.0000      -1.076092       -29.2819
  17   2.0000      -0.991253       -26.9734
  18   2.0000      -0.908661       -24.7259
  19   2.0000      -0.811836       -22.0912
  20   2.0000      -0.720989       -19.6191
  21   2.0000      -0.712079       -19.3767
  22   2.0000      -0.649902       -17.6847
  23   2.0000      -0.639933       -17.4135
  24   2.0000      -0.616171       -16.7669
  25   2.0000      -0.607594       -16.5335
  26   2.0000      -0.536979       -14.6119
  27   2.0000      -0.520091       -14.1524
  28   2.0000      -0.485067       -13.1993
  29   2.0000      -0.457934       -12.4610
  30   2.0000      -0.446508       -12.1501
  31   2.0000      -0.374589       -10.1931
  32   2.0000      -0.373355       -10.1595
  33   0.0000       0.023910         0.6506
  34   0.0000       0.029613         0.8058
  35   0.0000       0.038000         1.0340
  36   0.0000       0.038839         1.0569
  37   0.0000       0.046881         1.2757

MULLIKEN ATOMIC CHARGES
-----------------------
   0 S :   -0.092512
   1 S :   -0.092513
   2 O :   -0.760577
   3 O :   -0.760574
   4 C :   -0.158951
   5 C :   -0.158959
   6 H :    0.259786
   7 H :    0.393943
   8 H :    0.259785
   9 H :    0.393949
  10 H :    0.358311
  11 H :    0.358311
Sum of atomic charges:    0.0000000

LOEWDIN ATOMIC CHARGES
----------------------
   0 S :    0.765599
   1 S :    0.765598
   2 O :    1.199002
   3 O :    1.199003
   4 C :   -0.268733
   5 C :   -0.268733
   6 H :   -0.408761
   7 H :   -0.432320
   8 H :   -0.408762
   9 H :   -0.432321
  10 H :   -0.854781
  11 H :   -0.854791

  Mayer bond orders larger than 0.100000
B(  0-S ,  1-S ) :   1.1313 B(  0-S ,  4-C ) :   1.0129 B(  1-S ,  5-C ) :   1.0129
B(  2-O ,  4-C ) :   0.7383 B(  2-O , 10-H ) :   0.8599 B(  3-O ,  5-C ) :   0.7383
B(  3-O , 11-H ) :   0.8599 B(  4-C ,  6-H ) :   0.8996 B(  4-C ,  7-H ) :   0.7884
B(  5-C ,  8-H ) :   0.8996 B(  5-C ,  9-H ) :   0.7884

MP2 TOTAL ENERGY:    -1025.430768774 Eh
FINAL SINGLE POINT ENERGY     -1025.430768773623

DIPOLE MOMENT
-------------
                                X             Y             Z
Electronic contribution:     -0.00010       0.00083      -4.33311
Nuclear contribution   :      0.00011      -0.00098       5.27189
                        -----------------------------------------
Total Dipole Moment    :      0.00001      -0.00015       0.93878
                        -----------------------------------------
Magnitude (a.u.)       :      0.93878
Magnitude (Debye)      :      2.38618

Rotational constants in cm-1:     0.145008     0.041370     0.038789
Rotational constants in MHz :  4347.222576  1240.234015  1162.876185

                             ****ORCA TERMINATED NORMALLY****
TOTAL RUN TIME: 0 days 0 hours 21 minutes 35 seconds 72 msec
