                         Program Version 5.0.4 -  RELEASE  -
|  1> !ri-mp2 aug-cc-pvqz aug-cc-pvqz/c tightscf
|  2> %pal nprocs 16 end
|  3> %maxcore 3800
|  4>
|  5> * xyz 0 1
|  6> C      2.934907   -1.847531    0.000000
|  7> C     -3.741441    1.922109    0.000000
|  8> C      2.204069   -0.532137    0.000000
|  9> C     -2.216713    2.017532    0.000000
| 10> C      0.683613   -0.629266    0.000000
| 11> C     -1.526489    0.653370    0.000000
| 12> C      0.000000    0.738127    0.000000
| 13> O      2.412916   -2.933644    0.000000
| 14> H      4.042127   -1.761298    0.000000
| 15> H     -4.203476    2.910263    0.000000
| 16> H     -4.102888    1.387142    0.880650
| 17> H     -4.102888    1.387142   -0.880650
| 18> H      2.570407    0.032064    0.867377
| 19> H      2.570407    0.032064   -0.867377
| 20> H     -1.887390    2.587509    0.874110
| 21> H     -1.887390    2.587509   -0.874110
| 22> H      0.362464   -1.205426   -0.870679
| 23> H      0.362464   -1.205426    0.870679
| 24> H     -1.856331    0.082600    0.874379
| 25> H     -1.856331    0.082600   -0.874379
| 26> H      0.328909    1.309595   -0.874725
| 27> H      0.328909    1.309595    0.874725
| 28> *
| 29>
| 30>                          ****END OF INPUT****

CARTESIAN COORDINATES (ANGSTROEM)
---------------------------------
  C      2.934907   -1.847531    0.000000
  C     -3.741441    1.922109    0.000000
  C      2.204069   -0.532137    0.000000
  C     -2.216713    2.017532    0.000000
  C      0.683613   -0.629266    0.000000
  C     -1.526489    0.653370    0.000000
  C      0.000000    0.738127    0.000000
  O      2.412916   -2.933644    0.000000
  H      4.042127   -1.761298    0.000000
  H     -4.203476    2.910263    0.000000
  H     -4.102888    1.387142    0.880650
  H     -4.102888    1.387142   -0.880650
  H      2.570407    0.032064    0.867377
  H      2.570407    0.032064   -0.867377
  H     -1.887390    2.587509    0.874110
  H     -1.887390    2.587509   -0.874110
  H      0.362464   -1.205426   -0.870679
  H      0.362464   -1.205426    0.870679
  H     -1.856331    0.082600    0.874379
  H     -1.856331    0.082600   -0.874379
  H      0.328909    1.309595   -0.874725
  H      0.328909    1.309595    0.874725

 Total Charge           Charge          ....    0
 Multiplicity           Mult            ....    1
 Number of Electrons    NEL             ....   64
 Basis Dimension        Dim             .... 1284

ORBITAL ENERGIES
----------------

  NO   OCC          E(Eh)            E(eV)
   0   2.0000     -20.553946      -559.3013
   1   2.0000     -11.329796      -308.2994
   2   2.0000     -11.241124      -305.8865
   3   2.0000     -11.223394      -305.4041
   4   2.0000     -11.221256      -305.3459
   5   2.0000     -11.217895      -305.2544
   6   2.0000     -11.216619      -305.2197
   7   2.0000     -11.210655      -305.0574
   8   2.0000      -1.393582       -37.9213
   9   2.0000      -1.097070       -29.8528
  10   2.0000      -1.056490       -28.7486
  11   2.0000      -0.991016       -26.9669
  12   2.0000      -0.908897       -24.7323
  13   2.0000      -0.829081       -22.5604
  14   2.0000      -0.792046       -21.5527
  15   2.0000      -0.768629       -20.9154
  16   2.0000      -0.673223       -18.3193
  17   2.0000      -0.662371       -18.0240
  18   2.0000      -0.630340       -17.1524
  19   2.0000      -0.627710       -17.0809
  20   2.0000      -0.587556       -15.9882
  21   2.0000      -0.576887       -15.6979
  22   2.0000      -0.553998       -15.0750
  23   2.0000      -0.535583       -14.5739
  24   2.0000      -0.525050       -14.2873
  25   2.0000      -0.496716       -13.5163
  26   2.0000      -0.493905       -13.4399
  27   2.0000      -0.475685       -12.9440
  28   2.0000      -0.467381       -12.7181
  29   2.0000      -0.464437       -12.6380
  30   2.0000      -0.460438       -12.5292
  31   2.0000      -0.415933       -11.3181
  32   0.0000       0.022642         0.6161
  33   0.0000       0.025888         0.7044
  34   0.0000       0.031651         0.8613
  35   0.0000       0.033936         0.9235
  36   0.0000       0.038875         1.0578

MULLIKEN ATOMIC CHARGES
-----------------------
   0 C :    0.194205
   1 C :   -0.910163
   2 C :   -0.594474
   3 C :   -0.522025
   4 C :   -0.133403
   5 C :   -0.279622
   6 C :   -0.261509
   7 O :   -0.767073
   8 H :    0.332678
   9 H :    0.267974
  10 H :    0.224649
  11 H :    0.224609
  12 H :    0.199275
  13 H :    0.199402
  14 H :    0.225973
  15 H :    0.226112
  16 H :    0.193741
  17 H :    0.193766
  18 H :    0.237987
  19 H :    0.238182
  20 H :    0.254807
  21 H :    0.254909
Sum of atomic charges:   -0.0000000

LOEWDIN ATOMIC CHARGES
----------------------
   0 C :   -0.230119
   1 C :    0.927155
   2 C :    0.474394
   3 C :    0.509074
   4 C :    0.491911
   5 C :    0.514521
   6 C :    0.521464
   7 O :    0.717564
   8 H :   -0.342078
   9 H :   -0.284580
  10 H :   -0.285066
  11 H :   -0.285066
  12 H :   -0.286212
  13 H :   -0.286212
  14 H :   -0.273276
  15 H :   -0.273276
  16 H :   -0.272182
  17 H :   -0.272182
  18 H :   -0.266798
  19 H :   -0.266798
  20 H :   -0.266119
  21 H :   -0.266119

  Mayer bond orders larger than 0.100000
B(  0-C ,  2-C ) :   1.0445 B(  0-C ,  4-C ) :  -0.3518 B(  0-C ,  7-O ) :   1.4497
B(  0-C ,  8-H ) :   0.9814 B(  1-C ,  3-C ) :   1.0506 B(  1-C ,  5-C ) :  -0.1274
B(  1-C ,  9-H ) :   1.0246 B(  1-C , 10-H ) :   0.9564 B(  1-C , 11-H ) :   0.9564
B(  2-C ,  4-C ) :   0.9088 B(  2-C ,  6-C ) :  -0.1338 B(  2-C ,  7-O ) :   0.2297
B(  2-C ,  8-H ) :  -0.1429 B(  2-C , 12-H ) :   0.9212 B(  2-C , 13-H ) :   0.9211
B(  3-C ,  5-C ) :   0.9793 B(  3-C ,  9-H ) :  -0.1004 B(  3-C , 14-H ) :   0.8823
B(  3-C , 15-H ) :   0.8822 B(  4-C ,  6-C ) :   1.0525 B(  4-C , 16-H ) :   0.8559
B(  4-C , 17-H ) :   0.8560 B(  5-C ,  6-C ) :   1.0563 B(  5-C , 18-H ) :   0.8569
B(  5-C , 19-H ) :   0.8568 B(  6-C , 20-H ) :   0.8364 B(  6-C , 21-H ) :   0.8362

MP2 TOTAL ENERGY:     -349.779268967 Eh
FINAL SINGLE POINT ENERGY      -349.779268967272

DIPOLE MOMENT
-------------
                                X             Y             Z
Electronic contribution:     10.02627      -8.78906      -0.00000
Nuclear contribution   :     -9.78197       9.98904       0.00000
                        -----------------------------------------
Total Dipole Moment    :      0.24430       1.19998      -0.00000
                        -----------------------------------------
Magnitude (a.u.)       :      1.22459
Magnitude (Debye)      :      3.11267

Rotational constants in cm-1:     0.267910     0.018875     0.017980
Rotational constants in MHz :  8031.740404   565.869439   539.036960

                             ****ORCA TERMINATED NORMALLY****
TOTAL RUN TIME: 0 days 1 hours 38 minutes 33 seconds 70 msec
