                         Program Version 5.0.4 -  RELEASE  -
|  1> !ri-mp2 aug-cc-pvqz aug-cc-pvqz/c tightscf
|  2> %pal nprocs 16 end
|  3>
|  4> * xyz 0 1
|  5> C     0.000000    1.397768    0.000000
|  6> C     1.210502    0.698884    0.000000
|  7> C    -1.210502    0.698884    0.000000
|  8> C     1.210502   -0.698884    0.000000
|  9> C    -1.210502   -0.698884    0.000000
| 10> C     0.000000   -1.397768    0.000000
| 11> Cl    0.000000    3.126245    0.000000
| 12> Cl    2.707407    1.563122    0.000000
| 13> Cl   -2.707407    1.563122    0.000000
| 14> Cl    2.707407   -1.563122    0.000000
| 15> Cl   -2.707407   -1.563122    0.000000
| 16> Cl    0.000000   -3.126245    0.000000
| 17> *
| 18>
| 19>                          ****END OF INPUT****

CARTESIAN COORDINATES (ANGSTROEM)
---------------------------------
  C      0.000000    1.397768    0.000000
  C      1.210502    0.698884    0.000000
  C     -1.210502    0.698884    0.000000
  C      1.210502   -0.698884    0.000000
  C     -1.210502   -0.698884    0.000000
  C      0.000000   -1.397768    0.000000
  Cl     0.000000    3.126245    0.000000
  Cl     2.707407    1.563122    0.000000
  Cl    -2.707407    1.563122    0.000000
  Cl     2.707407   -1.563122    0.000000
  Cl    -2.707407   -1.563122    0.000000
  Cl     0.000000   -3.126245    0.000000

 Total Charge           Charge          ....    0
 Multiplicity           Mult            ....    1
 Number of Electrons    NEL             ....  138
 Basis Dimension        Dim             ....  984

ORBITAL ENERGIES
----------------

  NO   OCC          E(Eh)            E(eV)
   0   2.0000    -104.870418     -2853.6692
   1   2.0000    -104.870418     -2853.6692
   2   2.0000    -104.870418     -2853.6692
   3   2.0000    -104.870418     -2853.6692
   4   2.0000    -104.870418     -2853.6692
   5   2.0000    -104.870418     -2853.6692
   6   2.0000     -11.357033      -309.0406
   7   2.0000     -11.356468      -309.0252
   8   2.0000     -11.356468      -309.0252
   9   2.0000     -11.355259      -308.9923
  10   2.0000     -11.355259      -308.9923
  11   2.0000     -11.354666      -308.9762
  12   2.0000     -10.595715      -288.3241
  13   2.0000     -10.595714      -288.3240
  14   2.0000     -10.595714      -288.3240
  15   2.0000     -10.595710      -288.3239
  16   2.0000     -10.595710      -288.3239
  17   2.0000     -10.595707      -288.3239
  18   2.0000      -8.062829      -219.4007
  19   2.0000      -8.062829      -219.4007
  20   2.0000      -8.062829      -219.4007
  21   2.0000      -8.062827      -219.4007
  22   2.0000      -8.062827      -219.4007
  23   2.0000      -8.062826      -219.4006
  24   2.0000      -8.060894      -219.3481
  25   2.0000      -8.060894      -219.3481
  26   2.0000      -8.060894      -219.3481
  27   2.0000      -8.060894      -219.3481
  28   2.0000      -8.060894      -219.3481
  29   2.0000      -8.060894      -219.3481
  30   2.0000      -8.060866      -219.3473
  31   2.0000      -8.060865      -219.3473
  32   2.0000      -8.060865      -219.3473
  33   2.0000      -8.060865      -219.3473
  34   2.0000      -8.060865      -219.3473
  35   2.0000      -8.060864      -219.3473
  36   2.0000      -1.284145       -34.9434
  37   2.0000      -1.217598       -33.1325
  38   2.0000      -1.217598       -33.1325
  39   2.0000      -1.156473       -31.4692
  40   2.0000      -1.156473       -31.4692
  41   2.0000      -1.131479       -30.7891
  42   2.0000      -1.101937       -29.9852
  43   2.0000      -0.999756       -27.2047
  44   2.0000      -0.999756       -27.2047
  45   2.0000      -0.849439       -23.1144
  46   2.0000      -0.849439       -23.1144
  47   2.0000      -0.756769       -20.5927
  48   2.0000      -0.693108       -18.8604
  49   2.0000      -0.649250       -17.6670
  50   2.0000      -0.642686       -17.4884
  51   2.0000      -0.619548       -16.8588
  52   2.0000      -0.619548       -16.8588
  53   2.0000      -0.582851       -15.8602
  54   2.0000      -0.582851       -15.8602
  55   2.0000      -0.561754       -15.2861
  56   2.0000      -0.561754       -15.2861
  57   2.0000      -0.507476       -13.8091
  58   2.0000      -0.506799       -13.7907
  59   2.0000      -0.506799       -13.7907
  60   2.0000      -0.504829       -13.7371
  61   2.0000      -0.504829       -13.7371
  62   2.0000      -0.492610       -13.4046
  63   2.0000      -0.475281       -12.9331
  64   2.0000      -0.475281       -12.9331
  65   2.0000      -0.456075       -12.4104
  66   2.0000      -0.443099       -12.0573
  67   2.0000      -0.361377        -9.8336
  68   2.0000      -0.361377        -9.8336
  69   0.0000       0.034963         0.9514
  70   0.0000       0.046754         1.2722
  71   0.0000       0.046754         1.2722
  72   0.0000       0.062792         1.7087
  73   0.0000       0.062792         1.7087

MULLIKEN ATOMIC CHARGES
-----------------------
   0 C :    0.239765
   1 C :    0.239664
   2 C :    0.239674
   3 C :    0.239599
   4 C :    0.239587
   5 C :    0.239824
   6 Cl:   -0.239684
   7 Cl:   -0.239692
   8 Cl:   -0.239690
   9 Cl:   -0.239684
  10 Cl:   -0.239680
  11 Cl:   -0.239683
Sum of atomic charges:    0.0000000

LOEWDIN ATOMIC CHARGES
----------------------
   0 C :   -1.166406
   1 C :   -1.166406
   2 C :   -1.166406
   3 C :   -1.166406
   4 C :   -1.166406
   5 C :   -1.166406
   6 Cl:    1.166406
   7 Cl:    1.166406
   8 Cl:    1.166406
   9 Cl:    1.166406
  10 Cl:    1.166406
  11 Cl:    1.166406

  Mayer bond orders larger than 0.100000
B(  0-C ,  1-C ) :   0.8894 B(  0-C ,  2-C ) :   0.8895 B(  0-C ,  6-Cl) :   0.9080
B(  0-C ,  7-Cl) :  -0.1630 B(  0-C ,  8-Cl) :  -0.1630 B(  1-C ,  3-C ) :   0.8894
B(  1-C ,  6-Cl) :  -0.1629 B(  1-C ,  7-Cl) :   0.9080 B(  1-C ,  9-Cl) :  -0.1629
B(  2-C ,  4-C ) :   0.8894 B(  2-C ,  6-Cl) :  -0.1629 B(  2-C ,  8-Cl) :   0.9081
B(  2-C , 10-Cl) :  -0.1629 B(  3-C ,  5-C ) :   0.8894 B(  3-C ,  7-Cl) :  -0.1629
B(  3-C ,  9-Cl) :   0.9081 B(  3-C , 11-Cl) :  -0.1629 B(  4-C ,  5-C ) :   0.8894
B(  4-C ,  8-Cl) :  -0.1629 B(  4-C , 10-Cl) :   0.9081 B(  4-C , 11-Cl) :  -0.1629
B(  5-C ,  9-Cl) :  -0.1630 B(  5-C , 10-Cl) :  -0.1630 B(  5-C , 11-Cl) :   0.9080

MP2 TOTAL ENERGY:    -2986.649515112 Eh
FINAL SINGLE POINT ENERGY     -2986.649515112029

DIPOLE MOMENT
-------------
                                X             Y             Z
Electronic contribution:      0.00000      -0.00000      -0.00000
Nuclear contribution   :      0.00000       0.00000       0.00000
                        -----------------------------------------
Total Dipole Moment    :      0.00000      -0.00000      -0.00000
                        -----------------------------------------
Magnitude (a.u.)       :      0.00000
Magnitude (Debye)      :      0.00000

Rotational constants in cm-1:     0.015189     0.015189     0.007594
Rotational constants in MHz :   455.342352   455.342229   227.671145

                             ****ORCA TERMINATED NORMALLY****
TOTAL RUN TIME: 0 days 1 hours 3 minutes 46 seconds 460 msec
