                         Program Version 5.0.4 -  RELEASE  -
|  1> !ri-mp2 aug-cc-pvqz aug-cc-pvqz/c tightscf
|  2> %pal nprocs 16 end
|  3>
|  4> * xyz 0 1
|  5> C      0.000000    0.416584        0.000000
|  6> O     -1.110472   -0.343382        0.000000
|  7> N      1.156625   -0.083800        0.000000
|  8> H     -0.263473    1.473242        0.000000
|  9> H     -0.825628   -1.270023        0.000000
| 10> H      1.876503    0.630934        0.000000
| 11> *
| 12>
| 13>                          ****END OF INPUT****

CARTESIAN COORDINATES (ANGSTROEM)
---------------------------------
  C      0.000000    0.416584    0.000000
  O     -1.110472   -0.343382    0.000000
  N      1.156625   -0.083800    0.000000
  H     -0.263473    1.473242    0.000000
  H     -0.825628   -1.270023    0.000000
  H      1.876503    0.630934    0.000000

 Total Charge           Charge          ....    0
 Multiplicity           Mult            ....    1
 Number of Electrons    NEL             ....   24
 Basis Dimension        Dim             ....  378

ORBITAL ENERGIES
----------------

  NO   OCC          E(Eh)            E(eV)
   0   2.0000     -20.603240      -560.6427
   1   2.0000     -15.547953      -423.0813
   2   2.0000     -11.347477      -308.7805
   3   2.0000      -1.431588       -38.9555
   4   2.0000      -1.201168       -32.6855
   5   2.0000      -0.868226       -23.6256
   6   2.0000      -0.737316       -20.0634
   7   2.0000      -0.674356       -18.3502
   8   2.0000      -0.604583       -16.4515
   9   2.0000      -0.586678       -15.9643
  10   2.0000      -0.450567       -12.2605
  11   2.0000      -0.421469       -11.4687
  12   0.0000       0.025673         0.6986
  13   0.0000       0.037657         1.0247
  14   0.0000       0.041467         1.1284
  15   0.0000       0.067790         1.8447
  16   0.0000       0.087592         2.3835

MULLIKEN ATOMIC CHARGES
-----------------------
   0 C :    0.148619
   1 O :   -0.651801
   2 N :   -0.700910
   3 H :    0.545218
   4 H :    0.374017
   5 H :    0.284856
Sum of atomic charges:    0.0000000

LOEWDIN ATOMIC CHARGES
----------------------
   0 C :   -0.266564
   1 O :    1.224311
   2 N :    0.937373
   3 H :   -0.361026
   4 H :   -0.832062
   5 H :   -0.702033

  Mayer bond orders larger than 0.100000
B(  0-C ,  1-O ) :   1.0323 B(  0-C ,  2-N ) :   1.8713 B(  0-C ,  3-H ) :   0.6637
B(  1-O ,  4-H ) :   0.8449 B(  2-N ,  5-H ) :   0.8462

MP2 TOTAL ENERGY:     -169.650810673 Eh
FINAL SINGLE POINT ENERGY      -169.650810672729

DIPOLE MOMENT
-------------
                                X             Y             Z
Electronic contribution:     -0.79929      -0.36128      -0.00000
Nuclear contribution   :      0.77725       0.82885       0.00000
                        -----------------------------------------
Total Dipole Moment    :     -0.02204       0.46757      -0.00000
                        -----------------------------------------
Magnitude (a.u.)       :      0.46809
Magnitude (Debye)      :      1.18979

Rotational constants in cm-1:     2.389930     0.383335     0.330349
Rotational constants in MHz : 71648.285490 11492.101808  9903.603026

                             ****ORCA TERMINATED NORMALLY****
TOTAL RUN TIME: 0 days 0 hours 1 minutes 47 seconds 310 msec
