                         Program Version 5.0.4 -  RELEASE  -
|  1> !ri-mp2 aug-cc-pvqz aug-cc-pvqz/c tightscf
|  2> %pal nprocs 16 end
|  3>
|  4> * xyz 0 1
|  5> C      0.000000    0.928126    0.000000
|  6> C      0.925344   -0.256408    0.000000
|  7> O     -1.349713    0.557465    0.000000
|  8> O      0.516462   -1.391513    0.000000
|  9> H     -1.374140   -0.411223    0.000000
| 10> H      0.240237    1.542269    0.879378
| 11> H      0.240237    1.542269   -0.879378
| 12> H      2.007614   -0.031238    0.000000
| 13> *
| 14>
| 15>                          ****END OF INPUT****

CARTESIAN COORDINATES (ANGSTROEM)
---------------------------------
  C      0.000000    0.928126    0.000000
  C      0.925344   -0.256408    0.000000
  O     -1.349713    0.557465    0.000000
  O      0.516462   -1.391513    0.000000
  H     -1.374140   -0.411223    0.000000
  H      0.240237    1.542269    0.879378
  H      0.240237    1.542269   -0.879378
  H      2.007614   -0.031238    0.000000

 Total Charge           Charge          ....    0
 Multiplicity           Mult            ....    1
 Number of Electrons    NEL             ....   32
 Basis Dimension        Dim             ....  504

ORBITAL ENERGIES
----------------

  NO   OCC          E(Eh)            E(eV)
   0   2.0000     -20.579491      -559.9964
   1   2.0000     -20.567259      -559.6636
   2   2.0000     -11.351399      -308.8873
   3   2.0000     -11.303489      -307.5836
   4   2.0000      -1.425491       -38.7896
   5   2.0000      -1.371242       -37.3134
   6   2.0000      -1.006709       -27.3939
   7   2.0000      -0.817206       -22.2373
   8   2.0000      -0.732891       -19.9430
   9   2.0000      -0.685164       -18.6443
  10   2.0000      -0.663352       -18.0507
  11   2.0000      -0.612433       -16.6651
  12   2.0000      -0.556342       -15.1388
  13   2.0000      -0.540728       -14.7140
  14   2.0000      -0.464882       -12.6501
  15   2.0000      -0.448706       -12.2099
  16   0.0000       0.022097         0.6013
  17   0.0000       0.036982         1.0063
  18   0.0000       0.037073         1.0088
  19   0.0000       0.045491         1.2379
  20   0.0000       0.075847         2.0639

MULLIKEN ATOMIC CHARGES
-----------------------
   0 C :   -0.127211
   1 C :    0.119321
   2 O :   -0.708031
   3 O :   -0.730929
   4 H :    0.370670
   5 H :    0.274695
   6 H :    0.274695
   7 H :    0.526790
Sum of atomic charges:   -0.0000000

LOEWDIN ATOMIC CHARGES
----------------------
   0 C :    0.121750
   1 C :   -0.223750
   2 O :    1.253989
   3 O :    0.742036
   4 H :   -0.916462
   5 H :   -0.320044
   6 H :   -0.320044
   7 H :   -0.337475

  Mayer bond orders larger than 0.100000
B(  0-C ,  1-C ) :   1.1020 B(  0-C ,  2-O ) :   0.7891 B(  0-C ,  5-H ) :   0.8791
B(  0-C ,  6-H ) :   0.8791 B(  1-C ,  3-O ) :   1.6360 B(  1-C ,  7-H ) :   0.6432
B(  2-O ,  4-H ) :   0.8606

MP2 TOTAL ENERGY:     -228.742219225 Eh
FINAL SINGLE POINT ENERGY      -228.742219225083

DIPOLE MOMENT
-------------
                                X             Y             Z
Electronic contribution:     -0.23652      -1.92528      -0.00000
Nuclear contribution   :      1.10166       2.63096       0.00000
                        -----------------------------------------
Total Dipole Moment    :      0.86514       0.70567      -0.00000
                        -----------------------------------------
Magnitude (a.u.)       :      1.11644
Magnitude (Debye)      :      2.83777

Rotational constants in cm-1:     0.619635     0.217202     0.165758
Rotational constants in MHz : 18576.200292  6511.557106  4969.293203

                             ****ORCA TERMINATED NORMALLY****
TOTAL RUN TIME: 0 days 0 hours 5 minutes 8 seconds 357 msec
