                         Program Version 5.0.4 -  RELEASE  -
|  1> !ri-mp2 aug-cc-pvqz aug-cc-pvqz/c tightscf
|  2> %pal nprocs 16 end
|  3> %maxcore 3800
|  4>
|  5> * xyz 0 1
|  6> C     -1.325775    0.584643    0.237990
|  7> C      0.155142   -1.441860    0.227032
|  8> C      1.169971    0.852886    0.241238
|  9> C     -0.155142    1.441860   -0.227032
| 10> C     -1.169971   -0.852886   -0.241238
| 11> C      1.325775   -0.584643   -0.237990
| 12> O     -2.565352    1.060854   -0.274243
| 13> O      0.365045   -2.749548   -0.293829
| 14> O      2.199913    1.693855   -0.266419
| 15> O     -0.365045    2.749548    0.293829
| 16> O     -2.199913   -1.693855    0.266419
| 17> O      2.565352   -1.060854    0.274243
| 18> H     -1.353744    0.594834    1.334200
| 19> H      0.153684   -1.479157    1.323029
| 20> H      1.196484    0.861338    1.337560
| 21> H     -0.153684    1.479157   -1.323029
| 22> H     -1.196484   -0.861338   -1.337560
| 23> H      1.353744   -0.594834   -1.334200
| 24> H     -2.646403    1.991559   -0.037548
| 25> H     -0.403701   -3.285449   -0.068670
| 26> H      3.047455    1.296990   -0.036282
| 27> H      0.403701    3.285449    0.068670
| 28> H     -3.047455   -1.296990    0.036282
| 29> H      2.646403   -1.991559    0.037548
| 30> *
| 31>
| 32>                          ****END OF INPUT****

CARTESIAN COORDINATES (ANGSTROEM)
---------------------------------
  C     -1.325775    0.584643    0.237990
  C      0.155142   -1.441860    0.227032
  C      1.169971    0.852886    0.241238
  C     -0.155142    1.441860   -0.227032
  C     -1.169971   -0.852886   -0.241238
  C      1.325775   -0.584643   -0.237990
  O     -2.565352    1.060854   -0.274243
  O      0.365045   -2.749548   -0.293829
  O      2.199913    1.693855   -0.266419
  O     -0.365045    2.749548    0.293829
  O     -2.199913   -1.693855    0.266419
  O      2.565352   -1.060854    0.274243
  H     -1.353744    0.594834    1.334200
  H      0.153684   -1.479157    1.323029
  H      1.196484    0.861338    1.337560
  H     -0.153684    1.479157   -1.323029
  H     -1.196484   -0.861338   -1.337560
  H      1.353744   -0.594834   -1.334200
  H     -2.646403    1.991559   -0.037548
  H     -0.403701   -3.285449   -0.068670
  H      3.047455    1.296990   -0.036282
  H      0.403701    3.285449    0.068670
  H     -3.047455   -1.296990    0.036282
  H      2.646403   -1.991559    0.037548

 Total Charge           Charge          ....    0
 Multiplicity           Mult            ....    1
 Number of Electrons    NEL             ....   96
 Basis Dimension        Dim             .... 1512

ORBITAL ENERGIES
----------------

  NO   OCC          E(Eh)            E(eV)
   0   2.0000     -20.570395      -559.7489
   1   2.0000     -20.570395      -559.7489
   2   2.0000     -20.570347      -559.7476
   3   2.0000     -20.570347      -559.7476
   4   2.0000     -20.570315      -559.7467
   5   2.0000     -20.570315      -559.7467
   6   2.0000     -11.295390      -307.3632
   7   2.0000     -11.295089      -307.3550
   8   2.0000     -11.295069      -307.3545
   9   2.0000     -11.294437      -307.3372
  10   2.0000     -11.294417      -307.3367
  11   2.0000     -11.294093      -307.3279
  12   2.0000      -1.404576       -38.2205
  13   2.0000      -1.388656       -37.7872
  14   2.0000      -1.388599       -37.7857
  15   2.0000      -1.363971       -37.1155
  16   2.0000      -1.363940       -37.1147
  17   2.0000      -1.352392       -36.8005
  18   2.0000      -1.112491       -30.2724
  19   2.0000      -0.995931       -27.1007
  20   2.0000      -0.995727       -27.0951
  21   2.0000      -0.854675       -23.2569
  22   2.0000      -0.854647       -23.2561
  23   2.0000      -0.807547       -21.9745
  24   2.0000      -0.767520       -20.8853
  25   2.0000      -0.718825       -19.5602
  26   2.0000      -0.718650       -19.5555
  27   2.0000      -0.710256       -19.3271
  28   2.0000      -0.668033       -18.1781
  29   2.0000      -0.667948       -18.1758
  30   2.0000      -0.658311       -17.9135
  31   2.0000      -0.637541       -17.3484
  32   2.0000      -0.637345       -17.3430
  33   2.0000      -0.605160       -16.4672
  34   2.0000      -0.605025       -16.4636
  35   2.0000      -0.603441       -16.4205
  36   2.0000      -0.557436       -15.1686
  37   2.0000      -0.557409       -15.1679
  38   2.0000      -0.541568       -14.7368
  39   2.0000      -0.524971       -14.2852
  40   2.0000      -0.524844       -14.2817
  41   2.0000      -0.521677       -14.1956
  42   2.0000      -0.468067       -12.7367
  43   2.0000      -0.463345       -12.6083
  44   2.0000      -0.456478       -12.4214
  45   2.0000      -0.456414       -12.4196
  46   2.0000      -0.450887       -12.2693
  47   2.0000      -0.450718       -12.2647
  48   0.0000       0.025848         0.7034
  49   0.0000       0.031355         0.8532
  50   0.0000       0.031377         0.8538
  51   0.0000       0.032363         0.8807
  52   0.0000       0.044651         1.2150

MULLIKEN ATOMIC CHARGES
-----------------------
   0 C :    0.618415
   1 C :    0.618899
   2 C :    0.619188
   3 C :    0.618949
   4 C :    0.619259
   5 C :    0.618417
   6 O :   -1.044648
   7 O :   -1.044735
   8 O :   -1.044514
   9 O :   -1.044757
  10 O :   -1.044558
  11 O :   -1.044628
  12 H :    0.117166
  13 H :    0.117752
  14 H :    0.117300
  15 H :    0.117698
  16 H :    0.117426
  17 H :    0.117163
  18 H :    0.308451
  19 H :    0.308238
  20 H :    0.308418
  21 H :    0.308253
  22 H :    0.308397
  23 H :    0.308452
Sum of atomic charges:    0.0000000

LOEWDIN ATOMIC CHARGES
----------------------
   0 C :   -0.241027
   1 C :   -0.240989
   2 C :   -0.241101
   3 C :   -0.240989
   4 C :   -0.241102
   5 C :   -0.241027
   6 O :    1.314721
   7 O :    1.314742
   8 O :    1.314829
   9 O :    1.314742
  10 O :    1.314829
  11 O :    1.314721
  12 H :   -0.283508
  13 H :   -0.283610
  14 H :   -0.283532
  15 H :   -0.283610
  16 H :   -0.283532
  17 H :   -0.283508
  18 H :   -0.790021
  19 H :   -0.790531
  20 H :   -0.789971
  21 H :   -0.790531
  22 H :   -0.789971
  23 H :   -0.790021

  Mayer bond orders larger than 0.100000
B(  0-C ,  3-C ) :   0.8627 B(  0-C ,  4-C ) :   0.8631 B(  0-C ,  9-O ) :   0.1086
B(  0-C , 10-O ) :   0.2504 B(  0-C , 12-H ) :   1.0781 B(  1-C ,  4-C ) :   0.8636
B(  1-C ,  5-C ) :   0.8628 B(  1-C , 10-O ) :   0.1095 B(  1-C , 11-O ) :   0.2505
B(  1-C , 13-H ) :   1.0779 B(  2-C ,  3-C ) :   0.8636 B(  2-C ,  5-C ) :   0.8631
B(  2-C ,  9-O ) :   0.2510 B(  2-C , 11-O ) :   0.1086 B(  2-C , 14-H ) :   1.0773
B(  3-C ,  6-O ) :   0.2505 B(  3-C ,  8-O ) :   0.1096 B(  3-C , 15-H ) :   1.0779
B(  4-C ,  6-O ) :   0.1086 B(  4-C ,  7-O ) :   0.2511 B(  4-C , 16-H ) :   1.0771
B(  5-C ,  7-O ) :   0.1086 B(  5-C ,  8-O ) :   0.2504 B(  5-C , 17-H ) :   1.0781
B(  6-O , 18-H ) :   0.9589 B(  7-O , 19-H ) :   0.9589 B(  8-O , 20-H ) :   0.9589
B(  9-O , 21-H ) :   0.9588 B( 10-O , 22-H ) :   0.9589 B( 11-O , 23-H ) :   0.9589

MP2 TOTAL ENERGY:     -686.323425957 Eh
FINAL SINGLE POINT ENERGY      -686.323425956919

DIPOLE MOMENT
-------------
                                X             Y             Z
Electronic contribution:      0.00000      -0.00000      -0.00000
Nuclear contribution   :      0.00000      -0.00000       0.00000
                        -----------------------------------------
Total Dipole Moment    :      0.00000      -0.00000      -0.00000
                        -----------------------------------------
Magnitude (a.u.)       :      0.00000
Magnitude (Debye)      :      0.00000

Rotational constants in cm-1:     0.033231     0.033226     0.017373
Rotational constants in MHz :   996.254862   996.101392   520.839759

                             ****ORCA TERMINATED NORMALLY****
TOTAL RUN TIME: 0 days 2 hours 58 minutes 4 seconds 237 msec
