                         Program Version 5.0.4 -  RELEASE  -
|  1> !ri-mp2 aug-cc-pvqz aug-cc-pvqz/c tightscf
|  2> %pal nprocs 16 end
|  3>
|  4> * xyz 0 1
|  5> H      1.230807   -0.798909    0.000000
|  6> C      0.140652   -0.856817    0.000000
|  7> H      0.007049   -2.562492    1.308766
|  8> H     -1.436380   -1.541527    1.309424
|  9> H      0.023820   -1.009617    2.153756
| 10> C     -0.346546   -1.531370    1.272020
| 11> H      0.007049   -2.562492   -1.308766
| 12> H      0.023820   -1.009617   -2.153756
| 13> H     -1.436380   -1.541527   -1.309424
| 14> C     -0.346546   -1.531370   -1.272020
| 15> O     -0.346546    0.512894    0.000000
| 16> O      0.328520    2.544021    0.000000
| 17> N      0.719868    1.441172    0.000000
| 18> *
| 19>
| 20>                          ****END OF INPUT****

CARTESIAN COORDINATES (ANGSTROEM)
---------------------------------
  H      1.230807   -0.798909    0.000000
  C      0.140652   -0.856817    0.000000
  H      0.007049   -2.562492    1.308766
  H     -1.436380   -1.541527    1.309424
  H      0.023820   -1.009617    2.153756
  C     -0.346546   -1.531370    1.272020
  H      0.007049   -2.562492   -1.308766
  H      0.023820   -1.009617   -2.153756
  H     -1.436380   -1.541527   -1.309424
  C     -0.346546   -1.531370   -1.272020
  O     -0.346546    0.512894    0.000000
  O      0.328520    2.544021    0.000000
  N      0.719868    1.441172    0.000000

 Total Charge           Charge          ....    0
 Multiplicity           Mult            ....    1
 Number of Electrons    NEL             ....   48
 Basis Dimension        Dim             ....  802

ORBITAL ENERGIES
----------------

  NO   OCC          E(Eh)            E(eV)
   0   2.0000     -20.644584      -561.7677
   1   2.0000     -20.615166      -560.9672
   2   2.0000     -15.778483      -429.3543
   3   2.0000     -11.301078      -307.5180
   4   2.0000     -11.227242      -305.5088
   5   2.0000     -11.227226      -305.5084
   6   2.0000      -1.591788       -43.3147
   7   2.0000      -1.392697       -37.8972
   8   2.0000      -1.074960       -29.2511
   9   2.0000      -0.954567       -25.9751
  10   2.0000      -0.928391       -25.2628
  11   2.0000      -0.826369       -22.4866
  12   2.0000      -0.748515       -20.3681
  13   2.0000      -0.706269       -19.2186
  14   2.0000      -0.681273       -18.5384
  15   2.0000      -0.624491       -16.9933
  16   2.0000      -0.603585       -16.4244
  17   2.0000      -0.594705       -16.1827
  18   2.0000      -0.556095       -15.1321
  19   2.0000      -0.537848       -14.6356
  20   2.0000      -0.523742       -14.2517
  21   2.0000      -0.500832       -13.6283
  22   2.0000      -0.461175       -12.5492
  23   2.0000      -0.440728       -11.9928
  24   0.0000       0.024767         0.6740
  25   0.0000       0.032436         0.8826
  26   0.0000       0.033658         0.9159
  27   0.0000       0.041253         1.1225
  28   0.0000       0.054988         1.4963

MULLIKEN ATOMIC CHARGES
-----------------------
   0 H :    0.326536
   1 C :    0.474254
   2 H :    0.275882
   3 H :    0.250560
   4 H :    0.259548
   5 C :   -0.877167
   6 H :    0.275881
   7 H :    0.259549
   8 H :    0.250559
   9 C :   -0.877167
  10 O :   -0.635687
  11 O :   -0.422446
  12 N :    0.439699
Sum of atomic charges:    0.0000000

LOEWDIN ATOMIC CHARGES
----------------------
   0 H :   -0.361087
   1 C :   -0.314370
   2 H :   -0.285488
   3 H :   -0.288278
   4 H :   -0.288076
   5 C :    0.896469
   6 H :   -0.285488
   7 H :   -0.288076
   8 H :   -0.288278
   9 C :    0.896469
  10 O :    0.569754
  11 O :    0.362595
  12 N :   -0.326146

  Mayer bond orders larger than 0.100000
B(  0-H ,  1-C ) :   0.8546 B(  1-C ,  5-C ) :   0.8308 B(  1-C ,  9-C ) :   0.8308
B(  1-C , 10-O ) :   0.5397 B(  1-C , 12-N ) :  -0.1131 B(  2-H ,  5-C ) :   0.9445
B(  3-H ,  5-C ) :   0.9445 B(  4-H ,  5-C ) :   0.9601 B(  6-H ,  9-C ) :   0.9445
B(  7-H ,  9-C ) :   0.9601 B(  8-H ,  9-C ) :   0.9445 B( 10-O , 12-N ) :   1.0560
B( 11-O , 12-N ) :   1.7301

MP2 TOTAL ENERGY:     -323.181641633 Eh
FINAL SINGLE POINT ENERGY      -323.181641633025

DIPOLE MOMENT
-------------
                                X             Y             Z
Electronic contribution:      1.81438       9.95926       0.00000
Nuclear contribution   :     -1.59491     -11.09924      -0.00000
                        -----------------------------------------
Total Dipole Moment    :      0.21947      -1.13998       0.00000
                        -----------------------------------------
Magnitude (a.u.)       :      1.16092
Magnitude (Debye)      :      2.95081

Rotational constants in cm-1:     0.250340     0.069925     0.059358
Rotational constants in MHz :  7505.007678  2096.308483  1779.497720

                             ****ORCA TERMINATED NORMALLY****
TOTAL RUN TIME: 0 days 0 hours 17 minutes 51 seconds 933 msec
