                         Program Version 5.0.4 -  RELEASE  -
|  1> !ri-mp2 aug-cc-pvqz aug-cc-pvqz/c tightscf
|  2> %pal nprocs 16 end
|  3>
|  4> * xyz 0 1
|  5> N     -2.411694    0.770500        0.000000
|  6> C     -1.247199    1.371403        0.000000
|  7> C      0.000000    0.696957        0.000000
|  8> C     -0.018996   -0.725328        0.000000
|  9> C     -1.285073   -1.354625        0.000000
| 10> C     -2.419419   -0.587737        0.000000
| 11> C      1.211455   -1.424550        0.000000
| 12> C      2.397856   -0.737303        0.000000
| 13> C      2.414486    0.675356        0.000000
| 14> C      1.238322    1.379037        0.000000
| 15> H     -1.255568    2.457887        0.000000
| 16> H     -1.354484   -2.434581        0.000000
| 17> H     -3.398779   -1.049786        0.000000
| 18> H      1.202991   -2.506847        0.000000
| 19> H      3.334572   -1.278500        0.000000
| 20> H      3.361605    1.197408        0.000000
| 21> H      1.242936    2.461653        0.000000
| 22> *
| 23>
| 24>                          ****END OF INPUT****

CARTESIAN COORDINATES (ANGSTROEM)
---------------------------------
  N     -2.411694    0.770500    0.000000
  C     -1.247199    1.371403    0.000000
  C      0.000000    0.696957    0.000000
  C     -0.018996   -0.725328    0.000000
  C     -1.285073   -1.354625    0.000000
  C     -2.419419   -0.587737    0.000000
  C      1.211455   -1.424550    0.000000
  C      2.397856   -0.737303    0.000000
  C      2.414486    0.675356    0.000000
  C      1.238322    1.379037    0.000000
  H     -1.255568    2.457887    0.000000
  H     -1.354484   -2.434581    0.000000
  H     -3.398779   -1.049786    0.000000
  H      1.202991   -2.506847    0.000000
  H      3.334572   -1.278500    0.000000
  H      3.361605    1.197408    0.000000
  H      1.242936    2.461653    0.000000

 Total Charge           Charge          ....    0
 Multiplicity           Mult            ....    1
 Number of Electrons    NEL             ....   68
 Basis Dimension        Dim             .... 1122

ORBITAL ENERGIES
----------------

  NO   OCC          E(Eh)            E(eV)
   0   2.0000     -15.562277      -423.4711
   1   2.0000     -11.279950      -306.9430
   2   2.0000     -11.267460      -306.6032
   3   2.0000     -11.260355      -306.4098
   4   2.0000     -11.251296      -306.1633
   5   2.0000     -11.251084      -306.1576
   6   2.0000     -11.249057      -306.1024
   7   2.0000     -11.244659      -305.9827
   8   2.0000     -11.244096      -305.9674
   9   2.0000     -11.237278      -305.7819
  10   2.0000      -1.260338       -34.2956
  11   2.0000      -1.165920       -31.7263
  12   2.0000      -1.073989       -29.2247
  13   2.0000      -1.048133       -28.5211
  14   2.0000      -1.004189       -27.3254
  15   2.0000      -0.883769       -24.0486
  16   2.0000      -0.861971       -23.4554
  17   2.0000      -0.830336       -22.5946
  18   2.0000      -0.725167       -19.7328
  19   2.0000      -0.718640       -19.5552
  20   2.0000      -0.688242       -18.7280
  21   2.0000      -0.639913       -17.4129
  22   2.0000      -0.628330       -17.0977
  23   2.0000      -0.601223       -16.3601
  24   2.0000      -0.597547       -16.2601
  25   2.0000      -0.560332       -15.2474
  26   2.0000      -0.559636       -15.2285
  27   2.0000      -0.528333       -14.3767
  28   2.0000      -0.495700       -13.4887
  29   2.0000      -0.483618       -13.1599
  30   2.0000      -0.417834       -11.3699
  31   2.0000      -0.402099       -10.9417
  32   2.0000      -0.347978        -9.4690
  33   2.0000      -0.304922        -8.2973
  34   0.0000       0.021928         0.5967
  35   0.0000       0.025623         0.6972
  36   0.0000       0.029863         0.8126
  37   0.0000       0.038429         1.0457
  38   0.0000       0.041295         1.1237

MULLIKEN ATOMIC CHARGES
-----------------------
   0 N :   -0.758833
   1 C :   -0.093496
   2 C :    0.493182
   3 C :    0.836422
   4 C :   -0.472244
   5 C :   -0.383276
   6 C :   -0.567266
   7 C :   -0.419920
   8 C :   -0.445629
   9 C :   -0.354912
  10 H :    0.422742
  11 H :    0.213345
  12 H :    0.463515
  13 H :    0.247795
  14 H :    0.274085
  15 H :    0.258498
  16 H :    0.285993
Sum of atomic charges:   -0.0000000

LOEWDIN ATOMIC CHARGES
----------------------
   0 N :    0.600374
   1 C :    0.091951
   2 C :   -0.122323
   3 C :   -0.129521
   4 C :    0.344934
   5 C :    0.093534
   6 C :    0.363075
   7 C :    0.355547
   8 C :    0.356548
   9 C :    0.354221
  10 H :   -0.346533
  11 H :   -0.324903
  12 H :   -0.355310
  13 H :   -0.319767
  14 H :   -0.319998
  15 H :   -0.324878
  16 H :   -0.316949

  Mayer bond orders larger than 0.100000
B(  0-N ,  1-C ) :   1.2484 B(  0-N ,  5-C ) :   1.0728 B(  0-N , 10-H ) :  -0.1207
B(  0-N , 12-H ) :  -0.1277 B(  1-C ,  2-C ) :   0.8292 B(  1-C ,  3-C ) :  -0.3635
B(  1-C ,  9-C ) :  -0.1945 B(  1-C , 10-H ) :   0.9373 B(  2-C ,  3-C ) :   1.0474
B(  2-C ,  4-C ) :  -0.1789 B(  2-C ,  6-C ) :  -0.2115 B(  2-C ,  8-C ) :  -0.3232
B(  2-C ,  9-C ) :   0.6049 B(  2-C , 10-H ) :  -0.2045 B(  2-C , 16-H ) :  -0.1609
B(  3-C ,  4-C ) :   0.6956 B(  3-C ,  5-C ) :  -0.3391 B(  3-C ,  6-C ) :   0.6982
B(  3-C ,  7-C ) :  -0.3157 B(  3-C , 11-H ) :  -0.1762 B(  3-C , 13-H ) :  -0.1399
B(  4-C ,  5-C ) :   1.4496 B(  4-C ,  6-C ) :  -0.1072 B(  4-C , 11-H ) :   1.0938
B(  4-C , 12-H ) :  -0.1722 B(  5-C , 11-H ) :  -0.1007 B(  5-C , 12-H ) :   0.9144
B(  6-C ,  7-C ) :   1.4076 B(  6-C ,  9-C ) :   0.1418 B(  6-C , 13-H ) :   1.0319
B(  6-C , 14-H ) :  -0.1683 B(  7-C ,  8-C ) :   1.1330 B(  7-C , 14-H ) :   1.1154
B(  8-C ,  9-C ) :   1.3440 B(  8-C , 15-H ) :   1.1281 B(  9-C , 15-H ) :  -0.1729
B(  9-C , 16-H ) :   0.9811

MP2 TOTAL ENERGY:     -401.212344403 Eh
FINAL SINGLE POINT ENERGY      -401.212344402956

DIPOLE MOMENT
-------------
                                X             Y             Z
Electronic contribution:     -2.11742       0.79609      -0.00000
Nuclear contribution   :      3.08403      -1.13533       0.00000
                        -----------------------------------------
Total Dipole Moment    :      0.96660      -0.33923      -0.00000
                        -----------------------------------------
Magnitude (a.u.)       :      1.02440
Magnitude (Debye)      :      2.60383

Rotational constants in cm-1:     0.107377     0.041498     0.029931
Rotational constants in MHz :  3219.077195  1244.085817   897.302713

                             ****ORCA TERMINATED NORMALLY****
TOTAL RUN TIME: 0 days 1 hours 12 minutes 18 seconds 466 msec
