                         Program Version 5.0.4 -  RELEASE  -
|  1> !ri-mp2 aug-cc-pvqz aug-cc-pvqz/c tightscf
|  2> %pal nprocs 16 end
|  3>
|  4> * xyz 0 1
|  5> C      1.121838    0.366816        0.000000
|  6> C      0.615592   -0.959856        0.000000
|  7> C      0.000000    1.124633        0.000000
|  8> N     -0.689000   -0.992693        0.000000
|  9> O     -1.091411    0.346235        0.000000
| 10> H      2.145312    0.693430        0.000000
| 11> H      1.160098   -1.890521        0.000000
| 12> H     -0.175703    2.186501        0.000000
| 13> *
| 14>
| 15>                          ****END OF INPUT****

CARTESIAN COORDINATES (ANGSTROEM)
---------------------------------
  C      1.121838    0.366816    0.000000
  C      0.615592   -0.959856    0.000000
  C      0.000000    1.124633    0.000000
  N     -0.689000   -0.992693    0.000000
  O     -1.091411    0.346235    0.000000
  H      2.145312    0.693430    0.000000
  H      1.160098   -1.890521    0.000000
  H     -0.175703    2.186501    0.000000

 Total Charge           Charge          ....    0
 Multiplicity           Mult            ....    1
 Number of Electrons    NEL             ....   36
 Basis Dimension        Dim             ....  538

ORBITAL ENERGIES
----------------

  NO   OCC          E(Eh)            E(eV)
   0   2.0000     -20.648056      -561.8622
   1   2.0000     -15.626085      -425.2074
   2   2.0000     -11.319851      -308.0288
   3   2.0000     -11.284300      -307.0614
   4   2.0000     -11.243932      -305.9629
   5   2.0000      -1.496840       -40.7311
   6   2.0000      -1.170982       -31.8640
   7   2.0000      -1.076537       -29.2941
   8   2.0000      -0.837359       -22.7857
   9   2.0000      -0.821683       -22.3591
  10   2.0000      -0.747455       -20.3393
  11   2.0000      -0.659554       -17.9474
  12   2.0000      -0.625838       -17.0299
  13   2.0000      -0.592198       -16.1145
  14   2.0000      -0.569240       -15.4898
  15   2.0000      -0.486292       -13.2327
  16   2.0000      -0.433069       -11.7844
  17   2.0000      -0.373419       -10.1612
  18   0.0000       0.021706         0.5906
  19   0.0000       0.028680         0.7804
  20   0.0000       0.037341         1.0161
  21   0.0000       0.068706         1.8696
  22   0.0000       0.074933         2.0390

MULLIKEN ATOMIC CHARGES
-----------------------
   0 C :   -0.760044
   1 C :   -0.028024
   2 C :   -0.023877
   3 N :   -0.292415
   4 O :   -0.545760
   5 H :    0.496592
   6 H :    0.539332
   7 H :    0.614196
Sum of atomic charges:   -0.0000000

LOEWDIN ATOMIC CHARGES
----------------------
   0 C :    0.280832
   1 C :   -0.029072
   2 C :   -0.081910
   3 N :    0.276412
   4 O :    0.582162
   5 H :   -0.342947
   6 H :   -0.354160
   7 H :   -0.331317

  Mayer bond orders larger than 0.100000
B(  0-C ,  1-C ) :   1.2002 B(  0-C ,  2-C ) :   1.6147 B(  0-C ,  4-O ) :   0.1518
B(  0-C ,  5-H ) :   0.7393 B(  1-C ,  2-C ) :  -0.2102 B(  1-C ,  3-N ) :   1.5256
B(  1-C ,  6-H ) :   0.7311 B(  2-C ,  4-O ) :   0.9708 B(  2-C ,  7-H ) :   0.6692
B(  3-N ,  4-O ) :   0.7443

MP2 TOTAL ENERGY:     -245.670083490 Eh
FINAL SINGLE POINT ENERGY      -245.670083489619

DIPOLE MOMENT
-------------
                                X             Y             Z
Electronic contribution:     -1.88507      -0.35588      -0.00000
Nuclear contribution   :      3.04309       0.96824       0.00000
                        -----------------------------------------
Total Dipole Moment    :      1.15802       0.61236      -0.00000
                        -----------------------------------------
Magnitude (a.u.)       :      1.30996
Magnitude (Debye)      :      3.32965

Rotational constants in cm-1:     0.329129     0.320905     0.162483
Rotational constants in MHz :  9867.043675  9620.488875  4871.103289

                             ****ORCA TERMINATED NORMALLY****
TOTAL RUN TIME: 0 days 0 hours 5 minutes 12 seconds 164 msec
