                         Program Version 5.0.4 -  RELEASE  -
|  1> !ri-mp2 aug-cc-pvqz aug-cc-pvqz/c tightscf
|  2> %pal nprocs 16 end
|  3>
|  4> * xyz 0 1
|  5> N      1.373307   -0.063009    0.041264
|  6> O      1.396548    0.879733    0.795043
|  7> O      2.285464   -0.632107   -0.489189
|  8> O      0.119309   -0.621395   -0.286499
|  9> C     -1.052332    0.063916    0.267361
| 10> C     -1.394970    1.283353   -0.571030
| 11> C     -2.136583   -0.999878    0.268157
| 12> H     -0.806612    0.356435    1.286240
| 13> H     -0.581577    2.006220   -0.570003
| 14> H     -1.610830    0.992297   -1.599382
| 15> H     -2.278986    1.772046   -0.159761
| 16> H     -1.843059   -1.856641    0.872465
| 17> H     -3.052372   -0.580247    0.684532
| 18> H     -2.346969   -1.343252   -0.744705
| 19> *
| 20>
| 21>                          ****END OF INPUT****

CARTESIAN COORDINATES (ANGSTROEM)
---------------------------------
  N      1.373307   -0.063009    0.041264
  O      1.396548    0.879733    0.795043
  O      2.285464   -0.632107   -0.489189
  O      0.119309   -0.621395   -0.286499
  C     -1.052332    0.063916    0.267361
  C     -1.394970    1.283353   -0.571030
  C     -2.136583   -0.999878    0.268157
  H     -0.806612    0.356435    1.286240
  H     -0.581577    2.006220   -0.570003
  H     -1.610830    0.992297   -1.599382
  H     -2.278986    1.772046   -0.159761
  H     -1.843059   -1.856641    0.872465
  H     -3.052372   -0.580247    0.684532
  H     -2.346969   -1.343252   -0.744705

 Total Charge           Charge          ....    0
 Multiplicity           Mult            ....    1
 Number of Electrons    NEL             ....   56
 Basis Dimension        Dim             ....  882

ORBITAL ENERGIES
----------------

  NO   OCC          E(Eh)            E(eV)
   0   2.0000     -20.657229      -562.1118
   1   2.0000     -20.623138      -561.1841
   2   2.0000     -20.622384      -561.1636
   3   2.0000     -15.917287      -433.1314
   4   2.0000     -11.317882      -307.9752
   5   2.0000     -11.239909      -305.8535
   6   2.0000     -11.235565      -305.7353
   7   2.0000      -1.665223       -45.3130
   8   2.0000      -1.444195       -39.2985
   9   2.0000      -1.419331       -38.6219
  10   2.0000      -1.093617       -29.7588
  11   2.0000      -0.967517       -26.3275
  12   2.0000      -0.927420       -25.2364
  13   2.0000      -0.831147       -22.6167
  14   2.0000      -0.799834       -21.7646
  15   2.0000      -0.774012       -21.0619
  16   2.0000      -0.756890       -20.5960
  17   2.0000      -0.654077       -17.7984
  18   2.0000      -0.643141       -17.5008
  19   2.0000      -0.604440       -16.4477
  20   2.0000      -0.571254       -15.5446
  21   2.0000      -0.568037       -15.4571
  22   2.0000      -0.544192       -14.8082
  23   2.0000      -0.529173       -14.3995
  24   2.0000      -0.515125       -14.0173
  25   2.0000      -0.504840       -13.7374
  26   2.0000      -0.492868       -13.4116
  27   2.0000      -0.477908       -13.0045
  28   0.0000       0.022123         0.6020
  29   0.0000       0.030593         0.8325
  30   0.0000       0.032747         0.8911
  31   0.0000       0.040189         1.0936
  32   0.0000       0.053216         1.4481

MULLIKEN ATOMIC CHARGES
-----------------------
   0 N :    1.112972
   1 O :   -0.560207
   2 O :   -0.548200
   3 O :   -0.601746
   4 C :    0.464518
   5 C :   -0.914022
   6 C :   -0.887484
   7 H :    0.327376
   8 H :    0.291161
   9 H :    0.252322
  10 H :    0.287724
  11 H :    0.262049
  12 H :    0.273100
  13 H :    0.240436
Sum of atomic charges:   -0.0000000

LOEWDIN ATOMIC CHARGES
----------------------
   0 N :   -1.179729
   1 O :    0.528837
   2 O :    0.487986
   3 O :    0.697555
   4 C :   -0.274391
   5 C :    0.908564
   6 C :    0.902750
   7 H :   -0.357915
   8 H :   -0.304362
   9 H :   -0.283722
  10 H :   -0.278496
  11 H :   -0.282017
  12 H :   -0.281392
  13 H :   -0.283668

  Mayer bond orders larger than 0.100000
B(  0-N ,  1-O ) :   1.3428 B(  0-N ,  2-O ) :   1.3971 B(  0-N ,  3-O ) :   0.9274
B(  1-O ,  2-O ) :   0.1361 B(  3-O ,  4-C ) :   0.4996 B(  4-C ,  5-C ) :   0.8263
B(  4-C ,  6-C ) :   0.7105 B(  4-C ,  7-H ) :   0.8514 B(  5-C ,  8-H ) :   0.9535
B(  5-C ,  9-H ) :   0.9282 B(  5-C , 10-H ) :   0.9403 B(  6-C , 11-H ) :   0.9629
B(  6-C , 12-H ) :   0.9875 B(  6-C , 13-H ) :   0.9622

MP2 TOTAL ENERGY:     -398.297065322 Eh
FINAL SINGLE POINT ENERGY      -398.297065321519

DIPOLE MOMENT
-------------
                                X             Y             Z
Electronic contribution:     10.90301      -1.17861       0.39748
Nuclear contribution   :    -12.46179       1.34161      -0.23024
                        -----------------------------------------
Total Dipole Moment    :     -1.55879       0.16299       0.16724
                        -----------------------------------------
Magnitude (a.u.)       :      1.57618
Magnitude (Debye)      :      4.00634

Rotational constants in cm-1:     0.171817     0.059002     0.051119
Rotational constants in MHz :  5150.930156  1768.827355  1532.520905

                             ****ORCA TERMINATED NORMALLY****
TOTAL RUN TIME: 0 days 0 hours 24 minutes 45 seconds 794 msec
