                         Program Version 5.0.4 -  RELEASE  -
|  1> !ri-mp2 aug-cc-pvqz aug-cc-pvqz/c tightscf
|  2> %pal nprocs 16 end
|  3>
|  4> * xyz 0 1
|  5> N     -2.466280   -0.000132   -0.115548
|  6> N      1.326285   -2.243604    0.007368
|  7> N      1.326027    2.243752    0.007368
|  8> C      0.059128    0.000000   -0.004517
|  9> C     -1.277855   -0.000071    0.009938
| 10> C      0.760958   -1.239785    0.001005
| 11> C      0.760821    1.239864    0.001005
| 12> H     -3.120536   -0.000167    0.661103
| 13> *
| 14>
| 15>                          ****END OF INPUT****

CARTESIAN COORDINATES (ANGSTROEM)
---------------------------------
  N     -2.466280   -0.000132   -0.115548
  N      1.326285   -2.243604    0.007368
  N      1.326027    2.243752    0.007368
  C      0.059128    0.000000   -0.004517
  C     -1.277855   -0.000071    0.009938
  C      0.760958   -1.239785    0.001005
  C      0.760821    1.239864    0.001005
  H     -3.120536   -0.000167    0.661103

 Total Charge           Charge          ....    0
 Multiplicity           Mult            ....    1
 Number of Electrons    NEL             ....   46
 Basis Dimension        Dim             ....  606

ORBITAL ENERGIES
----------------

  NO   OCC          E(Eh)            E(eV)
   0   2.0000     -15.670797      -426.4241
   1   2.0000     -15.598235      -424.4495
   2   2.0000     -15.598234      -424.4495
   3   2.0000     -11.416866      -310.6687
   4   2.0000     -11.350430      -308.8609
   5   2.0000     -11.308678      -307.7248
   6   2.0000     -11.308660      -307.7243
   7   2.0000      -1.342537       -36.5323
   8   2.0000      -1.258924       -34.2571
   9   2.0000      -1.243711       -33.8431
  10   2.0000      -1.143758       -31.1232
  11   2.0000      -0.894949       -24.3528
  12   2.0000      -0.831331       -22.6217
  13   2.0000      -0.817806       -22.2536
  14   2.0000      -0.649360       -17.6700
  15   2.0000      -0.593319       -16.1450
  16   2.0000      -0.589296       -16.0356
  17   2.0000      -0.565913       -15.3993
  18   2.0000      -0.563202       -15.3255
  19   2.0000      -0.508572       -13.8389
  20   2.0000      -0.507452       -13.8085
  21   2.0000      -0.492325       -13.3968
  22   2.0000      -0.395211       -10.7542
  23   0.0000       0.007687         0.2092
  24   0.0000       0.045394         1.2352
  25   0.0000       0.047154         1.2831
  26   0.0000       0.049471         1.3462
  27   0.0000       0.057650         1.5687

MULLIKEN ATOMIC CHARGES
-----------------------
   0 N :   -0.681925
   1 N :   -0.599859
   2 N :   -0.599858
   3 C :   -0.181875
   4 C :    0.693206
   5 C :    0.479188
   6 C :    0.479188
   7 H :    0.411934
Sum of atomic charges:    0.0000000

LOEWDIN ATOMIC CHARGES
----------------------
   0 N :    0.996223
   1 N :    0.409626
   2 N :    0.409626
   3 C :   -0.338885
   4 C :   -0.078824
   5 C :   -0.388264
   6 C :   -0.388264
   7 H :   -0.621240

  Mayer bond orders larger than 0.100000
B(  0-N ,  4-C ) :   2.0654 B(  0-N ,  7-H ) :   0.7470 B(  1-N ,  5-C ) :   2.5841
B(  2-N ,  6-C ) :   2.5841 B(  3-C ,  4-C ) :   1.5303 B(  3-C ,  5-C ) :   1.1529
B(  3-C ,  6-C ) :   1.1529 B(  4-C ,  5-C ) :  -0.1027 B(  4-C ,  6-C ) :  -0.1027

MP2 TOTAL ENERGY:     -316.695375458 Eh
FINAL SINGLE POINT ENERGY      -316.695375457621

DIPOLE MOMENT
-------------
                                X             Y             Z
Electronic contribution:      0.73923       0.00003      -0.07739
Nuclear contribution   :     -2.95909      -0.00016       0.62656
                        -----------------------------------------
Total Dipole Moment    :     -2.21985      -0.00013       0.54917
                        -----------------------------------------
Magnitude (a.u.)       :      2.28677
Magnitude (Debye)      :      5.81252

Rotational constants in cm-1:     0.094512     0.094413     0.047391
Rotational constants in MHz :  2833.408863  2830.426687  1420.747982

                             ****ORCA TERMINATED NORMALLY****
TOTAL RUN TIME: 0 days 0 hours 7 minutes 49 seconds 45 msec
