                         Program Version 5.0.4 -  RELEASE  -
|  1> !ri-mp2 aug-cc-pvqz aug-cc-pvqz/c tightscf
|  2> %pal nprocs 16 end
|  3>
|  4> * xyz 0 1
|  5> H      1.358380   -1.380419        0.000000
|  6> N      0.395111   -1.094787        0.000000
|  7> C      0.000000    0.049280        0.000000
|  8> O     -0.515520    1.093531        0.000000
|  9> *
| 10>
| 11>                          ****END OF INPUT****

CARTESIAN COORDINATES (ANGSTROEM)
---------------------------------
  H      1.358380   -1.380419    0.000000
  N      0.395111   -1.094787    0.000000
  C      0.000000    0.049280    0.000000
  O     -0.515520    1.093531    0.000000

 Total Charge           Charge          ....    0
 Multiplicity           Mult            ....    1
 Number of Electrons    NEL             ....   22
 Basis Dimension        Dim             ....  286

ORBITAL ENERGIES
----------------

  NO   OCC          E(Eh)            E(eV)
   0   2.0000     -20.622145      -561.1571
   1   2.0000     -15.592810      -424.3019
   2   2.0000     -11.413659      -310.5815
   3   2.0000      -1.477611       -40.2078
   4   2.0000      -1.265755       -34.4429
   5   2.0000      -0.817112       -22.2348
   6   2.0000      -0.733544       -19.9608
   7   2.0000      -0.659566       -17.9477
   8   2.0000      -0.648871       -17.6567
   9   2.0000      -0.487382       -13.2623
  10   2.0000      -0.455223       -12.3873
  11   0.0000       0.020355         0.5539
  12   0.0000       0.062340         1.6964
  13   0.0000       0.064629         1.7587
  14   0.0000       0.066383         1.8064
  15   0.0000       0.087491         2.3807

MULLIKEN ATOMIC CHARGES
-----------------------
   0 H :    0.377158
   1 N :   -0.728210
   2 C :    0.889321
   3 O :   -0.538269
Sum of atomic charges:    0.0000000

LOEWDIN ATOMIC CHARGES
----------------------
   0 H :   -0.705425
   1 N :    0.871038
   2 C :   -0.751732
   3 O :    0.586119

  Mayer bond orders larger than 0.100000
B(  0-H ,  1-N ) :   0.7944 B(  1-N ,  2-C ) :   2.0653 B(  1-N ,  3-O ) :   0.1919
B(  2-C ,  3-O ) :   1.9327

MP2 TOTAL ENERGY:     -168.466856355 Eh
FINAL SINGLE POINT ENERGY      -168.466856354973

DIPOLE MOMENT
-------------
                                X             Y             Z
Electronic contribution:     -0.47657       0.93986      -0.00000
Nuclear contribution   :      1.29890      -1.31526       0.00000
                        -----------------------------------------
Total Dipole Moment    :      0.82232      -0.37540      -0.00000
                        -----------------------------------------
Magnitude (a.u.)       :      0.90396
Magnitude (Debye)      :      2.29768

Rotational constants in cm-1:    29.695573     0.370370     0.365807
Rotational constants in MHz : 890250.896759 11103.400559 10966.622486

                             ****ORCA TERMINATED NORMALLY****
TOTAL RUN TIME: 0 days 0 hours 1 minutes 18 seconds 551 msec
