                         Program Version 5.0.4 -  RELEASE  -
|  1> !ri-mp2 aug-cc-pvqz aug-cc-pvqz/c tightscf
|  2> %pal nprocs 16 end
|  3>
|  4> * xyz 0 1
|  5> S     -1.706782   -0.543256   -0.058637
|  6> O      2.540354   -0.659034   -0.086094
|  7> N      0.706588    0.801429    0.239004
|  8> C     -0.664935    0.969752   -0.139339
|  9> C      1.599379    0.023801    0.031598
| 10> H     -1.726078   -0.641935    1.283273
| 11> H     -1.104325    1.734549    0.492248
| 12> H     -0.736693    1.300429   -1.175164
| 13> *
| 14>
| 15>                          ****END OF INPUT****

CARTESIAN COORDINATES (ANGSTROEM)
---------------------------------
  S     -1.706782   -0.543256   -0.058637
  O      2.540354   -0.659034   -0.086094
  N      0.706588    0.801429    0.239004
  C     -0.664935    0.969752   -0.139339
  C      1.599379    0.023801    0.031598
  H     -1.726078   -0.641935    1.283273
  H     -1.104325    1.734549    0.492248
  H     -0.736693    1.300429   -1.175164

 Total Charge           Charge          ....    0
 Multiplicity           Mult            ....    1
 Number of Electrons    NEL             ....   46
 Basis Dimension        Dim             ....  542

ORBITAL ENERGIES
----------------

  NO   OCC          E(Eh)            E(eV)
   0   2.0000     -91.974528     -2502.7542
   1   2.0000     -20.611576      -560.8695
   2   2.0000     -15.594762      -424.3551
   3   2.0000     -11.405993      -310.3728
   4   2.0000     -11.336877      -308.4921
   5   2.0000      -8.976780      -244.2706
   6   2.0000      -6.658230      -181.1796
   7   2.0000      -6.657337      -181.1554
   8   2.0000      -6.656412      -181.1302
   9   2.0000      -1.465785       -39.8860
  10   2.0000      -1.286030       -34.9947
  11   2.0000      -1.060175       -28.8488
  12   2.0000      -0.923432       -25.1279
  13   2.0000      -0.749077       -20.3834
  14   2.0000      -0.712795       -19.3961
  15   2.0000      -0.682670       -18.5764
  16   2.0000      -0.658992       -17.9321
  17   2.0000      -0.619684       -16.8625
  18   2.0000      -0.572289       -15.5728
  19   2.0000      -0.516907       -14.0657
  20   2.0000      -0.444313       -12.0904
  21   2.0000      -0.428681       -11.6650
  22   2.0000      -0.385101       -10.4791
  23   0.0000       0.022182         0.6036
  24   0.0000       0.032791         0.8923
  25   0.0000       0.039110         1.0642
  26   0.0000       0.052187         1.4201
  27   0.0000       0.067726         1.8429

MULLIKEN ATOMIC CHARGES
-----------------------
   0 S :   -0.134988
   1 O :   -0.619862
   2 N :   -0.684725
   3 C :   -0.370974
   4 C :    1.082323
   5 H :    0.076088
   6 H :    0.335380
   7 H :    0.316758
Sum of atomic charges:    0.0000000

LOEWDIN ATOMIC CHARGES
----------------------
   0 S :    1.557020
   1 O :    0.592379
   2 N :    0.412369
   3 C :   -0.168974
   4 C :   -0.774193
   5 H :   -0.784358
   6 H :   -0.414503
   7 H :   -0.419740

  Mayer bond orders larger than 0.100000
B(  0-S ,  3-C ) :   0.9607 B(  0-S ,  5-H ) :   1.0164 B(  1-O ,  2-N ) :   0.2613
B(  1-O ,  4-C ) :   1.7157 B(  2-N ,  3-C ) :   0.7587 B(  2-N ,  4-C ) :   2.1428
B(  3-C ,  6-H ) :   0.8768 B(  3-C ,  7-H ) :   0.8707

MP2 TOTAL ENERGY:     -605.426326237 Eh
FINAL SINGLE POINT ENERGY      -605.426326237464

DIPOLE MOMENT
-------------
                                X             Y             Z
Electronic contribution:      2.58912      -1.70362      -0.48968
Nuclear contribution   :     -3.36429       2.33072       0.58383
                        -----------------------------------------
Total Dipole Moment    :     -0.77516       0.62711       0.09415
                        -----------------------------------------
Magnitude (a.u.)       :      1.00150
Magnitude (Debye)      :      2.54561

Rotational constants in cm-1:     0.363852     0.067744     0.058904
Rotational constants in MHz : 10907.995814  2030.911713  1765.911225

                             ****ORCA TERMINATED NORMALLY****
TOTAL RUN TIME: 0 days 0 hours 5 minutes 29 seconds 640 msec
