                         Program Version 5.0.4 -  RELEASE  -
|  1> !ri-mp2 aug-cc-pvqz aug-cc-pvqz/c tightscf
|  2> %pal nprocs 16 end
|  3>
|  4> * xyz 0 1
|  5> S     0.000005    0.180949   -0.000031
|  6> O     4.161913    1.053413    0.440220
|  7> O    -4.161949    1.053366   -0.440227
|  8> N     2.574769   -0.356348   -0.604807
|  9> N    -2.574743   -0.356296    0.604841
| 10> C     1.346924   -1.035946   -0.351650
| 11> C    -1.346915   -1.035919    0.351674
| 12> C     3.340117    0.359645   -0.014871
| 13> C    -3.340125    0.359642    0.014882
| 14> H     1.444429   -1.712184    0.498745
| 15> H     1.081666   -1.610562   -1.235849
| 16> H    -1.081634   -1.610502    1.235889
| 17> H    -1.444453   -1.712191   -0.498690
| 18> *
| 19>
| 20>                          ****END OF INPUT****

CARTESIAN COORDINATES (ANGSTROEM)
---------------------------------
  S      0.000005    0.180949   -0.000031
  O      4.161913    1.053413    0.440220
  O     -4.161949    1.053366   -0.440227
  N      2.574769   -0.356348   -0.604807
  N     -2.574743   -0.356296    0.604841
  C      1.346924   -1.035946   -0.351650
  C     -1.346915   -1.035919    0.351674
  C      3.340117    0.359645   -0.014871
  C     -3.340125    0.359642    0.014882
  H      1.444429   -1.712184    0.498745
  H      1.081666   -1.610562   -1.235849
  H     -1.081634   -1.610502    1.235889
  H     -1.444453   -1.712191   -0.498690

 Total Charge           Charge          ....    0
 Multiplicity           Mult            ....    1
 Number of Electrons    NEL             ....   74
 Basis Dimension        Dim             ....  908

ORBITAL ENERGIES
----------------

  NO   OCC          E(Eh)            E(eV)
   0   2.0000     -91.979796     -2502.8975
   1   2.0000     -20.618274      -561.0518
   2   2.0000     -20.618274      -561.0518
   3   2.0000     -15.604267      -424.6137
   4   2.0000     -15.604266      -424.6137
   5   2.0000     -11.414028      -310.5915
   6   2.0000     -11.414028      -310.5915
   7   2.0000     -11.343832      -308.6814
   8   2.0000     -11.343825      -308.6812
   9   2.0000      -8.981536      -244.4000
  10   2.0000      -6.662746      -181.3025
  11   2.0000      -6.661936      -181.2805
  12   2.0000      -6.660778      -181.2490
  13   2.0000      -1.472941       -40.0808
  14   2.0000      -1.472931       -40.0805
  15   2.0000      -1.297474       -35.3061
  16   2.0000      -1.294386       -35.2220
  17   2.0000      -1.089002       -29.6333
  18   2.0000      -1.013551       -27.5801
  19   2.0000      -0.895457       -24.3666
  20   2.0000      -0.760602       -20.6970
  21   2.0000      -0.750748       -20.4289
  22   2.0000      -0.724633       -19.7183
  23   2.0000      -0.711289       -19.3552
  24   2.0000      -0.693806       -18.8794
  25   2.0000      -0.682989       -18.5851
  26   2.0000      -0.676109       -18.3979
  27   2.0000      -0.657925       -17.9030
  28   2.0000      -0.628760       -17.1094
  29   2.0000      -0.612591       -16.6695
  30   2.0000      -0.595307       -16.1991
  31   2.0000      -0.507039       -13.7972
  32   2.0000      -0.462319       -12.5803
  33   2.0000      -0.459674       -12.5084
  34   2.0000      -0.438619       -11.9354
  35   2.0000      -0.421947       -11.4818
  36   2.0000      -0.375937       -10.2298
  37   0.0000       0.016372         0.4455
  38   0.0000       0.029291         0.7971
  39   0.0000       0.031251         0.8504
  40   0.0000       0.042859         1.1662
  41   0.0000       0.050551         1.3756

MULLIKEN ATOMIC CHARGES
-----------------------
   0 S :    0.008410
   1 O :   -0.635283
   2 O :   -0.635285
   3 N :   -0.782336
   4 N :   -0.782346
   5 C :   -0.267756
   6 C :   -0.267742
   7 C :    1.064906
   8 C :    1.064902
   9 H :    0.274617
  10 H :    0.341649
  11 H :    0.341647
  12 H :    0.274619
Sum of atomic charges:   -0.0000000

LOEWDIN ATOMIC CHARGES
----------------------
   0 S :    1.290908
   1 O :    0.598492
   2 O :    0.598491
   3 N :    0.409506
   4 N :    0.409504
   5 C :   -0.118653
   6 C :   -0.118656
   7 C :   -0.754240
   8 C :   -0.754237
   9 H :   -0.382379
  10 H :   -0.398179
  11 H :   -0.398179
  12 H :   -0.382378

  Mayer bond orders larger than 0.100000
B(  0-S ,  5-C ) :   0.9689 B(  0-S ,  6-C ) :   0.9689 B(  1-O ,  3-N ) :   0.2776
B(  1-O ,  7-C ) :   1.6556 B(  2-O ,  4-N ) :   0.2776 B(  2-O ,  8-C ) :   1.6556
B(  3-N ,  5-C ) :   0.7945 B(  3-N ,  7-C ) :   2.2120 B(  4-N ,  6-C ) :   0.7945
B(  4-N ,  8-C ) :   2.2120 B(  5-C ,  9-H ) :   0.8880 B(  5-C , 10-H ) :   0.8569
B(  6-C , 11-H ) :   0.8569 B(  6-C , 12-H ) :   0.8880

MP2 TOTAL ENERGY:     -811.922906883 Eh
FINAL SINGLE POINT ENERGY      -811.922906883219

DIPOLE MOMENT
-------------
                                X             Y             Z
Electronic contribution:     -0.00001       4.69478      -0.00007
Nuclear contribution   :      0.00001      -6.38446       0.00009
                        -----------------------------------------
Total Dipole Moment    :     -0.00001      -1.68969       0.00002
                        -----------------------------------------
Magnitude (a.u.)       :      1.68969
Magnitude (Debye)      :      4.29484

Rotational constants in cm-1:     0.163918     0.015593     0.014814
Rotational constants in MHz :  4914.141133   467.457407   444.111020

                             ****ORCA TERMINATED NORMALLY****
TOTAL RUN TIME: 0 days 0 hours 20 minutes 17 seconds 874 msec
