                         Program Version 5.0.4 -  RELEASE  -
|  1> !ri-mp2 aug-cc-pvqz aug-cc-pvqz/c tightscf
|  2> %pal nprocs 16 end
|  3>
|  4> * xyz 0 1
|  5> C      1.617743   -0.394675    0.283252
|  6> C     -1.893251   -0.863530   -0.252957
|  7> C     -0.944016    1.436162    0.264110
|  8> C     -0.675794    0.040279   -0.273129
|  9> O      2.051181    0.295615   -0.599753
| 10> O      0.330551   -0.615131    0.565758
| 11> H      2.240430   -0.955104    0.992486
| 12> H     -2.678480   -0.440562   -0.880088
| 13> H     -1.648581   -1.854994   -0.632319
| 14> H     -2.282128   -0.967445    0.760564
| 15> H     -1.698111    1.930159   -0.349869
| 16> H     -0.039874    2.042006    0.242524
| 17> H     -1.314363    1.388173    1.289063
| 18> H     -0.260844    0.104471   -1.278058
| 19> *
| 20>
| 21>                          ****END OF INPUT****

CARTESIAN COORDINATES (ANGSTROEM)
---------------------------------
  C      1.617743   -0.394675    0.283252
  C     -1.893251   -0.863530   -0.252957
  C     -0.944016    1.436162    0.264110
  C     -0.675794    0.040279   -0.273129
  O      2.051181    0.295615   -0.599753
  O      0.330551   -0.615131    0.565758
  H      2.240430   -0.955104    0.992486
  H     -2.678480   -0.440562   -0.880088
  H     -1.648581   -1.854994   -0.632319
  H     -2.282128   -0.967445    0.760564
  H     -1.698111    1.930159   -0.349869
  H     -0.039874    2.042006    0.242524
  H     -1.314363    1.388173    1.289063
  H     -0.260844    0.104471   -1.278058

 Total Charge           Charge          ....    0
 Multiplicity           Mult            ....    1
 Number of Electrons    NEL             ....   48
 Basis Dimension        Dim             ....  848

ORBITAL ENERGIES
----------------

  NO   OCC          E(Eh)            E(eV)
   0   2.0000     -20.602475      -560.6219
   1   2.0000     -20.549277      -559.1742
   2   2.0000     -11.379505      -309.6521
   3   2.0000     -11.298304      -307.4425
   4   2.0000     -11.225250      -305.4546
   5   2.0000     -11.222443      -305.3782
   6   2.0000      -1.459155       -39.7056
   7   2.0000      -1.364782       -37.1376
   8   2.0000      -1.075835       -29.2750
   9   2.0000      -0.951753       -25.8985
  10   2.0000      -0.883058       -24.0292
  11   2.0000      -0.780191       -21.2301
  12   2.0000      -0.732412       -19.9300
  13   2.0000      -0.679567       -18.4919
  14   2.0000      -0.653511       -17.7829
  15   2.0000      -0.615708       -16.7543
  16   2.0000      -0.583683       -15.8828
  17   2.0000      -0.561188       -15.2707
  18   2.0000      -0.550905       -14.9909
  19   2.0000      -0.532004       -14.4766
  20   2.0000      -0.513089       -13.9619
  21   2.0000      -0.491067       -13.3626
  22   2.0000      -0.461033       -12.5454
  23   2.0000      -0.453998       -12.3539
  24   0.0000       0.025145         0.6842
  25   0.0000       0.031656         0.8614
  26   0.0000       0.033302         0.9062
  27   0.0000       0.037155         1.0111
  28   0.0000       0.049762         1.3541

MULLIKEN ATOMIC CHARGES
-----------------------
   0 C :    0.309470
   1 C :   -0.882510
   2 C :   -0.920157
   3 C :    0.537953
   4 O :   -0.750539
   5 O :   -0.720008
   6 H :    0.572766
   7 H :    0.261648
   8 H :    0.254890
   9 H :    0.225815
  10 H :    0.273966
  11 H :    0.283207
  12 H :    0.247143
  13 H :    0.306357
Sum of atomic charges:    0.0000000

LOEWDIN ATOMIC CHARGES
----------------------
   0 C :   -0.660775
   1 C :    0.907208
   2 C :    0.911475
   3 C :   -0.245359
   4 O :    0.683036
   5 O :    0.850570
   6 H :   -0.398167
   7 H :   -0.283172
   8 H :   -0.282912
   9 H :   -0.285460
  10 H :   -0.278964
  11 H :   -0.293103
  12 H :   -0.283124
  13 H :   -0.341254

  Mayer bond orders larger than 0.100000
B(  0-C ,  4-O ) :   1.7080 B(  0-C ,  5-O ) :   1.1238 B(  0-C ,  6-H ) :   0.6568
B(  1-C ,  3-C ) :   0.7105 B(  1-C ,  7-H ) :   1.0078 B(  1-C ,  8-H ) :   0.9716
B(  1-C ,  9-H ) :   0.9673 B(  2-C ,  3-C ) :   0.8371 B(  2-C , 10-H ) :   0.9556
B(  2-C , 11-H ) :   0.9546 B(  2-C , 12-H ) :   0.9315 B(  3-C ,  5-O ) :   0.4119
B(  3-C , 13-H ) :   0.8685

MP2 TOTAL ENERGY:     -307.241874194 Eh
FINAL SINGLE POINT ENERGY      -307.241874194228

DIPOLE MOMENT
-------------
                                X             Y             Z
Electronic contribution:      7.03103      -1.52215       0.20413
Nuclear contribution   :     -7.82153       1.27044       0.14710
                        -----------------------------------------
Total Dipole Moment    :     -0.79050      -0.25171       0.35123
                        -----------------------------------------
Magnitude (a.u.)       :      0.90090
Magnitude (Debye)      :      2.28990

Rotational constants in cm-1:     0.213297     0.082374     0.069465
Rotational constants in MHz :  6394.469650  2469.498367  2082.513683

                             ****ORCA TERMINATED NORMALLY****
TOTAL RUN TIME: 0 days 0 hours 26 minutes 52 seconds 470 msec
