                         Program Version 5.0.4 -  RELEASE  -
|  1> !ri-mp2 aug-cc-pvqz aug-cc-pvqz/c tightscf
|  2> %pal nprocs 16 end
|  3>
|  4> * xyz 0 1
|  5> C     -0.045568   -2.249090    0.696137
|  6> C     -0.045568   -2.249090   -0.696137
|  7> C      0.004095   -1.048325    1.400520
|  8> C      0.004095   -1.048325   -1.400520
|  9> C      0.049674    0.148504    0.698241
| 10> C      0.049674    0.148504   -0.698241
| 11> C      0.125739    1.561338    1.227438
| 12> C      0.125739    1.561338   -1.227438
| 13> C     -0.258685    2.418849    0.000000
| 14> H     -0.089794   -3.187131    1.233424
| 15> H     -0.089794   -3.187131   -1.233424
| 16> H      0.001095   -1.053757    2.483428
| 17> H      0.001095   -1.053757   -2.483428
| 18> H     -0.526446    1.733848    2.084324
| 19> H      1.145985    1.785770    1.556006
| 20> H      1.145985    1.785770   -1.556006
| 21> H     -0.526446    1.733848   -2.084324
| 22> H     -1.337645    2.583506    0.000000
| 23> H      0.220799    3.396809    0.000000
| 24> *
| 25>
| 26>                          ****END OF INPUT****

CARTESIAN COORDINATES (ANGSTROEM)
---------------------------------
  C     -0.045568   -2.249090    0.696137
  C     -0.045568   -2.249090   -0.696137
  C      0.004095   -1.048325    1.400520
  C      0.004095   -1.048325   -1.400520
  C      0.049674    0.148504    0.698241
  C      0.049674    0.148504   -0.698241
  C      0.125739    1.561338    1.227438
  C      0.125739    1.561338   -1.227438
  C     -0.258685    2.418849    0.000000
  H     -0.089794   -3.187131    1.233424
  H     -0.089794   -3.187131   -1.233424
  H      0.001095   -1.053757    2.483428
  H      0.001095   -1.053757   -2.483428
  H     -0.526446    1.733848    2.084324
  H      1.145985    1.785770    1.556006
  H      1.145985    1.785770   -1.556006
  H     -0.526446    1.733848   -2.084324
  H     -1.337645    2.583506    0.000000
  H      0.220799    3.396809    0.000000

 Total Charge           Charge          ....    0
 Multiplicity           Mult            ....    1
 Number of Electrons    NEL             ....   64
 Basis Dimension        Dim             .... 1180

ORBITAL ENERGIES
----------------

  NO   OCC          E(Eh)            E(eV)
   0   2.0000     -11.227331      -305.5112
   1   2.0000     -11.226722      -305.4946
   2   2.0000     -11.226691      -305.4938
   3   2.0000     -11.225513      -305.4617
   4   2.0000     -11.225448      -305.4600
   5   2.0000     -11.224837      -305.4433
   6   2.0000     -11.224214      -305.4264
   7   2.0000     -11.224099      -305.4233
   8   2.0000     -11.222019      -305.3667
   9   2.0000      -1.166960       -31.7546
  10   2.0000      -1.088840       -29.6288
  11   2.0000      -1.022384       -27.8205
  12   2.0000      -0.971841       -26.4451
  13   2.0000      -0.939151       -25.5556
  14   2.0000      -0.829897       -22.5826
  15   2.0000      -0.790871       -21.5207
  16   2.0000      -0.780940       -21.2505
  17   2.0000      -0.682875       -18.5820
  18   2.0000      -0.647292       -17.6137
  19   2.0000      -0.629536       -17.1305
  20   2.0000      -0.618425       -16.8282
  21   2.0000      -0.572109       -15.5679
  22   2.0000      -0.566320       -15.4104
  23   2.0000      -0.557721       -15.1764
  24   2.0000      -0.511928       -13.9303
  25   2.0000      -0.497425       -13.5356
  26   2.0000      -0.490740       -13.3537
  27   2.0000      -0.473908       -12.8957
  28   2.0000      -0.467606       -12.7242
  29   2.0000      -0.462349       -12.5811
  30   2.0000      -0.329014        -8.9529
  31   2.0000      -0.315051        -8.5730
  32   0.0000       0.026879         0.7314
  33   0.0000       0.028664         0.7800
  34   0.0000       0.028835         0.7846
  35   0.0000       0.036738         0.9997
  36   0.0000       0.040205         1.0940

MULLIKEN ATOMIC CHARGES
-----------------------
   0 C :   -0.296735
   1 C :   -0.296654
   2 C :   -0.629505
   3 C :   -0.629849
   4 C :    0.493120
   5 C :    0.493063
   6 C :   -0.567696
   7 C :   -0.567531
   8 C :   -0.514117
   9 H :    0.273904
  10 H :    0.273941
  11 H :    0.265428
  12 H :    0.265522
  13 H :    0.225547
  14 H :    0.248430
  15 H :    0.248471
  16 H :    0.225399
  17 H :    0.220004
  18 H :    0.269257
Sum of atomic charges:   -0.0000000

LOEWDIN ATOMIC CHARGES
----------------------
   0 C :    0.337916
   1 C :    0.337916
   2 C :    0.370282
   3 C :    0.370282
   4 C :   -0.073452
   5 C :   -0.073452
   6 C :    0.531969
   7 C :    0.531969
   8 C :    0.535540
   9 H :   -0.327707
  10 H :   -0.327707
  11 H :   -0.314907
  12 H :   -0.314907
  13 H :   -0.266631
  14 H :   -0.261811
  15 H :   -0.261811
  16 H :   -0.266631
  17 H :   -0.267587
  18 H :   -0.259271

  Mayer bond orders larger than 0.100000
B(  0-C ,  1-C ) :   1.1525 B(  0-C ,  2-C ) :   1.2854 B(  0-C ,  4-C ) :  -0.2668
B(  0-C ,  9-H ) :   1.1017 B(  0-C , 10-H ) :  -0.1035 B(  1-C ,  3-C ) :   1.2855
B(  1-C ,  5-C ) :  -0.2669 B(  1-C ,  9-H ) :  -0.1035 B(  1-C , 10-H ) :   1.1016
B(  2-C ,  3-C ) :   0.1522 B(  2-C ,  4-C ) :   0.9180 B(  2-C ,  5-C ) :  -0.1401
B(  2-C ,  9-H ) :  -0.1461 B(  2-C , 11-H ) :   1.0142 B(  3-C ,  4-C ) :  -0.1401
B(  3-C ,  5-C ) :   0.9181 B(  3-C , 10-H ) :  -0.1461 B(  3-C , 12-H ) :   1.0141
B(  4-C ,  5-C ) :   0.9876 B(  4-C ,  6-C ) :   0.6632 B(  4-C ,  7-C ) :  -0.1454
B(  4-C ,  8-C ) :  -0.1250 B(  4-C , 11-H ) :  -0.1034 B(  5-C ,  6-C ) :  -0.1453
B(  5-C ,  7-C ) :   0.6633 B(  5-C ,  8-C ) :  -0.1249 B(  5-C , 12-H ) :  -0.1033
B(  6-C ,  8-C ) :   1.1185 B(  6-C , 13-H ) :   1.0423 B(  6-C , 14-H ) :   0.9010
B(  7-C ,  8-C ) :   1.1185 B(  7-C , 15-H ) :   0.9010 B(  7-C , 16-H ) :   1.0425
B(  8-C , 17-H ) :   0.9256 B(  8-C , 18-H ) :   0.9390

MP2 TOTAL ENERGY:     -348.331203168 Eh
FINAL SINGLE POINT ENERGY      -348.331203168006

DIPOLE MOMENT
-------------
                                X             Y             Z
Electronic contribution:      0.07608      -4.34319      -0.00000
Nuclear contribution   :     -0.05611       4.61525      -0.00000
                        -----------------------------------------
Total Dipole Moment    :      0.01997       0.27206      -0.00000
                        -----------------------------------------
Magnitude (a.u.)       :      0.27279
Magnitude (Debye)      :      0.69339

Rotational constants in cm-1:     0.118573     0.050017     0.036139
Rotational constants in MHz :  3554.732434  1499.472183  1083.406875

                             ****ORCA TERMINATED NORMALLY****
TOTAL RUN TIME: 0 days 1 hours 32 minutes 57 seconds 723 msec
