                         Program Version 5.0.4 -  RELEASE  -
|  1> !ri-mp2 aug-cc-pvqz aug-cc-pvqz/c tightscf
|  2> %pal nprocs 16 end
|  3> %maxcore 3800
|  4>
|  5> * xyz 0 1
|  6> C      1.333873    2.598690    0.000000
|  7> C      0.875686    2.067268    1.199941
|  8> C      0.875686    2.067268   -1.199941
|  9> C     -0.026619    1.009896    1.196493
| 10> C     -0.026619    1.009896   -1.196493
| 11> C     -0.488807    0.456180    0.000000
| 12> C     -0.026619   -2.412117   -1.261997
| 13> C     -0.026619   -2.412117    1.261997
| 14> C     -1.461521   -0.699761    0.000000
| 15> C     -0.842543   -2.122471    0.000000
| 16> H      2.032977    3.424064    0.000000
| 17> H      1.216030    2.479956    2.140563
| 18> H      1.216030    2.479956   -2.140563
| 19> H     -0.383900    0.613202    2.138360
| 20> H     -0.383900    0.613202   -2.138360
| 21> H      0.854188   -1.771177   -1.323883
| 22> H     -0.618707   -2.255130   -2.165763
| 23> H      0.317444   -3.447758   -1.266811
| 24> H      0.317444   -3.447758    1.266811
| 25> H      0.854188   -1.771177    1.323883
| 26> H     -0.618707   -2.255130    2.165763
| 27> H     -2.110211   -0.616300    0.875339
| 28> H     -2.110211   -0.616300   -0.875339
| 29> H     -1.698056   -2.806051    0.000000
| 30> *
| 31>
| 32>                          ****END OF INPUT****

CARTESIAN COORDINATES (ANGSTROEM)
---------------------------------
  C      1.333873    2.598690    0.000000
  C      0.875686    2.067268    1.199941
  C      0.875686    2.067268   -1.199941
  C     -0.026619    1.009896    1.196493
  C     -0.026619    1.009896   -1.196493
  C     -0.488807    0.456180    0.000000
  C     -0.026619   -2.412117   -1.261997
  C     -0.026619   -2.412117    1.261997
  C     -1.461521   -0.699761    0.000000
  C     -0.842543   -2.122471    0.000000
  H      2.032977    3.424064    0.000000
  H      1.216030    2.479956    2.140563
  H      1.216030    2.479956   -2.140563
  H     -0.383900    0.613202    2.138360
  H     -0.383900    0.613202   -2.138360
  H      0.854188   -1.771177   -1.323883
  H     -0.618707   -2.255130   -2.165763
  H      0.317444   -3.447758   -1.266811
  H      0.317444   -3.447758    1.266811
  H      0.854188   -1.771177    1.323883
  H     -0.618707   -2.255130    2.165763
  H     -2.110211   -0.616300    0.875339
  H     -2.110211   -0.616300   -0.875339
  H     -1.698056   -2.806051    0.000000

 Total Charge           Charge          ....    0
 Multiplicity           Mult            ....    1
 Number of Electrons    NEL             ....   74
 Basis Dimension        Dim             .... 1444

ORBITAL ENERGIES
----------------

  NO   OCC          E(Eh)            E(eV)
   0   2.0000     -11.235054      -305.7214
   1   2.0000     -11.229837      -305.5794
   2   2.0000     -11.229602      -305.5730
   3   2.0000     -11.227305      -305.5105
   4   2.0000     -11.226630      -305.4921
   5   2.0000     -11.225739      -305.4679
   6   2.0000     -11.225638      -305.4652
   7   2.0000     -11.222702      -305.3853
   8   2.0000     -11.206744      -304.9510
   9   2.0000     -11.206724      -304.9505
  10   2.0000      -1.153775       -31.3958
  11   2.0000      -1.087676       -29.5972
  12   2.0000      -1.021283       -27.7905
  13   2.0000      -1.010874       -27.5073
  14   2.0000      -0.927499       -25.2385
  15   2.0000      -0.925443       -25.1826
  16   2.0000      -0.823452       -22.4073
  17   2.0000      -0.811246       -22.0751
  18   2.0000      -0.758185       -20.6313
  19   2.0000      -0.688303       -18.7297
  20   2.0000      -0.638803       -17.3827
  21   2.0000      -0.636545       -17.3213
  22   2.0000      -0.623461       -16.9652
  23   2.0000      -0.591264       -16.0891
  24   2.0000      -0.583945       -15.8900
  25   2.0000      -0.575871       -15.6703
  26   2.0000      -0.558650       -15.2016
  27   2.0000      -0.531857       -14.4726
  28   2.0000      -0.515159       -14.0182
  29   2.0000      -0.505123       -13.7451
  30   2.0000      -0.497965       -13.5503
  31   2.0000      -0.483154       -13.1473
  32   2.0000      -0.463216       -12.6047
  33   2.0000      -0.462205       -12.5772
  34   2.0000      -0.451284       -12.2801
  35   2.0000      -0.333746        -9.0817
  36   2.0000      -0.323425        -8.8009
  37   0.0000       0.024791         0.6746
  38   0.0000       0.027607         0.7512
  39   0.0000       0.029143         0.7930
  40   0.0000       0.033428         0.9096
  41   0.0000       0.039410         1.0724

MULLIKEN ATOMIC CHARGES
-----------------------
   0 C :   -0.436104
   1 C :   -0.312101
   2 C :   -0.312233
   3 C :   -0.646555
   4 C :   -0.646712
   5 C :    0.923511
   6 C :   -0.938587
   7 C :   -0.938621
   8 C :   -0.432857
   9 C :    0.306506
  10 H :    0.349758
  11 H :    0.222649
  12 H :    0.222624
  13 H :    0.270847
  14 H :    0.270857
  15 H :    0.222303
  16 H :    0.206973
  17 H :    0.258309
  18 H :    0.258345
  19 H :    0.222277
  20 H :    0.206993
  21 H :    0.215860
  22 H :    0.216088
  23 H :    0.289869
Sum of atomic charges:    0.0000000

LOEWDIN ATOMIC CHARGES
----------------------
   0 C :    0.337133
   1 C :    0.348384
   2 C :    0.348384
   3 C :    0.341688
   4 C :    0.341688
   5 C :   -0.071350
   6 C :    0.921877
   7 C :    0.921877
   8 C :    0.509353
   9 C :    0.119541
  10 H :   -0.326282
  11 H :   -0.321980
  12 H :   -0.321980
  13 H :   -0.316908
  14 H :   -0.316908
  15 H :   -0.285820
  16 H :   -0.271814
  17 H :   -0.274607
  18 H :   -0.274607
  19 H :   -0.285820
  20 H :   -0.271814
  21 H :   -0.286251
  22 H :   -0.286251
  23 H :   -0.277537

  Mayer bond orders larger than 0.100000
B(  0-C ,  1-C ) :   1.1498 B(  0-C ,  2-C ) :   1.1496 B(  0-C ,  3-C ) :   0.1025
B(  0-C ,  4-C ) :   0.1026 B(  0-C , 10-H ) :   0.9827 B(  0-C , 11-H ) :  -0.1072
B(  0-C , 12-H ) :  -0.1073 B(  1-C ,  3-C ) :   1.3474 B(  1-C ,  4-C ) :   0.1502
B(  1-C ,  5-C ) :  -0.3512 B(  1-C , 11-H ) :   1.1813 B(  2-C ,  3-C ) :   0.1501
B(  2-C ,  4-C ) :   1.3477 B(  2-C ,  5-C ) :  -0.3511 B(  2-C , 12-H ) :   1.1813
B(  3-C ,  5-C ) :   0.8517 B(  3-C ,  8-C ) :  -0.1766 B(  3-C , 11-H ) :  -0.1670
B(  3-C , 13-H ) :   0.9977 B(  4-C ,  5-C ) :   0.8517 B(  4-C ,  8-C ) :  -0.1765
B(  4-C , 12-H ) :  -0.1669 B(  4-C , 14-H ) :   0.9977 B(  5-C ,  8-C ) :   0.6091
B(  6-C ,  7-C ) :   0.1001 B(  6-C ,  9-C ) :   0.6719 B(  6-C , 15-H ) :   0.9536
B(  6-C , 16-H ) :   1.0322 B(  6-C , 17-H ) :   1.0272 B(  7-C ,  9-C ) :   0.6719
B(  7-C , 18-H ) :   1.0272 B(  7-C , 19-H ) :   0.9536 B(  7-C , 20-H ) :   1.0321
B(  8-C ,  9-C ) :   0.8219 B(  8-C , 21-H ) :   1.0552 B(  8-C , 22-H ) :   1.0550
B(  9-C , 23-H ) :   0.8650

MP2 TOTAL ENERGY:     -388.763500604 Eh
FINAL SINGLE POINT ENERGY      -388.763500603586

DIPOLE MOMENT
-------------
                                X             Y             Z
Electronic contribution:      1.06796       9.55057      -0.00000
Nuclear contribution   :     -1.15491      -9.70860       0.00000
                        -----------------------------------------
Total Dipole Moment    :     -0.08695      -0.15803      -0.00000
                        -----------------------------------------
Magnitude (a.u.)       :      0.18037
Magnitude (Debye)      :      0.45845

Rotational constants in cm-1:     0.084399     0.028928     0.025163
Rotational constants in MHz :  2530.204229   867.243105   754.379935

                             ****ORCA TERMINATED NORMALLY****
TOTAL RUN TIME: 0 days 3 hours 18 minutes 14 seconds 0 msec
