                         Program Version 5.0.4 -  RELEASE  -
|  1> !ri-mp2 aug-cc-pvqz aug-cc-pvqz/c tightscf
|  2> %pal nprocs 16 end
|  3>
|  4> * xyz 0 1
|  5> S      2.147620    0.209811    0.031553
|  6> O     -2.177251    0.884502    0.079532
|  7> N     -0.449502   -0.736185   -0.147699
|  8> C      0.650412   -0.289749   -0.045393
|  9> C     -1.845506   -0.478904    0.091503
| 10> H     -2.115777    1.223264   -0.819967
| 11> H     -2.414295   -1.043253   -0.649351
| 12> H     -2.096761   -0.847779    1.085447
| 13> *
| 14>
| 15>                          ****END OF INPUT****

CARTESIAN COORDINATES (ANGSTROEM)
---------------------------------
  S      2.147620    0.209811    0.031553
  O     -2.177251    0.884502    0.079532
  N     -0.449502   -0.736185   -0.147699
  C      0.650412   -0.289749   -0.045393
  C     -1.845506   -0.478904    0.091503
  H     -2.115777    1.223264   -0.819967
  H     -2.414295   -1.043253   -0.649351
  H     -2.096761   -0.847779    1.085447

 Total Charge           Charge          ....    0
 Multiplicity           Mult            ....    1
 Number of Electrons    NEL             ....   46
 Basis Dimension        Dim             ....  542

ORBITAL ENERGIES
----------------

  NO   OCC          E(Eh)            E(eV)
   0   2.0000     -91.950735     -2502.1067
   1   2.0000     -20.594087      -560.3936
   2   2.0000     -15.606326      -424.6697
   3   2.0000     -11.379272      -309.6457
   4   2.0000     -11.362839      -309.1986
   5   2.0000      -8.954889      -243.6749
   6   2.0000      -6.636718      -180.5943
   7   2.0000      -6.634421      -180.5318
   8   2.0000      -6.634176      -180.5251
   9   2.0000      -1.410087       -38.3704
  10   2.0000      -1.287406       -35.0321
  11   2.0000      -1.052444       -28.6385
  12   2.0000      -0.979238       -26.6464
  13   2.0000      -0.781723       -21.2718
  14   2.0000      -0.717999       -19.5377
  15   2.0000      -0.672328       -18.2950
  16   2.0000      -0.610149       -16.6030
  17   2.0000      -0.591215       -16.0878
  18   2.0000      -0.552876       -15.0445
  19   2.0000      -0.530228       -14.4282
  20   2.0000      -0.507967       -13.8225
  21   2.0000      -0.372839       -10.1455
  22   2.0000      -0.360895        -9.8204
  23   0.0000       0.020055         0.5457
  24   0.0000       0.033929         0.9233
  25   0.0000       0.039512         1.0752
  26   0.0000       0.049948         1.3592
  27   0.0000       0.062329         1.6961

MULLIKEN ATOMIC CHARGES
-----------------------
   0 S :    0.060933
   1 O :   -0.749266
   2 N :   -0.448556
   3 C :    0.073417
   4 C :    0.059851
   5 H :    0.366240
   6 H :    0.299425
   7 H :    0.337956
Sum of atomic charges:   -0.0000000

LOEWDIN ATOMIC CHARGES
----------------------
   0 S :    0.940102
   1 O :    1.258288
   2 N :    0.381258
   3 C :   -1.037624
   4 C :   -0.070414
   5 H :   -0.783013
   6 H :   -0.337779
   7 H :   -0.350818

  Mayer bond orders larger than 0.100000
B(  0-S ,  3-C ) :   1.5746 B(  1-O ,  4-C ) :   0.8067 B(  1-O ,  5-H ) :   0.8615
B(  2-N ,  3-C ) :   2.0911 B(  2-N ,  4-C ) :   0.7571 B(  4-C ,  6-H ) :   0.9178
B(  4-C ,  7-H ) :   0.8566

MP2 TOTAL ENERGY:     -605.416008813 Eh
FINAL SINGLE POINT ENERGY      -605.416008812797

DIPOLE MOMENT
-------------
                                X             Y             Z
Electronic contribution:      5.45586       0.35791      -0.05627
Nuclear contribution   :     -6.52459      -0.64433      -0.37272
                        -----------------------------------------
Total Dipole Moment    :     -1.06872      -0.28642      -0.42899
                        -----------------------------------------
Magnitude (a.u.)       :      1.18669
Magnitude (Debye)      :      3.01634

Rotational constants in cm-1:     0.536099     0.058199     0.053428
Rotational constants in MHz : 16071.832744  1744.770588  1601.746016

                             ****ORCA TERMINATED NORMALLY****
TOTAL RUN TIME: 0 days 0 hours 5 minutes 13 seconds 698 msec
