                         Program Version 5.0.4 -  RELEASE  -
|  1> !ri-mp2 aug-cc-pvqz aug-cc-pvqz/c tightscf
|  2> %pal nprocs 16 end
|  3>
|  4> * xyz 0 1
|  5> S      2.278497   -0.427178   -0.000076
|  6> N     -0.046708    1.072004   -0.000069
|  7> N     -2.433025   -1.423286   -0.000046
|  8> C     -1.477822    1.012116    0.000203
|  9> C     -2.013110   -0.354003    0.000063
| 10> C      0.927544    0.377873   -0.000052
| 11> H     -1.858915    1.539109   -0.876755
| 12> H     -1.858578    1.538797    0.877498
| 13> *
| 14>
| 15>                          ****END OF INPUT****

CARTESIAN COORDINATES (ANGSTROEM)
---------------------------------
  S      2.278497   -0.427178   -0.000076
  N     -0.046708    1.072004   -0.000069
  N     -2.433025   -1.423286   -0.000046
  C     -1.477822    1.012116    0.000203
  C     -2.013110   -0.354003    0.000063
  C      0.927544    0.377873   -0.000052
  H     -1.858915    1.539109   -0.876755
  H     -1.858578    1.538797    0.877498

 Total Charge           Charge          ....    0
 Multiplicity           Mult            ....    1
 Number of Electrons    NEL             ....   50
 Basis Dimension        Dim             ....  576

ORBITAL ENERGIES
----------------

  NO   OCC          E(Eh)            E(eV)
   0   2.0000     -91.968618     -2502.5933
   1   2.0000     -15.627262      -425.2394
   2   2.0000     -15.596476      -424.4017
   3   2.0000     -11.397105      -310.1310
   4   2.0000     -11.367690      -309.3306
   5   2.0000     -11.296852      -307.4030
   6   2.0000      -8.972669      -244.1587
   7   2.0000      -6.654397      -181.0753
   8   2.0000      -6.652189      -181.0153
   9   2.0000      -6.651864      -181.0064
  10   2.0000      -1.322975       -36.0000
  11   2.0000      -1.245447       -33.8903
  12   2.0000      -1.099225       -29.9114
  13   2.0000      -1.030687       -28.0464
  14   2.0000      -0.814916       -22.1750
  15   2.0000      -0.725010       -19.7285
  16   2.0000      -0.701016       -19.0756
  17   2.0000      -0.618363       -16.8265
  18   2.0000      -0.593204       -16.1419
  19   2.0000      -0.562710       -15.3121
  20   2.0000      -0.561755       -15.2861
  21   2.0000      -0.497528       -13.5384
  22   2.0000      -0.489055       -13.3079
  23   2.0000      -0.391351       -10.6492
  24   2.0000      -0.376635       -10.2488
  25   0.0000       0.016653         0.4532
  26   0.0000       0.032950         0.8966
  27   0.0000       0.044822         1.2197
  28   0.0000       0.048799         1.3279
  29   0.0000       0.061956         1.6859

MULLIKEN ATOMIC CHARGES
-----------------------
   0 S :    0.069653
   1 N :   -0.471020
   2 N :   -0.591206
   3 C :   -0.213489
   4 C :    0.338328
   5 C :    0.150844
   6 H :    0.358435
   7 H :    0.358455
Sum of atomic charges:    0.0000000

LOEWDIN ATOMIC CHARGES
----------------------
   0 S :    0.991152
   1 N :    0.382634
   2 N :    0.415378
   3 C :    0.181451
   4 C :   -0.282127
   5 C :   -1.024631
   6 H :   -0.331933
   7 H :   -0.331925

  Mayer bond orders larger than 0.100000
B(  0-S ,  5-C ) :   1.5816 B(  1-N ,  3-C ) :   0.7133 B(  1-N ,  5-C ) :   2.0878
B(  2-N ,  4-C ) :   2.5813 B(  3-C ,  4-C ) :   1.0560 B(  3-C ,  6-H ) :   0.8688
B(  3-C ,  7-H ) :   0.8688

MP2 TOTAL ENERGY:     -622.366563893 Eh
FINAL SINGLE POINT ENERGY      -622.366563892890

DIPOLE MOMENT
-------------
                                X             Y             Z
Electronic contribution:      3.26158      -1.54135      -0.00042
Nuclear contribution   :     -3.63885       2.95620       0.00071
                        -----------------------------------------
Total Dipole Moment    :     -0.37727       1.41485       0.00029
                        -----------------------------------------
Magnitude (a.u.)       :      1.46428
Magnitude (Debye)      :      3.72191

Rotational constants in cm-1:     0.234286     0.049130     0.040919
Rotational constants in MHz :  7023.729720  1472.888491  1226.731190

                             ****ORCA TERMINATED NORMALLY****
TOTAL RUN TIME: 0 days 0 hours 6 minutes 2 seconds 872 msec
