                         Program Version 5.0.4 -  RELEASE  -
|  1> !ri-mp2 aug-cc-pvqz aug-cc-pvqz/c tightscf
|  2> %pal nprocs 16 end
|  3>
|  4> * xyz 0 1
|  5> C     0.000000     0.000000    0.371001
|  6> C     0.000000     1.458065   -0.095429
|  7> C    -1.262722    -0.729033   -0.095429
|  8> C     1.262722    -0.729033   -0.095429
|  9> H    -1.282986    -1.759266    0.264412
| 10> H     1.282986    -1.759266    0.264412
| 11> H    -0.882076     1.990731    0.264412
| 12> H     0.882076     1.990731    0.264412
| 13> H    -2.165062    -0.231466    0.264412
| 14> H    -1.313214    -0.758184   -1.187000
| 15> H     2.165062    -0.231466    0.264412
| 16> H     0.000000     1.516369   -1.187000
| 17> H     1.313214    -0.758184   -1.187000
| 18> H     0.000000     0.000000    1.466243
| 19> *
| 20>
| 21>                          ****END OF INPUT****

CARTESIAN COORDINATES (ANGSTROEM)
---------------------------------
  C      0.000000    0.000000    0.371001
  C      0.000000    1.458065   -0.095429
  C     -1.262722   -0.729033   -0.095429
  C      1.262722   -0.729033   -0.095429
  H     -1.282986   -1.759266    0.264412
  H      1.282986   -1.759266    0.264412
  H     -0.882076    1.990731    0.264412
  H      0.882076    1.990731    0.264412
  H     -2.165062   -0.231466    0.264412
  H     -1.313214   -0.758184   -1.187000
  H      2.165062   -0.231466    0.264412
  H      0.000000    1.516369   -1.187000
  H      1.313214   -0.758184   -1.187000
  H      0.000000    0.000000    1.466243

 Total Charge           Charge          ....    0
 Multiplicity           Mult            ....    1
 Number of Electrons    NEL             ....   34
 Basis Dimension        Dim             ....  780

ORBITAL ENERGIES
----------------

  NO   OCC          E(Eh)            E(eV)
   0   2.0000     -11.222374      -305.3763
   1   2.0000     -11.206533      -304.9453
   2   2.0000     -11.206533      -304.9453
   3   2.0000     -11.206499      -304.9443
   4   2.0000      -1.078488       -29.3471
   5   2.0000      -0.925899       -25.1950
   6   2.0000      -0.925899       -25.1950
   7   2.0000      -0.765928       -20.8419
   8   2.0000      -0.629457       -17.1284
   9   2.0000      -0.588868       -16.0239
  10   2.0000      -0.588868       -16.0239
  11   2.0000      -0.532617       -14.4932
  12   2.0000      -0.532617       -14.4932
  13   2.0000      -0.509840       -13.8735
  14   2.0000      -0.462015       -12.5721
  15   2.0000      -0.462015       -12.5721
  16   2.0000      -0.457754       -12.4561
  17   0.0000       0.027690         0.7535
  18   0.0000       0.034766         0.9460
  19   0.0000       0.034766         0.9460
  20   0.0000       0.034939         0.9507
  21   0.0000       0.054381         1.4798

MULLIKEN ATOMIC CHARGES
-----------------------
   0 C :    0.195178
   1 C :   -0.875099
   2 C :   -0.875104
   3 C :   -0.875105
   4 H :    0.253167
   5 H :    0.253167
   6 H :    0.253176
   7 H :    0.253176
   8 H :    0.253175
   9 H :    0.204771
  10 H :    0.253174
  11 H :    0.204759
  12 H :    0.204771
  13 H :    0.296793
Sum of atomic charges:    0.0000000

LOEWDIN ATOMIC CHARGES
----------------------
   0 C :    0.075679
   1 C :    0.908539
   2 C :    0.908540
   3 C :    0.908540
   4 H :   -0.280129
   5 H :   -0.280129
   6 H :   -0.280129
   7 H :   -0.280129
   8 H :   -0.280129
   9 H :   -0.280760
  10 H :   -0.280129
  11 H :   -0.280759
  12 H :   -0.280760
  13 H :   -0.278245

  Mayer bond orders larger than 0.100000
B(  0-C ,  1-C ) :   0.7497 B(  0-C ,  2-C ) :   0.7497 B(  0-C ,  3-C ) :   0.7497
B(  0-C , 13-H ) :   0.8323 B(  1-C ,  6-H ) :   0.9879 B(  1-C ,  7-H ) :   0.9879
B(  1-C , 11-H ) :   0.9670 B(  2-C ,  4-H ) :   0.9879 B(  2-C ,  8-H ) :   0.9879
B(  2-C ,  9-H ) :   0.9670 B(  3-C ,  5-H ) :   0.9879 B(  3-C , 10-H ) :   0.9879
B(  3-C , 12-H ) :   0.9670

MP2 TOTAL ENERGY:     -158.134874046 Eh
FINAL SINGLE POINT ENERGY      -158.134874046107

DIPOLE MOMENT
-------------
                                X             Y             Z
Electronic contribution:     -0.00000      -0.00000       0.60865
Nuclear contribution   :     -0.00000       0.00000      -0.55840
                        -----------------------------------------
Total Dipole Moment    :     -0.00000       0.00000       0.05025
                        -----------------------------------------
Magnitude (a.u.)       :      0.05025
Magnitude (Debye)      :      0.12772

Rotational constants in cm-1:     0.259574     0.259574     0.150204
Rotational constants in MHz :  7781.833215  7781.829990  4502.995694

                             ****ORCA TERMINATED NORMALLY****
TOTAL RUN TIME: 0 days 0 hours 18 minutes 13 seconds 990 msec
