                         Program Version 5.0.4 -  RELEASE  -
|  1> !ri-mp2 aug-cc-pvqz aug-cc-pvqz/c tightscf
|  2> %pal nprocs 16 end
|  3>
|  4> * xyz 0 1
|  5> C      1.268727    0.080167   -0.135548
|  6> C      2.457391   -0.631709    0.455479
|  7> C     -2.121048   -1.091773   -0.335245
|  8> C     -1.578136    1.165030    0.695009
|  9> C     -1.134427    0.057348   -0.246875
| 10> O      1.327987    1.053724   -0.845937
| 11> O      0.117817   -0.516965    0.234551
| 12> H      2.448277   -1.682083    0.165657
| 13> H      2.406702   -0.594627    1.543829
| 14> H      3.371738   -0.157764    0.112852
| 15> H     -3.078523   -0.731193   -0.712382
| 16> H     -1.756978   -1.866034   -1.009806
| 17> H     -2.285710   -1.538625    0.646050
| 18> H     -2.518095    1.595146    0.346575
| 19> H     -0.836390    1.960880    0.734621
| 20> H     -1.733027    0.773621    1.701565
| 21> H     -0.939471    0.472232   -1.234796
| 22> *
| 23>
| 24>                          ****END OF INPUT****

CARTESIAN COORDINATES (ANGSTROEM)
---------------------------------
  C      1.268727    0.080167   -0.135548
  C      2.457391   -0.631709    0.455479
  C     -2.121048   -1.091773   -0.335245
  C     -1.578136    1.165030    0.695009
  C     -1.134427    0.057348   -0.246875
  O      1.327987    1.053724   -0.845937
  O      0.117817   -0.516965    0.234551
  H      2.448277   -1.682083    0.165657
  H      2.406702   -0.594627    1.543829
  H      3.371738   -0.157764    0.112852
  H     -3.078523   -0.731193   -0.712382
  H     -1.756978   -1.866034   -1.009806
  H     -2.285710   -1.538625    0.646050
  H     -2.518095    1.595146    0.346575
  H     -0.836390    1.960880    0.734621
  H     -1.733027    0.773621    1.701565
  H     -0.939471    0.472232   -1.234796

 Total Charge           Charge          ....    0
 Multiplicity           Mult            ....    1
 Number of Electrons    NEL             ....   56
 Basis Dimension        Dim             .... 1020

ORBITAL ENERGIES
----------------

  NO   OCC          E(Eh)            E(eV)
   0   2.0000     -20.591257      -560.3166
   1   2.0000     -20.536764      -558.8338
   2   2.0000     -11.375927      -309.5547
   3   2.0000     -11.291119      -307.2470
   4   2.0000     -11.236342      -305.7564
   5   2.0000     -11.220793      -305.3333
   6   2.0000     -11.217477      -305.2431
   7   2.0000      -1.450842       -39.4794
   8   2.0000      -1.353185       -36.8220
   9   2.0000      -1.075148       -29.2563
  10   2.0000      -1.005294       -27.3554
  11   2.0000      -0.946656       -25.7598
  12   2.0000      -0.840180       -22.8624
  13   2.0000      -0.764538       -20.8041
  14   2.0000      -0.692877       -18.8541
  15   2.0000      -0.665137       -18.0993
  16   2.0000      -0.655789       -17.8449
  17   2.0000      -0.612342       -16.6627
  18   2.0000      -0.585849       -15.9418
  19   2.0000      -0.578736       -15.7482
  20   2.0000      -0.563767       -15.3409
  21   2.0000      -0.549720       -14.9586
  22   2.0000      -0.535100       -14.5608
  23   2.0000      -0.519343       -14.1320
  24   2.0000      -0.503099       -13.6900
  25   2.0000      -0.483655       -13.1609
  26   2.0000      -0.452174       -12.3043
  27   2.0000      -0.442037       -12.0284
  28   0.0000       0.024955         0.6791
  29   0.0000       0.029702         0.8082
  30   0.0000       0.033107         0.9009
  31   0.0000       0.037126         1.0103
  32   0.0000       0.047550         1.2939

MULLIKEN ATOMIC CHARGES
-----------------------
   0 C :    0.945170
   1 C :   -0.745919
   2 C :   -0.909987
   3 C :   -0.964656
   4 C :    0.497482
   5 O :   -0.791585
   6 O :   -0.759504
   7 H :    0.287214
   8 H :    0.278272
   9 H :    0.301878
  10 H :    0.273581
  11 H :    0.235983
  12 H :    0.222504
  13 H :    0.299996
  14 H :    0.275572
  15 H :    0.240194
  16 H :    0.313804
Sum of atomic charges:   -0.0000000

LOEWDIN ATOMIC CHARGES
----------------------
   0 C :   -1.063344
   1 C :    0.872102
   2 C :    0.909442
   3 C :    0.915173
   4 C :   -0.243062
   5 O :    0.718569
   6 O :    0.866329
   7 H :   -0.302142
   8 H :   -0.300195
   9 H :   -0.323645
  10 H :   -0.283334
  11 H :   -0.282468
  12 H :   -0.284991
  13 H :   -0.278757
  14 H :   -0.292211
  15 H :   -0.282595
  16 H :   -0.344870

  Mayer bond orders larger than 0.100000
B(  0-C ,  1-C ) :   0.8570 B(  0-C ,  5-O ) :   1.3684 B(  0-C ,  6-O ) :   1.0541
B(  1-C ,  7-H ) :   0.9260 B(  1-C ,  8-H ) :   0.9295 B(  1-C ,  9-H ) :   0.9776
B(  2-C ,  3-C ) :   0.1022 B(  2-C ,  4-C ) :   0.6841 B(  2-C , 10-H ) :   1.0043
B(  2-C , 11-H ) :   0.9923 B(  2-C , 12-H ) :   0.9661 B(  3-C ,  4-C ) :   0.8335
B(  3-C , 13-H ) :   0.9534 B(  3-C , 14-H ) :   0.9542 B(  3-C , 15-H ) :   0.9373
B(  4-C ,  6-O ) :   0.4567 B(  4-C , 16-H ) :   0.8768

MP2 TOTAL ENERGY:     -346.488542634 Eh
FINAL SINGLE POINT ENERGY      -346.488542633840

DIPOLE MOMENT
-------------
                                X             Y             Z
Electronic contribution:      4.69396       1.19437      -1.89826
Nuclear contribution   :     -5.04445      -1.81236       2.35251
                        -----------------------------------------
Total Dipole Moment    :     -0.35049      -0.61799       0.45425
                        -----------------------------------------
Magnitude (a.u.)       :      0.84326
Magnitude (Debye)      :      2.14341

Rotational constants in cm-1:     0.157955     0.055439     0.048655
Rotational constants in MHz :  4735.372595  1662.027660  1458.631334

                             ****ORCA TERMINATED NORMALLY****
TOTAL RUN TIME: 0 days 0 hours 55 minutes 42 seconds 54 msec
