                         Program Version 5.0.4 -  RELEASE  -
|  1> !ri-mp2 aug-cc-pvqz aug-cc-pvqz/c tightscf
|  2> %pal nprocs 16 end
|  3>
|  4> * xyz 0 1
|  5> C     -1.888132   -0.186303    0.038084
|  6> C     -2.956955    0.824440   -0.283481
|  7> C      1.958051    1.395183    0.513927
|  8> C      2.923162   -0.824646   -0.220717
|  9> C      0.456498   -0.579654    0.020652
| 10> C      1.743964    0.144881   -0.342302
| 11> O     -2.082486   -1.286641    0.491535
| 12> O     -0.661558    0.297410   -0.245338
| 13> H     -2.889982    1.121863   -1.329676
| 14> H     -2.812725    1.721105    0.319523
| 15> H     -3.933425    0.396820   -0.079568
| 16> H      2.870252    1.915116    0.218046
| 17> H      2.055108    1.129449    1.569732
| 18> H      1.126417    2.091889    0.417111
| 19> H      3.854481   -0.335170   -0.506854
| 20> H      2.793952   -1.698388   -0.861379
| 21> H      3.038067   -1.176866    0.807098
| 22> H      0.330891   -1.489124   -0.567547
| 23> H      0.440158   -0.859686    1.075856
| 24> H      1.659630    0.453440   -1.388885
| 25> *
| 26>
| 27>                          ****END OF INPUT****

CARTESIAN COORDINATES (ANGSTROEM)
---------------------------------
  C     -1.888132   -0.186303    0.038084
  C     -2.956955    0.824440   -0.283481
  C      1.958051    1.395183    0.513927
  C      2.923162   -0.824646   -0.220717
  C      0.456498   -0.579654    0.020652
  C      1.743964    0.144881   -0.342302
  O     -2.082486   -1.286641    0.491535
  O     -0.661558    0.297410   -0.245338
  H     -2.889982    1.121863   -1.329676
  H     -2.812725    1.721105    0.319523
  H     -3.933425    0.396820   -0.079568
  H      2.870252    1.915116    0.218046
  H      2.055108    1.129449    1.569732
  H      1.126417    2.091889    0.417111
  H      3.854481   -0.335170   -0.506854
  H      2.793952   -1.698388   -0.861379
  H      3.038067   -1.176866    0.807098
  H      0.330891   -1.489124   -0.567547
  H      0.440158   -0.859686    1.075856
  H      1.659630    0.453440   -1.388885

 Total Charge           Charge          ....    0
 Multiplicity           Mult            ....    1
 Number of Electrons    NEL             ....   64
 Basis Dimension        Dim             .... 1192

ORBITAL ENERGIES
----------------

  NO   OCC          E(Eh)            E(eV)
   0   2.0000     -20.594817      -560.4135
   1   2.0000     -20.538362      -558.8772
   2   2.0000     -11.376328      -309.5656
   3   2.0000     -11.282244      -307.0055
   4   2.0000     -11.237816      -305.7965
   5   2.0000     -11.233942      -305.6911
   6   2.0000     -11.218700      -305.2763
   7   2.0000     -11.213222      -305.1273
   8   2.0000      -1.454244       -39.5720
   9   2.0000      -1.354695       -36.8631
  10   2.0000      -1.095069       -29.7984
  11   2.0000      -1.021690       -27.8016
  12   2.0000      -0.936912       -25.4947
  13   2.0000      -0.933580       -25.4040
  14   2.0000      -0.789699       -21.4888
  15   2.0000      -0.776341       -21.1253
  16   2.0000      -0.687751       -18.7146
  17   2.0000      -0.683775       -18.6065
  18   2.0000      -0.666512       -18.1367
  19   2.0000      -0.624541       -16.9946
  20   2.0000      -0.602000       -16.3813
  21   2.0000      -0.586424       -15.9574
  22   2.0000      -0.571947       -15.5635
  23   2.0000      -0.555336       -15.1115
  24   2.0000      -0.541643       -14.7389
  25   2.0000      -0.531878       -14.4731
  26   2.0000      -0.519332       -14.1317
  27   2.0000      -0.485226       -13.2037
  28   2.0000      -0.478426       -13.0186
  29   2.0000      -0.473141       -12.8748
  30   2.0000      -0.455337       -12.3904
  31   2.0000      -0.445044       -12.1103
  32   0.0000       0.023998         0.6530
  33   0.0000       0.027637         0.7520
  34   0.0000       0.032611         0.8874
  35   0.0000       0.034602         0.9416
  36   0.0000       0.043857         1.1934

MULLIKEN ATOMIC CHARGES
-----------------------
   0 C :    0.886902
   1 C :   -0.752797
   2 C :   -0.959209
   3 C :   -0.920180
   4 C :    0.063520
   5 C :    0.097408
   6 O :   -0.764329
   7 O :   -0.764825
   8 H :    0.280049
   9 H :    0.289432
  10 H :    0.313809
  11 H :    0.268416
  12 H :    0.192136
  13 H :    0.312559
  14 H :    0.249539
  15 H :    0.236604
  16 H :    0.191027
  17 H :    0.304876
  18 H :    0.205492
  19 H :    0.269570
Sum of atomic charges:    0.0000000

LOEWDIN ATOMIC CHARGES
----------------------
   0 C :   -1.059237
   1 C :    0.872096
   2 C :    0.920222
   3 C :    0.919770
   4 C :    0.152741
   5 C :    0.080323
   6 O :    0.709802
   7 O :    0.868554
   8 H :   -0.301953
   9 H :   -0.300660
  10 H :   -0.323753
  11 H :   -0.277533
  12 H :   -0.276719
  13 H :   -0.286474
  14 H :   -0.276765
  15 H :   -0.274838
  16 H :   -0.274046
  17 H :   -0.298259
  18 H :   -0.296787
  19 H :   -0.276485

  Mayer bond orders larger than 0.100000
B(  0-C ,  1-C ) :   0.8940 B(  0-C ,  6-O ) :   1.3254 B(  0-C ,  7-O ) :   1.0668
B(  1-C ,  8-H ) :   0.9273 B(  1-C ,  9-H ) :   0.9109 B(  1-C , 10-H ) :   0.9721
B(  2-C ,  3-C ) :   0.1164 B(  2-C ,  5-C ) :   0.6841 B(  2-C , 11-H ) :   1.0116
B(  2-C , 12-H ) :   0.9895 B(  2-C , 13-H ) :   0.9468 B(  3-C ,  5-C ) :   0.7263
B(  3-C , 14-H ) :   1.0373 B(  3-C , 15-H ) :   1.0065 B(  3-C , 16-H ) :   0.9902
B(  4-C ,  5-C ) :   0.8347 B(  4-C ,  6-O ) :   0.2381 B(  4-C ,  7-O ) :   0.6798
B(  4-C , 17-H ) :   0.8677 B(  4-C , 18-H ) :   0.9294 B(  5-C , 14-H ) :  -0.1131
B(  5-C , 19-H ) :   0.8881

MP2 TOTAL ENERGY:     -385.721724698 Eh
FINAL SINGLE POINT ENERGY      -385.721724697712

DIPOLE MOMENT
-------------
                                X             Y             Z
Electronic contribution:     -8.35836      -2.62750      -0.01573
Nuclear contribution   :      8.78459       3.36796      -0.33388
                        -----------------------------------------
Total Dipole Moment    :      0.42623       0.74046      -0.34960
                        -----------------------------------------
Magnitude (a.u.)       :      0.92313
Magnitude (Debye)      :      2.34641

Rotational constants in cm-1:     0.147756     0.032847     0.028762
Rotational constants in MHz :  4429.607249   984.741479   862.266429

                             ****ORCA TERMINATED NORMALLY****
TOTAL RUN TIME: 0 days 1 hours 13 minutes 50 seconds 973 msec
