                         Program Version 5.0.4 -  RELEASE  -
|  1> !ri-mp2 aug-cc-pvqz aug-cc-pvqz/c tightscf
|  2> %pal nprocs 16 end
|  3> %maxcore 3800
|  4>
|  5> * xyz 0 1
|  6> N     -0.597265    1.880669   -0.121090
|  7> C     -0.495562    0.459188   -0.493741
|  8> C     -1.805491   -0.236189   -0.085662
|  9> O     -2.217442   -1.236297   -0.608791
| 10> O     -2.449652    0.365789    0.927683
| 11> H     -1.968150    1.206422    1.080701
| 12> C      0.740774   -0.181501    0.194975
| 13> C      2.036361    0.322896   -0.473170
| 14> C      0.692385   -1.712042    0.209785
| 15> C      3.305554    0.081041    0.344256
| 16> H     -0.402470    0.308887   -1.572904
| 17> H      0.731995    0.170577    1.233213
| 18> H      2.129419   -0.159520   -1.450886
| 19> H      1.964888    1.394467   -0.677881
| 20> H      1.596770   -2.114151    0.664101
| 21> H     -0.156498   -2.089792    0.775213
| 22> H      0.613261   -2.111699   -0.802100
| 23> H      4.176666    0.493046   -0.166281
| 24> H      3.239861    0.558480    1.324121
| 25> H      3.494746   -0.979801    0.504685
| 26> H      0.309205    2.294943    0.044674
| 27> H     -1.056201    2.427172   -0.838822
| 28> *
| 29>
| 30>                          ****END OF INPUT****

CARTESIAN COORDINATES (ANGSTROEM)
---------------------------------
  N     -0.597265    1.880669   -0.121090
  C     -0.495562    0.459188   -0.493741
  C     -1.805491   -0.236189   -0.085662
  O     -2.217442   -1.236297   -0.608791
  O     -2.449652    0.365789    0.927683
  H     -1.968150    1.206422    1.080701
  C      0.740774   -0.181501    0.194975
  C      2.036361    0.322896   -0.473170
  C      0.692385   -1.712042    0.209785
  C      3.305554    0.081041    0.344256
  H     -0.402470    0.308887   -1.572904
  H      0.731995    0.170577    1.233213
  H      2.129419   -0.159520   -1.450886
  H      1.964888    1.394467   -0.677881
  H      1.596770   -2.114151    0.664101
  H     -0.156498   -2.089792    0.775213
  H      0.613261   -2.111699   -0.802100
  H      4.176666    0.493046   -0.166281
  H      3.239861    0.558480    1.324121
  H      3.494746   -0.979801    0.504685
  H      0.309205    2.294943    0.044674
  H     -1.056201    2.427172   -0.838822

 Total Charge           Charge          ....    0
 Multiplicity           Mult            ....    1
 Number of Electrons    NEL             ....   72
 Basis Dimension        Dim             .... 1318

ORBITAL ENERGIES
----------------

  NO   OCC          E(Eh)            E(eV)
   0   2.0000     -20.591035      -560.3106
   1   2.0000     -20.530577      -558.6654
   2   2.0000     -15.577649      -423.8894
   3   2.0000     -11.369803      -309.3881
   4   2.0000     -11.287398      -307.1457
   5   2.0000     -11.251185      -306.1603
   6   2.0000     -11.237644      -305.7918
   7   2.0000     -11.225183      -305.4528
   8   2.0000     -11.215545      -305.1905
   9   2.0000      -1.447448       -39.3871
  10   2.0000      -1.352241       -36.7964
  11   2.0000      -1.221025       -33.2258
  12   2.0000      -1.097637       -29.8682
  13   2.0000      -1.009210       -27.4620
  14   2.0000      -0.945390       -25.7254
  15   2.0000      -0.886843       -24.1322
  16   2.0000      -0.808174       -21.9915
  17   2.0000      -0.793530       -21.5930
  18   2.0000      -0.720446       -19.6043
  19   2.0000      -0.696084       -18.9414
  20   2.0000      -0.674147       -18.3445
  21   2.0000      -0.639103       -17.3909
  22   2.0000      -0.636213       -17.3122
  23   2.0000      -0.614919       -16.7328
  24   2.0000      -0.595613       -16.2075
  25   2.0000      -0.585317       -15.9273
  26   2.0000      -0.558909       -15.2087
  27   2.0000      -0.543634       -14.7930
  28   2.0000      -0.531372       -14.4594
  29   2.0000      -0.518329       -14.1045
  30   2.0000      -0.491514       -13.3748
  31   2.0000      -0.481851       -13.1118
  32   2.0000      -0.478110       -13.0100
  33   2.0000      -0.461303       -12.5527
  34   2.0000      -0.450460       -12.2576
  35   2.0000      -0.418540       -11.3890
  36   0.0000       0.016694         0.4543
  37   0.0000       0.025726         0.7000
  38   0.0000       0.028117         0.7651
  39   0.0000       0.034378         0.9355
  40   0.0000       0.044090         1.1997

MULLIKEN ATOMIC CHARGES
-----------------------
   0 N :   -0.719533
   1 C :    0.097572
   2 C :    1.254915
   3 O :   -0.882447
   4 O :   -0.991692
   5 H :    0.360822
   6 C :    0.541084
   7 C :   -0.556961
   8 C :   -0.990282
   9 C :   -0.897492
  10 H :    0.354975
  11 H :    0.183374
  12 H :    0.159063
  13 H :    0.308428
  14 H :    0.286495
  15 H :    0.221787
  16 H :    0.204943
  17 H :    0.273368
  18 H :    0.220356
  19 H :    0.232208
  20 H :    0.150191
  21 H :    0.188825
Sum of atomic charges:   -0.0000000

LOEWDIN ATOMIC CHARGES
----------------------
   0 N :    1.310025
   1 C :   -0.040955
   2 C :   -1.031188
   3 O :    0.696778
   4 O :    1.262050
   5 H :   -0.934811
   6 C :    0.120709
   7 C :    0.522197
   8 C :    0.928826
   9 C :    0.949828
  10 H :   -0.294777
  11 H :   -0.277588
  12 H :   -0.261194
  13 H :   -0.296636
  14 H :   -0.290374
  15 H :   -0.297238
  16 H :   -0.262712
  17 H :   -0.275592
  18 H :   -0.272589
  19 H :   -0.294474
  20 H :   -0.515301
  21 H :   -0.444983

  Mayer bond orders larger than 0.100000
B(  0-N ,  1-C ) :   0.5152 B(  0-N ,  5-H ) :   0.1509 B(  0-N , 20-H ) :   1.0645
B(  0-N , 21-H ) :   1.0302 B(  1-C ,  2-C ) :   1.1644 B(  1-C ,  3-O ) :   0.2142
B(  1-C ,  6-C ) :   0.7186 B(  1-C , 10-H ) :   0.8105 B(  2-C ,  3-O ) :   1.2441
B(  2-C ,  4-O ) :   0.6088 B(  3-O ,  4-O ) :   0.1793 B(  4-O ,  5-H ) :   0.7666
B(  6-C ,  7-C ) :   0.5826 B(  6-C ,  8-C ) :   0.4732 B(  6-C , 11-H ) :   0.9955
B(  6-C , 14-H ) :  -0.1239 B(  7-C ,  9-C ) :   0.9166 B(  7-C , 12-H ) :   1.0003
B(  7-C , 13-H ) :   0.8955 B(  7-C , 17-H ) :  -0.1159 B(  8-C , 14-H ) :   1.0488
B(  8-C , 15-H ) :   1.0302 B(  8-C , 16-H ) :   1.0334 B(  9-C , 17-H ) :   1.0266
B(  9-C , 18-H ) :   0.9596 B(  9-C , 19-H ) :   0.9715

MP2 TOTAL ENERGY:     -441.011141273 Eh
FINAL SINGLE POINT ENERGY      -441.011141272942

DIPOLE MOMENT
-------------
                                X             Y             Z
Electronic contribution:    -13.36741       0.01639      -0.28595
Nuclear contribution   :     15.04666       1.43942       0.12592
                        -----------------------------------------
Total Dipole Moment    :      1.67925       1.45581      -0.16003
                        -----------------------------------------
Magnitude (a.u.)       :      2.22820
Magnitude (Debye)      :      5.66362

Rotational constants in cm-1:     0.090545     0.032951     0.027304
Rotational constants in MHz :  2714.468174   987.848087   818.564379

                             ****ORCA TERMINATED NORMALLY****
TOTAL RUN TIME: 0 days 1 hours 22 minutes 13 seconds 645 msec
