                         Program Version 5.0.4 -  RELEASE  -
|  1> !ri-mp2 aug-cc-pvqz aug-cc-pvqz/c tightscf
|  2> %pal nprocs 16 end
|  3>
|  4> * xyz 0 1
|  5> C     -0.218615    0.231720   -0.334249
|  6> C      2.099372    0.063633    0.050519
|  7> C     -1.485571   -0.576666   -0.009374
|  8> O      0.817838   -0.322832    0.399628
|  9> F      2.373326   -0.321108   -1.226533
| 10> F      2.924768   -0.591330    0.873399
| 11> F     -1.301155   -1.854169   -0.377515
| 12> F     -2.528100   -0.095040   -0.699597
| 13> F     -1.784593   -0.552251    1.290062
| 14> Cl    -0.487352    1.980503    0.064712
| 15> H     -0.042858    0.187772   -1.406517
| 16> H      2.255795    1.139294    0.129683
| 17> *
| 18>
| 19>                          ****END OF INPUT****

CARTESIAN COORDINATES (ANGSTROEM)
---------------------------------
  C     -0.218615    0.231720   -0.334249
  C      2.099372    0.063633    0.050519
  C     -1.485571   -0.576666   -0.009374
  O      0.817838   -0.322832    0.399628
  F      2.373326   -0.321108   -1.226533
  F      2.924768   -0.591330    0.873399
  F     -1.301155   -1.854169   -0.377515
  F     -2.528100   -0.095040   -0.699597
  F     -1.784593   -0.552251    1.290062
  Cl    -0.487352    1.980503    0.064712
  H     -0.042858    0.187772   -1.406517
  H      2.255795    1.139294    0.129683

 Total Charge           Charge          ....    0
 Multiplicity           Mult            ....    1
 Number of Electrons    NEL             ....   90
 Basis Dimension        Dim             ....  896

ORBITAL ENERGIES
----------------

  NO   OCC          E(Eh)            E(eV)
   0   2.0000    -104.870157     -2853.6620
   1   2.0000     -26.359517      -717.2789
   2   2.0000     -26.357676      -717.2288
   3   2.0000     -26.357342      -717.2197
   4   2.0000     -26.344777      -716.8778
   5   2.0000     -26.343249      -716.8363
   6   2.0000     -20.650577      -561.9308
   7   2.0000     -11.538791      -313.9865
   8   2.0000     -11.496928      -312.8473
   9   2.0000     -11.418952      -310.7255
  10   2.0000     -10.595659      -288.3225
  11   2.0000      -8.062638      -219.3955
  12   2.0000      -8.060896      -219.3481
  13   2.0000      -8.060805      -219.3456
  14   2.0000      -1.751606       -47.6636
  15   2.0000      -1.708063       -46.4788
  16   2.0000      -1.657578       -45.1050
  17   2.0000      -1.655325       -45.0437
  18   2.0000      -1.638803       -44.5941
  19   2.0000      -1.483895       -40.3788
  20   2.0000      -1.175711       -31.9927
  21   2.0000      -1.061266       -28.8785
  22   2.0000      -0.985525       -26.8175
  23   2.0000      -0.924554       -25.1584
  24   2.0000      -0.856359       -23.3027
  25   2.0000      -0.849459       -23.1149
  26   2.0000      -0.844041       -22.9675
  27   2.0000      -0.824871       -22.4459
  28   2.0000      -0.810586       -22.0572
  29   2.0000      -0.788599       -21.4589
  30   2.0000      -0.733655       -19.9638
  31   2.0000      -0.731225       -19.8976
  32   2.0000      -0.704633       -19.1740
  33   2.0000      -0.695520       -18.9261
  34   2.0000      -0.691430       -18.8148
  35   2.0000      -0.682713       -18.5776
  36   2.0000      -0.673793       -18.3348
  37   2.0000      -0.670621       -18.2485
  38   2.0000      -0.667538       -18.1646
  39   2.0000      -0.643854       -17.5201
  40   2.0000      -0.609329       -16.5807
  41   2.0000      -0.581285       -15.8176
  42   2.0000      -0.525685       -14.3046
  43   2.0000      -0.493404       -13.4262
  44   2.0000      -0.484126       -13.1737
  45   0.0000       0.026665         0.7256
  46   0.0000       0.035927         0.9776
  47   0.0000       0.050892         1.3849
  48   0.0000       0.054638         1.4868
  49   0.0000       0.069192         1.8828

MULLIKEN ATOMIC CHARGES
-----------------------
   0 C :    0.242809
   1 C :    1.160990
   2 C :    1.893600
   3 O :   -0.623276
   4 F :   -0.634577
   5 F :   -0.661514
   6 F :   -0.620363
   7 F :   -0.636567
   8 F :   -0.629055
   9 Cl:   -0.312513
  10 H :    0.393155
  11 H :    0.427310
Sum of atomic charges:   -0.0000000

LOEWDIN ATOMIC CHARGES
----------------------
   0 C :   -1.055516
   1 C :   -1.481823
   2 C :   -2.287788
   3 O :    0.725956
   4 F :    0.771121
   5 F :    0.785325
   6 F :    0.770080
   7 F :    0.754232
   8 F :    0.762992
   9 Cl:    1.166609
  10 H :   -0.463027
  11 H :   -0.448161

  Mayer bond orders larger than 0.100000
B(  0-C ,  2-C ) :   1.0162 B(  0-C ,  3-O ) :   0.7734 B(  0-C ,  9-Cl) :   0.7460
B(  0-C , 10-H ) :   0.7563 B(  1-C ,  3-O ) :   0.9676 B(  1-C ,  4-F ) :   0.5183
B(  1-C ,  5-F ) :   0.5031 B(  1-C , 11-H ) :   0.7456 B(  2-C ,  6-F ) :   0.4281
B(  2-C ,  7-F ) :   0.4685 B(  2-C ,  8-F ) :   0.4529

MP2 TOTAL ENERGY:    -1149.033745762 Eh
FINAL SINGLE POINT ENERGY     -1149.033745762136

DIPOLE MOMENT
-------------
                                X             Y             Z
Electronic contribution:     -2.69998      -1.02594       0.70390
Nuclear contribution   :      2.96374       1.70417      -1.12202
                        -----------------------------------------
Total Dipole Moment    :      0.26376       0.67824      -0.41812
                        -----------------------------------------
Magnitude (a.u.)       :      0.83928
Magnitude (Debye)      :      2.13328

Rotational constants in cm-1:     0.052783     0.024768     0.020698
Rotational constants in MHz :  1582.398590   742.521653   620.514307

                             ****ORCA TERMINATED NORMALLY****
TOTAL RUN TIME: 0 days 0 hours 28 minutes 29 seconds 252 msec
