                         Program Version 5.0.4 -  RELEASE  -
|  1> !ri-mp2 aug-cc-pvqz aug-cc-pvqz/c tightscf
|  2> %pal nprocs 16 end
|  3> %maxcore 3800
|  4>
|  5> * xyz 0 1
|  6> C      2.403276    0.235094    0.003580
|  7> C      3.664247   -0.587957   -0.004238
|  8> C     -2.836541    0.358121    1.268379
|  9> C     -2.835699    0.381755   -1.261372
| 10> C     -1.045343   -0.950015   -0.008083
| 11> C      0.028571    0.122851   -0.001652
| 12> C     -2.494529   -0.425752   -0.003810
| 13> O      2.357473    1.440315    0.011576
| 14> O      1.309148   -0.552959   -0.002627
| 15> H      3.706070   -1.193141   -0.909987
| 16> H      3.671524   -1.271694    0.844196
| 17> H      4.526585    0.069656    0.039536
| 18> H     -3.900505    0.597961    1.298851
| 19> H     -2.290462    1.301687    1.321379
| 20> H     -2.599340   -0.216217    2.165809
| 21> H     -2.290329    1.326588   -1.295750
| 22> H     -3.899825    0.621256   -1.288528
| 23> H     -2.596999   -0.175253   -2.169285
| 24> H     -0.897174   -1.580633   -0.888276
| 25> H     -0.896159   -1.591756    0.863846
| 26> H     -0.019806    0.767018   -0.878748
| 27> H     -0.022517    0.759280    0.880916
| 28> H     -3.127922   -1.318173   -0.012356
| 29> *
| 30>
| 31>                          ****END OF INPUT****

CARTESIAN COORDINATES (ANGSTROEM)
---------------------------------
  C      2.403276    0.235094    0.003580
  C      3.664247   -0.587957   -0.004238
  C     -2.836541    0.358121    1.268379
  C     -2.835699    0.381755   -1.261372
  C     -1.045343   -0.950015   -0.008083
  C      0.028571    0.122851   -0.001652
  C     -2.494529   -0.425752   -0.003810
  O      2.357473    1.440315    0.011576
  O      1.309148   -0.552959   -0.002627
  H      3.706070   -1.193141   -0.909987
  H      3.671524   -1.271694    0.844196
  H      4.526585    0.069656    0.039536
  H     -3.900505    0.597961    1.298851
  H     -2.290462    1.301687    1.321379
  H     -2.599340   -0.216217    2.165809
  H     -2.290329    1.326588   -1.295750
  H     -3.899825    0.621256   -1.288528
  H     -2.596999   -0.175253   -2.169285
  H     -0.897174   -1.580633   -0.888276
  H     -0.896159   -1.591756    0.863846
  H     -0.019806    0.767018   -0.878748
  H     -0.022517    0.759280    0.880916
  H     -3.127922   -1.318173   -0.012356

 Total Charge           Charge          ....    0
 Multiplicity           Mult            ....    1
 Number of Electrons    NEL             ....   72
 Basis Dimension        Dim             .... 1364

ORBITAL ENERGIES
----------------

  NO   OCC          E(Eh)            E(eV)
   0   2.0000     -20.593948      -560.3898
   1   2.0000     -20.537500      -558.8538
   2   2.0000     -11.375257      -309.5365
   3   2.0000     -11.281947      -306.9974
   4   2.0000     -11.236846      -305.7701
   5   2.0000     -11.232806      -305.6602
   6   2.0000     -11.223585      -305.4093
   7   2.0000     -11.214148      -305.1525
   8   2.0000     -11.214115      -305.1516
   9   2.0000      -1.452909       -39.5357
  10   2.0000      -1.353411       -36.8282
  11   2.0000      -1.100226       -29.9387
  12   2.0000      -1.033324       -28.1182
  13   2.0000      -0.983559       -26.7640
  14   2.0000      -0.934414       -25.4267
  15   2.0000      -0.877872       -23.8881
  16   2.0000      -0.778235       -21.1769
  17   2.0000      -0.763710       -20.7816
  18   2.0000      -0.686585       -18.6829
  19   2.0000      -0.683309       -18.5938
  20   2.0000      -0.665192       -18.1008
  21   2.0000      -0.623820       -16.9750
  22   2.0000      -0.616672       -16.7805
  23   2.0000      -0.597024       -16.2458
  24   2.0000      -0.576730       -15.6936
  25   2.0000      -0.574377       -15.6296
  26   2.0000      -0.545704       -14.8493
  27   2.0000      -0.543385       -14.7863
  28   2.0000      -0.526495       -14.3267
  29   2.0000      -0.520270       -14.1573
  30   2.0000      -0.500427       -13.6173
  31   2.0000      -0.471839       -12.8394
  32   2.0000      -0.468580       -12.7507
  33   2.0000      -0.460042       -12.5184
  34   2.0000      -0.454790       -12.3755
  35   2.0000      -0.442064       -12.0292
  36   0.0000       0.023329         0.6348
  37   0.0000       0.026771         0.7285
  38   0.0000       0.031319         0.8522
  39   0.0000       0.033416         0.9093
  40   0.0000       0.041768         1.1366

MULLIKEN ATOMIC CHARGES
-----------------------
   0 C :    0.825812
   1 C :   -0.777044
   2 C :   -0.910003
   3 C :   -0.909288
   4 C :   -0.493655
   5 C :    0.349194
   6 C :    0.039752
   7 O :   -0.746054
   8 O :   -0.775910
   9 H :    0.280552
  10 H :    0.279098
  11 H :    0.309343
  12 H :    0.290890
  13 H :    0.182321
  14 H :    0.205184
  15 H :    0.181627
  16 H :    0.291308
  17 H :    0.204976
  18 H :    0.277578
  19 H :    0.281612
  20 H :    0.187176
  21 H :    0.187522
  22 H :    0.238008
Sum of atomic charges:   -0.0000000

LOEWDIN ATOMIC CHARGES
----------------------
   0 C :   -1.060605
   1 C :    0.870908
   2 C :    0.925268
   3 C :    0.925197
   4 C :    0.509339
   5 C :    0.168027
   6 C :    0.112291
   7 O :    0.709272
   8 O :    0.870742
   9 H :   -0.301020
  10 H :   -0.302736
  11 H :   -0.324279
  12 H :   -0.274270
  13 H :   -0.285837
  14 H :   -0.270929
  15 H :   -0.285840
  16 H :   -0.274261
  17 H :   -0.270839
  18 H :   -0.273630
  19 H :   -0.273908
  20 H :   -0.306634
  21 H :   -0.306964
  22 H :   -0.279293

  Mayer bond orders larger than 0.100000
B(  0-C ,  1-C ) :   0.9502 B(  0-C ,  7-O ) :   1.3318 B(  0-C ,  8-O ) :   1.0268
B(  1-C ,  8-O ) :  -0.1056 B(  1-C ,  9-H ) :   0.9244 B(  1-C , 10-H ) :   0.9321
B(  1-C , 11-H ) :   0.9714 B(  2-C ,  6-C ) :   0.7247 B(  2-C , 12-H ) :   0.9862
B(  2-C , 13-H ) :   1.0082 B(  2-C , 14-H ) :   1.0258 B(  3-C ,  6-C ) :   0.7240
B(  3-C , 15-H ) :   1.0085 B(  3-C , 16-H ) :   0.9852 B(  3-C , 17-H ) :   1.0264
B(  4-C ,  5-C ) :   0.9088 B(  4-C ,  6-C ) :   0.9943 B(  4-C ,  8-O ) :   0.1258
B(  4-C , 18-H ) :   0.8619 B(  4-C , 19-H ) :   0.8578 B(  5-C ,  6-C ) :  -0.1157
B(  5-C ,  7-O ) :   0.2026 B(  5-C ,  8-O ) :   0.4782 B(  5-C , 20-H ) :   0.9069
B(  5-C , 21-H ) :   0.9061 B(  6-C , 22-H ) :   0.9259 B(  8-O , 20-H ) :   0.1029
B(  8-O , 21-H ) :   0.1079

MP2 TOTAL ENERGY:     -424.955320789 Eh
FINAL SINGLE POINT ENERGY      -424.955320789291

DIPOLE MOMENT
-------------
                                X             Y             Z
Electronic contribution:     10.64224       1.09570       0.01987
Nuclear contribution   :    -10.98814      -1.96250      -0.02935
                        -----------------------------------------
Total Dipole Moment    :     -0.34591      -0.86679      -0.00948
                        -----------------------------------------
Magnitude (a.u.)       :      0.93331
Magnitude (Debye)      :      2.37229

Rotational constants in cm-1:     0.125857     0.021039     0.020649
Rotational constants in MHz :  3773.084261   630.747679   619.044530

                             ****ORCA TERMINATED NORMALLY****
TOTAL RUN TIME: 0 days 2 hours 18 minutes 11 seconds 168 msec
