                         Program Version 5.0.4 -  RELEASE  -
|  1> !ri-mp2 aug-cc-pvqz aug-cc-pvqz/c tightscf
|  2> %pal nprocs 16 end
|  3>
|  4> * xyz 0 1
|  5> S      0.457966    0.685420   -0.130775
|  6> O     -3.222564   -0.127058    0.122495
|  7> N     -0.866252   -0.384315    0.004694
|  8> C     -2.057415   -0.194178    0.059640
|  9> C      1.757292   -0.498441   -0.193213
| 10> C      2.970929   -0.238236    0.278239
| 11> H      1.512657   -1.411103   -0.721146
| 12> H      3.781289   -0.934480    0.113673
| 13> H      3.198043    0.670651    0.819051
| 14> *
| 15>
| 16>                          ****END OF INPUT****

CARTESIAN COORDINATES (ANGSTROEM)
---------------------------------
  S      0.457966    0.685420   -0.130775
  O     -3.222564   -0.127058    0.122495
  N     -0.866252   -0.384315    0.004694
  C     -2.057415   -0.194178    0.059640
  C      1.757292   -0.498441   -0.193213
  C      2.970929   -0.238236    0.278239
  H      1.512657   -1.411103   -0.721146
  H      3.781289   -0.934480    0.113673
  H      3.198043    0.670651    0.819051

 Total Charge           Charge          ....    0
 Multiplicity           Mult            ....    1
 Number of Electrons    NEL             ....   52
 Basis Dimension        Dim             ....  622

ORBITAL ENERGIES
----------------

  NO   OCC          E(Eh)            E(eV)
   0   2.0000     -92.024837     -2504.1231
   1   2.0000     -20.618938      -561.0698
   2   2.0000     -15.610961      -424.7958
   3   2.0000     -11.411929      -310.5344
   4   2.0000     -11.284362      -307.0631
   5   2.0000     -11.253720      -306.2293
   6   2.0000      -9.021564      -245.4892
   7   2.0000      -6.703247      -182.4046
   8   2.0000      -6.701726      -182.3632
   9   2.0000      -6.700611      -182.3329
  10   2.0000      -1.471613       -40.0446
  11   2.0000      -1.285388       -34.9772
  12   2.0000      -1.103536       -30.0287
  13   2.0000      -0.983608       -26.7653
  14   2.0000      -0.801132       -21.7999
  15   2.0000      -0.746328       -20.3086
  16   2.0000      -0.706077       -19.2133
  17   2.0000      -0.664513       -18.0823
  18   2.0000      -0.660087       -17.9619
  19   2.0000      -0.629610       -17.1326
  20   2.0000      -0.604086       -16.4380
  21   2.0000      -0.528532       -14.3821
  22   2.0000      -0.514585       -14.0026
  23   2.0000      -0.446894       -12.1606
  24   2.0000      -0.432113       -11.7584
  25   2.0000      -0.336390        -9.1536
  26   0.0000       0.023572         0.6414
  27   0.0000       0.033651         0.9157
  28   0.0000       0.037534         1.0214
  29   0.0000       0.054093         1.4719
  30   0.0000       0.055503         1.5103

MULLIKEN ATOMIC CHARGES
-----------------------
   0 S :    0.558209
   1 O :   -0.585608
   2 N :   -0.918173
   3 C :    1.128217
   4 C :   -0.654851
   5 C :   -0.733427
   6 H :    0.429983
   7 H :    0.370069
   8 H :    0.405581
Sum of atomic charges:   -0.0000000

LOEWDIN ATOMIC CHARGES
----------------------
   0 S :    1.016357
   1 O :    0.576360
   2 N :   -0.035835
   3 C :   -0.916534
   4 C :   -0.111646
   5 C :    0.658653
   6 H :   -0.434893
   7 H :   -0.367895
   8 H :   -0.384568

  Mayer bond orders larger than 0.100000
B(  0-S ,  2-N ) :   0.7061 B(  0-S ,  4-C ) :   0.9111 B(  1-O ,  2-N ) :   0.2430
B(  1-O ,  3-C ) :   1.7516 B(  2-N ,  3-C ) :   2.1085 B(  4-C ,  5-C ) :   1.7116
B(  4-C ,  6-H ) :   0.8101 B(  5-C ,  7-H ) :   0.9249 B(  5-C ,  8-H ) :   0.8366

MP2 TOTAL ENERGY:     -643.422741340 Eh
FINAL SINGLE POINT ENERGY      -643.422741339579

DIPOLE MOMENT
-------------
                                X             Y             Z
Electronic contribution:     -6.99745       1.58821      -0.26917
Nuclear contribution   :      8.13354      -1.64211       0.21012
                        -----------------------------------------
Total Dipole Moment    :      1.13610      -0.05390      -0.05905
                        -----------------------------------------
Magnitude (a.u.)       :      1.13891
Magnitude (Debye)      :      2.89487

Rotational constants in cm-1:     0.597833     0.041416     0.039333
Rotational constants in MHz : 17922.591375  1241.633908  1179.165358

                             ****ORCA TERMINATED NORMALLY****
TOTAL RUN TIME: 0 days 0 hours 6 minutes 34 seconds 646 msec
