                         Program Version 5.0.4 -  RELEASE  -
|  1> !ri-mp2 aug-cc-pvqz aug-cc-pvqz/c tightscf
|  2> %pal nprocs 16 end
|  3>
|  4> * xyz 0 1
|  5> C      0.467629    0.583634    0.000000
|  6> C     -0.031191    1.784928    0.753865
|  7> C     -0.031191    1.784928   -0.753865
|  8> C     -0.315789   -0.714728    0.000000
|  9> C     -0.031191   -1.532744    1.263884
| 10> C     -0.031191   -1.532744   -1.263884
| 11> H      1.544280    0.445861    0.000000
| 12> H     -0.986654    1.703209   -1.255077
| 13> H      0.685059    2.411395    1.266643
| 14> H      0.685059    2.411395   -1.266643
| 15> H     -0.986654    1.703209    1.255077
| 16> H     -0.623644   -2.449214    1.283788
| 17> H     -0.623644   -2.449214   -1.283788
| 18> H     -0.260425   -0.962286   -2.164879
| 19> H     -0.260425   -0.962286    2.164879
| 20> H      1.022414   -1.819061   -1.310538
| 21> H      1.022414   -1.819061    1.310538
| 22> H     -1.380233   -0.453598    0.000000
| 23> *
| 24>
| 25>                          ****END OF INPUT****

CARTESIAN COORDINATES (ANGSTROEM)
---------------------------------
  C      0.467629    0.583634    0.000000
  C     -0.031191    1.784928    0.753865
  C     -0.031191    1.784928   -0.753865
  C     -0.315789   -0.714728    0.000000
  C     -0.031191   -1.532744    1.263884
  C     -0.031191   -1.532744   -1.263884
  H      1.544280    0.445861    0.000000
  H     -0.986654    1.703209   -1.255077
  H      0.685059    2.411395    1.266643
  H      0.685059    2.411395   -1.266643
  H     -0.986654    1.703209    1.255077
  H     -0.623644   -2.449214    1.283788
  H     -0.623644   -2.449214   -1.283788
  H     -0.260425   -0.962286   -2.164879
  H     -0.260425   -0.962286    2.164879
  H      1.022414   -1.819061   -1.310538
  H      1.022414   -1.819061    1.310538
  H     -1.380233   -0.453598    0.000000

 Total Charge           Charge          ....    0
 Multiplicity           Mult            ....    1
 Number of Electrons    NEL             ....   48
 Basis Dimension        Dim             .... 1032

ORBITAL ENERGIES
----------------

  NO   OCC          E(Eh)            E(eV)
   0   2.0000     -11.224436      -305.4324
   1   2.0000     -11.222010      -305.3664
   2   2.0000     -11.217514      -305.2441
   3   2.0000     -11.216897      -305.2273
   4   2.0000     -11.206253      -304.9377
   5   2.0000     -11.206232      -304.9371
   6   2.0000      -1.144838       -31.1526
   7   2.0000      -1.048519       -28.5316
   8   2.0000      -0.925778       -25.1917
   9   2.0000      -0.842827       -22.9345
  10   2.0000      -0.817329       -22.2407
  11   2.0000      -0.758219       -20.6322
  12   2.0000      -0.655843       -17.8464
  13   2.0000      -0.635335       -17.2883
  14   2.0000      -0.593716       -16.1558
  15   2.0000      -0.560565       -15.2537
  16   2.0000      -0.554227       -15.0813
  17   2.0000      -0.531220       -14.4552
  18   2.0000      -0.509210       -13.8563
  19   2.0000      -0.482144       -13.1198
  20   2.0000      -0.480591       -13.0775
  21   2.0000      -0.459158       -12.4943
  22   2.0000      -0.408220       -11.1082
  23   2.0000      -0.399588       -10.8733
  24   0.0000       0.027740         0.7548
  25   0.0000       0.031059         0.8452
  26   0.0000       0.031613         0.8602
  27   0.0000       0.033159         0.9023
  28   0.0000       0.047681         1.2975

MULLIKEN ATOMIC CHARGES
-----------------------
   0 C :   -0.039288
   1 C :   -0.783238
   2 C :   -0.783233
   3 C :    0.255100
   4 C :   -0.948635
   5 C :   -0.948634
   6 H :    0.357282
   7 H :    0.270836
   8 H :    0.342255
   9 H :    0.342254
  10 H :    0.270832
  11 H :    0.262659
  12 H :    0.262660
  13 H :    0.258454
  14 H :    0.258455
  15 H :    0.195477
  16 H :    0.195476
  17 H :    0.231287
Sum of atomic charges:   -0.0000000

LOEWDIN ATOMIC CHARGES
----------------------
   0 C :    0.128897
   1 C :    0.606883
   2 C :    0.606883
   3 C :    0.092251
   4 C :    0.925430
   5 C :    0.925430
   6 H :   -0.259040
   7 H :   -0.273797
   8 H :   -0.267892
   9 H :   -0.267892
  10 H :   -0.273797
  11 H :   -0.276327
  12 H :   -0.276327
  13 H :   -0.275553
  14 H :   -0.275553
  15 H :   -0.276301
  16 H :   -0.276301
  17 H :   -0.286993

  Mayer bond orders larger than 0.100000
B(  0-C ,  1-C ) :   0.6748 B(  0-C ,  2-C ) :   0.6748 B(  0-C ,  3-C ) :   0.7262
B(  0-C ,  6-H ) :   0.8735 B(  1-C ,  2-C ) :   1.1850 B(  1-C ,  8-H ) :   0.9250
B(  1-C , 10-H ) :   0.9544 B(  2-C ,  7-H ) :   0.9544 B(  2-C ,  9-H ) :   0.9250
B(  3-C ,  4-C ) :   0.6625 B(  3-C ,  5-C ) :   0.6625 B(  3-C , 11-H ) :  -0.1009
B(  3-C , 12-H ) :  -0.1009 B(  3-C , 17-H ) :   0.8973 B(  4-C ,  5-C ) :   0.1498
B(  4-C , 11-H ) :   1.0356 B(  4-C , 14-H ) :   1.0008 B(  4-C , 16-H ) :   0.9900
B(  5-C , 12-H ) :   1.0356 B(  5-C , 13-H ) :   1.0008 B(  5-C , 15-H ) :   0.9900

MP2 TOTAL ENERGY:     -235.375884722 Eh
FINAL SINGLE POINT ENERGY      -235.375884722251

DIPOLE MOMENT
-------------
                                X             Y             Z
Electronic contribution:      0.17053       2.38378       0.00000
Nuclear contribution   :     -0.17401      -2.39893       0.00000
                        -----------------------------------------
Total Dipole Moment    :     -0.00347      -0.01515       0.00000
                        -----------------------------------------
Magnitude (a.u.)       :      0.01555
Magnitude (Debye)      :      0.03952

Rotational constants in cm-1:     0.190446     0.086062     0.065671
Rotational constants in MHz :  5709.425889  2580.074541  1968.771272

                             ****ORCA TERMINATED NORMALLY****
TOTAL RUN TIME: 0 days 0 hours 53 minutes 48 seconds 699 msec
