                         Program Version 5.0.4 -  RELEASE  -
|  1> !ri-mp2 aug-cc-pvqz aug-cc-pvqz/c tightscf
|  2> %pal nprocs 16 end
|  3>
|  4> * xyz 0 1
|  5> C      0.654473   -1.275757        0.000000
|  6> C     -0.759568   -1.159013        0.000000
|  7> C      1.232534   -0.038075        0.000000
|  8> N     -1.256067    0.058336        0.000000
|  9> S      0.000000    1.151175        0.000000
| 10> H      1.194557   -2.209548        0.000000
| 11> H     -1.446653   -1.995169        0.000000
| 12> H      2.279932    0.214642        0.000000
| 13> *
| 14>
| 15>                          ****END OF INPUT****

CARTESIAN COORDINATES (ANGSTROEM)
---------------------------------
  C      0.654473   -1.275757    0.000000
  C     -0.759568   -1.159013    0.000000
  C      1.232534   -0.038075    0.000000
  N     -1.256067    0.058336    0.000000
  S      0.000000    1.151175    0.000000
  H      1.194557   -2.209548    0.000000
  H     -1.446653   -1.995169    0.000000
  H      2.279932    0.214642    0.000000

 Total Charge           Charge          ....    0
 Multiplicity           Mult            ....    1
 Number of Electrons    NEL             ....   44
 Basis Dimension        Dim             ....  542

ORBITAL ENERGIES
----------------

  NO   OCC          E(Eh)            E(eV)
   0   2.0000     -92.009494     -2503.7056
   1   2.0000     -15.589045      -424.1995
   2   2.0000     -11.285321      -307.0892
   3   2.0000     -11.284249      -307.0600
   4   2.0000     -11.247991      -306.0734
   5   2.0000      -9.008195      -245.1254
   6   2.0000      -6.689385      -182.0274
   7   2.0000      -6.688531      -182.0042
   8   2.0000      -6.688072      -181.9917
   9   2.0000      -1.274921       -34.6924
  10   2.0000      -1.066633       -29.0246
  11   2.0000      -1.005302       -27.3557
  12   2.0000      -0.799454       -21.7542
  13   2.0000      -0.775331       -21.0978
  14   2.0000      -0.707227       -19.2446
  15   2.0000      -0.588283       -16.0080
  16   2.0000      -0.581109       -15.8128
  17   2.0000      -0.563578       -15.3357
  18   2.0000      -0.491344       -13.3701
  19   2.0000      -0.453243       -12.3334
  20   2.0000      -0.377946       -10.2844
  21   2.0000      -0.357608        -9.7310
  22   0.0000       0.022652         0.6164
  23   0.0000       0.029430         0.8008
  24   0.0000       0.038408         1.0451
  25   0.0000       0.059458         1.6179
  26   0.0000       0.065229         1.7750

MULLIKEN ATOMIC CHARGES
-----------------------
   0 C :   -0.420362
   1 C :   -0.239129
   2 C :   -0.632400
   3 N :   -0.635286
   4 S :    0.509815
   5 H :    0.498294
   6 H :    0.505676
   7 H :    0.413392
Sum of atomic charges:   -0.0000000

LOEWDIN ATOMIC CHARGES
----------------------
   0 C :    0.170831
   1 C :   -0.149148
   2 C :   -0.101268
   3 N :    0.095541
   4 S :    1.085694
   5 H :   -0.340351
   6 H :   -0.360432
   7 H :   -0.400867

  Mayer bond orders larger than 0.100000
B(  0-C ,  1-C ) :   1.2225 B(  0-C ,  2-C ) :   1.4093 B(  0-C ,  5-H ) :   0.7580
B(  1-C ,  2-C ) :  -0.1180 B(  1-C ,  3-N ) :   1.5771 B(  1-C ,  6-H ) :   0.7946
B(  2-C ,  4-S ) :   1.1977 B(  2-C ,  7-H ) :   0.8793 B(  3-N ,  4-S ) :   1.0446

MP2 TOTAL ENERGY:     -568.310692170 Eh
FINAL SINGLE POINT ENERGY      -568.310692169619

DIPOLE MOMENT
-------------
                                X             Y             Z
Electronic contribution:     -1.02416       3.33432       0.00000
Nuclear contribution   :      1.96139      -3.90757       0.00000
                        -----------------------------------------
Total Dipole Moment    :      0.93723      -0.57325       0.00000
                        -----------------------------------------
Magnitude (a.u.)       :      1.09865
Magnitude (Debye)      :      2.79253

Rotational constants in cm-1:     0.275640     0.193704     0.113760
Rotational constants in MHz :  8263.470995  5807.089486  3410.433835

                             ****ORCA TERMINATED NORMALLY****
TOTAL RUN TIME: 0 days 0 hours 6 minutes 43 seconds 881 msec
