                         Program Version 5.0.4 -  RELEASE  -
|  1> !ri-mp2 aug-cc-pvqz aug-cc-pvqz/c tightscf
|  2> %pal nprocs 16 end
|  3>
|  4> * xyz 0 1
|  5> C     -0.221060    2.864428    0.000000
|  6> C     -0.221060   -2.371524    1.265102
|  7> C     -0.221060   -2.371524   -1.265102
|  8> C      1.048508   -0.544433    0.000000
|  9> C     -0.053651    0.498440    0.000000
| 10> C      0.564195   -2.007414    0.000000
| 11> O     -1.421923    2.840809    0.000000
| 12> O      0.588857    1.801614    0.000000
| 13> H      0.384539    3.779558    0.000000
| 14> H     -0.428507   -3.442220    1.294360
| 15> H     -1.181810   -1.855200    1.308497
| 16> H      0.337007   -2.116386    2.167817
| 17> H     -1.181810   -1.855200   -1.308497
| 18> H     -0.428507   -3.442220   -1.294360
| 19> H      0.337007   -2.116386   -2.167817
| 20> H      1.679808   -0.377477   -0.876121
| 21> H      1.679808   -0.377477    0.876121
| 22> H     -0.691293    0.435316   -0.880677
| 23> H     -0.691293    0.435316    0.880677
| 24> H      1.474353   -2.614843    0.000000
| 25> *
| 26>
| 27>                          ****END OF INPUT****

CARTESIAN COORDINATES (ANGSTROEM)
---------------------------------
  C     -0.221060    2.864428    0.000000
  C     -0.221060   -2.371524    1.265102
  C     -0.221060   -2.371524   -1.265102
  C      1.048508   -0.544433    0.000000
  C     -0.053651    0.498440    0.000000
  C      0.564195   -2.007414    0.000000
  O     -1.421923    2.840809    0.000000
  O      0.588857    1.801614    0.000000
  H      0.384539    3.779558    0.000000
  H     -0.428507   -3.442220    1.294360
  H     -1.181810   -1.855200    1.308497
  H      0.337007   -2.116386    2.167817
  H     -1.181810   -1.855200   -1.308497
  H     -0.428507   -3.442220   -1.294360
  H      0.337007   -2.116386   -2.167817
  H      1.679808   -0.377477   -0.876121
  H      1.679808   -0.377477    0.876121
  H     -0.691293    0.435316   -0.880677
  H     -0.691293    0.435316    0.880677
  H      1.474353   -2.614843    0.000000

 Total Charge           Charge          ....    0
 Multiplicity           Mult            ....    1
 Number of Electrons    NEL             ....   64
 Basis Dimension        Dim             .... 1192

ORBITAL ENERGIES
----------------

  NO   OCC          E(Eh)            E(eV)
   0   2.0000     -20.605385      -560.7010
   1   2.0000     -20.550408      -559.2050
   2   2.0000     -11.379148      -309.6424
   3   2.0000     -11.289103      -307.1921
   4   2.0000     -11.235985      -305.7467
   5   2.0000     -11.227879      -305.5261
   6   2.0000     -11.216893      -305.2272
   7   2.0000     -11.216872      -305.2266
   8   2.0000      -1.461529       -39.7702
   9   2.0000      -1.365418       -37.1549
  10   2.0000      -1.103532       -30.0286
  11   2.0000      -1.014402       -27.6033
  12   2.0000      -0.937231       -25.5034
  13   2.0000      -0.900496       -24.5037
  14   2.0000      -0.814473       -22.1629
  15   2.0000      -0.771663       -20.9980
  16   2.0000      -0.718650       -19.5555
  17   2.0000      -0.685482       -18.6529
  18   2.0000      -0.680354       -18.5134
  19   2.0000      -0.630648       -17.1608
  20   2.0000      -0.606308       -16.4985
  21   2.0000      -0.598471       -16.2852
  22   2.0000      -0.562916       -15.3177
  23   2.0000      -0.559986       -15.2380
  24   2.0000      -0.535636       -14.5754
  25   2.0000      -0.527131       -14.3440
  26   2.0000      -0.509188       -13.8557
  27   2.0000      -0.478317       -13.0157
  28   2.0000      -0.472806       -12.8657
  29   2.0000      -0.464599       -12.6424
  30   2.0000      -0.461194       -12.5497
  31   2.0000      -0.454140       -12.3578
  32   0.0000       0.023130         0.6294
  33   0.0000       0.028733         0.7819
  34   0.0000       0.031620         0.8604
  35   0.0000       0.032991         0.8977
  36   0.0000       0.043358         1.1798

MULLIKEN ATOMIC CHARGES
-----------------------
   0 C :    0.239689
   1 C :   -0.904737
   2 C :   -0.904721
   3 C :   -0.470235
   4 C :    0.308491
   5 C :    0.058375
   6 O :   -0.712017
   7 O :   -0.695581
   8 H :    0.502509
   9 H :    0.291001
  10 H :    0.182821
  11 H :    0.207116
  12 H :    0.182819
  13 H :    0.290999
  14 H :    0.207121
  15 H :    0.283355
  16 H :    0.283364
  17 H :    0.203660
  18 H :    0.203697
  19 H :    0.242273
Sum of atomic charges:   -0.0000000

LOEWDIN ATOMIC CHARGES
----------------------
   0 C :   -0.658424
   1 C :    0.925510
   2 C :    0.925510
   3 C :    0.506609
   4 C :    0.165099
   5 C :    0.112102
   6 O :    0.673522
   7 O :    0.853848
   8 H :   -0.400695
   9 H :   -0.274020
  10 H :   -0.285446
  11 H :   -0.270727
  12 H :   -0.285446
  13 H :   -0.274020
  14 H :   -0.270727
  15 H :   -0.274483
  16 H :   -0.274483
  17 H :   -0.307278
  18 H :   -0.307278
  19 H :   -0.279174

  Mayer bond orders larger than 0.100000
B(  0-C ,  6-O ) :   1.6925 B(  0-C ,  7-O ) :   1.0806 B(  0-C ,  8-H ) :   0.7637
B(  1-C ,  5-C ) :   0.7318 B(  1-C ,  9-H ) :   0.9867 B(  1-C , 10-H ) :   1.0045
B(  1-C , 11-H ) :   1.0231 B(  2-C ,  5-C ) :   0.7318 B(  2-C , 12-H ) :   1.0045
B(  2-C , 13-H ) :   0.9867 B(  2-C , 14-H ) :   1.0231 B(  3-C ,  4-C ) :   1.0079
B(  3-C ,  5-C ) :   0.9654 B(  3-C , 15-H ) :   0.8602 B(  3-C , 16-H ) :   0.8602
B(  4-C ,  5-C ) :  -0.1118 B(  4-C ,  7-O ) :   0.4828 B(  4-C , 17-H ) :   0.9049
B(  4-C , 18-H ) :   0.9048 B(  5-C , 19-H ) :   0.9122

MP2 TOTAL ENERGY:     -385.708670592 Eh
FINAL SINGLE POINT ENERGY      -385.708670592385

DIPOLE MOMENT
-------------
                                X             Y             Z
Electronic contribution:     -0.55021      13.30235      -0.00000
Nuclear contribution   :      1.32052     -13.94227       0.00000
                        -----------------------------------------
Total Dipole Moment    :      0.77031      -0.63993      -0.00000
                        -----------------------------------------
Magnitude (a.u.)       :      1.00144
Magnitude (Debye)      :      2.54545

Rotational constants in cm-1:     0.141819     0.028290     0.028142
Rotational constants in MHz :  4251.616188   848.120406   843.667236

                             ****ORCA TERMINATED NORMALLY****
TOTAL RUN TIME: 0 days 1 hours 25 minutes 26 seconds 132 msec
