                         Program Version 5.0.4 -  RELEASE  -
|  1> !ri-mp2 aug-cc-pvqz aug-cc-pvqz/c tightscf
|  2> %pal nprocs 16 end
|  3>
|  4> * xyz 0 1
|  5> C     -2.290734    0.312473   -0.152529
|  6> C      1.730575    1.318317    0.376938
|  7> C      2.349480   -1.102336   -0.024284
|  8> C     -0.050404   -0.444296    0.035206
|  9> C      1.350871    0.017165   -0.333148
| 10> O     -2.730830   -0.652419    0.410787
| 11> O     -1.002022    0.556886   -0.408491
| 12> H     -2.898837    1.139165   -0.541138
| 13> H      2.726140    1.646204    0.075225
| 14> H      1.741116    1.179254    1.460987
| 15> H      1.028303    2.118260    0.146337
| 16> H      3.358716   -0.805723   -0.310746
| 17> H      2.105762   -2.020077   -0.561819
| 18> H      2.364512   -1.333019    1.043503
| 19> H     -0.300747   -1.390490   -0.444761
| 20> H     -0.160689   -0.574017    1.113477
| 21> H      1.359807    0.196764   -1.412535
| 22> *
| 23>
| 24>                          ****END OF INPUT****

CARTESIAN COORDINATES (ANGSTROEM)
---------------------------------
  C     -2.290734    0.312473   -0.152529
  C      1.730575    1.318317    0.376938
  C      2.349480   -1.102336   -0.024284
  C     -0.050404   -0.444296    0.035206
  C      1.350871    0.017165   -0.333148
  O     -2.730830   -0.652419    0.410787
  O     -1.002022    0.556886   -0.408491
  H     -2.898837    1.139165   -0.541138
  H      2.726140    1.646204    0.075225
  H      1.741116    1.179254    1.460987
  H      1.028303    2.118260    0.146337
  H      3.358716   -0.805723   -0.310746
  H      2.105762   -2.020077   -0.561819
  H      2.364512   -1.333019    1.043503
  H     -0.300747   -1.390490   -0.444761
  H     -0.160689   -0.574017    1.113477
  H      1.359807    0.196764   -1.412535

 Total Charge           Charge          ....    0
 Multiplicity           Mult            ....    1
 Number of Electrons    NEL             ....   56
 Basis Dimension        Dim             .... 1020

ORBITAL ENERGIES
----------------

  NO   OCC          E(Eh)            E(eV)
   0   2.0000     -20.606253      -560.7247
   1   2.0000     -20.551293      -559.2291
   2   2.0000     -11.380237      -309.6720
   3   2.0000     -11.289373      -307.1995
   4   2.0000     -11.238248      -305.8083
   5   2.0000     -11.222065      -305.3679
   6   2.0000     -11.216192      -305.2081
   7   2.0000      -1.462865       -39.8066
   8   2.0000      -1.366701       -37.1898
   9   2.0000      -1.098329       -29.8870
  10   2.0000      -0.964650       -26.2495
  11   2.0000      -0.939926       -25.5767
  12   2.0000      -0.829153       -22.5624
  13   2.0000      -0.786361       -21.3980
  14   2.0000      -0.724159       -19.7054
  15   2.0000      -0.685949       -18.6656
  16   2.0000      -0.677462       -18.4347
  17   2.0000      -0.623106       -16.9556
  18   2.0000      -0.608603       -16.5609
  19   2.0000      -0.569653       -15.5011
  20   2.0000      -0.547795       -14.9063
  21   2.0000      -0.544958       -14.8291
  22   2.0000      -0.536326       -14.5942
  23   2.0000      -0.490923       -13.3587
  24   2.0000      -0.484074       -13.1723
  25   2.0000      -0.478137       -13.0108
  26   2.0000      -0.461958       -12.5705
  27   2.0000      -0.459039       -12.4911
  28   0.0000       0.023865         0.6494
  29   0.0000       0.029764         0.8099
  30   0.0000       0.032484         0.8839
  31   0.0000       0.034466         0.9379
  32   0.0000       0.046070         1.2536

MULLIKEN ATOMIC CHARGES
-----------------------
   0 C :    0.274202
   1 C :   -0.936938
   2 C :   -0.915098
   3 C :    0.074090
   4 C :    0.141088
   5 O :   -0.726448
   6 O :   -0.715172
   7 H :    0.556078
   8 H :    0.274269
   9 H :    0.195267
  10 H :    0.288130
  11 H :    0.253962
  12 H :    0.240443
  13 H :    0.196968
  14 H :    0.285397
  15 H :    0.232709
  16 H :    0.281052
Sum of atomic charges:    0.0000000

LOEWDIN ATOMIC CHARGES
----------------------
   0 C :   -0.656213
   1 C :    0.919513
   2 C :    0.920069
   3 C :    0.150349
   4 C :    0.077543
   5 O :    0.674235
   6 O :    0.852754
   7 H :   -0.398908
   8 H :   -0.277338
   9 H :   -0.276764
  10 H :   -0.286762
  11 H :   -0.276387
  12 H :   -0.274546
  13 H :   -0.273709
  14 H :   -0.299409
  15 H :   -0.297067
  16 H :   -0.277360

  Mayer bond orders larger than 0.100000
B(  0-C ,  5-O ) :   1.6736 B(  0-C ,  6-O ) :   1.1289 B(  0-C ,  7-H ) :   0.6720
B(  1-C ,  2-C ) :   0.1021 B(  1-C ,  4-C ) :   0.6914 B(  1-C ,  8-H ) :   0.9949
B(  1-C ,  9-H ) :   0.9831 B(  1-C , 10-H ) :   0.9736 B(  2-C ,  4-C ) :   0.7256
B(  2-C , 11-H ) :   1.0280 B(  2-C , 12-H ) :   0.9929 B(  2-C , 13-H ) :   0.9824
B(  3-C ,  4-C ) :   0.8802 B(  3-C ,  5-O ) :   0.1138 B(  3-C ,  6-O ) :   0.6401
B(  3-C , 14-H ) :   0.8889 B(  3-C , 15-H ) :   0.9177 B(  4-C , 16-H ) :   0.8721

MP2 TOTAL ENERGY:     -346.475025543 Eh
FINAL SINGLE POINT ENERGY      -346.475025543171

DIPOLE MOMENT
-------------
                                X             Y             Z
Electronic contribution:    -10.79481       0.25871      -0.91124
Nuclear contribution   :     11.60045       0.15942       0.58549
                        -----------------------------------------
Total Dipole Moment    :      0.80564       0.41813      -0.32576
                        -----------------------------------------
Magnitude (a.u.)       :      0.96437
Magnitude (Debye)      :      2.45123

Rotational constants in cm-1:     0.196673     0.044232     0.038787
Rotational constants in MHz :  5896.119566  1326.048063  1162.811786

                             ****ORCA TERMINATED NORMALLY****
TOTAL RUN TIME: 0 days 0 hours 55 minutes 41 seconds 238 msec
