                         Program Version 5.0.4 -  RELEASE  -
|  1> !ri-mp2 aug-cc-pvqz aug-cc-pvqz/c tightscf
|  2> %pal nprocs 16 end
|  3>
|  4> * xyz 0 1
|  5> O     -1.742007    1.965021   -0.000021
|  6> C     -1.177229    0.903277   -0.000010
|  7> C      0.255043    0.578698   -0.000007
|  8> C      0.379731   -0.819241    0.000009
|  9> C      1.623314   -1.425094    0.000016
| 10> C      2.745582   -0.595433    0.000007
| 11> C      2.634874    0.794760   -0.000010
| 12> C      1.378592    1.391778   -0.000017
| 13> N     -0.883171   -1.422253    0.000016
| 14> C     -1.904802   -0.492965    0.000006
| 15> O     -3.086643   -0.710872    0.000008
| 16> H      1.729179   -2.501176    0.000029
| 17> H      3.728266   -1.047628    0.000012
| 18> H      3.527112    1.404141   -0.000017
| 19> H      1.265488    2.467328   -0.000029
| 20> H     -1.049284   -2.414768    0.000030
| 21> *
| 22>
| 23>                          ****END OF INPUT****

CARTESIAN COORDINATES (ANGSTROEM)
---------------------------------
  O     -1.742007    1.965021   -0.000021
  C     -1.177229    0.903277   -0.000010
  C      0.255043    0.578698   -0.000007
  C      0.379731   -0.819241    0.000009
  C      1.623314   -1.425094    0.000016
  C      2.745582   -0.595433    0.000007
  C      2.634874    0.794760   -0.000010
  C      1.378592    1.391778   -0.000017
  N     -0.883171   -1.422253    0.000016
  C     -1.904802   -0.492965    0.000006
  O     -3.086643   -0.710872    0.000008
  H      1.729179   -2.501176    0.000029
  H      3.728266   -1.047628    0.000012
  H      3.527112    1.404141   -0.000017
  H      1.265488    2.467328   -0.000029
  H     -1.049284   -2.414768    0.000030

 Total Charge           Charge          ....    0
 Multiplicity           Mult            ....    1
 Number of Electrons    NEL             ....   76
 Basis Dimension        Dim             .... 1110

ORBITAL ENERGIES
----------------

  NO   OCC          E(Eh)            E(eV)
   0   2.0000     -20.575997      -559.9013
   1   2.0000     -20.560191      -559.4712
   2   2.0000     -15.625062      -425.1796
   3   2.0000     -11.379802      -309.6602
   4   2.0000     -11.358032      -309.0678
   5   2.0000     -11.323949      -308.1403
   6   2.0000     -11.278176      -306.8948
   7   2.0000     -11.277638      -306.8801
   8   2.0000     -11.262515      -306.4686
   9   2.0000     -11.258121      -306.3491
  10   2.0000     -11.253983      -306.2364
  11   2.0000      -1.429899       -38.9095
  12   2.0000      -1.403577       -38.1933
  13   2.0000      -1.306213       -35.5439
  14   2.0000      -1.175058       -31.9750
  15   2.0000      -1.074195       -29.2303
  16   2.0000      -1.040603       -28.3162
  17   2.0000      -0.965552       -26.2740
  18   2.0000      -0.868264       -23.6267
  19   2.0000      -0.838175       -22.8079
  20   2.0000      -0.796654       -21.6780
  21   2.0000      -0.750472       -20.4214
  22   2.0000      -0.718798       -19.5595
  23   2.0000      -0.680576       -18.5194
  24   2.0000      -0.666940       -18.1484
  25   2.0000      -0.643667       -17.5151
  26   2.0000      -0.639633       -17.4053
  27   2.0000      -0.636878       -17.3303
  28   2.0000      -0.633802       -17.2466
  29   2.0000      -0.560821       -15.2607
  30   2.0000      -0.548922       -14.9369
  31   2.0000      -0.540161       -14.6985
  32   2.0000      -0.538925       -14.6649
  33   2.0000      -0.506148       -13.7730
  34   2.0000      -0.468420       -12.7464
  35   2.0000      -0.415668       -11.3109
  36   2.0000      -0.375634       -10.2215
  37   2.0000      -0.337012        -9.1706
  38   0.0000       0.014743         0.4012
  39   0.0000       0.022143         0.6025
  40   0.0000       0.024921         0.6781
  41   0.0000       0.029947         0.8149
  42   0.0000       0.042157         1.1472

MULLIKEN ATOMIC CHARGES
-----------------------
   0 O :   -0.784659
   1 C :    0.928162
   2 C :    0.004352
   3 C :    0.671776
   4 C :   -0.452205
   5 C :   -0.367304
   6 C :   -0.451349
   7 C :   -0.242220
   8 N :   -0.578849
   9 C :    0.826862
  10 O :   -0.785001
  11 H :    0.314759
  12 H :    0.242149
  13 H :    0.248780
  14 H :    0.264421
  15 H :    0.160326
Sum of atomic charges:    0.0000000

LOEWDIN ATOMIC CHARGES
----------------------
   0 O :    0.704684
   1 C :   -0.682686
   2 C :   -0.152247
   3 C :   -0.278514
   4 C :    0.386382
   5 C :    0.350460
   6 C :    0.360959
   7 C :    0.365965
   8 N :    0.828336
   9 C :   -0.840172
  10 O :    0.678155
  11 H :   -0.317306
  12 H :   -0.313472
  13 H :   -0.327645
  14 H :   -0.299129
  15 H :   -0.463769

  Mayer bond orders larger than 0.100000
B(  0-O ,  1-C ) :   0.7730 B(  0-O ,  2-C ) :   0.5222 B(  0-O ,  9-C ) :   0.1589
B(  1-C ,  2-C ) :   1.0035 B(  1-C ,  3-C ) :  -0.2753 B(  1-C ,  8-N ) :  -0.1647
B(  1-C ,  9-C ) :   1.4515 B(  1-C , 10-O ) :   0.2686 B(  2-C ,  3-C ) :   1.0083
B(  2-C ,  4-C ) :  -0.2562 B(  2-C ,  6-C ) :  -0.2084 B(  2-C ,  7-C ) :   0.9448
B(  2-C ,  9-C ) :  -0.3067 B(  2-C , 14-H ) :  -0.1112 B(  3-C ,  4-C ) :   1.0569
B(  3-C ,  5-C ) :  -0.3227 B(  3-C ,  7-C ) :  -0.1675 B(  3-C ,  8-N ) :   0.6196
B(  3-C , 15-H ) :  -0.1305 B(  4-C ,  5-C ) :   1.3664 B(  4-C ,  6-C ) :   0.1157
B(  4-C ,  7-C ) :   0.1400 B(  4-C ,  8-N ) :  -0.1639 B(  4-C , 11-H ) :   0.9657
B(  4-C , 12-H ) :  -0.1249 B(  5-C ,  6-C ) :   1.1837 B(  5-C , 12-H ) :   1.1377
B(  6-C ,  7-C ) :   1.2468 B(  6-C , 12-H ) :  -0.1233 B(  6-C , 13-H ) :   1.1174
B(  7-C , 13-H ) :  -0.1441 B(  7-C , 14-H ) :   1.0399 B(  8-N ,  9-C ) :   1.2442
B(  8-N , 10-O ) :   0.1867 B(  8-N , 15-H ) :   1.1051 B(  9-C , 10-O ) :   1.0795

MP2 TOTAL ENERGY:     -512.279315906 Eh
FINAL SINGLE POINT ENERGY      -512.279315906212

DIPOLE MOMENT
-------------
                                X             Y             Z
Electronic contribution:     -6.46091       0.81861      -0.00001
Nuclear contribution   :      8.84678      -2.01847       0.00002
                        -----------------------------------------
Total Dipole Moment    :      2.38587      -1.19986       0.00002
                        -----------------------------------------
Magnitude (a.u.)       :      2.67059
Magnitude (Debye)      :      6.78809

Rotational constants in cm-1:     0.082688     0.031522     0.022822
Rotational constants in MHz :  2478.911909   944.997495   684.178600

                             ****ORCA TERMINATED NORMALLY****
TOTAL RUN TIME: 0 days 1 hours 3 minutes 49 seconds 282 msec
