                         Program Version 5.0.4 -  RELEASE  -
|  1> !ri-mp2 aug-cc-pvqz aug-cc-pvqz/c tightscf
|  2> %pal nprocs 16 end
|  3>
|  4> * xyz 0 1
|  5> S     2.996748    0.021824   -0.268596
|  6> O     0.456110    0.082338   -0.793882
|  7> O     0.927761   -0.148682    1.382040
|  8> N    -0.867057    0.036647   -0.354945
|  9> N    -2.862943    0.732728    0.190086
| 10> C     1.424260   -0.020504    0.159117
| 11> C    -1.640834    1.120155   -0.072639
| 12> C    -1.634472   -1.100967   -0.292195
| 13> C    -2.871350   -0.637105    0.057407
| 14> H     1.677808   -0.212492    1.990373
| 15> H    -1.254127    2.124562   -0.078045
| 16> H    -1.230660   -2.075076   -0.495225
| 17> H    -3.767578   -1.210522    0.219041
| 18> *
| 19>
| 20>                          ****END OF INPUT****

CARTESIAN COORDINATES (ANGSTROEM)
---------------------------------
  S      2.996748    0.021824   -0.268596
  O      0.456110    0.082338   -0.793882
  O      0.927761   -0.148682    1.382040
  N     -0.867057    0.036647   -0.354945
  N     -2.862943    0.732728    0.190086
  C      1.424260   -0.020504    0.159117
  C     -1.640834    1.120155   -0.072639
  C     -1.634472   -1.100967   -0.292195
  C     -2.871350   -0.637105    0.057407
  H      1.677808   -0.212492    1.990373
  H     -1.254127    2.124562   -0.078045
  H     -1.230660   -2.075076   -0.495225
  H     -3.767578   -1.210522    0.219041

 Total Charge           Charge          ....    0
 Multiplicity           Mult            ....    1
 Number of Electrons    NEL             ....   74
 Basis Dimension        Dim             ....  908

ORBITAL ENERGIES
----------------

  NO   OCC          E(Eh)            E(eV)
   0   2.0000     -91.944936     -2501.9489
   1   2.0000     -20.700716      -563.2951
   2   2.0000     -20.667305      -562.3860
   3   2.0000     -15.698850      -427.1874
   4   2.0000     -15.563493      -423.5042
   5   2.0000     -11.468881      -312.0841
   6   2.0000     -11.318362      -307.9883
   7   2.0000     -11.282042      -307.0000
   8   2.0000     -11.262445      -306.4667
   9   2.0000      -8.949468      -243.5274
  10   2.0000      -6.631087      -180.4411
  11   2.0000      -6.629383      -180.3947
  12   2.0000      -6.628629      -180.3742
  13   2.0000      -1.558088       -42.3977
  14   2.0000      -1.473879       -40.1063
  15   2.0000      -1.343824       -36.5673
  16   2.0000      -1.172451       -31.9040
  17   2.0000      -1.053712       -28.6730
  18   2.0000      -1.028717       -27.9928
  19   2.0000      -0.908261       -24.7151
  20   2.0000      -0.848031       -23.0761
  21   2.0000      -0.841780       -22.9060
  22   2.0000      -0.788662       -21.4606
  23   2.0000      -0.733240       -19.9525
  24   2.0000      -0.702369       -19.1124
  25   2.0000      -0.691084       -18.8054
  26   2.0000      -0.649713       -17.6796
  27   2.0000      -0.640396       -17.4261
  28   2.0000      -0.600269       -16.3341
  29   2.0000      -0.597720       -16.2648
  30   2.0000      -0.579336       -15.7645
  31   2.0000      -0.562046       -15.2941
  32   2.0000      -0.453835       -12.3495
  33   2.0000      -0.417745       -11.3674
  34   2.0000      -0.391913       -10.6645
  35   2.0000      -0.376888       -10.2557
  36   2.0000      -0.343623        -9.3505
  37   0.0000       0.020149         0.5483
  38   0.0000       0.029492         0.8025
  39   0.0000       0.033741         0.9181
  40   0.0000       0.036835         1.0023
  41   0.0000       0.051770         1.4087

MULLIKEN ATOMIC CHARGES
-----------------------
   0 S :    0.018640
   1 O :   -0.676034
   2 O :   -0.569694
   3 N :    0.283081
   4 N :   -0.882152
   5 C :    0.381111
   6 C :    0.121491
   7 C :   -0.399445
   8 C :   -0.106563
   9 H :    0.351128
  10 H :    0.580086
  11 H :    0.395611
  12 H :    0.502741
Sum of atomic charges:   -0.0000000

LOEWDIN ATOMIC CHARGES
----------------------
   0 S :    1.018447
   1 O :    0.615907
   2 O :    1.188348
   3 N :   -0.027728
   4 N :    0.550065
   5 C :   -1.641345
   6 C :   -0.096548
   7 C :    0.165292
   8 C :    0.046700
   9 H :   -0.845312
  10 H :   -0.315516
  11 H :   -0.308520
  12 H :   -0.349791

  Mayer bond orders larger than 0.100000
B(  0-S ,  5-C ) :   1.5168 B(  1-O ,  3-N ) :   0.4244 B(  1-O ,  5-C ) :   0.9699
B(  2-O ,  5-C ) :   0.9481 B(  2-O ,  9-H ) :   0.8836 B(  3-N ,  6-C ) :   1.2037
B(  3-N ,  7-C ) :   0.9884 B(  3-N ,  8-C ) :  -0.1203 B(  4-N ,  6-C ) :   1.4963
B(  4-N ,  7-C ) :   0.1431 B(  4-N ,  8-C ) :   1.0069 B(  6-C , 10-H ) :   0.6668
B(  7-C ,  8-C ) :   1.5796 B(  7-C , 11-H ) :   0.9144 B(  8-C , 12-H ) :   0.7914

MP2 TOTAL ENERGY:     -811.857299625 Eh
FINAL SINGLE POINT ENERGY      -811.857299625082

DIPOLE MOMENT
-------------
                                X             Y             Z
Electronic contribution:      4.82836       0.83554      -0.97202
Nuclear contribution   :     -4.49970      -1.32156       1.59345
                        -----------------------------------------
Total Dipole Moment    :      0.32866      -0.48602       0.62143
                        -----------------------------------------
Magnitude (a.u.)       :      0.85464
Magnitude (Debye)      :      2.17233

Rotational constants in cm-1:     0.162382     0.024459     0.024388
Rotational constants in MHz :  4868.077096   733.258405   731.124523

                             ****ORCA TERMINATED NORMALLY****
TOTAL RUN TIME: 0 days 0 hours 29 minutes 41 seconds 645 msec
