                         Program Version 5.0.4 -  RELEASE  -
|  1> !ri-mp2 aug-cc-pvqz aug-cc-pvqz/c tightscf
|  2> %pal nprocs 16 end
|  3>
|  4> * xyz 0 1
|  5> C     -2.607951   -0.070177   -0.002533
|  6> C     -1.956385    1.138080    0.223390
|  7> C     -1.855508   -1.217102   -0.220271
|  8> C     -0.570564    1.197284    0.222786
|  9> C     -0.467158   -1.156536   -0.216683
| 10> C      0.205539    0.053889   -0.010474
| 11> C      2.337269    1.223085   -0.419484
| 12> C      1.689055    0.121675   -0.030681
| 13> C      2.453037   -1.107640    0.391878
| 14> H     -3.688478   -0.117438    0.001289
| 15> H     -2.529999    2.035788    0.412585
| 16> H     -2.348629   -2.164590   -0.392684
| 17> H     -0.080152    2.138271    0.429309
| 18> H      0.095144   -2.062538   -0.391815
| 19> H      3.417985    1.266340   -0.413429
| 20> H      1.818583    2.103555   -0.771554
| 21> H      2.308302   -1.930951   -0.311139
| 22> H      2.122756   -1.463201    1.369923
| 23> H      3.520478   -0.900594    0.439945
| 24> *
| 25>
| 26>                          ****END OF INPUT****

CARTESIAN COORDINATES (ANGSTROEM)
---------------------------------
  C     -2.607951   -0.070177   -0.002533
  C     -1.956385    1.138080    0.223390
  C     -1.855508   -1.217102   -0.220271
  C     -0.570564    1.197284    0.222786
  C     -0.467158   -1.156536   -0.216683
  C      0.205539    0.053889   -0.010474
  C      2.337269    1.223085   -0.419484
  C      1.689055    0.121675   -0.030681
  C      2.453037   -1.107640    0.391878
  H     -3.688478   -0.117438    0.001289
  H     -2.529999    2.035788    0.412585
  H     -2.348629   -2.164590   -0.392684
  H     -0.080152    2.138271    0.429309
  H      0.095144   -2.062538   -0.391815
  H      3.417985    1.266340   -0.413429
  H      1.818583    2.103555   -0.771554
  H      2.308302   -1.930951   -0.311139
  H      2.122756   -1.463201    1.369923
  H      3.520478   -0.900594    0.439945

 Total Charge           Charge          ....    0
 Multiplicity           Mult            ....    1
 Number of Electrons    NEL             ....   64
 Basis Dimension        Dim             .... 1180

ORBITAL ENERGIES
----------------

  NO   OCC          E(Eh)            E(eV)
   0   2.0000     -11.244913      -305.9897
   1   2.0000     -11.242673      -305.9287
   2   2.0000     -11.233633      -305.6827
   3   2.0000     -11.233095      -305.6681
   4   2.0000     -11.232053      -305.6397
   5   2.0000     -11.231502      -305.6247
   6   2.0000     -11.230905      -305.6085
   7   2.0000     -11.221991      -305.3659
   8   2.0000     -11.216502      -305.2165
   9   2.0000      -1.160591       -31.5813
  10   2.0000      -1.089597       -29.6494
  11   2.0000      -1.016422       -27.6582
  12   2.0000      -0.999223       -27.1902
  13   2.0000      -0.936756       -25.4904
  14   2.0000      -0.840396       -22.8683
  15   2.0000      -0.823477       -22.4079
  16   2.0000      -0.745849       -20.2956
  17   2.0000      -0.696436       -18.9510
  18   2.0000      -0.638086       -17.3632
  19   2.0000      -0.634702       -17.2711
  20   2.0000      -0.617474       -16.8023
  21   2.0000      -0.588833       -16.0230
  22   2.0000      -0.583464       -15.8769
  23   2.0000      -0.564994       -15.3743
  24   2.0000      -0.537082       -14.6147
  25   2.0000      -0.520812       -14.1720
  26   2.0000      -0.504567       -13.7300
  27   2.0000      -0.490023       -13.3342
  28   2.0000      -0.478881       -13.0310
  29   2.0000      -0.388548       -10.5729
  30   2.0000      -0.338015        -9.1979
  31   2.0000      -0.308607        -8.3976
  32   0.0000       0.025256         0.6872
  33   0.0000       0.028046         0.7632
  34   0.0000       0.028689         0.7807
  35   0.0000       0.037480         1.0199
  36   0.0000       0.040070         1.0904

MULLIKEN ATOMIC CHARGES
-----------------------
   0 C :   -0.380800
   1 C :   -0.398156
   2 C :   -0.351307
   3 C :   -0.349255
   4 C :   -0.279290
   5 C :    0.528087
   6 C :   -0.975493
   7 C :    0.182448
   8 C :   -0.808436
   9 H :    0.336228
  10 H :    0.247441
  11 H :    0.214139
  12 H :    0.324767
  13 H :    0.322291
  14 H :    0.297757
  15 H :    0.335364
  16 H :    0.215670
  17 H :    0.209672
  18 H :    0.328873
Sum of atomic charges:    0.0000000

LOEWDIN ATOMIC CHARGES
----------------------
   0 C :    0.340124
   1 C :    0.350853
   2 C :    0.350671
   3 C :    0.330820
   4 C :    0.337772
   5 C :   -0.098318
   6 C :    0.800112
   7 C :   -0.064589
   8 C :    0.882859
   9 H :   -0.324537
  10 H :   -0.322037
  11 H :   -0.321972
  12 H :   -0.339325
  13 H :   -0.343815
  14 H :   -0.343546
  15 H :   -0.355998
  16 H :   -0.294380
  17 H :   -0.275024
  18 H :   -0.309670

  Mayer bond orders larger than 0.100000
B(  0-C ,  1-C ) :   1.2011 B(  0-C ,  2-C ) :   1.2323 B(  0-C ,  9-H ) :   0.9922
B(  1-C ,  3-C ) :   1.2602 B(  1-C ,  4-C ) :   0.1462 B(  1-C ,  5-C ) :  -0.3029
B(  1-C , 10-H ) :   1.1255 B(  2-C ,  3-C ) :   0.1289 B(  2-C ,  4-C ) :   1.2312
B(  2-C ,  5-C ) :  -0.2955 B(  2-C , 11-H ) :   1.1564 B(  3-C ,  5-C ) :   1.0719
B(  3-C ,  7-C ) :  -0.2822 B(  3-C , 10-H ) :  -0.1305 B(  3-C , 12-H ) :   0.9546
B(  4-C ,  5-C ) :   1.1785 B(  4-C ,  7-C ) :  -0.3517 B(  4-C , 11-H ) :  -0.1268
B(  4-C , 13-H ) :   0.9004 B(  5-C ,  6-C ) :  -0.1866 B(  5-C ,  7-C ) :   0.6244
B(  6-C ,  7-C ) :   1.6159 B(  6-C , 14-H ) :   1.0130 B(  6-C , 15-H ) :   0.9873
B(  7-C ,  8-C ) :   0.7412 B(  7-C , 16-H ) :  -0.1064 B(  8-C , 16-H ) :   1.0416
B(  8-C , 17-H ) :   1.0120 B(  8-C , 18-H ) :   0.9292

MP2 TOTAL ENERGY:     -348.304065329 Eh
FINAL SINGLE POINT ENERGY      -348.304065328787

DIPOLE MOMENT
-------------
                                X             Y             Z
Electronic contribution:     -4.70908       0.99319      -0.33438
Nuclear contribution   :      4.71514      -1.11406       0.37879
                        -----------------------------------------
Total Dipole Moment    :      0.00606      -0.12086       0.04441
                        -----------------------------------------
Magnitude (a.u.)       :      0.12891
Magnitude (Debye)      :      0.32765

Rotational constants in cm-1:     0.120299     0.040019     0.031131
Rotational constants in MHz :  3606.486521  1199.726943   933.275867

                             ****ORCA TERMINATED NORMALLY****
TOTAL RUN TIME: 0 days 1 hours 15 minutes 55 seconds 902 msec
