                         Program Version 5.0.4 -  RELEASE  -
|  1> !ri-mp2 aug-cc-pvqz aug-cc-pvqz/c tightscf
|  2> %pal nprocs 16 end
|  3> %maxcore 3800
|  4>
|  5> * xyz 0 1
|  6> C     -0.601226   -2.584627    0.000000
|  7> C      0.748982   -2.260917    0.000000
|  8> C     -1.547135   -1.565096    0.000000
|  9> C      1.146365   -0.928060    0.000000
| 10> C     -1.144028   -0.236286    0.000000
| 11> C      0.210818    0.106161    0.000000
| 12> C      0.210818    2.299507    1.265971
| 13> C      0.210818    2.299507   -1.265971
| 14> C      0.662737    1.556271    0.000000
| 15> H     -0.915190   -3.619865    0.000000
| 16> H      1.495397   -3.044499    0.000000
| 17> H     -2.602280   -1.805893    0.000000
| 18> H      2.202394   -0.686488    0.000000
| 19> H     -1.896202    0.542418    0.000000
| 20> H     -0.877383    2.362280    1.320609
| 21> H      0.602440    3.318326    1.273546
| 22> H      0.560437    1.794019    2.166585
| 23> H      0.560437    1.794019   -2.166585
| 24> H      0.602440    3.318326   -1.273546
| 25> H     -0.877383    2.362280   -1.320609
| 26> H      1.755995    1.546317    0.000000
| 27> *
| 28>
| 29>                          ****END OF INPUT****

CARTESIAN COORDINATES (ANGSTROEM)
---------------------------------
  C     -0.601226   -2.584627    0.000000
  C      0.748982   -2.260917    0.000000
  C     -1.547135   -1.565096    0.000000
  C      1.146365   -0.928060    0.000000
  C     -1.144028   -0.236286    0.000000
  C      0.210818    0.106161    0.000000
  C      0.210818    2.299507    1.265971
  C      0.210818    2.299507   -1.265971
  C      0.662737    1.556271    0.000000
  H     -0.915190   -3.619865    0.000000
  H      1.495397   -3.044499    0.000000
  H     -2.602280   -1.805893    0.000000
  H      2.202394   -0.686488    0.000000
  H     -1.896202    0.542418    0.000000
  H     -0.877383    2.362280    1.320609
  H      0.602440    3.318326    1.273546
  H      0.560437    1.794019    2.166585
  H      0.560437    1.794019   -2.166585
  H      0.602440    3.318326   -1.273546
  H     -0.877383    2.362280   -1.320609
  H      1.755995    1.546317    0.000000

 Total Charge           Charge          ....    0
 Multiplicity           Mult            ....    1
 Number of Electrons    NEL             ....   66
 Basis Dimension        Dim             .... 1272

ORBITAL ENERGIES
----------------

  NO   OCC          E(Eh)            E(eV)
   0   2.0000     -11.234392      -305.7033
   1   2.0000     -11.232832      -305.6609
   2   2.0000     -11.230173      -305.5885
   3   2.0000     -11.229719      -305.5762
   4   2.0000     -11.226136      -305.4787
   5   2.0000     -11.225702      -305.4669
   6   2.0000     -11.225500      -305.4614
   7   2.0000     -11.212548      -305.1090
   8   2.0000     -11.212529      -305.1084
   9   2.0000      -1.155132       -31.4327
  10   2.0000      -1.080192       -29.3935
  11   2.0000      -1.011160       -27.5151
  12   2.0000      -0.992144       -26.9976
  13   2.0000      -0.930731       -25.3265
  14   2.0000      -0.845715       -23.0131
  15   2.0000      -0.822809       -22.3898
  16   2.0000      -0.770223       -20.9588
  17   2.0000      -0.693304       -18.8658
  18   2.0000      -0.645111       -17.5544
  19   2.0000      -0.627444       -17.0736
  20   2.0000      -0.599613       -16.3163
  21   2.0000      -0.591238       -16.0884
  22   2.0000      -0.579190       -15.7606
  23   2.0000      -0.567603       -15.4452
  24   2.0000      -0.538553       -14.6548
  25   2.0000      -0.530714       -14.4415
  26   2.0000      -0.499742       -13.5987
  27   2.0000      -0.496576       -13.5125
  28   2.0000      -0.474601       -12.9145
  29   2.0000      -0.466336       -12.6897
  30   2.0000      -0.461822       -12.5668
  31   2.0000      -0.334132        -9.0922
  32   2.0000      -0.324229        -8.8227
  33   0.0000       0.024997         0.6802
  34   0.0000       0.028413         0.7732
  35   0.0000       0.029380         0.7995
  36   0.0000       0.035639         0.9698
  37   0.0000       0.040063         1.0902

MULLIKEN ATOMIC CHARGES
-----------------------
   0 C :   -0.383538
   1 C :   -0.195994
   2 C :   -0.173033
   3 C :   -0.777549
   4 C :   -0.571209
   5 C :    0.698824
   6 C :   -0.964121
   7 C :   -0.964098
   8 C :    0.292069
   9 H :    0.319190
  10 H :    0.245750
  11 H :    0.223084
  12 H :    0.190555
  13 H :    0.259679
  14 H :    0.199980
  15 H :    0.283763
  16 H :    0.280244
  17 H :    0.280260
  18 H :    0.283768
  19 H :    0.199961
  20 H :    0.272415
Sum of atomic charges:    0.0000000

LOEWDIN ATOMIC CHARGES
----------------------
   0 C :    0.336278
   1 C :    0.345967
   2 C :    0.350781
   3 C :    0.355045
   4 C :    0.340689
   5 C :   -0.079578
   6 C :    0.928247
   7 C :    0.928247
   8 C :    0.079436
   9 H :   -0.326469
  10 H :   -0.322745
  11 H :   -0.321488
  12 H :   -0.317983
  13 H :   -0.322464
  14 H :   -0.286783
  15 H :   -0.275061
  16 H :   -0.267666
  17 H :   -0.267666
  18 H :   -0.275061
  19 H :   -0.286783
  20 H :   -0.314942

  Mayer bond orders larger than 0.100000
B(  0-C ,  1-C ) :   1.1179 B(  0-C ,  2-C ) :   1.1006 B(  0-C ,  3-C ) :   0.1423
B(  0-C ,  9-H ) :   1.0489 B(  0-C , 10-H ) :  -0.1097 B(  1-C ,  3-C ) :   1.4653
B(  1-C ,  4-C ) :   0.1496 B(  1-C ,  5-C ) :  -0.4532 B(  1-C , 10-H ) :   1.1127
B(  2-C ,  3-C ) :   0.1611 B(  2-C ,  4-C ) :   1.3919 B(  2-C ,  5-C ) :  -0.3987
B(  2-C , 11-H ) :   1.1363 B(  3-C ,  4-C ) :   0.1042 B(  3-C ,  5-C ) :   0.7830
B(  3-C ,  8-C ) :  -0.2762 B(  3-C , 10-H ) :  -0.1268 B(  3-C , 12-H ) :   1.0962
B(  4-C ,  5-C ) :   0.8547 B(  4-C ,  8-C ) :  -0.1038 B(  4-C , 11-H ) :  -0.1165
B(  4-C , 13-H ) :   0.9974 B(  5-C ,  8-C ) :   0.6284 B(  5-C , 13-H ) :  -0.1331
B(  6-C ,  7-C ) :   0.1478 B(  6-C ,  8-C ) :   0.7204 B(  6-C , 14-H ) :   0.9898
B(  6-C , 15-H ) :   0.9972 B(  6-C , 16-H ) :   0.9819 B(  7-C ,  8-C ) :   0.7204
B(  7-C , 17-H ) :   0.9818 B(  7-C , 18-H ) :   0.9972 B(  7-C , 19-H ) :   0.9898
B(  8-C , 20-H ) :   0.9227

MP2 TOTAL ENERGY:     -349.526279514 Eh
FINAL SINGLE POINT ENERGY      -349.526279514182

DIPOLE MOMENT
-------------
                                X             Y             Z
Electronic contribution:     -0.57351      -7.97287      -0.00000
Nuclear contribution   :      0.63021       8.12764       0.00000
                        -----------------------------------------
Total Dipole Moment    :      0.05670       0.15477      -0.00000
                        -----------------------------------------
Magnitude (a.u.)       :      0.16483
Magnitude (Debye)      :      0.41896

Rotational constants in cm-1:     0.112296     0.035958     0.033091
Rotational constants in MHz :  3366.547948  1077.991082   992.035777

                             ****ORCA TERMINATED NORMALLY****
TOTAL RUN TIME: 0 days 1 hours 41 minutes 55 seconds 8 msec
