                         Program Version 5.0.4 -  RELEASE  -
|  1> !ri-mp2 aug-cc-pvqz aug-cc-pvqz/c tightscf
|  2> %pal nprocs 16 end
|  3>
|  4> * xyz 0 1
|  5> C      0.000000    0.000000   -1.205838
|  6> C      0.000000    0.000000    0.102176
|  7> O      0.000000    0.000000    1.262386
|  8> H      0.000000    0.937241   -1.738559
|  9> H      0.000000   -0.937241   -1.738559
| 10> *
| 11>
| 12>                          ****END OF INPUT****

CARTESIAN COORDINATES (ANGSTROEM)
---------------------------------
  C      0.000000    0.000000   -1.205838
  C      0.000000    0.000000    0.102176
  O      0.000000    0.000000    1.262386
  H      0.000000    0.937241   -1.738559
  H      0.000000   -0.937241   -1.738559

 Total Charge           Charge          ....    0
 Multiplicity           Mult            ....    1
 Number of Electrons    NEL             ....   22
 Basis Dimension        Dim             ....  332

ORBITAL ENERGIES
----------------

  NO   OCC          E(Eh)            E(eV)
   0   2.0000     -20.627650      -561.3069
   1   2.0000     -11.382643      -309.7375
   2   2.0000     -11.239048      -305.8300
   3   2.0000      -1.475424       -40.1483
   4   2.0000      -1.055817       -28.7302
   5   2.0000      -0.760423       -20.6922
   6   2.0000      -0.683121       -18.5887
   7   2.0000      -0.658063       -17.9068
   8   2.0000      -0.645418       -17.5627
   9   2.0000      -0.562982       -15.3195
  10   2.0000      -0.368347       -10.0232
  11   0.0000       0.024252         0.6599
  12   0.0000       0.037132         1.0104
  13   0.0000       0.050600         1.3769
  14   0.0000       0.073283         1.9941
  15   0.0000       0.081856         2.2274

MULLIKEN ATOMIC CHARGES
-----------------------
   0 C :   -0.877027
   1 C :    0.602679
   2 O :   -0.592056
   3 H :    0.433202
   4 H :    0.433202
Sum of atomic charges:    0.0000000

LOEWDIN ATOMIC CHARGES
----------------------
   0 C :    0.690728
   1 C :   -0.455560
   2 O :    0.617023
   3 H :   -0.426096
   4 H :   -0.426096

  Mayer bond orders larger than 0.100000
B(  0-C ,  1-C ) :   1.8545 B(  0-C ,  2-O ) :   0.1481 B(  0-C ,  3-H ) :   0.7991
B(  0-C ,  4-H ) :   0.7991 B(  1-C ,  2-O ) :   1.7964

MP2 TOTAL ENERGY:     -152.376905587 Eh
FINAL SINGLE POINT ENERGY      -152.376905587304

DIPOLE MOMENT
-------------
                                X             Y             Z
Electronic contribution:     -0.00000       0.00000       2.69404
Nuclear contribution   :      0.00000       0.00000      -3.39805
                        -----------------------------------------
Total Dipole Moment    :     -0.00000       0.00000      -0.70402
                        -----------------------------------------
Magnitude (a.u.)       :      0.70402
Magnitude (Debye)      :      1.78946

Rotational constants in cm-1:     9.519274     0.344745     0.332696
Rotational constants in MHz : 285380.647312 10335.183505  9973.971805

                             ****ORCA TERMINATED NORMALLY****
TOTAL RUN TIME: 0 days 0 hours 1 minutes 30 seconds 202 msec
