                         Program Version 5.0.4 -  RELEASE  -
|  1> !ri-mp2 aug-cc-pvqz aug-cc-pvqz/c tightscf
|  2> %pal nprocs 16 end
|  3> %maxcore 3800
|  4>
|  5> * xyz 0 1
|  6> N      1.748606    1.711717   -0.110623
|  7> C      1.505536    0.334496    0.352601
|  8> C      2.743343   -0.539294    0.053037
|  9> O      2.755177   -1.732408    0.197432
| 10> O      3.816383    0.153863   -0.349539
| 11> H      3.520520    1.090385   -0.381692
| 12> C      0.229447   -0.318859   -0.188199
| 13> C     -1.059289    0.316065    0.333331
| 14> C     -2.318639   -0.348453   -0.223242
| 15> C     -3.608418    0.279792    0.294578
| 16> N     -4.779870   -0.416009   -0.243436
| 17> H      1.447816    0.361100    1.444428
| 18> H      0.251892   -0.273372   -1.283075
| 19> H      0.258775   -1.376399    0.073343
| 20> H     -1.070260    0.251414    1.426664
| 21> H     -1.077545    1.383378    0.090243
| 22> H     -2.306561   -0.289099   -1.317231
| 23> H     -2.322972   -1.411934    0.025905
| 24> H     -3.642216    0.188063    1.382961
| 25> H     -3.599403    1.356577    0.069884
| 26> H     -5.636961   -0.050753    0.151625
| 27> H     -4.841888   -0.299571   -1.247876
| 28> H      1.314168    1.882851   -1.009374
| 29> H      1.399106    2.403285    0.536824
| 30> *
| 31>
| 32>                          ****END OF INPUT****

CARTESIAN COORDINATES (ANGSTROEM)
---------------------------------
  N      1.748606    1.711717   -0.110623
  C      1.505536    0.334496    0.352601
  C      2.743343   -0.539294    0.053037
  O      2.755177   -1.732408    0.197432
  O      3.816383    0.153863   -0.349539
  H      3.520520    1.090385   -0.381692
  C      0.229447   -0.318859   -0.188199
  C     -1.059289    0.316065    0.333331
  C     -2.318639   -0.348453   -0.223242
  C     -3.608418    0.279792    0.294578
  N     -4.779870   -0.416009   -0.243436
  H      1.447816    0.361100    1.444428
  H      0.251892   -0.273372   -1.283075
  H      0.258775   -1.376399    0.073343
  H     -1.070260    0.251414    1.426664
  H     -1.077545    1.383378    0.090243
  H     -2.306561   -0.289099   -1.317231
  H     -2.322972   -1.411934    0.025905
  H     -3.642216    0.188063    1.382961
  H     -3.599403    1.356577    0.069884
  H     -5.636961   -0.050753    0.151625
  H     -4.841888   -0.299571   -1.247876
  H      1.314168    1.882851   -1.009374
  H      1.399106    2.403285    0.536824

 Total Charge           Charge          ....    0
 Multiplicity           Mult            ....    1
 Number of Electrons    NEL             ....   80
 Basis Dimension        Dim             .... 1444

ORBITAL ENERGIES
----------------

  NO   OCC          E(Eh)            E(eV)
   0   2.0000     -20.590673      -560.3007
   1   2.0000     -20.529918      -558.6475
   2   2.0000     -15.581192      -423.9858
   3   2.0000     -15.543200      -422.9520
   4   2.0000     -11.370505      -309.4072
   5   2.0000     -11.291251      -307.2506
   6   2.0000     -11.254225      -306.2430
   7   2.0000     -11.237180      -305.7792
   8   2.0000     -11.234611      -305.7093
   9   2.0000     -11.225222      -305.4538
  10   2.0000      -1.447757       -39.3955
  11   2.0000      -1.352199       -36.7952
  12   2.0000      -1.222424       -33.2639
  13   2.0000      -1.183507       -32.2049
  14   2.0000      -1.084151       -29.5012
  15   2.0000      -1.011059       -27.5123
  16   2.0000      -0.932775       -25.3821
  17   2.0000      -0.848021       -23.0758
  18   2.0000      -0.808755       -22.0073
  19   2.0000      -0.799435       -21.7537
  20   2.0000      -0.736918       -20.0526
  21   2.0000      -0.696261       -18.9462
  22   2.0000      -0.672349       -18.2955
  23   2.0000      -0.665665       -18.1137
  24   2.0000      -0.648606       -17.6495
  25   2.0000      -0.626121       -17.0376
  26   2.0000      -0.620501       -16.8847
  27   2.0000      -0.608245       -16.5512
  28   2.0000      -0.589304       -16.0358
  29   2.0000      -0.566997       -15.4288
  30   2.0000      -0.547300       -14.8928
  31   2.0000      -0.533971       -14.5301
  32   2.0000      -0.508789       -13.8449
  33   2.0000      -0.492097       -13.3906
  34   2.0000      -0.483473       -13.1560
  35   2.0000      -0.480441       -13.0735
  36   2.0000      -0.464871       -12.6498
  37   2.0000      -0.461781       -12.5657
  38   2.0000      -0.414627       -11.2826
  39   2.0000      -0.395466       -10.7612
  40   0.0000       0.014477         0.3939
  41   0.0000       0.023365         0.6358
  42   0.0000       0.025399         0.6911
  43   0.0000       0.033913         0.9228
  44   0.0000       0.040087         1.0908

MULLIKEN ATOMIC CHARGES
-----------------------
   0 N :   -0.694778
   1 C :   -0.264422
   2 C :    1.260916
   3 O :   -0.847075
   4 O :   -0.934134
   5 H :    0.400326
   6 C :   -0.358952
   7 C :   -0.191635
   8 C :   -0.503818
   9 C :   -0.184335
  10 N :   -0.809016
  11 H :    0.292438
  12 H :    0.256654
  13 H :    0.254798
  14 H :    0.210247
  15 H :    0.196986
  16 H :    0.235299
  17 H :    0.290548
  18 H :    0.260323
  19 H :    0.202682
  20 H :    0.184877
  21 H :    0.268752
  22 H :    0.246591
  23 H :    0.226728
Sum of atomic charges:    0.0000000

LOEWDIN ATOMIC CHARGES
----------------------
   0 N :    1.304444
   1 C :   -0.036577
   2 C :   -1.007270
   3 O :    0.682479
   4 O :    1.252049
   5 H :   -0.956654
   6 C :    0.514540
   7 C :    0.524877
   8 C :    0.512641
   9 C :    0.355077
  10 N :    1.286031
  11 H :   -0.291663
  12 H :   -0.259648
  13 H :   -0.296169
  14 H :   -0.261529
  15 H :   -0.274800
  16 H :   -0.267439
  17 H :   -0.267404
  18 H :   -0.289553
  19 H :   -0.270616
  20 H :   -0.509421
  21 H :   -0.512989
  22 H :   -0.470224
  23 H :   -0.460181

  Mayer bond orders larger than 0.100000
B(  0-N ,  1-C ) :   0.7438 B(  0-N ,  5-H ) :   0.1235 B(  0-N , 22-H ) :   0.9248
B(  0-N , 23-H ) :   1.0001 B(  1-C ,  2-C ) :   1.2672 B(  1-C ,  3-O ) :   0.3280
B(  1-C ,  4-O ) :   0.1246 B(  1-C ,  6-C ) :   0.8994 B(  1-C , 11-H ) :   0.9012
B(  2-C ,  3-O ) :   1.2473 B(  2-C ,  4-O ) :   0.5969 B(  2-C ,  6-C ) :  -0.1363
B(  3-O ,  4-O ) :   0.1516 B(  4-O ,  5-H ) :   0.7406 B(  6-C ,  7-C ) :   0.9423
B(  6-C , 12-H ) :   0.8938 B(  6-C , 13-H ) :   0.8411 B(  7-C ,  8-C ) :   0.9864
B(  7-C ,  9-C ) :  -0.1069 B(  7-C , 14-H ) :   0.8839 B(  7-C , 15-H ) :   0.8749
B(  8-C ,  9-C ) :   1.1681 B(  8-C , 16-H ) :   0.8462 B(  8-C , 17-H ) :   0.8038
B(  9-C , 10-N ) :   0.9126 B(  9-C , 18-H ) :   0.8717 B(  9-C , 19-H ) :   0.9244
B( 10-N , 20-H ) :   1.0080 B( 10-N , 21-H ) :   0.8836

MP2 TOTAL ENERGY:     -496.285772140 Eh
FINAL SINGLE POINT ENERGY      -496.285772140076

DIPOLE MOMENT
-------------
                                X             Y             Z
Electronic contribution:     15.10330      -3.10960      -0.01348
Nuclear contribution   :    -16.66972       5.34287      -0.04301
                        -----------------------------------------
Total Dipole Moment    :     -1.56642       2.23328      -0.05649
                        -----------------------------------------
Magnitude (a.u.)       :      2.72844
Magnitude (Debye)      :      6.93514

Rotational constants in cm-1:     0.119442     0.014013     0.012947
Rotational constants in MHz :  3580.795737   420.094066   388.145451

                             ****ORCA TERMINATED NORMALLY****
TOTAL RUN TIME: 0 days 1 hours 38 minutes 35 seconds 941 msec
