                         Program Version 5.0.4 -  RELEASE  -
|  1> !ri-mp2 aug-cc-pvqz aug-cc-pvqz/c tightscf
|  2> %pal nprocs 16 end
|  3> %maxcore 3800
|  4>
|  5> * xyz 0 1
|  6> N      0.889792    1.733167   -0.084168
|  7> C      0.653062    0.324866    0.279326
|  8> C      1.942908   -0.495104    0.057054
|  9> O      1.987940   -1.690661    0.174653
| 10> O      3.015494    0.245946   -0.248211
| 11> H      2.687089    1.172239   -0.274368
| 12> C     -0.530559   -0.332551   -0.440004
| 13> C     -1.916908    0.221973   -0.078321
| 14> C     -2.973038   -0.350115   -1.029174
| 15> C     -2.296085   -0.059131    1.378824
| 16> H      0.489109    0.281675    1.357974
| 17> H     -0.369734   -0.225663   -1.518607
| 18> H     -0.496406   -1.403150   -0.233024
| 19> H     -1.902453    1.308771   -0.219438
| 20> H     -3.962107    0.053227   -0.807413
| 21> H     -2.741372   -0.116292   -2.069654
| 22> H     -3.029551   -1.437289   -0.938398
| 23> H     -3.288045    0.335699    1.602720
| 24> H     -2.313437   -1.133743    1.574081
| 25> H     -1.600962    0.393952    2.087128
| 26> H      0.485395    1.959508   -0.984328
| 27> H      0.510182    2.376995    0.594739
| 28> *
| 29>
| 30>                          ****END OF INPUT****

CARTESIAN COORDINATES (ANGSTROEM)
---------------------------------
  N      0.889792    1.733167   -0.084168
  C      0.653062    0.324866    0.279326
  C      1.942908   -0.495104    0.057054
  O      1.987940   -1.690661    0.174653
  O      3.015494    0.245946   -0.248211
  H      2.687089    1.172239   -0.274368
  C     -0.530559   -0.332551   -0.440004
  C     -1.916908    0.221973   -0.078321
  C     -2.973038   -0.350115   -1.029174
  C     -2.296085   -0.059131    1.378824
  H      0.489109    0.281675    1.357974
  H     -0.369734   -0.225663   -1.518607
  H     -0.496406   -1.403150   -0.233024
  H     -1.902453    1.308771   -0.219438
  H     -3.962107    0.053227   -0.807413
  H     -2.741372   -0.116292   -2.069654
  H     -3.029551   -1.437289   -0.938398
  H     -3.288045    0.335699    1.602720
  H     -2.313437   -1.133743    1.574081
  H     -1.600962    0.393952    2.087128
  H      0.485395    1.959508   -0.984328
  H      0.510182    2.376995    0.594739

 Total Charge           Charge          ....    0
 Multiplicity           Mult            ....    1
 Number of Electrons    NEL             ....   72
 Basis Dimension        Dim             .... 1318

ORBITAL ENERGIES
----------------

  NO   OCC          E(Eh)            E(eV)
   0   2.0000     -20.589973      -560.2817
   1   2.0000     -20.528989      -558.6222
   2   2.0000     -15.580605      -423.9698
   3   2.0000     -11.369649      -309.3839
   4   2.0000     -11.289979      -307.2160
   5   2.0000     -11.241836      -305.9059
   6   2.0000     -11.235733      -305.7398
   7   2.0000     -11.223210      -305.3991
   8   2.0000     -11.221347      -305.3484
   9   2.0000      -1.447044       -39.3761
  10   2.0000      -1.351364       -36.7725
  11   2.0000      -1.221838       -33.2479
  12   2.0000      -1.101109       -29.9627
  13   2.0000      -1.006170       -27.3793
  14   2.0000      -0.942843       -25.6561
  15   2.0000      -0.900431       -24.5020
  16   2.0000      -0.803086       -21.8531
  17   2.0000      -0.782313       -21.2878
  18   2.0000      -0.736040       -20.0287
  19   2.0000      -0.698351       -19.0031
  20   2.0000      -0.666577       -18.1385
  21   2.0000      -0.641401       -17.4534
  22   2.0000      -0.622794       -16.9471
  23   2.0000      -0.620738       -16.8911
  24   2.0000      -0.605398       -16.4737
  25   2.0000      -0.576008       -15.6740
  26   2.0000      -0.554106       -15.0780
  27   2.0000      -0.548961       -14.9380
  28   2.0000      -0.545236       -14.8366
  29   2.0000      -0.521405       -14.1881
  30   2.0000      -0.484573       -13.1859
  31   2.0000      -0.479776       -13.0554
  32   2.0000      -0.475517       -12.9395
  33   2.0000      -0.464100       -12.6288
  34   2.0000      -0.459766       -12.5109
  35   2.0000      -0.413040       -11.2394
  36   0.0000       0.015246         0.4149
  37   0.0000       0.025639         0.6977
  38   0.0000       0.026714         0.7269
  39   0.0000       0.033828         0.9205
  40   0.0000       0.044029         1.1981

MULLIKEN ATOMIC CHARGES
-----------------------
   0 N :   -0.709742
   1 C :   -0.182144
   2 C :    1.321669
   3 O :   -0.860048
   4 O :   -0.947481
   5 H :    0.393981
   6 C :   -0.276661
   7 C :    0.268224
   8 C :   -0.985007
   9 C :   -0.973007
  10 H :    0.332904
  11 H :    0.377090
  12 H :    0.206360
  13 H :    0.197421
  14 H :    0.254024
  15 H :    0.239865
  16 H :    0.189354
  17 H :    0.272249
  18 H :    0.198679
  19 H :    0.226667
  20 H :    0.236862
  21 H :    0.218740
Sum of atomic charges:   -0.0000000

LOEWDIN ATOMIC CHARGES
----------------------
   0 N :    1.311080
   1 C :   -0.031746
   2 C :   -1.004027
   3 O :    0.683898
   4 O :    1.252821
   5 H :   -0.957126
   6 C :    0.501436
   7 C :    0.111793
   8 C :    0.928729
   9 C :    0.932642
  10 H :   -0.313674
  11 H :   -0.266011
  12 H :   -0.295336
  13 H :   -0.281362
  14 H :   -0.275296
  15 H :   -0.274108
  16 H :   -0.271398
  17 H :   -0.273306
  18 H :   -0.266965
  19 H :   -0.285551
  20 H :   -0.470913
  21 H :   -0.455578

  Mayer bond orders larger than 0.100000
B(  0-N ,  1-C ) :   0.7350 B(  0-N ,  5-H ) :   0.1288 B(  0-N , 20-H ) :   0.9401
B(  0-N , 21-H ) :   1.0295 B(  1-C ,  2-C ) :   1.2705 B(  1-C ,  3-O ) :   0.3603
B(  1-C ,  4-O ) :   0.1501 B(  1-C ,  6-C ) :   0.7337 B(  1-C , 10-H ) :   0.8601
B(  2-C ,  3-O ) :   1.2448 B(  2-C ,  4-O ) :   0.5559 B(  2-C ,  6-C ) :  -0.1246
B(  3-O ,  4-O ) :   0.1774 B(  3-O ,  6-C ) :  -0.1427 B(  4-O ,  5-H ) :   0.7489
B(  6-C ,  7-C ) :   0.7098 B(  6-C , 11-H ) :   0.8669 B(  6-C , 12-H ) :   0.8974
B(  7-C ,  8-C ) :   0.6346 B(  7-C ,  9-C ) :   0.6225 B(  7-C , 13-H ) :   0.9496
B(  7-C , 14-H ) :  -0.1123 B(  8-C ,  9-C ) :   0.1321 B(  8-C , 14-H ) :   1.0404
B(  8-C , 15-H ) :   1.0162 B(  8-C , 16-H ) :   1.0285 B(  9-C , 17-H ) :   1.0389
B(  9-C , 18-H ) :   0.9899 B(  9-C , 19-H ) :   1.0233

MP2 TOTAL ENERGY:     -441.013538786 Eh
FINAL SINGLE POINT ENERGY      -441.013538785981

DIPOLE MOMENT
-------------
                                X             Y             Z
Electronic contribution:     14.33951      -1.92320      -0.16905
Nuclear contribution   :    -15.92471       3.66293       0.17499
                        -----------------------------------------
Total Dipole Moment    :     -1.58521       1.73973       0.00594
                        -----------------------------------------
Magnitude (a.u.)       :      2.35363
Magnitude (Debye)      :      5.98245

Rotational constants in cm-1:     0.095699     0.027602     0.025394
Rotational constants in MHz :  2868.974913   827.490373   761.284825

                             ****ORCA TERMINATED NORMALLY****
TOTAL RUN TIME: 0 days 1 hours 46 minutes 55 seconds 189 msec
