                         Program Version 5.0.4 -  RELEASE  -
|  1> !ri-mp2 aug-cc-pvqz aug-cc-pvqz/c tightscf
|  2> %pal nprocs 16 end
|  3>
|  4> * xyz 0 1
|  5> N     -1.672206    0.735432    0.281233
|  6> H     -2.635471    0.448331    0.316740
|  7> H     -1.408035    1.582616    0.748896
|  8> C      1.669363   -0.902956    0.274192
|  9> H      1.491299   -1.339113    1.259311
| 10> H      1.537891   -1.708491   -0.448267
| 11> H      2.695543   -0.542835    0.230507
| 12> C      1.067908    1.453999   -0.283116
| 13> H      0.354906    2.225169   -0.540582
| 14> H      2.112388    1.736805   -0.297815
| 15> C     -0.747453   -0.216273   -0.042278
| 16> O     -1.070845   -1.348227   -0.361502
| 17> C      0.697462    0.204449   -0.006366
| 18> *
| 19>
| 20>                          ****END OF INPUT****

CARTESIAN COORDINATES (ANGSTROEM)
---------------------------------
  N     -1.672206    0.735432    0.281233
  H     -2.635471    0.448331    0.316740
  H     -1.408035    1.582616    0.748896
  C      1.669363   -0.902956    0.274192
  H      1.491299   -1.339113    1.259311
  H      1.537891   -1.708491   -0.448267
  H      2.695543   -0.542835    0.230507
  C      1.067908    1.453999   -0.283116
  H      0.354906    2.225169   -0.540582
  H      2.112388    1.736805   -0.297815
  C     -0.747453   -0.216273   -0.042278
  O     -1.070845   -1.348227   -0.361502
  C      0.697462    0.204449   -0.006366

 Total Charge           Charge          ....    0
 Multiplicity           Mult            ....    1
 Number of Electrons    NEL             ....   46
 Basis Dimension        Dim             ....  802

ORBITAL ENERGIES
----------------

  NO   OCC          E(Eh)            E(eV)
   0   2.0000     -20.519916      -558.3753
   1   2.0000     -15.583495      -424.0485
   2   2.0000     -11.354947      -308.9838
   3   2.0000     -11.257923      -306.3437
   4   2.0000     -11.243374      -305.9478
   5   2.0000     -11.223314      -305.4019
   6   2.0000      -1.383425       -37.6449
   7   2.0000      -1.213302       -33.0156
   8   2.0000      -1.093805       -29.7640
   9   2.0000      -0.947560       -25.7844
  10   2.0000      -0.864596       -23.5269
  11   2.0000      -0.761191       -20.7131
  12   2.0000      -0.717355       -19.5202
  13   2.0000      -0.670512       -18.2456
  14   2.0000      -0.629113       -17.1190
  15   2.0000      -0.602270       -16.3886
  16   2.0000      -0.585583       -15.9345
  17   2.0000      -0.552794       -15.0423
  18   2.0000      -0.536506       -14.5991
  19   2.0000      -0.528021       -14.3682
  20   2.0000      -0.431900       -11.7526
  21   2.0000      -0.415681       -11.3113
  22   2.0000      -0.380066       -10.3421
  23   0.0000       0.020283         0.5519
  24   0.0000       0.029272         0.7965
  25   0.0000       0.033583         0.9138
  26   0.0000       0.041808         1.1377
  27   0.0000       0.047614         1.2956

MULLIKEN ATOMIC CHARGES
-----------------------
   0 N :   -0.698801
   1 H :    0.188783
   2 H :    0.334972
   3 C :   -0.659378
   4 H :    0.233726
   5 H :    0.231749
   6 H :    0.260926
   7 C :   -0.782973
   8 H :    0.309683
   9 H :    0.311971
  10 C :    1.122093
  11 O :   -0.807329
  12 C :   -0.045421
Sum of atomic charges:   -0.0000000

LOEWDIN ATOMIC CHARGES
----------------------
   0 N :    1.227318
   1 H :   -0.497485
   2 H :   -0.520819
   3 C :    0.865472
   4 H :   -0.283107
   5 H :   -0.302541
   6 H :   -0.310226
   7 C :    0.797174
   8 H :   -0.355530
   9 H :   -0.336783
  10 C :   -0.872851
  11 O :    0.695662
  12 C :   -0.106285

  Mayer bond orders larger than 0.100000
B(  0-N ,  1-H ) :   1.0616 B(  0-N ,  2-H ) :   0.8399 B(  0-N , 10-C ) :   1.0752
B(  0-N , 11-O ) :   0.1296 B(  3-C ,  4-H ) :   0.9697 B(  3-C ,  5-H ) :   0.9934
B(  3-C ,  6-H ) :   0.9950 B(  3-C , 12-C ) :   0.6960 B(  7-C ,  8-H ) :   0.9873
B(  7-C ,  9-H ) :   0.9650 B(  7-C , 10-C ) :  -0.1050 B(  7-C , 12-C ) :   1.5685
B( 10-C , 11-O ) :   1.1713 B( 10-C , 12-C ) :   1.0684 B( 11-O , 12-C ) :   0.1837

MP2 TOTAL ENERGY:     -286.164266083 Eh
FINAL SINGLE POINT ENERGY      -286.164266083241

DIPOLE MOMENT
-------------
                                X             Y             Z
Electronic contribution:     -3.92098      -1.05602      -0.70792
Nuclear contribution   :      4.18408       2.42157       1.28384
                        -----------------------------------------
Total Dipole Moment    :      0.26310       1.36556       0.57592
                        -----------------------------------------
Magnitude (a.u.)       :      1.50521
Magnitude (Debye)      :      3.82594

Rotational constants in cm-1:     0.175280     0.111638     0.072886
Rotational constants in MHz :  5254.771624  3346.824446  2185.063911

                             ****ORCA TERMINATED NORMALLY****
TOTAL RUN TIME: 0 days 0 hours 17 minutes 55 seconds 654 msec
