                         Program Version 5.0.4 -  RELEASE  -
|  1> !ri-mp2 aug-cc-pvqz aug-cc-pvqz/c tightscf
|  2> %pal nprocs 16 end
|  3>
|  4> * xyz 0 1
|  5> C      1.130346   -0.225128    0.025065
|  6> O     -0.015267    0.606026   -0.027255
|  7> O     -1.167167   -0.278825   -0.095051
|  8> H      1.971335    0.468788    0.022108
|  9> H      1.147766   -0.826787    0.937012
| 10> H      1.184789   -0.873635   -0.851239
| 11> H     -1.626495   -0.035207    0.720173
| 12> *
| 13>
| 14>                          ****END OF INPUT****

CARTESIAN COORDINATES (ANGSTROEM)
---------------------------------
  C      1.130346   -0.225128    0.025065
  O     -0.015267    0.606026   -0.027255
  O     -1.167167   -0.278825   -0.095051
  H      1.971335    0.468788    0.022108
  H      1.147766   -0.826787    0.937012
  H      1.184789   -0.873635   -0.851239
  H     -1.626495   -0.035207    0.720173

 Total Charge           Charge          ....    0
 Multiplicity           Mult            ....    1
 Number of Electrons    NEL             ....   26
 Basis Dimension        Dim             ....  424

ORBITAL ENERGIES
----------------

  NO   OCC          E(Eh)            E(eV)
   0   2.0000     -20.623526      -561.1947
   1   2.0000     -20.621396      -561.1367
   2   2.0000     -11.279430      -306.9289
   3   2.0000      -1.470830       -40.0233
   4   2.0000      -1.227417       -33.3997
   5   2.0000      -0.918994       -25.0071
   6   2.0000      -0.722105       -19.6495
   7   2.0000      -0.662093       -18.0165
   8   2.0000      -0.647577       -17.6215
   9   2.0000      -0.594528       -16.1779
  10   2.0000      -0.530076       -14.4241
  11   2.0000      -0.497214       -13.5299
  12   2.0000      -0.452544       -12.3143
  13   0.0000       0.025731         0.7002
  14   0.0000       0.037000         1.0068
  15   0.0000       0.045038         1.2255
  16   0.0000       0.045168         1.2291
  17   0.0000       0.079544         2.1645

MULLIKEN ATOMIC CHARGES
-----------------------
   0 C :   -0.426325
   1 O :   -0.366272
   2 O :   -0.404409
   3 H :    0.327769
   4 H :    0.258492
   5 H :    0.265586
   6 H :    0.345161
Sum of atomic charges:   -0.0000000

LOEWDIN ATOMIC CHARGES
----------------------
   0 C :    0.491195
   1 O :    0.517489
   2 O :    0.916495
   3 H :   -0.355529
   4 H :   -0.332760
   5 H :   -0.334587
   6 H :   -0.902302

  Mayer bond orders larger than 0.100000
B(  0-C ,  1-O ) :   0.8092 B(  0-C ,  3-H ) :   0.8829 B(  0-C ,  4-H ) :   0.9249
B(  0-C ,  5-H ) :   0.9193 B(  1-O ,  2-O ) :   0.8289 B(  2-O ,  6-H ) :   0.9129

MP2 TOTAL ENERGY:     -190.614284690 Eh
FINAL SINGLE POINT ENERGY      -190.614284689879

DIPOLE MOMENT
-------------
                                X             Y             Z
Electronic contribution:     -2.39355       1.05651      -0.26399
Nuclear contribution   :      2.70242      -1.28240       0.83969
                        -----------------------------------------
Total Dipole Moment    :      0.30887      -0.22589       0.57571
                        -----------------------------------------
Magnitude (a.u.)       :      0.69127
Magnitude (Debye)      :      1.75708

Rotational constants in cm-1:     1.451735     0.346542     0.302506
Rotational constants in MHz : 43521.914826 10389.059525  9068.894070

                             ****ORCA TERMINATED NORMALLY****
TOTAL RUN TIME: 0 days 0 hours 3 minutes 27 seconds 41 msec
