                         Program Version 5.0.4 -  RELEASE  -
|  1> !ri-mp2 aug-cc-pvqz aug-cc-pvqz/c tightscf
|  2> %pal nprocs 16 end
|  3>
|  4> * xyz 0 1
|  5> O      0.000000    0.802908    0.000000
|  6> Cl    -0.811552   -0.704077    0.000000
|  7> C      1.415082    0.620626    0.000000
|  8> H      1.809715    1.636753    0.000000
|  9> H      1.748086    0.092767    0.894890
| 10> H      1.748086    0.092767   -0.894890
| 11> *
| 12>
| 13>                          ****END OF INPUT****

CARTESIAN COORDINATES (ANGSTROEM)
---------------------------------
  O      0.000000    0.802908    0.000000
  Cl    -0.811552   -0.704077    0.000000
  C      1.415082    0.620626    0.000000
  H      1.809715    1.636753    0.000000
  H      1.748086    0.092767    0.894890
  H      1.748086    0.092767   -0.894890

 Total Charge           Charge          ....    0
 Multiplicity           Mult            ....    1
 Number of Electrons    NEL             ....   34
 Basis Dimension        Dim             ....  382

ORBITAL ENERGIES
----------------

  NO   OCC          E(Eh)            E(eV)
   0   2.0000    -104.880952     -2853.9558
   1   2.0000     -20.632403      -561.4362
   2   2.0000     -11.294633      -307.3426
   3   2.0000     -10.601269      -288.4752
   4   2.0000      -8.068477      -219.5544
   5   2.0000      -8.065856      -219.4831
   6   2.0000      -8.065717      -219.4793
   7   2.0000      -1.404539       -38.2195
   8   2.0000      -1.073106       -29.2007
   9   2.0000      -0.924659       -25.1613
  10   2.0000      -0.669573       -18.2200
  11   2.0000      -0.659373       -17.9425
  12   2.0000      -0.646960       -17.6047
  13   2.0000      -0.531383       -14.4597
  14   2.0000      -0.523102       -14.2343
  15   2.0000      -0.459609       -12.5066
  16   2.0000      -0.432314       -11.7639
  17   0.0000       0.026042         0.7086
  18   0.0000       0.041289         1.1235
  19   0.0000       0.042363         1.1528
  20   0.0000       0.056759         1.5445
  21   0.0000       0.066516         1.8100

MULLIKEN ATOMIC CHARGES
-----------------------
   0 O :   -0.546542
   1 Cl:    0.126140
   2 C :   -0.411371
   3 H :    0.318441
   4 H :    0.256666
   5 H :    0.256666
Sum of atomic charges:   -0.0000000

LOEWDIN ATOMIC CHARGES
----------------------
   0 O :    0.084151
   1 Cl:    0.655095
   2 C :    0.340289
   3 H :   -0.360016
   4 H :   -0.359760
   5 H :   -0.359760

  Mayer bond orders larger than 0.100000
B(  0-O ,  1-Cl) :   0.9569 B(  0-O ,  2-C ) :   0.8127 B(  2-C ,  3-H ) :   0.8677
B(  2-C ,  4-H ) :   0.9256 B(  2-C ,  5-H ) :   0.9256

MP2 TOTAL ENERGY:     -574.635560971 Eh
FINAL SINGLE POINT ENERGY      -574.635560970800

DIPOLE MOMENT
-------------
                                X             Y             Z
Electronic contribution:     -5.44882      -2.77819       0.00000
Nuclear contribution   :      6.21088       2.72970       0.00000
                        -----------------------------------------
Total Dipole Moment    :      0.76206      -0.04849       0.00000
                        -----------------------------------------
Magnitude (a.u.)       :      0.76360
Magnitude (Debye)      :      1.94093

Rotational constants in cm-1:     1.424311     0.203722     0.184529
Rotational constants in MHz : 42699.764873  6107.440117  5532.046947

                             ****ORCA TERMINATED NORMALLY****
TOTAL RUN TIME: 0 days 0 hours 2 minutes 50 seconds 134 msec
