                         Program Version 5.0.4 -  RELEASE  -
|  1> !ri-mp2 aug-cc-pvqz aug-cc-pvqz/c tightscf
|  2> %pal nprocs 16 end
|  3> %maxcore 3800
|  4>
|  5> * xyz 0 1
|  6> C      1.247559   -0.078864    0.000000
|  7> S      0.450603   -1.735060    0.000000
|  8> C      0.228680    1.019883    0.000000
|  9> C      1.856507   -2.863468    0.000000
| 10> O     -0.258876   -1.906083    1.263753
| 11> O     -0.258876   -1.906083   -1.263753
| 12> C     -0.258876    1.531692    1.203024
| 13> C     -0.258876    1.531692   -1.203024
| 14> C     -1.209742    2.543679    1.202823
| 15> C     -1.209742    2.543679   -1.202823
| 16> C     -1.686443    3.052509    0.000000
| 17> H      1.873727   -0.060312    0.890609
| 18> H      1.873727   -0.060312   -0.890609
| 19> H      1.425456   -3.862087    0.000000
| 20> H      2.444385   -2.705370   -0.900271
| 21> H      2.444385   -2.705370    0.900271
| 22> H      0.101136    1.130017    2.140706
| 23> H      0.101136    1.130017   -2.140706
| 24> H     -1.579760    2.932792    2.141610
| 25> H     -1.579760    2.932792   -2.141610
| 26> H     -2.426453    3.841310    0.000000
| 27> *
| 28>
| 29>                          ****END OF INPUT****

CARTESIAN COORDINATES (ANGSTROEM)
---------------------------------
  C      1.247559   -0.078864    0.000000
  S      0.450603   -1.735060    0.000000
  C      0.228680    1.019883    0.000000
  C      1.856507   -2.863468    0.000000
  O     -0.258876   -1.906083    1.263753
  O     -0.258876   -1.906083   -1.263753
  C     -0.258876    1.531692    1.203024
  C     -0.258876    1.531692   -1.203024
  C     -1.209742    2.543679    1.202823
  C     -1.209742    2.543679   -1.202823
  C     -1.686443    3.052509    0.000000
  H      1.873727   -0.060312    0.890609
  H      1.873727   -0.060312   -0.890609
  H      1.425456   -3.862087    0.000000
  H      2.444385   -2.705370   -0.900271
  H      2.444385   -2.705370    0.900271
  H      0.101136    1.130017    2.140706
  H      0.101136    1.130017   -2.140706
  H     -1.579760    2.932792    2.141610
  H     -1.579760    2.932792   -2.141610
  H     -2.426453    3.841310    0.000000

 Total Charge           Charge          ....    0
 Multiplicity           Mult            ....    1
 Number of Electrons    NEL             ....   90
 Basis Dimension        Dim             .... 1344

ORBITAL ENERGIES
----------------

  NO   OCC          E(Eh)            E(eV)
   0   2.0000     -92.169495     -2508.0595
   1   2.0000     -20.538192      -558.8726
   2   2.0000     -20.538172      -558.8721
   3   2.0000     -11.285586      -307.0964
   4   2.0000     -11.277108      -306.8657
   5   2.0000     -11.256030      -306.2921
   6   2.0000     -11.241834      -305.9058
   7   2.0000     -11.241778      -305.9043
   8   2.0000     -11.240225      -305.8621
   9   2.0000     -11.238155      -305.8057
  10   2.0000     -11.237786      -305.7957
  11   2.0000      -9.139393      -248.6955
  12   2.0000      -6.824660      -185.7085
  13   2.0000      -6.823950      -185.6891
  14   2.0000      -6.823548      -185.6782
  15   2.0000      -1.436783       -39.0968
  16   2.0000      -1.326574       -36.0979
  17   2.0000      -1.169219       -31.8161
  18   2.0000      -1.084120       -29.5004
  19   2.0000      -1.039294       -28.2806
  20   2.0000      -1.023661       -27.8552
  21   2.0000      -0.969780       -26.3891
  22   2.0000      -0.838167       -22.8077
  23   2.0000      -0.836143       -22.7526
  24   2.0000      -0.796148       -21.6643
  25   2.0000      -0.708716       -19.2851
  26   2.0000      -0.683027       -18.5861
  27   2.0000      -0.670951       -18.2575
  28   2.0000      -0.664362       -18.0782
  29   2.0000      -0.642770       -17.4907
  30   2.0000      -0.637474       -17.3465
  31   2.0000      -0.605790       -16.4844
  32   2.0000      -0.602538       -16.3959
  33   2.0000      -0.596180       -16.2229
  34   2.0000      -0.581545       -15.8246
  35   2.0000      -0.579327       -15.7643
  36   2.0000      -0.516787       -14.0625
  37   2.0000      -0.506875       -13.7928
  38   2.0000      -0.501237       -13.6394
  39   2.0000      -0.490459       -13.3461
  40   2.0000      -0.487312       -13.2604
  41   2.0000      -0.464436       -12.6380
  42   2.0000      -0.436909       -11.8889
  43   2.0000      -0.343497        -9.3470
  44   2.0000      -0.339459        -9.2371
  45   0.0000       0.018948         0.5156
  46   0.0000       0.026479         0.7205
  47   0.0000       0.029286         0.7969
  48   0.0000       0.032844         0.8937
  49   0.0000       0.037980         1.0335

MULLIKEN ATOMIC CHARGES
-----------------------
   0 C :   -0.318344
   1 S :    2.447699
   2 C :    0.265320
   3 C :   -1.037407
   4 O :   -1.331349
   5 O :   -1.331347
   6 C :   -0.546585
   7 C :   -0.546577
   8 C :   -0.255650
   9 C :   -0.255334
  10 C :   -0.278402
  11 H :    0.322846
  12 H :    0.323116
  13 H :    0.390601
  14 H :    0.348073
  15 H :    0.348050
  16 H :    0.316176
  17 H :    0.316180
  18 H :    0.241368
  19 H :    0.241349
  20 H :    0.340218
Sum of atomic charges:   -0.0000000

LOEWDIN ATOMIC CHARGES
----------------------
   0 C :    0.402970
   1 S :   -0.186557
   2 C :   -0.137059
   3 C :    0.835408
   4 O :    0.301999
   5 O :    0.301999
   6 C :    0.338766
   7 C :    0.338766
   8 C :    0.353945
   9 C :    0.353946
  10 C :    0.344664
  11 H :   -0.334147
  12 H :   -0.334147
  13 H :   -0.334534
  14 H :   -0.326873
  15 H :   -0.326873
  16 H :   -0.314745
  17 H :   -0.314745
  18 H :   -0.320709
  19 H :   -0.320709
  20 H :   -0.321365

  Mayer bond orders larger than 0.100000
B(  0-C ,  1-S ) :   0.8289 B(  0-C ,  2-C ) :   0.8763 B(  0-C ,  6-C ) :  -0.2392
B(  0-C ,  7-C ) :  -0.2392 B(  0-C , 11-H ) :   0.9074 B(  0-C , 12-H ) :   0.9071
B(  1-S ,  3-C ) :   0.9386 B(  1-S ,  4-O ) :   0.8690 B(  1-S ,  5-O ) :   0.8690
B(  2-C ,  6-C ) :   1.0474 B(  2-C ,  7-C ) :   1.0473 B(  2-C ,  8-C ) :  -0.3747
B(  2-C ,  9-C ) :  -0.3747 B(  3-C , 13-H ) :   0.8351 B(  3-C , 14-H ) :   0.8793
B(  3-C , 15-H ) :   0.8793 B(  6-C ,  8-C ) :   1.3661 B(  6-C ,  9-C ) :   0.1351
B(  6-C , 16-H ) :   0.9432 B(  6-C , 18-H ) :  -0.1435 B(  7-C ,  8-C ) :   0.1352
B(  7-C ,  9-C ) :   1.3659 B(  7-C , 17-H ) :   0.9431 B(  7-C , 19-H ) :  -0.1436
B(  8-C , 10-C ) :   1.1198 B(  8-C , 18-H ) :   1.1437 B(  9-C , 10-C ) :   1.1194
B(  9-C , 19-H ) :   1.1438 B( 10-C , 20-H ) :   0.9910

MP2 TOTAL ENERGY:     -858.315995096 Eh
FINAL SINGLE POINT ENERGY      -858.315995096335

DIPOLE MOMENT
-------------
                                X             Y             Z
Electronic contribution:     -2.87508      -1.97382       0.00000
Nuclear contribution   :      4.62311       2.54883       0.00000
                        -----------------------------------------
Total Dipole Moment    :      1.74802       0.57501       0.00000
                        -----------------------------------------
Magnitude (a.u.)       :      1.84017
Magnitude (Debye)      :      4.67733

Rotational constants in cm-1:     0.078914     0.019061     0.017643
Rotational constants in MHz :  2365.779656   571.436141   528.935352

                             ****ORCA TERMINATED NORMALLY****
TOTAL RUN TIME: 0 days 2 hours 16 minutes 48 seconds 672 msec
