                         Program Version 5.0.4 -  RELEASE  -
|  1> !ri-mp2 aug-cc-pvqz aug-cc-pvqz/c tightscf
|  2> %pal nprocs 16 end
|  3>
|  4> * xyz 0 1
|  5> O      0.000000    2.236047    0.597444
|  6> C      0.000000    1.129930    0.158173
|  7> O      0.000000    0.000000    0.969792
|  8> C      0.000000   -1.129930    0.158173
|  9> O      0.000000   -2.236047    0.597444
| 10> C      0.000000   -0.664242   -1.254113
| 11> C      0.000000    0.664242   -1.254113
| 12> H      0.000000   -1.352815   -2.083086
| 13> H      0.000000    1.352815   -2.083086
| 14> *
| 15>
| 16>                          ****END OF INPUT****

CARTESIAN COORDINATES (ANGSTROEM)
---------------------------------
  O      0.000000    2.236047    0.597444
  C      0.000000    1.129930    0.158173
  O      0.000000    0.000000    0.969792
  C      0.000000   -1.129930    0.158173
  O      0.000000   -2.236047    0.597444
  C      0.000000   -0.664242   -1.254113
  C      0.000000    0.664242   -1.254113
  H      0.000000   -1.352815   -2.083086
  H      0.000000    1.352815   -2.083086

 Total Charge           Charge          ....    0
 Multiplicity           Mult            ....    1
 Number of Electrons    NEL             ....   50
 Basis Dimension        Dim             ....  652

ORBITAL ENERGIES
----------------

  NO   OCC          E(Eh)            E(eV)
   0   2.0000     -20.647119      -561.8367
   1   2.0000     -20.589984      -560.2819
   2   2.0000     -20.589984      -560.2819
   3   2.0000     -11.423366      -310.8456
   4   2.0000     -11.423350      -310.8452
   5   2.0000     -11.312649      -307.8328
   6   2.0000     -11.310855      -307.7840
   7   2.0000      -1.519594       -41.3503
   8   2.0000      -1.446749       -39.3680
   9   2.0000      -1.399765       -38.0895
  10   2.0000      -1.157378       -31.4939
  11   2.0000      -0.959292       -26.1037
  12   2.0000      -0.863243       -23.4900
  13   2.0000      -0.832380       -22.6502
  14   2.0000      -0.737312       -20.0633
  15   2.0000      -0.700752       -19.0684
  16   2.0000      -0.694469       -18.8975
  17   2.0000      -0.674145       -18.3444
  18   2.0000      -0.643267       -17.5042
  19   2.0000      -0.620485       -16.8843
  20   2.0000      -0.582757       -15.8576
  21   2.0000      -0.510235       -13.8842
  22   2.0000      -0.509862       -13.8741
  23   2.0000      -0.478696       -13.0260
  24   2.0000      -0.450775       -12.2662
  25   0.0000       0.015341         0.4174
  26   0.0000       0.018907         0.5145
  27   0.0000       0.028879         0.7858
  28   0.0000       0.049142         1.3372
  29   0.0000       0.056981         1.5505

MULLIKEN ATOMIC CHARGES
-----------------------
   0 O :   -0.691306
   1 C :    1.014655
   2 O :   -0.547842
   3 C :    1.014654
   4 O :   -0.691306
   5 C :   -0.533906
   6 C :   -0.533906
   7 H :    0.484479
   8 H :    0.484479
Sum of atomic charges:   -0.0000000

LOEWDIN ATOMIC CHARGES
----------------------
   0 O :    0.671478
   1 C :   -1.084602
   2 O :    0.784168
   3 C :   -1.084602
   4 O :    0.671478
   5 C :    0.333289
   6 C :    0.333289
   7 H :   -0.312249
   8 H :   -0.312249

  Mayer bond orders larger than 0.100000
B(  0-O ,  1-C ) :   1.5003 B(  0-O ,  6-C ) :   0.1715 B(  1-C ,  2-O ) :   0.8841
B(  1-C ,  5-C ) :  -0.1988 B(  1-C ,  6-C ) :   1.2455 B(  2-O ,  3-C ) :   0.8841
B(  3-C ,  4-O ) :   1.5003 B(  3-C ,  5-C ) :   1.2455 B(  3-C ,  6-C ) :  -0.1988
B(  4-O ,  5-C ) :   0.1715 B(  5-C ,  6-C ) :   1.5628 B(  5-C ,  7-H ) :   0.7073
B(  6-C ,  8-H ) :   0.7073

MP2 TOTAL ENERGY:     -378.786807561 Eh
FINAL SINGLE POINT ENERGY      -378.786807560729

DIPOLE MOMENT
-------------
                                X             Y             Z
Electronic contribution:     -0.00000       0.00000       2.07703
Nuclear contribution   :      0.00000       0.00000      -3.95703
                        -----------------------------------------
Total Dipole Moment    :     -0.00000       0.00000      -1.88000
                        -----------------------------------------
Magnitude (a.u.)       :      1.88000
Magnitude (Debye)      :      4.77857

Rotational constants in cm-1:     0.229583     0.082254     0.060558
Rotational constants in MHz :  6882.739770  2465.923572  1815.479884

                             ****ORCA TERMINATED NORMALLY****
TOTAL RUN TIME: 0 days 0 hours 14 minutes 13 seconds 31 msec
