                         Program Version 5.0.4 -  RELEASE  -
|  1> !ri-mp2 aug-cc-pvqz aug-cc-pvqz/c tightscf
|  2> %pal nprocs 16 end
|  3>
|  4> * xyz 0 1
|  5> C     -0.122869    0.390343   -0.000727
|  6> N      1.132778   -0.147911   -0.053004
|  7> N     -1.171312   -0.329822    0.010738
|  8> H     -0.118022    1.483848   -0.004688
|  9> H      1.919698    0.417616    0.206986
| 10> H      1.214009   -1.140910    0.095135
| 11> H     -2.008734    0.241521    0.002787
| 12> *
| 13>
| 14>                          ****END OF INPUT****

CARTESIAN COORDINATES (ANGSTROEM)
---------------------------------
  C     -0.122869    0.390343   -0.000727
  N      1.132778   -0.147911   -0.053004
  N     -1.171312   -0.329822    0.010738
  H     -0.118022    1.483848   -0.004688
  H      1.919698    0.417616    0.206986
  H      1.214009   -1.140910    0.095135
  H     -2.008734    0.241521    0.002787

 Total Charge           Charge          ....    0
 Multiplicity           Mult            ....    1
 Number of Electrons    NEL             ....   24
 Basis Dimension        Dim             ....  424

ORBITAL ENERGIES
----------------

  NO   OCC          E(Eh)            E(eV)
   0   2.0000     -15.573953      -423.7888
   1   2.0000     -15.522265      -422.3823
   2   2.0000     -11.313324      -307.8512
   3   2.0000      -1.257163       -34.2092
   4   2.0000      -1.141664       -31.0663
   5   2.0000      -0.826860       -22.5000
   6   2.0000      -0.742315       -20.1994
   7   2.0000      -0.634773       -17.2730
   8   2.0000      -0.623458       -16.9652
   9   2.0000      -0.527878       -14.3643
  10   2.0000      -0.421533       -11.4705
  11   2.0000      -0.367925       -10.0118
  12   0.0000       0.021786         0.5928
  13   0.0000       0.033255         0.9049
  14   0.0000       0.040748         1.1088
  15   0.0000       0.056820         1.5462
  16   0.0000       0.069330         1.8866

MULLIKEN ATOMIC CHARGES
-----------------------
   0 C :    0.011276
   1 N :   -0.639936
   2 N :   -0.728853
   3 H :    0.501828
   4 H :    0.264210
   5 H :    0.318499
   6 H :    0.272976
Sum of atomic charges:   -0.0000000

LOEWDIN ATOMIC CHARGES
----------------------
   0 C :   -0.087248
   1 N :    1.220514
   2 N :    0.937524
   3 H :   -0.333290
   4 H :   -0.509593
   5 H :   -0.517128
   6 H :   -0.710781

  Mayer bond orders larger than 0.100000
B(  0-C ,  1-N ) :   1.1632 B(  0-C ,  2-N ) :   1.8260 B(  0-C ,  3-H ) :   0.7038
B(  1-N ,  4-H ) :   0.9463 B(  1-N ,  5-H ) :   0.8704 B(  2-N ,  6-H ) :   0.8540

MP2 TOTAL ENERGY:     -149.779734057 Eh
FINAL SINGLE POINT ENERGY      -149.779734057447

DIPOLE MOMENT
-------------
                                X             Y             Z
Electronic contribution:     -0.23182      -0.21259      -0.06305
Nuclear contribution   :      1.02996       1.02233       0.30690
                        -----------------------------------------
Total Dipole Moment    :      0.79814       0.80974       0.24385
                        -----------------------------------------
Magnitude (a.u.)       :      1.16283
Magnitude (Debye)      :      2.95568

Rotational constants in cm-1:     2.262087     0.360517     0.311943
Rotational constants in MHz : 67815.660741 10808.039101  9351.812258

                             ****ORCA TERMINATED NORMALLY****
TOTAL RUN TIME: 0 days 0 hours 2 minutes 0 seconds 987 msec
