                         Program Version 5.0.4 -  RELEASE  -
|  1> !ri-mp2 aug-cc-pvqz aug-cc-pvqz/c tightscf
|  2> %pal nprocs 16 end
|  3>
|  4> * xyz 0 1
|  5> N      0.000000    0.625382    0.000000
|  6> O     -1.204276    0.568235    0.000000
|  7> O      0.724269    1.578295    0.000000
|  8> O      0.708849   -0.603160    0.000000
|  9> C     -0.143421   -1.760352    0.000000
| 10> H      0.559744   -2.588769    0.000000
| 11> H     -0.764976   -1.786875    0.892235
| 12> H     -0.764976   -1.786875   -0.892235
| 13> *
| 14>
| 15>                          ****END OF INPUT****

CARTESIAN COORDINATES (ANGSTROEM)
---------------------------------
  N      0.000000    0.625382    0.000000
  O     -1.204276    0.568235    0.000000
  O      0.724269    1.578295    0.000000
  O      0.708849   -0.603160    0.000000
  C     -0.143421   -1.760352    0.000000
  H      0.559744   -2.588769    0.000000
  H     -0.764976   -1.786875    0.892235
  H     -0.764976   -1.786875   -0.892235

 Total Charge           Charge          ....    0
 Multiplicity           Mult            ....    1
 Number of Electrons    NEL             ....   40
 Basis Dimension        Dim             ....  538

ORBITAL ENERGIES
----------------

  NO   OCC          E(Eh)            E(eV)
   0   2.0000     -20.670038      -562.4603
   1   2.0000     -20.631339      -561.4073
   2   2.0000     -20.629883      -561.3676
   3   2.0000     -15.923707      -433.3061
   4   2.0000     -11.314005      -307.8697
   5   2.0000      -1.673176       -45.5294
   6   2.0000      -1.453611       -39.5548
   7   2.0000      -1.429632       -38.9023
   8   2.0000      -1.020956       -27.7816
   9   2.0000      -0.886535       -24.1238
  10   2.0000      -0.810056       -22.0428
  11   2.0000      -0.786293       -21.3961
  12   2.0000      -0.769986       -20.9524
  13   2.0000      -0.657356       -17.8876
  14   2.0000      -0.655919       -17.8485
  15   2.0000      -0.594391       -16.1742
  16   2.0000      -0.526342       -14.3225
  17   2.0000      -0.521810       -14.1992
  18   2.0000      -0.520361       -14.1597
  19   2.0000      -0.486707       -13.2440
  20   0.0000       0.021508         0.5853
  21   0.0000       0.038504         1.0477
  22   0.0000       0.038673         1.0523
  23   0.0000       0.056802         1.5457
  24   0.0000       0.088461         2.4071

MULLIKEN ATOMIC CHARGES
-----------------------
   0 N :    1.052080
   1 O :   -0.506767
   2 O :   -0.504501
   3 O :   -0.467309
   4 C :   -0.560657
   5 H :    0.461806
   6 H :    0.262674
   7 H :    0.262674
Sum of atomic charges:   -0.0000000

LOEWDIN ATOMIC CHARGES
----------------------
   0 N :   -1.194970
   1 O :    0.509967
   2 O :    0.482875
   3 O :    0.667918
   4 C :    0.533152
   5 H :   -0.337188
   6 H :   -0.330878
   7 H :   -0.330878

  Mayer bond orders larger than 0.100000
B(  0-N ,  1-O ) :   1.4516 B(  0-N ,  2-O ) :   1.4945 B(  0-N ,  3-O ) :   0.8878
B(  1-O ,  2-O ) :   0.1456 B(  3-O ,  4-C ) :   0.8142 B(  4-C ,  5-H ) :   0.7724
B(  4-C ,  6-H ) :   0.9276 B(  4-C ,  7-H ) :   0.9276

MP2 TOTAL ENERGY:     -319.814580302 Eh
FINAL SINGLE POINT ENERGY      -319.814580301963

DIPOLE MOMENT
-------------
                                X             Y             Z
Electronic contribution:      0.77777       4.61000      -0.00000
Nuclear contribution   :     -0.94256      -5.98194       0.00000
                        -----------------------------------------
Total Dipole Moment    :     -0.16479      -1.37194      -0.00000
                        -----------------------------------------
Magnitude (a.u.)       :      1.38181
Magnitude (Debye)      :      3.51227

Rotational constants in cm-1:     0.395497     0.155802     0.114201
Rotational constants in MHz : 11856.695021  4670.820984  3423.668225

                             ****ORCA TERMINATED NORMALLY****
TOTAL RUN TIME: 0 days 0 hours 5 minutes 10 seconds 194 msec
