                         Program Version 5.0.4 -  RELEASE  -
|  1> !ri-mp2 aug-cc-pvqz aug-cc-pvqz/c tightscf
|  2> %pal nprocs 16 end
|  3>
|  4> * xyz 0 1
|  5> C      0.050669    0.624607    0.000000
|  6> C     -1.855094    2.001586    0.000000
|  7> C      0.511832   -0.857791    0.000000
|  8> O      0.811982    1.547940    0.000000
|  9> O     -1.275222    0.677957    0.000000
| 10> F      0.050669   -1.497770    1.087625
| 11> F      0.050669   -1.497770   -1.087625
| 12> F      1.840087   -0.932253    0.000000
| 13> H     -1.541783    2.544186    0.888968
| 14> H     -2.927775    1.844167    0.000000
| 15> H     -1.541783    2.544186   -0.888968
| 16> *
| 17>
| 18>                          ****END OF INPUT****

CARTESIAN COORDINATES (ANGSTROEM)
---------------------------------
  C      0.050669    0.624607    0.000000
  C     -1.855094    2.001586    0.000000
  C      0.511832   -0.857791    0.000000
  O      0.811982    1.547940    0.000000
  O     -1.275222    0.677957    0.000000
  F      0.050669   -1.497770    1.087625
  F      0.050669   -1.497770   -1.087625
  F      1.840087   -0.932253    0.000000
  H     -1.541783    2.544186    0.888968
  H     -2.927775    1.844167    0.000000
  H     -1.541783    2.544186   -0.888968

 Total Charge           Charge          ....    0
 Multiplicity           Mult            ....    1
 Number of Electrons    NEL             ....   64
 Basis Dimension        Dim             ....  778

ORBITAL ENERGIES
----------------

  NO   OCC          E(Eh)            E(eV)
   0   2.0000     -26.353854      -717.1248
   1   2.0000     -26.353834      -717.1243
   2   2.0000     -26.351588      -717.0632
   3   2.0000     -20.640417      -561.6543
   4   2.0000     -20.589342      -560.2645
   5   2.0000     -11.533416      -313.8402
   6   2.0000     -11.426181      -310.9222
   7   2.0000     -11.312597      -307.8314
   8   2.0000      -1.745512       -47.4978
   9   2.0000      -1.650918       -44.9238
  10   2.0000      -1.650189       -44.9039
  11   2.0000      -1.503294       -40.9067
  12   2.0000      -1.406425       -38.2708
  13   2.0000      -1.055795       -28.7296
  14   2.0000      -0.981484       -26.7075
  15   2.0000      -0.882377       -24.0107
  16   2.0000      -0.840097       -22.8602
  17   2.0000      -0.838703       -22.8223
  18   2.0000      -0.799555       -21.7570
  19   2.0000      -0.730651       -19.8820
  20   2.0000      -0.727945       -19.8084
  21   2.0000      -0.710713       -19.3395
  22   2.0000      -0.699816       -19.0430
  23   2.0000      -0.692453       -18.8426
  24   2.0000      -0.679769       -18.4975
  25   2.0000      -0.678184       -18.4543
  26   2.0000      -0.664614       -18.0851
  27   2.0000      -0.608767       -16.5654
  28   2.0000      -0.584038       -15.8925
  29   2.0000      -0.562858       -15.3162
  30   2.0000      -0.498458       -13.5637
  31   2.0000      -0.496065       -13.4986
  32   0.0000       0.021583         0.5873
  33   0.0000       0.038969         1.0604
  34   0.0000       0.039122         1.0646
  35   0.0000       0.049176         1.3381
  36   0.0000       0.065743         1.7890

MULLIKEN ATOMIC CHARGES
-----------------------
   0 C :    0.501536
   1 C :   -0.638293
   2 C :    2.068798
   3 O :   -0.661964
   4 O :   -0.528415
   5 F :   -0.577704
   6 F :   -0.577704
   7 F :   -0.601532
   8 H :    0.293664
   9 H :    0.427952
  10 H :    0.293664
Sum of atomic charges:   -0.0000000

LOEWDIN ATOMIC CHARGES
----------------------
   0 C :   -1.211209
   1 C :    0.609060
   2 C :   -2.203812
   3 O :    0.693604
   4 O :    0.813003
   5 F :    0.742982
   6 F :    0.742982
   7 F :    0.755067
   8 H :   -0.311473
   9 H :   -0.318731
  10 H :   -0.311473

  Mayer bond orders larger than 0.100000
B(  0-C ,  2-C ) :   0.9407 B(  0-C ,  3-O ) :   1.6299 B(  0-C ,  4-O ) :   1.0309
B(  0-C ,  5-F ) :   0.1221 B(  0-C ,  6-F ) :   0.1221 B(  1-C ,  4-O ) :   0.8126
B(  1-C ,  8-H ) :   0.9127 B(  1-C ,  9-H ) :   0.8243 B(  1-C , 10-H ) :   0.9127
B(  2-C ,  5-F ) :   0.4615 B(  2-C ,  6-F ) :   0.4615 B(  2-C ,  7-F ) :   0.4635

MP2 TOTAL ENERGY:     -565.507665837 Eh
FINAL SINGLE POINT ENERGY      -565.507665836675

DIPOLE MOMENT
-------------
                                X             Y             Z
Electronic contribution:      6.37087      -9.55587      -0.00000
Nuclear contribution   :     -7.44932      10.18153       0.00000
                        -----------------------------------------
Total Dipole Moment    :     -1.07845       0.62566      -0.00000
                        -----------------------------------------
Magnitude (a.u.)       :      1.24680
Magnitude (Debye)      :      3.16911

Rotational constants in cm-1:     0.119639     0.050280     0.044003
Rotational constants in MHz :  3586.694278  1507.362099  1319.188846

                             ****ORCA TERMINATED NORMALLY****
TOTAL RUN TIME: 0 days 0 hours 19 minutes 29 seconds 885 msec
