                         Program Version 5.0.4 -  RELEASE  -
|  1> !ri-mp2 aug-cc-pvqz aug-cc-pvqz/c tightscf
|  2> %pal nprocs 16 end
|  3>
|  4> * xyz 0 1
|  5> C     -2.942068    0.313165   -0.088641
|  6> C      0.735707    0.108753   -0.508616
|  7> C     -0.654620   -0.311306    0.007121
|  8> O     -1.574078    0.542788   -0.481566
|  9> F     -0.678682   -0.369389    1.367117
| 10> F     -0.901211   -1.593523   -0.415518
| 11> Cl     1.144790    1.756836    0.037582
| 12> Cl     1.979103   -1.067794   -0.011846
| 13> H     -3.270321   -0.674881   -0.406191
| 14> H     -3.516616    1.078339   -0.599716
| 15> H     -3.051412    0.421676    0.988511
| 16> H      0.709733    0.121384   -1.591166
| 17> *
| 18>
| 19>                          ****END OF INPUT****

CARTESIAN COORDINATES (ANGSTROEM)
---------------------------------
  C     -2.942068    0.313165   -0.088641
  C      0.735707    0.108753   -0.508616
  C     -0.654620   -0.311306    0.007121
  O     -1.574078    0.542788   -0.481566
  F     -0.678682   -0.369389    1.367117
  F     -0.901211   -1.593523   -0.415518
  Cl     1.144790    1.756836    0.037582
  Cl     1.979103   -1.067794   -0.011846
  H     -3.270321   -0.674881   -0.406191
  H     -3.516616    1.078339   -0.599716
  H     -3.051412    0.421676    0.988511
  H      0.709733    0.121384   -1.591166

 Total Charge           Charge          ....    0
 Multiplicity           Mult            ....    1
 Number of Electrons    NEL             ....   82
 Basis Dimension        Dim             ....  832

ORBITAL ENERGIES
----------------

  NO   OCC          E(Eh)            E(eV)
   0   2.0000    -104.855179     -2853.2545
   1   2.0000    -104.854380     -2853.2327
   2   2.0000     -26.328502      -716.4350
   3   2.0000     -26.326772      -716.3879
   4   2.0000     -20.613941      -560.9338
   5   2.0000     -11.492808      -312.7352
   6   2.0000     -11.387135      -309.8597
   7   2.0000     -11.303256      -307.5772
   8   2.0000     -10.580431      -287.9082
   9   2.0000     -10.579703      -287.8883
  10   2.0000      -8.047484      -218.9832
  11   2.0000      -8.046758      -218.9634
  12   2.0000      -8.045589      -218.9316
  13   2.0000      -8.045531      -218.9300
  14   2.0000      -8.044864      -218.9119
  15   2.0000      -8.044802      -218.9102
  16   2.0000      -1.690315       -45.9958
  17   2.0000      -1.619183       -44.0602
  18   2.0000      -1.442818       -39.2611
  19   2.0000      -1.206889       -32.8411
  20   2.0000      -1.102254       -29.9939
  21   2.0000      -1.033942       -28.1350
  22   2.0000      -0.939007       -25.5517
  23   2.0000      -0.879658       -23.9367
  24   2.0000      -0.802283       -21.8312
  25   2.0000      -0.788104       -21.4454
  26   2.0000      -0.764221       -20.7955
  27   2.0000      -0.702329       -19.1113
  28   2.0000      -0.687429       -18.7059
  29   2.0000      -0.655583       -17.8393
  30   2.0000      -0.644877       -17.5480
  31   2.0000      -0.638002       -17.3609
  32   2.0000      -0.631382       -17.1808
  33   2.0000      -0.589157       -16.0318
  34   2.0000      -0.584636       -15.9087
  35   2.0000      -0.545238       -14.8367
  36   2.0000      -0.509019       -13.8511
  37   2.0000      -0.479775       -13.0553
  38   2.0000      -0.476989       -12.9795
  39   2.0000      -0.456908       -12.4331
  40   2.0000      -0.450515       -12.2591
  41   0.0000       0.023729         0.6457
  42   0.0000       0.034119         0.9284
  43   0.0000       0.040456         1.1009
  44   0.0000       0.042853         1.1661
  45   0.0000       0.060424         1.6442

MULLIKEN ATOMIC CHARGES
-----------------------
   0 C :   -0.684352
   1 C :   -0.040730
   2 C :    1.876496
   3 O :   -0.687266
   4 F :   -0.678172
   5 F :   -0.658288
   6 Cl:   -0.240719
   7 Cl:   -0.272981
   8 H :    0.302763
   9 H :    0.385331
  10 H :    0.308495
  11 H :    0.389423
Sum of atomic charges:    0.0000000

LOEWDIN ATOMIC CHARGES
----------------------
   0 C :    0.612197
   1 C :   -1.405661
   2 C :   -2.168784
   3 O :    0.779303
   4 F :    0.755884
   5 F :    0.751540
   6 Cl:    1.099989
   7 Cl:    1.092223
   8 H :   -0.318014
   9 H :   -0.322080
  10 H :   -0.318293
  11 H :   -0.558305

  Mayer bond orders larger than 0.100000
B(  0-C ,  3-O ) :   0.8701 B(  0-C ,  8-H ) :   0.8962 B(  0-C ,  9-H ) :   0.8742
B(  0-C , 10-H ) :   0.8922 B(  1-C ,  2-C ) :   0.8977 B(  1-C ,  6-Cl) :   0.8282
B(  1-C ,  7-Cl) :   0.7906 B(  1-C , 11-H ) :   0.7802 B(  2-C ,  3-O ) :   0.8452
B(  2-C ,  4-F ) :   0.2964 B(  2-C ,  5-F ) :   0.2819

MP2 TOTAL ENERGY:    -1310.654628084 Eh
FINAL SINGLE POINT ENERGY     -1310.654628083724

DIPOLE MOMENT
-------------
                                X             Y             Z
Electronic contribution:     10.31671      -1.56497       1.95178
Nuclear contribution   :    -11.26067       1.78105      -2.42044
                        -----------------------------------------
Total Dipole Moment    :     -0.94396       0.21607      -0.46866
                        -----------------------------------------
Magnitude (a.u.)       :      1.07582
Magnitude (Debye)      :      2.73451

Rotational constants in cm-1:     0.064997     0.037720     0.027785
Rotational constants in MHz :  1948.572381  1130.822555   832.979021

                             ****ORCA TERMINATED NORMALLY****
TOTAL RUN TIME: 0 days 0 hours 22 minutes 43 seconds 441 msec
