                         Program Version 5.0.4 -  RELEASE  -
|  1> !ri-mp2 aug-cc-pvqz aug-cc-pvqz/c tightscf
|  2> %pal nprocs 16 end
|  3>
|  4> * xyz 0 1
|  5> C      0.042677    0.344157    0.000000
|  6> C     -0.973754   -1.889957    0.743851
|  7> C     -0.973754   -1.889957   -0.743851
|  8> C      0.111176   -1.135227    0.000000
|  9> C      1.324994    2.327509    0.000000
| 10> O     -0.973754    0.998522    0.000000
| 11> O      1.277432    0.891383    0.000000
| 12> H     -1.716618   -1.286124    1.243595
| 13> H     -0.669468   -2.784850    1.266689
| 14> H     -0.669468   -2.784850   -1.266689
| 15> H     -1.716618   -1.286124   -1.243595
| 16> H      1.106406   -1.551725    0.000000
| 17> H      2.379774    2.584262    0.000000
| 18> H      0.834268    2.725508    0.886305
| 19> H      0.834268    2.725508   -0.886305
| 20> *
| 21>
| 22>                          ****END OF INPUT****

CARTESIAN COORDINATES (ANGSTROEM)
---------------------------------
  C      0.042677    0.344157    0.000000
  C     -0.973754   -1.889957    0.743851
  C     -0.973754   -1.889957   -0.743851
  C      0.111176   -1.135227    0.000000
  C      1.324994    2.327509    0.000000
  O     -0.973754    0.998522    0.000000
  O      1.277432    0.891383    0.000000
  H     -1.716618   -1.286124    1.243595
  H     -0.669468   -2.784850    1.266689
  H     -0.669468   -2.784850   -1.266689
  H     -1.716618   -1.286124   -1.243595
  H      1.106406   -1.551725    0.000000
  H      2.379774    2.584262    0.000000
  H      0.834268    2.725508    0.886305
  H      0.834268    2.725508   -0.886305

 Total Charge           Charge          ....    0
 Multiplicity           Mult            ....    1
 Number of Electrons    NEL             ....   54
 Basis Dimension        Dim             ....  928

ORBITAL ENERGIES
----------------

  NO   OCC          E(Eh)            E(eV)
   0   2.0000     -20.598681      -560.5186
   1   2.0000     -20.534528      -558.7729
   2   2.0000     -11.375569      -309.5450
   3   2.0000     -11.282003      -306.9989
   4   2.0000     -11.246480      -306.0323
   5   2.0000     -11.240675      -305.8743
   6   2.0000     -11.239967      -305.8551
   7   2.0000      -1.454780       -39.5866
   8   2.0000      -1.353513       -36.8310
   9   2.0000      -1.158839       -31.5336
  10   2.0000      -0.988569       -26.9003
  11   2.0000      -0.878215       -23.8974
  12   2.0000      -0.835188       -22.7266
  13   2.0000      -0.761334       -20.7170
  14   2.0000      -0.722280       -19.6542
  15   2.0000      -0.676930       -18.4202
  16   2.0000      -0.667336       -18.1591
  17   2.0000      -0.650342       -17.6967
  18   2.0000      -0.606463       -16.5027
  19   2.0000      -0.560981       -15.2651
  20   2.0000      -0.556844       -15.1525
  21   2.0000      -0.526935       -14.3386
  22   2.0000      -0.525375       -14.2962
  23   2.0000      -0.461782       -12.5657
  24   2.0000      -0.454344       -12.3633
  25   2.0000      -0.439092       -11.9483
  26   2.0000      -0.426043       -11.5932
  27   0.0000       0.025125         0.6837
  28   0.0000       0.029667         0.8073
  29   0.0000       0.035160         0.9567
  30   0.0000       0.036292         0.9876
  31   0.0000       0.048943         1.3318

MULLIKEN ATOMIC CHARGES
-----------------------
   0 C :    1.217658
   1 C :   -0.638319
   2 C :   -0.638319
   3 C :   -0.609377
   4 C :   -0.700299
   5 O :   -0.799276
   6 O :   -0.746027
   7 H :    0.357376
   8 H :    0.368778
   9 H :    0.368778
  10 H :    0.357376
  11 H :    0.420736
  12 H :    0.422448
  13 H :    0.309234
  14 H :    0.309234
Sum of atomic charges:   -0.0000000

LOEWDIN ATOMIC CHARGES
----------------------
   0 C :   -1.069319
   1 C :    0.591400
   2 C :    0.591400
   3 C :    0.093614
   4 C :    0.580874
   5 O :    0.730526
   6 O :    0.846489
   7 H :   -0.285475
   8 H :   -0.267106
   9 H :   -0.267106
  10 H :   -0.285475
  11 H :   -0.298675
  12 H :   -0.326233
  13 H :   -0.317457
  14 H :   -0.317457

  Mayer bond orders larger than 0.100000
B(  0-C ,  3-C ) :   0.9629 B(  0-C ,  5-O ) :   1.2984 B(  0-C ,  6-O ) :   0.8636
B(  1-C ,  2-C ) :   1.1163 B(  1-C ,  3-C ) :   0.8785 B(  1-C ,  7-H ) :   0.8383
B(  1-C ,  8-H ) :   0.8543 B(  2-C ,  3-C ) :   0.8785 B(  2-C ,  9-H ) :   0.8543
B(  2-C , 10-H ) :   0.8383 B(  3-C ,  5-O ) :   0.1427 B(  3-C , 11-H ) :   0.7821
B(  4-C ,  6-O ) :   0.8678 B(  4-C , 12-H ) :   0.8336 B(  4-C , 13-H ) :   0.9099
B(  4-C , 14-H ) :   0.9099 B(  5-O ,  6-O ) :   0.1032

MP2 TOTAL ENERGY:     -345.250230794 Eh
FINAL SINGLE POINT ENERGY      -345.250230793937

DIPOLE MOMENT
-------------
                                X             Y             Z
Electronic contribution:      0.21757       1.26165      -0.00000
Nuclear contribution   :      0.39236      -1.64973       0.00000
                        -----------------------------------------
Total Dipole Moment    :      0.60992      -0.38808      -0.00000
                        -----------------------------------------
Magnitude (a.u.)       :      0.72292
Magnitude (Debye)      :      1.83752

Rotational constants in cm-1:     0.242266     0.053877     0.049579
Rotational constants in MHz :  7262.940520  1615.202984  1486.336825

                             ****ORCA TERMINATED NORMALLY****
TOTAL RUN TIME: 0 days 0 hours 39 minutes 24 seconds 537 msec
