                         Program Version 5.0.4 -  RELEASE  -
|  1> !ri-mp2 aug-cc-pvqz aug-cc-pvqz/c tightscf
|  2> %pal nprocs 16 end
|  3>
|  4> * xyz 0 1
|  5> C      0.091342    3.082579    0.000000
|  6> C      0.094844    2.390597    1.206836
|  7> C      0.094844    2.390597   -1.206836
|  8> C      0.094844    1.001048    1.213029
|  9> C      0.094844    1.001048   -1.213029
| 10> C      0.088331    0.322160    0.000000
| 11> C     -1.655962   -1.917459    0.000000
| 12> O      0.656057   -1.929130   -1.266976
| 13> O      0.656057   -1.929130    1.266976
| 14> S      0.091079   -1.476746    0.000000
| 15> H      0.094921    4.164148    0.000000
| 16> H      0.106394    2.931653    2.142942
| 17> H      0.106394    2.931653   -2.142942
| 18> H      0.122551    0.445707    2.139560
| 19> H      0.122551    0.445707   -2.139560
| 20> H     -2.120878   -1.521537   -0.898564
| 21> H     -1.683749   -3.005188    0.000000
| 22> H     -2.120878   -1.521537    0.898564
| 23> *
| 24>
| 25>                          ****END OF INPUT****

CARTESIAN COORDINATES (ANGSTROEM)
---------------------------------
  C      0.091342    3.082579    0.000000
  C      0.094844    2.390597    1.206836
  C      0.094844    2.390597   -1.206836
  C      0.094844    1.001048    1.213029
  C      0.094844    1.001048   -1.213029
  C      0.088331    0.322160    0.000000
  C     -1.655962   -1.917459    0.000000
  O      0.656057   -1.929130   -1.266976
  O      0.656057   -1.929130    1.266976
  S      0.091079   -1.476746    0.000000
  H      0.094921    4.164148    0.000000
  H      0.106394    2.931653    2.142942
  H      0.106394    2.931653   -2.142942
  H      0.122551    0.445707    2.139560
  H      0.122551    0.445707   -2.139560
  H     -2.120878   -1.521537   -0.898564
  H     -1.683749   -3.005188    0.000000
  H     -2.120878   -1.521537    0.898564

 Total Charge           Charge          ....    0
 Multiplicity           Mult            ....    1
 Number of Electrons    NEL             ....   82
 Basis Dimension        Dim             .... 1172

ORBITAL ENERGIES
----------------

  NO   OCC          E(Eh)            E(eV)
   0   2.0000     -92.174607     -2508.1986
   1   2.0000     -20.539949      -558.9204
   2   2.0000     -20.539930      -558.9199
   3   2.0000     -11.279405      -306.9282
   4   2.0000     -11.273796      -306.7756
   5   2.0000     -11.266438      -306.5754
   6   2.0000     -11.266363      -306.5733
   7   2.0000     -11.263472      -306.4946
   8   2.0000     -11.257446      -306.3307
   9   2.0000     -11.257310      -306.3270
  10   2.0000      -9.143694      -248.8126
  11   2.0000      -6.829049      -185.8279
  12   2.0000      -6.828535      -185.8139
  13   2.0000      -6.828092      -185.8018
  14   2.0000      -1.439833       -39.1798
  15   2.0000      -1.329918       -36.1889
  16   2.0000      -1.185457       -32.2579
  17   2.0000      -1.067911       -29.0593
  18   2.0000      -1.045284       -28.4436
  19   2.0000      -1.026760       -27.9396
  20   2.0000      -0.891365       -24.2553
  21   2.0000      -0.857049       -23.3215
  22   2.0000      -0.805407       -21.9162
  23   2.0000      -0.736405       -20.0386
  24   2.0000      -0.682598       -18.5744
  25   2.0000      -0.665230       -18.1018
  26   2.0000      -0.659844       -17.9553
  27   2.0000      -0.642991       -17.4967
  28   2.0000      -0.638958       -17.3869
  29   2.0000      -0.617102       -16.7922
  30   2.0000      -0.601425       -16.3656
  31   2.0000      -0.599233       -16.3059
  32   2.0000      -0.546811       -14.8795
  33   2.0000      -0.532136       -14.4802
  34   2.0000      -0.523910       -14.2563
  35   2.0000      -0.495011       -13.4699
  36   2.0000      -0.492780       -13.4092
  37   2.0000      -0.468135       -12.7386
  38   2.0000      -0.438728       -11.9384
  39   2.0000      -0.372018       -10.1231
  40   2.0000      -0.363430        -9.8894
  41   0.0000       0.018513         0.5038
  42   0.0000       0.025832         0.7029
  43   0.0000       0.026169         0.7121
  44   0.0000       0.037246         1.0135
  45   0.0000       0.041874         1.1395

MULLIKEN ATOMIC CHARGES
-----------------------
   0 C :   -0.317353
   1 C :   -0.301169
   2 C :   -0.301274
   3 C :   -0.384863
   4 C :   -0.384950
   5 C :   -0.149519
   6 C :   -1.050946
   7 O :   -1.339833
   8 O :   -1.339834
   9 S :    2.890843
  10 H :    0.354889
  11 H :    0.235787
  12 H :    0.235698
  13 H :    0.379066
  14 H :    0.379106
  15 H :    0.346673
  16 H :    0.401003
  17 H :    0.346672
Sum of atomic charges:   -0.0000000

LOEWDIN ATOMIC CHARGES
----------------------
   0 C :    0.349531
   1 C :    0.355977
   2 C :    0.355977
   3 C :    0.284734
   4 C :    0.284734
   5 C :   -0.234089
   6 C :    0.835579
   7 O :    0.305427
   8 O :    0.305427
   9 S :   -0.214458
  10 H :   -0.316252
  11 H :   -0.319448
  12 H :   -0.319448
  13 H :   -0.343991
  14 H :   -0.343991
  15 H :   -0.326641
  16 H :   -0.332427
  17 H :   -0.326641

  Mayer bond orders larger than 0.100000
B(  0-C ,  1-C ) :   1.1378 B(  0-C ,  2-C ) :   1.1380 B(  0-C , 10-H ) :   0.9709
B(  0-C , 11-H ) :  -0.1091 B(  0-C , 12-H ) :  -0.1091 B(  1-C ,  3-C ) :   1.3726
B(  1-C ,  4-C ) :   0.1162 B(  1-C ,  5-C ) :  -0.3216 B(  1-C , 11-H ) :   1.1349
B(  2-C ,  3-C ) :   0.1162 B(  2-C ,  4-C ) :   1.3726 B(  2-C ,  5-C ) :  -0.3216
B(  2-C , 12-H ) :   1.1350 B(  3-C ,  5-C ) :   0.9434 B(  3-C ,  8-O ) :   0.1047
B(  3-C ,  9-S ) :  -0.1472 B(  3-C , 11-H ) :  -0.1187 B(  3-C , 13-H ) :   0.8577
B(  4-C ,  5-C ) :   0.9436 B(  4-C ,  7-O ) :   0.1047 B(  4-C ,  9-S ) :  -0.1471
B(  4-C , 12-H ) :  -0.1188 B(  4-C , 14-H ) :   0.8576 B(  5-C ,  9-S ) :   0.8238
B(  5-C , 13-H ) :  -0.1017 B(  5-C , 14-H ) :  -0.1017 B(  6-C ,  9-S ) :   0.9225
B(  6-C , 15-H ) :   0.8743 B(  6-C , 16-H ) :   0.8511 B(  6-C , 17-H ) :   0.8743
B(  7-O ,  9-S ) :   0.8149 B(  8-O ,  9-S ) :   0.8149

MP2 TOTAL ENERGY:     -819.076557935 Eh
FINAL SINGLE POINT ENERGY      -819.076557935335

DIPOLE MOMENT
-------------
                                X             Y             Z
Electronic contribution:      3.74317      -3.18102       0.00000
Nuclear contribution   :     -5.27950       4.78706       0.00000
                        -----------------------------------------
Total Dipole Moment    :     -1.53633       1.60604       0.00000
                        -----------------------------------------
Magnitude (a.u.)       :      2.22254
Magnitude (Debye)      :      5.64925

Rotational constants in cm-1:     0.084039     0.027272     0.024043
Rotational constants in MHz :  2519.411417   817.595621   720.777186

                             ****ORCA TERMINATED NORMALLY****
TOTAL RUN TIME: 0 days 1 hours 28 minutes 31 seconds 28 msec
