                         Program Version 5.0.4 -  RELEASE  -
|  1> !ri-mp2 aug-cc-pvqz aug-cc-pvqz/c tightscf
|  2> %pal nprocs 16 end
|  3>
|  4> * xyz 0 1
|  5> S     -1.379699   -0.462768        0.000000
|  6> S      1.542184    0.101951        0.000000
|  7> C      0.000000    0.604111        0.000000
|  8> H     -0.264368    1.658591        0.000000
|  9> H     -2.335387    0.489817        0.000000
| 10> *
| 11>
| 12>                          ****END OF INPUT****

CARTESIAN COORDINATES (ANGSTROEM)
---------------------------------
  S     -1.379699   -0.462768    0.000000
  S      1.542184    0.101951    0.000000
  C      0.000000    0.604111    0.000000
  H     -0.264368    1.658591    0.000000
  H     -2.335387    0.489817    0.000000

 Total Charge           Charge          ....    0
 Multiplicity           Mult            ....    1
 Number of Electrons    NEL             ....   40
 Basis Dimension        Dim             ....  340

ORBITAL ENERGIES
----------------

  NO   OCC          E(Eh)            E(eV)
   0   2.0000     -92.003159     -2503.5332
   1   2.0000     -91.946141     -2501.9817
   2   2.0000     -11.355852      -309.0084
   3   2.0000      -9.005276      -245.0460
   4   2.0000      -8.949398      -243.5255
   5   2.0000      -6.686541      -181.9500
   6   2.0000      -6.685607      -181.9246
   7   2.0000      -6.684893      -181.9052
   8   2.0000      -6.630484      -180.4246
   9   2.0000      -6.629781      -180.4055
  10   2.0000      -6.628375      -180.3673
  11   2.0000      -1.115598       -30.3570
  12   2.0000      -0.979746       -26.6602
  13   2.0000      -0.783543       -21.3213
  14   2.0000      -0.656606       -17.8672
  15   2.0000      -0.540854       -14.7174
  16   2.0000      -0.510536       -13.8924
  17   2.0000      -0.484534       -13.1848
  18   2.0000      -0.361816        -9.8455
  19   2.0000      -0.351652        -9.5689
  20   0.0000       0.020923         0.5693
  21   0.0000       0.037425         1.0184
  22   0.0000       0.038055         1.0355
  23   0.0000       0.052796         1.4367
  24   0.0000       0.067832         1.8458

MULLIKEN ATOMIC CHARGES
-----------------------
   0 S :    0.197595
   1 S :    0.070126
   2 C :   -0.768067
   3 H :    0.442720
   4 H :    0.057626
Sum of atomic charges:    0.0000000

LOEWDIN ATOMIC CHARGES
----------------------
   0 S :    1.436393
   1 S :    0.921931
   2 C :   -0.999645
   3 H :   -0.572404
   4 H :   -0.786276

  Mayer bond orders larger than 0.100000
B(  0-S ,  2-C ) :   1.0498 B(  0-S ,  4-H ) :   1.0209 B(  1-S ,  2-C ) :   1.7023
B(  2-C ,  3-H ) :   0.7106

MP2 TOTAL ENERGY:     -834.679201855 Eh
FINAL SINGLE POINT ENERGY      -834.679201855299

DIPOLE MOMENT
-------------
                                X             Y             Z
Electronic contribution:      1.41457      -1.49160       0.00000
Nuclear contribution   :     -2.50397       2.07597       0.00000
                        -----------------------------------------
Total Dipole Moment    :     -1.08940       0.58437       0.00000
                        -----------------------------------------
Magnitude (a.u.)       :      1.23624
Magnitude (Debye)      :      3.14228

Rotational constants in cm-1:     1.653029     0.114600     0.107170
Rotational constants in MHz : 49556.554151  3435.610901  3212.871893

                             ****ORCA TERMINATED NORMALLY****
TOTAL RUN TIME: 0 days 0 hours 3 minutes 53 seconds 958 msec
