                         Program Version 5.0.4 -  RELEASE  -
|  1> !ri-mp2 aug-cc-pvqz aug-cc-pvqz/c tightscf
|  2> %pal nprocs 16 end
|  3> %maxcore 3800
|  4>
|  5> * xyz 0 1
|  6> C     -1.286273    0.390991    0.000000
|  7> C      1.112125    0.088865    0.000000
|  8> C     -1.467836   -0.981974    0.000000
|  9> C      0.942643   -1.286930    0.000000
| 10> C      0.000000    0.932795    0.000000
| 11> C     -0.346334   -1.799458    0.000000
| 12> C      0.128280    2.421778    0.000000
| 13> C      1.617644    4.250574    0.000000
| 14> N     -0.530904   -3.266994    0.000000
| 15> O     -0.811383    3.179716    0.000000
| 16> O     -1.675584   -3.692985    0.000000
| 17> O      0.472906   -3.963304    0.000000
| 18> O      1.410358    2.826665    0.000000
| 19> H     -2.134031    1.060043    0.000000
| 20> H      2.105499    0.509823    0.000000
| 21> H     -2.451989   -1.422851    0.000000
| 22> H      1.785123   -1.960132    0.000000
| 23> H      2.694123    4.387094    0.000000
| 24> H      1.172868    4.697195    0.886917
| 25> H      1.172868    4.697195   -0.886917
| 26> *
| 27>
| 28>                          ****END OF INPUT****

CARTESIAN COORDINATES (ANGSTROEM)
---------------------------------
  C     -1.286273    0.390991    0.000000
  C      1.112125    0.088865    0.000000
  C     -1.467836   -0.981974    0.000000
  C      0.942643   -1.286930    0.000000
  C      0.000000    0.932795    0.000000
  C     -0.346334   -1.799458    0.000000
  C      0.128280    2.421778    0.000000
  C      1.617644    4.250574    0.000000
  N     -0.530904   -3.266994    0.000000
  O     -0.811383    3.179716    0.000000
  O     -1.675584   -3.692985    0.000000
  O      0.472906   -3.963304    0.000000
  O      1.410358    2.826665    0.000000
  H     -2.134031    1.060043    0.000000
  H      2.105499    0.509823    0.000000
  H     -2.451989   -1.422851    0.000000
  H      1.785123   -1.960132    0.000000
  H      2.694123    4.387094    0.000000
  H      1.172868    4.697195    0.886917
  H      1.172868    4.697195   -0.886917

 Total Charge           Charge          ....    0
 Multiplicity           Mult            ....    1
 Number of Electrons    NEL             ....   94
 Basis Dimension        Dim             .... 1362

ORBITAL ENERGIES
----------------

  NO   OCC          E(Eh)            E(eV)
   0   2.0000     -20.621136      -561.1296
   1   2.0000     -20.608585      -560.7881
   2   2.0000     -20.608356      -560.7819
   3   2.0000     -20.561844      -559.5162
   4   2.0000     -15.860875      -431.5964
   5   2.0000     -11.403437      -310.3033
   6   2.0000     -11.324228      -308.1479
   7   2.0000     -11.299996      -307.4885
   8   2.0000     -11.286406      -307.1187
   9   2.0000     -11.280236      -306.9508
  10   2.0000     -11.279365      -306.9271
  11   2.0000     -11.277128      -306.8662
  12   2.0000     -11.274319      -306.7898
  13   2.0000      -1.615249       -43.9532
  14   2.0000      -1.480750       -40.2933
  15   2.0000      -1.408594       -38.3298
  16   2.0000      -1.379157       -37.5288
  17   2.0000      -1.212979       -33.0068
  18   2.0000      -1.113684       -30.3049
  19   2.0000      -1.063903       -28.9503
  20   2.0000      -1.013227       -27.5713
  21   2.0000      -0.964350       -26.2413
  22   2.0000      -0.877848       -23.8875
  23   2.0000      -0.859222       -23.3806
  24   2.0000      -0.801265       -21.8035
  25   2.0000      -0.791281       -21.5318
  26   2.0000      -0.753731       -20.5101
  27   2.0000      -0.737623       -20.0717
  28   2.0000      -0.728585       -19.8258
  29   2.0000      -0.700344       -19.0573
  30   2.0000      -0.690667       -18.7940
  31   2.0000      -0.664356       -18.0781
  32   2.0000      -0.660657       -17.9774
  33   2.0000      -0.636747       -17.3268
  34   2.0000      -0.630386       -17.1537
  35   2.0000      -0.583377       -15.8745
  36   2.0000      -0.581433       -15.8216
  37   2.0000      -0.551062       -14.9952
  38   2.0000      -0.539032       -14.6678
  39   2.0000      -0.536027       -14.5860
  40   2.0000      -0.503836       -13.7101
  41   2.0000      -0.503391       -13.6980
  42   2.0000      -0.483155       -13.1473
  43   2.0000      -0.475459       -12.9379
  44   2.0000      -0.462807       -12.5936
  45   2.0000      -0.389363       -10.5951
  46   2.0000      -0.377511       -10.2726
  47   0.0000       0.015591         0.4243
  48   0.0000       0.018726         0.5096
  49   0.0000       0.028228         0.7681
  50   0.0000       0.028873         0.7857
  51   0.0000       0.038867         1.0576

MULLIKEN ATOMIC CHARGES
-----------------------
   0 C :   -0.054479
   1 C :   -0.091708
   2 C :   -0.141846
   3 C :   -0.181169
   4 C :   -0.531732
   5 C :   -0.107591
   6 C :    1.708812
   7 C :   -0.736551
   8 N :    0.770356
   9 O :   -0.836138
  10 O :   -0.607046
  11 O :   -0.607548
  12 O :   -0.731205
  13 H :    0.226179
  14 H :    0.224193
  15 H :    0.316846
  16 H :    0.326474
  17 H :    0.429601
  18 H :    0.312275
  19 H :    0.312275
Sum of atomic charges:   -0.0000000

LOEWDIN ATOMIC CHARGES
----------------------
   0 C :    0.344347
   1 C :    0.354657
   2 C :    0.343798
   3 C :    0.340425
   4 C :   -0.128800
   5 C :   -0.286514
   6 C :   -1.079221
   7 C :    0.598605
   8 N :   -0.830173
   9 O :    0.728186
  10 O :    0.546872
  11 O :    0.546036
  12 O :    0.836871
  13 H :   -0.333577
  14 H :   -0.336724
  15 H :   -0.347867
  16 H :   -0.349360
  17 H :   -0.320484
  18 H :   -0.313538
  19 H :   -0.313538

  Mayer bond orders larger than 0.100000
B(  0-C ,  2-C ) :   1.2290 B(  0-C ,  4-C ) :   1.0850 B(  0-C ,  5-C ) :  -0.2257
B(  0-C ,  6-C ) :  -0.4121 B(  0-C ,  9-O ) :  -0.1417 B(  0-C , 10-O ) :  -0.1073
B(  0-C , 13-H ) :   1.0204 B(  0-C , 15-H ) :  -0.1194 B(  1-C ,  2-C ) :   0.1244
B(  1-C ,  3-C ) :   1.1307 B(  1-C ,  4-C ) :   1.0137 B(  1-C ,  5-C ) :  -0.2774
B(  1-C ,  6-C ) :  -0.3199 B(  1-C , 12-O ) :  -0.1031 B(  1-C , 14-H ) :   1.0425
B(  1-C , 16-H ) :  -0.1384 B(  2-C ,  4-C ) :  -0.2495 B(  2-C ,  5-C ) :   1.1757
B(  2-C ,  8-N ) :  -0.1226 B(  2-C , 13-H ) :  -0.1435 B(  2-C , 15-H ) :   0.9336
B(  3-C ,  4-C ) :  -0.2520 B(  3-C ,  5-C ) :   1.2655 B(  3-C ,  8-N ) :  -0.1182
B(  3-C , 14-H ) :  -0.1284 B(  3-C , 16-H ) :   0.9405 B(  4-C ,  6-C ) :   1.1611
B(  4-C ,  9-O ) :   0.6694 B(  4-C , 12-O ) :   0.2371 B(  4-C , 14-H ) :  -0.1007
B(  5-C ,  8-N ) :   0.8264 B(  5-C , 10-O ) :   0.3325 B(  5-C , 11-O ) :   0.2969
B(  6-C ,  7-C ) :  -0.1485 B(  6-C ,  9-O ) :   0.9200 B(  6-C , 12-O ) :   0.8829
B(  7-C , 12-O ) :   0.8545 B(  7-C , 17-H ) :   0.8307 B(  7-C , 18-H ) :   0.9156
B(  7-C , 19-H ) :   0.9156 B(  8-N , 10-O ) :   1.1754 B(  8-N , 11-O ) :   1.1842

MP2 TOTAL ENERGY:     -663.689232958 Eh
FINAL SINGLE POINT ENERGY      -663.689232957955

DIPOLE MOMENT
-------------
                                X             Y             Z
Electronic contribution:     -3.26739     -10.01845      -0.00000
Nuclear contribution   :      4.22163      11.61987       0.00000
                        -----------------------------------------
Total Dipole Moment    :      0.95424       1.60142      -0.00000
                        -----------------------------------------
Magnitude (a.u.)       :      1.86417
Magnitude (Debye)      :      4.73834

Rotational constants in cm-1:     0.091572     0.012078     0.010692
Rotational constants in MHz :  2745.268352   362.082112   320.534210

                             ****ORCA TERMINATED NORMALLY****
TOTAL RUN TIME: 0 days 1 hours 42 minutes 26 seconds 154 msec
