                         Program Version 5.0.4 -  RELEASE  -
|  1> !ri-mp2 aug-cc-pvqz aug-cc-pvqz/c tightscf
|  2> %pal nprocs 16 end
|  3>
|  4> * xyz 0 1
|  5> O     2.016475   -1.532303    0.023208
|  6> O    -1.977891   -0.721593   -0.043326
|  7> O    -1.306736    1.428753    0.077244
|  8> N     0.673411   -1.516062    0.017123
|  9> N     2.549934   -0.243148    0.003763
| 10> N     1.568662    1.902573   -0.089651
| 11> C     0.322741   -0.259915   -0.006268
| 12> C     1.509470    0.550011   -0.017954
| 13> C    -1.061961    0.241317    0.012304
| 14> C    -3.352842   -0.290458   -0.016320
| 15> H     0.715764    2.400412    0.105126
| 16> H     2.442779    2.350901    0.120191
| 17> H    -3.562178    0.355303   -0.866446
| 18> H    -3.561230    0.246902    0.906438
| 19> H    -3.938417   -1.201652   -0.071525
| 20> *
| 21>
| 22>                          ****END OF INPUT****

CARTESIAN COORDINATES (ANGSTROEM)
---------------------------------
  O      2.016475   -1.532303    0.023208
  O     -1.977891   -0.721593   -0.043326
  O     -1.306736    1.428753    0.077244
  N      0.673411   -1.516062    0.017123
  N      2.549934   -0.243148    0.003763
  N      1.568662    1.902573   -0.089651
  C      0.322741   -0.259915   -0.006268
  C      1.509470    0.550011   -0.017954
  C     -1.061961    0.241317    0.012304
  C     -3.352842   -0.290458   -0.016320
  H      0.715764    2.400412    0.105126
  H      2.442779    2.350901    0.120191
  H     -3.562178    0.355303   -0.866446
  H     -3.561230    0.246902    0.906438
  H     -3.938417   -1.201652   -0.071525

 Total Charge           Charge          ....    0
 Multiplicity           Mult            ....    1
 Number of Electrons    NEL             ....   74
 Basis Dimension        Dim             .... 1030

ORBITAL ENERGIES
----------------

  NO   OCC          E(Eh)            E(eV)
   0   2.0000     -20.683655      -562.8309
   1   2.0000     -20.629090      -561.3461
   2   2.0000     -20.576487      -559.9147
   3   2.0000     -15.685117      -426.8137
   4   2.0000     -15.627813      -425.2544
   5   2.0000     -15.593751      -424.3275
   6   2.0000     -11.420991      -310.7810
   7   2.0000     -11.343916      -308.6836
   8   2.0000     -11.309495      -307.7470
   9   2.0000     -11.304408      -307.6086
  10   2.0000      -1.549643       -42.1679
  11   2.0000      -1.492323       -40.6082
  12   2.0000      -1.391803       -37.8729
  13   2.0000      -1.277628       -34.7660
  14   2.0000      -1.214940       -33.0602
  15   2.0000      -1.145279       -31.1646
  16   2.0000      -1.013054       -27.5666
  17   2.0000      -0.921222       -25.0677
  18   2.0000      -0.859590       -23.3906
  19   2.0000      -0.814852       -22.1732
  20   2.0000      -0.764368       -20.7995
  21   2.0000      -0.728340       -19.8191
  22   2.0000      -0.709005       -19.2930
  23   2.0000      -0.706756       -19.2318
  24   2.0000      -0.694247       -18.8914
  25   2.0000      -0.688023       -18.7221
  26   2.0000      -0.635490       -17.2926
  27   2.0000      -0.601896       -16.3784
  28   2.0000      -0.584215       -15.8973
  29   2.0000      -0.554689       -15.0938
  30   2.0000      -0.542346       -14.7580
  31   2.0000      -0.531263       -14.4564
  32   2.0000      -0.493694       -13.4341
  33   2.0000      -0.492363       -13.3979
  34   2.0000      -0.490653       -13.3514
  35   2.0000      -0.439338       -11.9550
  36   2.0000      -0.377615       -10.2754
  37   0.0000       0.020924         0.5694
  38   0.0000       0.026667         0.7256
  39   0.0000       0.038761         1.0547
  40   0.0000       0.040068         1.0903
  41   0.0000       0.053123         1.4455

MULLIKEN ATOMIC CHARGES
-----------------------
   0 O :   -0.385665
   1 O :   -0.632806
   2 O :   -0.788070
   3 N :   -0.206394
   4 N :   -0.374365
   5 N :   -0.785334
   6 C :   -0.080307
   7 C :    0.685738
   8 C :    1.557954
   9 C :   -0.719921
  10 H :    0.323107
  11 H :    0.325030
  12 H :    0.316181
  13 H :    0.315606
  14 H :    0.449246
Sum of atomic charges:   -0.0000000

LOEWDIN ATOMIC CHARGES
----------------------
   0 O :    0.337522
   1 O :    0.836750
   2 O :    0.745006
   3 N :    0.238730
   4 N :    0.267082
   5 N :    1.253170
   6 C :   -0.515049
   7 C :   -0.644931
   8 C :   -1.105527
   9 C :    0.604886
  10 H :   -0.587441
  11 H :   -0.485809
  12 H :   -0.312631
  13 H :   -0.312188
  14 H :   -0.319569

  Mayer bond orders larger than 0.100000
B(  0-O ,  3-N ) :   0.8886 B(  0-O ,  4-N ) :   0.7225 B(  1-O ,  2-O ) :   0.1213
B(  1-O ,  8-C ) :   0.9356 B(  1-O ,  9-C ) :   0.8393 B(  2-O ,  6-C ) :   0.2757
B(  2-O ,  8-C ) :   1.2188 B(  3-N ,  6-C ) :   1.1337 B(  4-N ,  7-C ) :   1.3051
B(  5-N ,  7-C ) :   1.1716 B(  5-N , 10-H ) :   0.8776 B(  5-N , 11-H ) :   0.8827
B(  6-C ,  7-C ) :   1.1776 B(  6-C ,  8-C ) :   0.9586 B(  7-C ,  8-C ) :  -0.2227
B(  9-C , 12-H ) :   0.9115 B(  9-C , 13-H ) :   0.9139 B(  9-C , 14-H ) :   0.8117

MP2 TOTAL ENERGY:     -544.556308896 Eh
FINAL SINGLE POINT ENERGY      -544.556308895738

DIPOLE MOMENT
-------------
                                X             Y             Z
Electronic contribution:      6.48595      -3.10584      -0.00624
Nuclear contribution   :     -7.66759       4.02038       0.18868
                        -----------------------------------------
Total Dipole Moment    :     -1.18164       0.91454       0.18244
                        -----------------------------------------
Magnitude (a.u.)       :      1.50530
Magnitude (Debye)      :      3.82618

Rotational constants in cm-1:     0.092153     0.032828     0.024336
Rotational constants in MHz :  2762.663802   984.158851   729.580597

                             ****ORCA TERMINATED NORMALLY****
TOTAL RUN TIME: 0 days 0 hours 43 minutes 28 seconds 742 msec
