                         Program Version 5.0.4 -  RELEASE  -
|  1> !ri-mp2 aug-cc-pvqz aug-cc-pvqz/c tightscf
|  2> %pal nprocs 16 end
|  3>
|  4> * xyz 0 1
|  5> O      0.168175    0.731979   -0.169936
|  6> O     -0.875385    0.011600    0.633516
|  7> N      2.292619   -0.465281   -0.025231
|  8> C      1.271007    0.074684   -0.071494
|  9> C     -1.910219   -0.317169   -0.281016
| 10> H     -2.328484    0.577593   -0.741855
| 11> H     -1.568489   -1.027299   -1.034576
| 12> H     -2.658412   -0.787050    0.359468
| 13> *
| 14>
| 15>                          ****END OF INPUT****

CARTESIAN COORDINATES (ANGSTROEM)
---------------------------------
  O      0.168175    0.731979   -0.169936
  O     -0.875385    0.011600    0.633516
  N      2.292619   -0.465281   -0.025231
  C      1.271007    0.074684   -0.071494
  C     -1.910219   -0.317169   -0.281016
  H     -2.328484    0.577593   -0.741855
  H     -1.568489   -1.027299   -1.034576
  H     -2.658412   -0.787050    0.359468

 Total Charge           Charge          ....    0
 Multiplicity           Mult            ....    1
 Number of Electrons    NEL             ....   38
 Basis Dimension        Dim             ....  538

ORBITAL ENERGIES
----------------

  NO   OCC          E(Eh)            E(eV)
   0   2.0000     -20.710847      -563.5708
   1   2.0000     -20.698576      -563.2369
   2   2.0000     -15.577902      -423.8963
   3   2.0000     -11.339507      -308.5637
   4   2.0000     -11.321375      -308.0703
   5   2.0000      -1.550838       -42.2004
   6   2.0000      -1.345933       -36.6247
   7   2.0000      -1.218510       -33.1573
   8   2.0000      -0.970000       -26.3950
   9   2.0000      -0.824556       -22.4373
  10   2.0000      -0.734260       -19.9802
  11   2.0000      -0.722205       -19.6522
  12   2.0000      -0.661736       -18.0068
  13   2.0000      -0.620586       -16.8870
  14   2.0000      -0.586984       -15.9727
  15   2.0000      -0.571344       -15.5471
  16   2.0000      -0.525960       -14.3121
  17   2.0000      -0.467109       -12.7107
  18   2.0000      -0.451730       -12.2922
  19   0.0000       0.018327         0.4987
  20   0.0000       0.034347         0.9346
  21   0.0000       0.038143         1.0379
  22   0.0000       0.051846         1.4108
  23   0.0000       0.070262         1.9119

MULLIKEN ATOMIC CHARGES
-----------------------
   0 O :   -0.430471
   1 O :   -0.314440
   2 N :   -0.610574
   3 C :    0.875556
   4 C :   -0.455767
   5 H :    0.285332
   6 H :    0.283981
   7 H :    0.366382
Sum of atomic charges:    0.0000000

LOEWDIN ATOMIC CHARGES
----------------------
   0 O :    0.442964
   1 O :    0.568502
   2 N :    0.312973
   3 C :   -0.870547
   4 C :    0.527085
   5 H :   -0.320425
   6 H :   -0.318196
   7 H :   -0.342355

  Mayer bond orders larger than 0.100000
B(  0-O ,  1-O ) :   0.7806 B(  0-O ,  3-C ) :   1.0845 B(  1-O ,  4-C ) :   0.7941
B(  2-N ,  3-C ) :   2.6768 B(  4-C ,  5-H ) :   0.9144 B(  4-C ,  6-H ) :   0.9045
B(  4-C ,  7-H ) :   0.8579

MP2 TOTAL ENERGY:     -282.687828416 Eh
FINAL SINGLE POINT ENERGY      -282.687828415770

DIPOLE MOMENT
-------------
                                X             Y             Z
Electronic contribution:      4.44214       1.28623       1.01046
Nuclear contribution   :     -6.40199      -1.19946      -1.37730
                        -----------------------------------------
Total Dipole Moment    :     -1.95985       0.08677      -0.36684
                        -----------------------------------------
Magnitude (a.u.)       :      1.99577
Magnitude (Debye)      :      5.07285

Rotational constants in cm-1:     0.689625     0.097050     0.094171
Rotational constants in MHz : 20674.426213  2909.487087  2823.164641

                             ****ORCA TERMINATED NORMALLY****
TOTAL RUN TIME: 0 days 0 hours 4 minutes 22 seconds 5 msec
