                         Program Version 5.0.4 -  RELEASE  -
|  1> !ri-mp2 aug-cc-pvqz aug-cc-pvqz/c tightscf
|  2> %pal nprocs 16 end
|  3>
|  4> * xyz 0 1
|  5> C     -1.629703    2.519691    0.000000
|  6> C     -0.245437    2.661629    0.000000
|  7> C     -2.199329    1.250750    0.000000
|  8> C      0.567055    1.537570    0.000000
|  9> C     -1.389364    0.123082    0.000000
| 10> C      0.000000    0.261893    0.000000
| 11> C      0.918942   -0.909822    0.000000
| 12> C      1.082579   -3.263273    0.000000
| 13> O      2.125324   -0.833326    0.000000
| 14> O      0.258943   -2.087035    0.000000
| 15> H     -2.263404    3.396510    0.000000
| 16> H      0.198432    3.647794    0.000000
| 17> H     -3.275165    1.139998    0.000000
| 18> H      1.643793    1.627324    0.000000
| 19> H     -1.827393   -0.863439    0.000000
| 20> H      1.713986   -3.286294    0.886283
| 21> H      1.713986   -3.286294   -0.886283
| 22> H      0.393171   -4.101840    0.000000
| 23> *
| 24>
| 25>                          ****END OF INPUT****

CARTESIAN COORDINATES (ANGSTROEM)
---------------------------------
  C     -1.629703    2.519691    0.000000
  C     -0.245437    2.661629    0.000000
  C     -2.199329    1.250750    0.000000
  C      0.567055    1.537570    0.000000
  C     -1.389364    0.123082    0.000000
  C      0.000000    0.261893    0.000000
  C      0.918942   -0.909822    0.000000
  C      1.082579   -3.263273    0.000000
  O      2.125324   -0.833326    0.000000
  O      0.258943   -2.087035    0.000000
  H     -2.263404    3.396510    0.000000
  H      0.198432    3.647794    0.000000
  H     -3.275165    1.139998    0.000000
  H      1.643793    1.627324    0.000000
  H     -1.827393   -0.863439    0.000000
  H      1.713986   -3.286294    0.886283
  H      1.713986   -3.286294   -0.886283
  H      0.393171   -4.101840    0.000000

 Total Charge           Charge          ....    0
 Multiplicity           Mult            ....    1
 Number of Electrons    NEL             ....   72
 Basis Dimension        Dim             .... 1168

ORBITAL ENERGIES
----------------

  NO   OCC          E(Eh)            E(eV)
   0   2.0000     -20.601133      -560.5853
   1   2.0000     -20.539372      -558.9047
   2   2.0000     -11.381145      -309.6967
   3   2.0000     -11.284684      -307.0719
   4   2.0000     -11.251405      -306.1663
   5   2.0000     -11.250342      -306.1374
   6   2.0000     -11.249699      -306.1199
   7   2.0000     -11.247004      -306.0465
   8   2.0000     -11.242045      -305.9116
   9   2.0000     -11.241238      -305.8896
  10   2.0000      -1.459347       -39.7108
  11   2.0000      -1.357097       -36.9285
  12   2.0000      -1.168657       -31.8008
  13   2.0000      -1.050861       -28.5954
  14   2.0000      -1.028600       -27.9896
  15   2.0000      -0.972389       -26.4600
  16   2.0000      -0.865382       -23.5482
  17   2.0000      -0.838338       -22.8123
  18   2.0000      -0.778778       -21.1916
  19   2.0000      -0.739193       -20.1145
  20   2.0000      -0.686300       -18.6752
  21   2.0000      -0.672484       -18.2992
  22   2.0000      -0.671941       -18.2845
  23   2.0000      -0.633461       -17.2373
  24   2.0000      -0.628978       -17.1154
  25   2.0000      -0.601173       -16.3588
  26   2.0000      -0.584992       -15.9184
  27   2.0000      -0.560844       -15.2614
  28   2.0000      -0.532990       -14.5034
  29   2.0000      -0.523133       -14.2352
  30   2.0000      -0.508098       -13.8260
  31   2.0000      -0.503456       -13.6997
  32   2.0000      -0.464437       -12.6380
  33   2.0000      -0.452535       -12.3141
  34   2.0000      -0.351867        -9.5748
  35   2.0000      -0.347803        -9.4642
  36   0.0000       0.022947         0.6244
  37   0.0000       0.026914         0.7324
  38   0.0000       0.030847         0.8394
  39   0.0000       0.039557         1.0764
  40   0.0000       0.042772         1.1639

MULLIKEN ATOMIC CHARGES
-----------------------
   0 C :   -0.312886
   1 C :   -0.321319
   2 C :   -0.351926
   3 C :   -0.178135
   4 C :   -0.246476
   5 C :   -0.502557
   6 C :    1.694410
   7 C :   -0.717446
   8 O :   -0.823840
   9 O :   -0.715421
  10 H :    0.313859
  11 H :    0.245826
  12 H :    0.253291
  13 H :    0.303513
  14 H :    0.324043
  15 H :    0.301059
  16 H :    0.301059
  17 H :    0.432946
Sum of atomic charges:    0.0000000

LOEWDIN ATOMIC CHARGES
----------------------
   0 C :    0.345301
   1 C :    0.356213
   2 C :    0.353193
   3 C :    0.317158
   4 C :    0.326676
   5 C :   -0.150047
   6 C :   -1.086610
   7 C :    0.586209
   8 O :    0.718945
   9 O :    0.833483
  10 H :   -0.318276
  11 H :   -0.322549
  12 H :   -0.323371
  13 H :   -0.338135
  14 H :   -0.342334
  15 H :   -0.316228
  16 H :   -0.316228
  17 H :   -0.323400

  Mayer bond orders larger than 0.100000
B(  0-C ,  1-C ) :   1.1686 B(  0-C ,  2-C ) :   1.2172 B(  0-C ,  5-C ) :   0.1188
B(  0-C , 10-H ) :   1.0116 B(  1-C ,  3-C ) :   1.2927 B(  1-C ,  4-C ) :   0.1011
B(  1-C ,  5-C ) :  -0.3299 B(  1-C , 11-H ) :   1.1263 B(  2-C ,  3-C ) :   0.1352
B(  2-C ,  4-C ) :   1.1572 B(  2-C ,  5-C ) :  -0.3028 B(  2-C , 12-H ) :   1.1420
B(  3-C ,  5-C ) :   1.1556 B(  3-C ,  6-C ) :  -0.4065 B(  3-C , 11-H ) :  -0.1219
B(  3-C , 13-H ) :   0.8897 B(  4-C ,  5-C ) :   1.1270 B(  4-C ,  6-C ) :  -0.3677
B(  4-C , 12-H ) :  -0.1506 B(  4-C , 14-H ) :   0.9069 B(  5-C ,  6-C ) :   1.0288
B(  5-C ,  8-O ) :   0.4359 B(  5-C ,  9-O ) :   0.1656 B(  5-C , 14-H ) :  -0.1098
B(  6-C ,  7-C ) :  -0.1089 B(  6-C ,  8-O ) :   1.0061 B(  6-C ,  9-O ) :   0.8815
B(  7-C ,  9-O ) :   0.8361 B(  7-C , 15-H ) :   0.9226 B(  7-C , 16-H ) :   0.9226
B(  7-C , 17-H ) :   0.8259 B(  8-O ,  9-O ) :   0.1032

MP2 TOTAL ENERGY:     -459.397972831 Eh
FINAL SINGLE POINT ENERGY      -459.397972830563

DIPOLE MOMENT
-------------
                                X             Y             Z
Electronic contribution:      0.79921       1.70015      -0.00000
Nuclear contribution   :     -1.65365      -1.76019       0.00000
                        -----------------------------------------
Total Dipole Moment    :     -0.85444      -0.06003      -0.00000
                        -----------------------------------------
Magnitude (a.u.)       :      0.85654
Magnitude (Debye)      :      2.17716

Rotational constants in cm-1:     0.118104     0.028069     0.022776
Rotational constants in MHz :  3540.673166   841.476820   682.802563

                             ****ORCA TERMINATED NORMALLY****
TOTAL RUN TIME: 0 days 1 hours 37 minutes 16 seconds 464 msec
