                         Program Version 5.0.4 -  RELEASE  -
|  1> !ri-mp2 aug-cc-pvqz aug-cc-pvqz/c tightscf
|  2> %pal nprocs 16 end
|  3>
|  4> * xyz 0 1
|  5> C      2.288662    0.176351    0.057230
|  6> C      1.130294   -0.527360   -0.632556
|  7> C     -0.786688    1.583975   -0.306161
|  8> S     -0.501180   -0.154526    0.071483
|  9> O     -0.417269   -0.287283    1.523670
| 10> O     -1.483277   -0.935076   -0.675425
| 11> H      2.280785   -0.024085    1.126808
| 12> H      3.231448   -0.185743   -0.353456
| 13> H      2.258771    1.255472   -0.093143
| 14> H      1.185809   -1.610963   -0.523095
| 15> H      1.058079   -0.300708   -1.695857
| 16> H     -0.772893    1.722266   -1.384003
| 17> H     -1.774988    1.803771    0.091152
| 18> H     -0.037380    2.193478    0.190821
| 19> *
| 20>
| 21>                          ****END OF INPUT****

CARTESIAN COORDINATES (ANGSTROEM)
---------------------------------
  C      2.288662    0.176351    0.057230
  C      1.130294   -0.527360   -0.632556
  C     -0.786688    1.583975   -0.306161
  S     -0.501180   -0.154526    0.071483
  O     -0.417269   -0.287283    1.523670
  O     -1.483277   -0.935076   -0.675425
  H      2.280785   -0.024085    1.126808
  H      3.231448   -0.185743   -0.353456
  H      2.258771    1.255472   -0.093143
  H      1.185809   -1.610963   -0.523095
  H      1.058079   -0.300708   -1.695857
  H     -0.772893    1.722266   -1.384003
  H     -1.774988    1.803771    0.091152
  H     -0.037380    2.193478    0.190821

 Total Charge           Charge          ....    0
 Multiplicity           Mult            ....    1
 Number of Electrons    NEL             ....   58
 Basis Dimension        Dim             ....  852

ORBITAL ENERGIES
----------------

  NO   OCC          E(Eh)            E(eV)
   0   2.0000     -92.168915     -2508.0437
   1   2.0000     -20.538046      -558.8686
   2   2.0000     -20.537541      -558.8549
   3   2.0000     -11.281215      -306.9775
   4   2.0000     -11.275983      -306.8351
   5   2.0000     -11.247696      -306.0654
   6   2.0000      -9.138916      -248.6825
   7   2.0000      -6.824216      -185.6964
   8   2.0000      -6.823520      -185.6774
   9   2.0000      -6.823153      -185.6674
  10   2.0000      -1.436742       -39.0957
  11   2.0000      -1.326238       -36.0888
  12   2.0000      -1.090618       -29.6772
  13   2.0000      -1.030098       -28.0304
  14   2.0000      -0.918203       -24.9856
  15   2.0000      -0.801424       -21.8078
  16   2.0000      -0.685899       -18.6643
  17   2.0000      -0.677360       -18.4319
  18   2.0000      -0.652554       -17.7569
  19   2.0000      -0.636733       -17.3264
  20   2.0000      -0.603577       -16.4242
  21   2.0000      -0.596528       -16.2323
  22   2.0000      -0.581485       -15.8230
  23   2.0000      -0.551881       -15.0174
  24   2.0000      -0.533245       -14.5103
  25   2.0000      -0.490698       -13.3526
  26   2.0000      -0.488797       -13.3008
  27   2.0000      -0.464476       -12.6390
  28   2.0000      -0.431256       -11.7351
  29   0.0000       0.018324         0.4986
  30   0.0000       0.027869         0.7584
  31   0.0000       0.032704         0.8899
  32   0.0000       0.038175         1.0388
  33   0.0000       0.047711         1.2983

MULLIKEN ATOMIC CHARGES
-----------------------
   0 C :   -0.843648
   1 C :   -0.552841
   2 C :   -1.043176
   3 S :    2.505218
   4 O :   -1.268932
   5 O :   -1.328293
   6 H :    0.271500
   7 H :    0.314261
   8 H :    0.229582
   9 H :    0.331668
  10 H :    0.306629
  11 H :    0.323842
  12 H :    0.406198
  13 H :    0.347993
Sum of atomic charges:   -0.0000000

LOEWDIN ATOMIC CHARGES
----------------------
   0 C :    0.890395
   1 C :    0.409803
   2 C :    0.832785
   3 S :   -0.198544
   4 O :    0.298487
   5 O :    0.293918
   6 H :   -0.301330
   7 H :   -0.280991
   8 H :   -0.297253
   9 H :   -0.331704
  10 H :   -0.322224
  11 H :   -0.324504
  12 H :   -0.333980
  13 H :   -0.334859

  Mayer bond orders larger than 0.100000
B(  0-C ,  1-C ) :   0.9614 B(  0-C ,  6-H ) :   0.9243 B(  0-C ,  7-H ) :   0.9161
B(  0-C ,  8-H ) :   0.9567 B(  1-C ,  3-S ) :   0.9031 B(  1-C ,  9-H ) :   0.8239
B(  1-C , 10-H ) :   0.8806 B(  2-C ,  3-S ) :   0.9066 B(  2-C , 11-H ) :   0.8836
B(  2-C , 12-H ) :   0.8328 B(  2-C , 13-H ) :   0.8913 B(  3-S ,  4-O ) :   0.9139
B(  3-S ,  5-O ) :   0.8432

MP2 TOTAL ENERGY:     -666.925290768 Eh
FINAL SINGLE POINT ENERGY      -666.925290768410

DIPOLE MOMENT
-------------
                                X             Y             Z
Electronic contribution:     -6.06844      -3.58910       1.70946
Nuclear contribution   :      7.46815       4.87358      -2.64841
                        -----------------------------------------
Total Dipole Moment    :      1.39971       1.28449      -0.93895
                        -----------------------------------------
Magnitude (a.u.)       :      2.11913
Magnitude (Debye)      :      5.38641

Rotational constants in cm-1:     0.138131     0.078156     0.075366
Rotational constants in MHz :  4141.072994  2343.058360  2259.428298

                             ****ORCA TERMINATED NORMALLY****
TOTAL RUN TIME: 0 days 0 hours 30 minutes 36 seconds 426 msec
