                         Program Version 5.0.4 -  RELEASE  -
|  1> !ri-mp2 aug-cc-pvqz aug-cc-pvqz/c tightscf
|  2> %pal nprocs 16 end
|  3>
|  4> * xyz 0 1
|  5> C      0.233750   -0.388334    1.091648
|  6> C      0.233750   -0.388334   -1.091648
|  7> C     -0.103047    0.613325    0.000000
|  8> C      0.233750   -1.499323    0.000000
|  9> C     -0.627950    1.827559    0.000000
| 10> H     -0.477778   -0.485850    1.911239
| 11> H     -0.477778   -0.485850   -1.911239
| 12> H      1.227026   -0.224070    1.515020
| 13> H      1.227026   -0.224070   -1.515020
| 14> H     -0.853925    2.345913    0.923515
| 15> H     -0.853925    2.345913   -0.923515
| 16> H      1.077726   -2.185964    0.000000
| 17> H     -0.689886   -2.075382    0.000000
| 18> *
| 19>
| 20>                          ****END OF INPUT****

CARTESIAN COORDINATES (ANGSTROEM)
---------------------------------
  C      0.233750   -0.388334    1.091648
  C      0.233750   -0.388334   -1.091648
  C     -0.103047    0.613325    0.000000
  C      0.233750   -1.499323    0.000000
  C     -0.627950    1.827559    0.000000
  H     -0.477778   -0.485850    1.911239
  H     -0.477778   -0.485850   -1.911239
  H      1.227026   -0.224070    1.515020
  H      1.227026   -0.224070   -1.515020
  H     -0.853925    2.345913    0.923515
  H     -0.853925    2.345913   -0.923515
  H      1.077726   -2.185964    0.000000
  H     -0.689886   -2.075382    0.000000

 Total Charge           Charge          ....    0
 Multiplicity           Mult            ....    1
 Number of Electrons    NEL             ....   38
 Basis Dimension        Dim             ....  768

ORBITAL ENERGIES
----------------

  NO   OCC          E(Eh)            E(eV)
   0   2.0000     -11.233554      -305.6805
   1   2.0000     -11.223502      -305.4070
   2   2.0000     -11.223223      -305.3994
   3   2.0000     -11.222725      -305.3859
   4   2.0000     -11.207364      -304.9679
   5   2.0000      -1.136727       -30.9319
   6   2.0000      -0.986587       -26.8464
   7   2.0000      -0.907376       -24.6910
   8   2.0000      -0.827552       -22.5188
   9   2.0000      -0.707000       -19.2384
  10   2.0000      -0.644607       -17.5407
  11   2.0000      -0.635061       -17.2809
  12   2.0000      -0.598780       -16.2936
  13   2.0000      -0.543325       -14.7846
  14   2.0000      -0.499155       -13.5827
  15   2.0000      -0.473574       -12.8866
  16   2.0000      -0.468432       -12.7467
  17   2.0000      -0.442331       -12.0364
  18   2.0000      -0.347903        -9.4669
  19   0.0000       0.028256         0.7689
  20   0.0000       0.032764         0.8915
  21   0.0000       0.034948         0.9510
  22   0.0000       0.036152         0.9837
  23   0.0000       0.049932         1.3587

MULLIKEN ATOMIC CHARGES
-----------------------
   0 C :   -0.504949
   1 C :   -0.504949
   2 C :    0.018381
   3 C :   -0.551122
   4 C :   -0.766374
   5 H :    0.304310
   6 H :    0.304310
   7 H :    0.270445
   8 H :    0.270446
   9 H :    0.310637
  10 H :    0.310637
  11 H :    0.270735
  12 H :    0.267490
Sum of atomic charges:    0.0000000

LOEWDIN ATOMIC CHARGES
----------------------
   0 C :    0.524466
   1 C :    0.524466
   2 C :   -0.055313
   3 C :    0.537372
   4 C :    0.808657
   5 H :   -0.265393
   6 H :   -0.265393
   7 H :   -0.271291
   8 H :   -0.271291
   9 H :   -0.364254
  10 H :   -0.364254
  11 H :   -0.264137
  12 H :   -0.273635

  Mayer bond orders larger than 0.100000
B(  0-C ,  2-C ) :   0.8620 B(  0-C ,  3-C ) :   1.0614 B(  0-C ,  5-H ) :   0.8946
B(  0-C ,  7-H ) :   0.8933 B(  1-C ,  2-C ) :   0.8620 B(  1-C ,  3-C ) :   1.0614
B(  1-C ,  6-H ) :   0.8946 B(  1-C ,  8-H ) :   0.8933 B(  2-C ,  3-C ) :  -0.1263
B(  2-C ,  4-C ) :   1.5659 B(  3-C , 11-H ) :   0.9097 B(  3-C , 12-H ) :   0.8960
B(  4-C ,  9-H ) :   0.9815 B(  4-C , 10-H ) :   0.9815

MP2 TOTAL ENERGY:     -194.910204061 Eh
FINAL SINGLE POINT ENERGY      -194.910204060707

DIPOLE MOMENT
-------------
                                X             Y             Z
Electronic contribution:     -0.10601       0.80029       0.00000
Nuclear contribution   :      0.18699      -1.03653       0.00000
                        -----------------------------------------
Total Dipole Moment    :      0.08098      -0.23624       0.00000
                        -----------------------------------------
Magnitude (a.u.)       :      0.24974
Magnitude (Debye)      :      0.63478

Rotational constants in cm-1:     0.349076     0.153921     0.115539
Rotational constants in MHz : 10465.029066  4614.429823  3463.762590

                             ****ORCA TERMINATED NORMALLY****
TOTAL RUN TIME: 0 days 0 hours 19 minutes 58 seconds 822 msec
