                         Program Version 5.0.4 -  RELEASE  -
|  1> !ri-mp2 aug-cc-pvqz aug-cc-pvqz/c tightscf
|  2> %pal nprocs 16 end
|  3>
|  4> * xyz 0 1
|  5> C      0.048051    1.161675    0.000000
|  6> S      0.048051   -0.668872    0.000000
|  7> H     -0.431921    1.553804    0.892468
|  8> H     -0.431921    1.553804   -0.892468
|  9> H      1.092879    1.462961    0.000000
| 10> H     -1.286160   -0.838674    0.000000
| 11> *
| 12>
| 13>                          ****END OF INPUT****

CARTESIAN COORDINATES (ANGSTROEM)
---------------------------------
  C      0.048051    1.161675    0.000000
  S      0.048051   -0.668872    0.000000
  H     -0.431921    1.553804    0.892468
  H     -0.431921    1.553804   -0.892468
  H      1.092879    1.462961    0.000000
  H     -1.286160   -0.838674    0.000000

 Total Charge           Charge          ....    0
 Multiplicity           Mult            ....    1
 Number of Electrons    NEL             ....   26
 Basis Dimension        Dim             ....  348

ORBITAL ENERGIES
----------------

  NO   OCC          E(Eh)            E(eV)
   0   2.0000     -91.952138     -2502.1449
   1   2.0000     -11.257986      -306.3454
   2   2.0000      -8.953968      -243.6499
   3   2.0000      -6.635586      -180.5635
   4   2.0000      -6.634660      -180.5383
   5   2.0000      -6.633724      -180.5128
   6   2.0000      -1.034072       -28.1385
   7   2.0000      -0.867496       -23.6058
   8   2.0000      -0.607357       -16.5270
   9   2.0000      -0.592737       -16.1292
  10   2.0000      -0.527598       -14.3567
  11   2.0000      -0.458536       -12.4774
  12   2.0000      -0.357761        -9.7352
  13   0.0000       0.026068         0.7093
  14   0.0000       0.036759         1.0003
  15   0.0000       0.042229         1.1491
  16   0.0000       0.045492         1.2379
  17   0.0000       0.072471         1.9720

MULLIKEN ATOMIC CHARGES
-----------------------
   0 C :   -0.783042
   1 S :   -0.092078
   2 H :    0.258177
   3 H :    0.258177
   4 H :    0.289008
   5 H :    0.069757
Sum of atomic charges:    0.0000000

LOEWDIN ATOMIC CHARGES
----------------------
   0 C :    0.489175
   1 S :    1.501619
   2 H :   -0.385688
   3 H :   -0.385688
   4 H :   -0.410235
   5 H :   -0.809183

  Mayer bond orders larger than 0.100000
B(  0-C ,  1-S ) :   0.9817 B(  0-C ,  2-H ) :   0.9157 B(  0-C ,  3-H ) :   0.9157
B(  0-C ,  4-H ) :   0.8970 B(  1-S ,  5-H ) :   1.0016

MP2 TOTAL ENERGY:     -438.157389752 Eh
FINAL SINGLE POINT ENERGY      -438.157389751680

DIPOLE MOMENT
-------------
                                X             Y             Z
Electronic contribution:      0.77817      -3.21949      -0.00000
Nuclear contribution   :     -1.07460       3.80924       0.00000
                        -----------------------------------------
Total Dipole Moment    :     -0.29643       0.58975      -0.00000
                        -----------------------------------------
Magnitude (a.u.)       :      0.66006
Magnitude (Debye)      :      1.67773

Rotational constants in cm-1:     3.440951     0.425321     0.407951
Rotational constants in MHz : 103157.116820 12750.809537 12230.060615

                             ****ORCA TERMINATED NORMALLY****
TOTAL RUN TIME: 0 days 0 hours 1 minutes 39 seconds 213 msec
