                         Program Version 5.0.4 -  RELEASE  -
|  1> !ri-mp2 aug-cc-pvqz aug-cc-pvqz/c tightscf
|  2> %pal nprocs 16 end
|  3>
|  4> * xyz 0 1
|  5> C     -1.779558   -0.307747   -0.176939
|  6> C     -0.520387    0.167305    0.499192
|  7> C      0.364858    1.153255   -0.152316
|  8> S      1.096395   -0.525749   -0.053924
|  9> H     -1.640106   -0.377917   -1.255255
| 10> H     -2.077985   -1.288840    0.191938
| 11> H     -2.597663    0.389956    0.023094
| 12> H     -0.579906    0.234408    1.579077
| 13> H      0.109461    1.476866   -1.153106
| 14> H      0.854404    1.900623    0.457404
| 15> *
| 16>
| 17>                          ****END OF INPUT****

CARTESIAN COORDINATES (ANGSTROEM)
---------------------------------
  C     -1.779558   -0.307747   -0.176939
  C     -0.520387    0.167305    0.499192
  C      0.364858    1.153255   -0.152316
  S      1.096395   -0.525749   -0.053924
  H     -1.640106   -0.377917   -1.255255
  H     -2.077985   -1.288840    0.191938
  H     -2.597663    0.389956    0.023094
  H     -0.579906    0.234408    1.579077
  H      0.109461    1.476866   -1.153106
  H      0.854404    1.900623    0.457404

 Total Charge           Charge          ....    0
 Multiplicity           Mult            ....    1
 Number of Electrons    NEL             ....   40
 Basis Dimension        Dim             ....  600

ORBITAL ENERGIES
----------------

  NO   OCC          E(Eh)            E(eV)
   0   2.0000     -91.936934     -2501.7312
   1   2.0000     -11.280204      -306.9500
   2   2.0000     -11.270777      -306.6934
   3   2.0000     -11.230369      -305.5939
   4   2.0000      -8.938921      -243.2404
   5   2.0000      -6.620115      -180.1425
   6   2.0000      -6.619093      -180.1147
   7   2.0000      -6.617862      -180.0812
   8   2.0000      -1.146106       -31.1871
   9   2.0000      -0.978848       -26.6358
  10   2.0000      -0.835139       -22.7253
  11   2.0000      -0.793185       -21.5837
  12   2.0000      -0.664245       -18.0750
  13   2.0000      -0.606255       -16.4970
  14   2.0000      -0.579511       -15.7693
  15   2.0000      -0.547537       -14.8992
  16   2.0000      -0.521661       -14.1951
  17   2.0000      -0.429853       -11.6969
  18   2.0000      -0.407878       -11.0989
  19   2.0000      -0.342716        -9.3258
  20   0.0000       0.025406         0.6913
  21   0.0000       0.032676         0.8892
  22   0.0000       0.034420         0.9366
  23   0.0000       0.041917         1.1406
  24   0.0000       0.050669         1.3788

MULLIKEN ATOMIC CHARGES
-----------------------
   0 C :   -0.832755
   1 C :   -0.222320
   2 C :   -0.652832
   3 S :   -0.085682
   4 H :    0.263364
   5 H :    0.252899
   6 H :    0.241051
   7 H :    0.387903
   8 H :    0.321146
   9 H :    0.327226
Sum of atomic charges:   -0.0000000

LOEWDIN ATOMIC CHARGES
----------------------
   0 C :    0.853480
   1 C :   -0.293917
   2 C :    0.143025
   3 S :    1.243947
   4 H :   -0.316102
   5 H :   -0.295742
   6 H :   -0.285208
   7 H :   -0.349010
   8 H :   -0.353070
   9 H :   -0.347403

  Mayer bond orders larger than 0.100000
B(  0-C ,  1-C ) :   0.8445 B(  0-C ,  4-H ) :   0.9308 B(  0-C ,  5-H ) :   0.9806
B(  0-C ,  6-H ) :   0.9571 B(  1-C ,  2-C ) :   1.0334 B(  1-C ,  3-S ) :   0.8974
B(  1-C ,  7-H ) :   0.7785 B(  2-C ,  3-S ) :   0.9850 B(  2-C ,  8-H ) :   0.8770
B(  2-C ,  9-H ) :   0.8699

MP2 TOTAL ENERGY:     -515.418235072 Eh
FINAL SINGLE POINT ENERGY      -515.418235072062

DIPOLE MOMENT
-------------
                                X             Y             Z
Electronic contribution:      5.30657      -1.78339       0.27835
Nuclear contribution   :     -6.04463       2.38246      -0.15724
                        -----------------------------------------
Total Dipole Moment    :     -0.73806       0.59907       0.12111
                        -----------------------------------------
Magnitude (a.u.)       :      0.95827
Magnitude (Debye)      :      2.43574

Rotational constants in cm-1:     0.389340     0.159695     0.129653
Rotational constants in MHz : 11672.108221  4787.544231  3886.903740

                             ****ORCA TERMINATED NORMALLY****
TOTAL RUN TIME: 0 days 0 hours 9 minutes 6 seconds 578 msec
