                         Program Version 5.0.4 -  RELEASE  -
|  1> !ri-mp2 aug-cc-pvqz aug-cc-pvqz/c tightscf
|  2> %pal nprocs 16 end
|  3>
|  4> * xyz 0 1
|  5> C      0.046493    0.666056    0.000000
|  6> O      0.046493   -0.757300    0.000000
|  7> H     -0.438632    1.076138    0.890767
|  8> H     -0.438632    1.076138   -0.890767
|  9> H      1.088355    0.979641    0.000000
| 10> H     -0.861989   -1.069858    0.000000
| 11> *
| 12>
| 13>                          ****END OF INPUT****

CARTESIAN COORDINATES (ANGSTROEM)
---------------------------------
  C      0.046493    0.666056    0.000000
  O      0.046493   -0.757300    0.000000
  H     -0.438632    1.076138    0.890767
  H     -0.438632    1.076138   -0.890767
  H      1.088355    0.979641    0.000000
  H     -0.861989   -1.069858    0.000000

 Total Charge           Charge          ....    0
 Multiplicity           Mult            ....    1
 Number of Electrons    NEL             ....   18
 Basis Dimension        Dim             ....  344

ORBITAL ENERGIES
----------------

  NO   OCC          E(Eh)            E(eV)
   0   2.0000     -20.556295      -559.3652
   1   2.0000     -11.271086      -306.7018
   2   2.0000      -1.355310       -36.8799
   3   2.0000      -0.925854       -25.1938
   4   2.0000      -0.690369       -18.7859
   5   2.0000      -0.619772       -16.8648
   6   2.0000      -0.593194       -16.1416
   7   2.0000      -0.503721       -13.7069
   8   2.0000      -0.452037       -12.3006
   9   0.0000       0.025360         0.6901
  10   0.0000       0.038957         1.0601
  11   0.0000       0.042043         1.1441
  12   0.0000       0.047722         1.2986
  13   0.0000       0.086496         2.3537

MULLIKEN ATOMIC CHARGES
-----------------------
   0 C :   -0.397949
   1 O :   -0.682747
   2 H :    0.235465
   3 H :    0.235465
   4 H :    0.282372
   5 H :    0.327393
Sum of atomic charges:    0.0000000

LOEWDIN ATOMIC CHARGES
----------------------
   0 C :    0.574188
   1 O :    1.221909
   2 H :   -0.320252
   3 H :   -0.320252
   4 H :   -0.343561
   5 H :   -0.812033

  Mayer bond orders larger than 0.100000
B(  0-C ,  1-O ) :   0.8283 B(  0-C ,  2-H ) :   0.9330 B(  0-C ,  3-H ) :   0.9330
B(  0-C ,  4-H ) :   0.9118 B(  1-O ,  5-H ) :   0.9070

MP2 TOTAL ENERGY:     -115.563018230 Eh
FINAL SINGLE POINT ENERGY      -115.563018229588

DIPOLE MOMENT
-------------
                                X             Y             Z
Electronic contribution:      0.11959      -1.74235      -0.00000
Nuclear contribution   :     -0.68595       2.16294       0.00000
                        -----------------------------------------
Total Dipole Moment    :     -0.56636       0.42060      -0.00000
                        -----------------------------------------
Magnitude (a.u.)       :      0.70545
Magnitude (Debye)      :      1.79312

Rotational constants in cm-1:     4.290976     0.823161     0.794852
Rotational constants in MHz : 128640.218084 24677.759640 23829.077485

                             ****ORCA TERMINATED NORMALLY****
TOTAL RUN TIME: 0 days 0 hours 2 minutes 5 seconds 943 msec
