                         Program Version 5.0.4 -  RELEASE  -
|  1> !ri-mp2 aug-cc-pvqz aug-cc-pvqz/c tightscf
|  2> %pal nprocs 16 end
|  3>
|  4> * xyz 0 1
|  5> C     -1.374452    0.901229    0.000000
|  6> C     -1.354402    2.251618    0.000000
|  7> C      0.741286    1.626446    0.000000
|  8> C      0.000000    0.483904    0.000000
|  9> C      0.566044   -0.870351    0.000000
| 10> C      0.057679   -3.174642    0.000000
| 11> O      1.747782   -1.126769    0.000000
| 12> O     -0.063377    2.708616    0.000000
| 13> O     -0.400911   -1.813271    0.000000
| 14> H     -2.241521    0.265834    0.000000
| 15> H     -2.117954    3.007351    0.000000
| 16> H      1.801169    1.802830    0.000000
| 17> H      0.656818   -3.374632    0.886389
| 18> H      0.656818   -3.374632   -0.886389
| 19> H     -0.840215   -3.784584    0.000000
| 20> *
| 21>
| 22>                          ****END OF INPUT****

CARTESIAN COORDINATES (ANGSTROEM)
---------------------------------
  C     -1.374452    0.901229    0.000000
  C     -1.354402    2.251618    0.000000
  C      0.741286    1.626446    0.000000
  C      0.000000    0.483904    0.000000
  C      0.566044   -0.870351    0.000000
  C      0.057679   -3.174642    0.000000
  O      1.747782   -1.126769    0.000000
  O     -0.063377    2.708616    0.000000
  O     -0.400911   -1.813271    0.000000
  H     -2.241521    0.265834    0.000000
  H     -2.117954    3.007351    0.000000
  H      1.801169    1.802830    0.000000
  H      0.656818   -3.374632    0.886389
  H      0.656818   -3.374632   -0.886389
  H     -0.840215   -3.784584    0.000000

 Total Charge           Charge          ....    0
 Multiplicity           Mult            ....    1
 Number of Electrons    NEL             ....   66
 Basis Dimension        Dim             ....  996

ORBITAL ENERGIES
----------------

  NO   OCC          E(Eh)            E(eV)
   0   2.0000     -20.640972      -561.6694
   1   2.0000     -20.604203      -560.6689
   2   2.0000     -20.540325      -558.9306
   3   2.0000     -11.386598      -309.8451
   4   2.0000     -11.315538      -307.9114
   5   2.0000     -11.299002      -307.4615
   6   2.0000     -11.286223      -307.1137
   7   2.0000     -11.248051      -306.0750
   8   2.0000     -11.244766      -305.9856
   9   2.0000      -1.479183       -40.2506
  10   2.0000      -1.460466       -39.7413
  11   2.0000      -1.358827       -36.9756
  12   2.0000      -1.114367       -30.3235
  13   2.0000      -1.030568       -28.0432
  14   2.0000      -0.982526       -26.7359
  15   2.0000      -0.865388       -23.5484
  16   2.0000      -0.809367       -22.0240
  17   2.0000      -0.777697       -21.1622
  18   2.0000      -0.754298       -20.5255
  19   2.0000      -0.678307       -18.4577
  20   2.0000      -0.675737       -18.3877
  21   2.0000      -0.665091       -18.0981
  22   2.0000      -0.651025       -17.7153
  23   2.0000      -0.622260       -16.9326
  24   2.0000      -0.592068       -16.1110
  25   2.0000      -0.584561       -15.9067
  26   2.0000      -0.556951       -15.1554
  27   2.0000      -0.554608       -15.0917
  28   2.0000      -0.532529       -14.4908
  29   2.0000      -0.467019       -12.7082
  30   2.0000      -0.457361       -12.4454
  31   2.0000      -0.414143       -11.2694
  32   2.0000      -0.337295        -9.1783
  33   0.0000       0.023485         0.6391
  34   0.0000       0.028132         0.7655
  35   0.0000       0.033805         0.9199
  36   0.0000       0.041376         1.1259
  37   0.0000       0.044779         1.2185

MULLIKEN ATOMIC CHARGES
-----------------------
   0 C :   -0.728360
   1 C :    0.000444
   2 C :   -0.013160
   3 C :   -0.470715
   4 C :    1.635766
   5 C :   -0.684514
   6 O :   -0.825858
   7 O :   -0.860122
   8 O :   -0.685839
   9 H :    0.379416
  10 H :    0.621259
  11 H :    0.607869
  12 H :    0.303562
  13 H :    0.303562
  14 H :    0.416687
Sum of atomic charges:   -0.0000000

LOEWDIN ATOMIC CHARGES
----------------------
   0 C :    0.295351
   1 C :    0.021022
   2 C :   -0.010636
   3 C :   -0.228658
   4 C :   -1.116024
   5 C :    0.581983
   6 O :    0.699660
   7 O :    0.850729
   8 O :    0.828712
   9 H :   -0.322604
  10 H :   -0.332961
  11 H :   -0.308661
  12 H :   -0.316626
  13 H :   -0.316626
  14 H :   -0.324661

  Mayer bond orders larger than 0.100000
B(  0-C ,  1-C ) :   1.7045 B(  0-C ,  3-C ) :   0.8790 B(  0-C ,  4-C ) :  -0.3166
B(  0-C ,  7-O ) :   0.2265 B(  0-C ,  9-H ) :   0.9161 B(  1-C ,  3-C ) :  -0.4397
B(  1-C ,  7-O ) :   0.8280 B(  1-C , 10-H ) :   0.6471 B(  2-C ,  3-C ) :   1.6499
B(  2-C ,  4-C ) :  -0.2021 B(  2-C ,  7-O ) :   0.9459 B(  2-C , 11-H ) :   0.6340
B(  3-C ,  4-C ) :   1.0352 B(  3-C ,  6-O ) :   0.3713 B(  4-C ,  6-O ) :   0.9711
B(  4-C ,  8-O ) :   0.9148 B(  5-C ,  8-O ) :   0.8502 B(  5-C , 12-H ) :   0.9168
B(  5-C , 13-H ) :   0.9168 B(  5-C , 14-H ) :   0.8362

MP2 TOTAL ENERGY:     -457.244216995 Eh
FINAL SINGLE POINT ENERGY      -457.244216994662

DIPOLE MOMENT
-------------
                                X             Y             Z
Electronic contribution:      1.16400       5.26944       0.00000
Nuclear contribution   :     -2.02932      -5.36802       0.00000
                        -----------------------------------------
Total Dipole Moment    :     -0.86532      -0.09858       0.00000
                        -----------------------------------------
Magnitude (a.u.)       :      0.87092
Magnitude (Debye)      :      2.21370

Rotational constants in cm-1:     0.155651     0.034313     0.028264
Rotational constants in MHz :  4666.303108  1028.671435   847.341450

                             ****ORCA TERMINATED NORMALLY****
TOTAL RUN TIME: 0 days 0 hours 50 minutes 38 seconds 69 msec
