                         Program Version 5.0.4 -  RELEASE  -
|  1> !ri-mp2 aug-cc-pvqz aug-cc-pvqz/c tightscf
|  2> %pal nprocs 16 end
|  3>
|  4> * xyz 0 1
|  5> C     -0.005439    0.742948    1.206807
|  6> C     -0.005439    0.742948   -1.206807
|  7> C     -0.005439   -0.778359    1.177882
|  8> C     -0.005439   -0.778359   -1.177882
|  9> N      0.657361    1.234334    0.000000
| 10> O     -0.635671   -1.270842    0.000000
| 11> H     -1.046564    1.092682    1.289352
| 12> H      0.540160    1.092900    2.084922
| 13> H      0.540160    1.092900   -2.084922
| 14> H     -1.046564    1.092682   -1.289352
| 15> H      1.027148   -1.146672    1.227425
| 16> H     -0.566071   -1.185206    2.018469
| 17> H     -0.566071   -1.185206   -2.018469
| 18> H      1.027148   -1.146672   -1.227425
| 19> H      0.705027    2.243917    0.000000
| 20> *
| 21>
| 22>                          ****END OF INPUT****

CARTESIAN COORDINATES (ANGSTROEM)
---------------------------------
  C     -0.005439    0.742948    1.206807
  C     -0.005439    0.742948   -1.206807
  C     -0.005439   -0.778359    1.177882
  C     -0.005439   -0.778359   -1.177882
  N      0.657361    1.234334    0.000000
  O     -0.635671   -1.270842    0.000000
  H     -1.046564    1.092682    1.289352
  H      0.540160    1.092900    2.084922
  H      0.540160    1.092900   -2.084922
  H     -1.046564    1.092682   -1.289352
  H      1.027148   -1.146672    1.227425
  H     -0.566071   -1.185206    2.018469
  H     -0.566071   -1.185206   -2.018469
  H      1.027148   -1.146672   -1.227425
  H      0.705027    2.243917    0.000000

 Total Charge           Charge          ....    0
 Multiplicity           Mult            ....    1
 Number of Electrons    NEL             ....   48
 Basis Dimension        Dim             ....  894

ORBITAL ENERGIES
----------------

  NO   OCC          E(Eh)            E(eV)
   0   2.0000     -20.547971      -559.1387
   1   2.0000     -15.544371      -422.9838
   2   2.0000     -11.267964      -306.6169
   3   2.0000     -11.267946      -306.6164
   4   2.0000     -11.248136      -306.0774
   5   2.0000     -11.248123      -306.0770
   6   2.0000      -1.369613       -37.2691
   7   2.0000      -1.205594       -32.8059
   8   2.0000      -1.033647       -28.1270
   9   2.0000      -0.928568       -25.2676
  10   2.0000      -0.872053       -23.7298
  11   2.0000      -0.777473       -21.1561
  12   2.0000      -0.703620       -19.1465
  13   2.0000      -0.639207       -17.3937
  14   2.0000      -0.637955       -17.3596
  15   2.0000      -0.604538       -16.4503
  16   2.0000      -0.602241       -16.3878
  17   2.0000      -0.585006       -15.9188
  18   2.0000      -0.543801       -14.7976
  19   2.0000      -0.501041       -13.6340
  20   2.0000      -0.491836       -13.3835
  21   2.0000      -0.455712       -12.4006
  22   2.0000      -0.416972       -11.3464
  23   2.0000      -0.372530       -10.1371
  24   0.0000       0.025403         0.6913
  25   0.0000       0.031234         0.8499
  26   0.0000       0.035334         0.9615
  27   0.0000       0.036441         0.9916
  28   0.0000       0.048063         1.3079

MULLIKEN ATOMIC CHARGES
-----------------------
   0 C :   -0.448926
   1 C :   -0.448926
   2 C :   -0.170392
   3 C :   -0.170392
   4 N :   -0.502927
   5 O :   -0.885665
   6 H :    0.217016
   7 H :    0.378379
   8 H :    0.378379
   9 H :    0.217016
  10 H :    0.222713
  11 H :    0.423331
  12 H :    0.423331
  13 H :    0.222713
  14 H :    0.144351
Sum of atomic charges:    0.0000000

LOEWDIN ATOMIC CHARGES
----------------------
   0 C :    0.345573
   1 C :    0.345573
   2 C :    0.166866
   3 C :    0.166866
   4 N :    0.893613
   5 O :    0.896935
   6 H :   -0.270573
   7 H :   -0.283040
   8 H :   -0.283040
   9 H :   -0.270573
  10 H :   -0.294498
  11 H :   -0.308088
  12 H :   -0.308088
  13 H :   -0.294498
  14 H :   -0.503031

  Mayer bond orders larger than 0.100000
B(  0-C ,  2-C ) :   1.0989 B(  0-C ,  4-N ) :   0.8853 B(  0-C ,  6-H ) :   0.9301
B(  0-C ,  7-H ) :   0.8274 B(  1-C ,  3-C ) :   1.0989 B(  1-C ,  4-N ) :   0.8853
B(  1-C ,  8-H ) :   0.8274 B(  1-C ,  9-H ) :   0.9301 B(  2-C ,  5-O ) :   0.7383
B(  2-C , 10-H ) :   0.9442 B(  2-C , 11-H ) :   0.7789 B(  3-C ,  5-O ) :   0.7383
B(  3-C , 12-H ) :   0.7789 B(  3-C , 13-H ) :   0.9442 B(  4-N , 14-H ) :   0.9954

MP2 TOTAL ENERGY:     -287.337312145 Eh
FINAL SINGLE POINT ENERGY      -287.337312145038

DIPOLE MOMENT
-------------
                                X             Y             Z
Electronic contribution:     -0.53199      -1.36783      -0.00000
Nuclear contribution   :      0.62933       2.00586       0.00000
                        -----------------------------------------
Total Dipole Moment    :      0.09735       0.63803      -0.00000
                        -----------------------------------------
Magnitude (a.u.)       :      0.64541
Magnitude (Debye)      :      1.64050

Rotational constants in cm-1:     0.163475     0.154787     0.089125
Rotational constants in MHz :  4900.866611  4640.407030  2671.896327

                             ****ORCA TERMINATED NORMALLY****
TOTAL RUN TIME: 0 days 0 hours 23 minutes 35 seconds 483 msec
