                         Program Version 5.0.4 -  RELEASE  -
|  1> !ri-mp2 aug-cc-pvqz aug-cc-pvqz/c tightscf
|  2> %pal nprocs 16 end
|  3>
|  4> * xyz 0 1
|  5> N     1.861945    0.000000   -0.456084
|  6> N    -1.883795   -2.246172    0.097385
|  7> N    -1.883789    2.246175    0.097385
|  8> C    -0.633316    0.000000   -0.061156
|  9> C     0.702935    0.000000   -0.213424
| 10> C    -1.327965   -1.238667    0.025608
| 11> C    -1.327962    1.238668    0.025608
| 12> C     3.099732   -0.000002    0.296584
| 13> H     3.669604    0.881017    0.009638
| 14> H     3.669563   -0.881067    0.009698
| 15> H     2.919761    0.000038    1.370540
| 16> *
| 17>
| 18>                          ****END OF INPUT****

CARTESIAN COORDINATES (ANGSTROEM)
---------------------------------
  N      1.861945    0.000000   -0.456084
  N     -1.883795   -2.246172    0.097385
  N     -1.883789    2.246175    0.097385
  C     -0.633316    0.000000   -0.061156
  C      0.702935    0.000000   -0.213424
  C     -1.327965   -1.238667    0.025608
  C     -1.327962    1.238668    0.025608
  C      3.099732   -0.000002    0.296584
  H      3.669604    0.881017    0.009638
  H      3.669563   -0.881067    0.009698
  H      2.919761    0.000038    1.370540

 Total Charge           Charge          ....    0
 Multiplicity           Mult            ....    1
 Number of Electrons    NEL             ....   54
 Basis Dimension        Dim             ....  778

ORBITAL ENERGIES
----------------

  NO   OCC          E(Eh)            E(eV)
   0   2.0000     -15.665825      -426.2888
   1   2.0000     -15.585168      -424.0940
   2   2.0000     -15.585168      -424.0940
   3   2.0000     -11.398620      -310.1722
   4   2.0000     -11.332500      -308.3730
   5   2.0000     -11.330212      -308.3107
   6   2.0000     -11.297510      -307.4209
   7   2.0000     -11.297490      -307.4203
   8   2.0000      -1.345519       -36.6134
   9   2.0000      -1.247135       -33.9363
  10   2.0000      -1.231721       -33.5168
  11   2.0000      -1.134144       -30.8616
  12   2.0000      -1.042678       -28.3727
  13   2.0000      -0.845424       -23.0052
  14   2.0000      -0.818013       -22.2593
  15   2.0000      -0.752275       -20.4704
  16   2.0000      -0.689881       -18.7726
  17   2.0000      -0.673367       -18.3232
  18   2.0000      -0.598225       -16.2785
  19   2.0000      -0.578038       -15.7292
  20   2.0000      -0.575892       -15.6708
  21   2.0000      -0.533528       -14.5180
  22   2.0000      -0.529637       -14.4122
  23   2.0000      -0.496824       -13.5193
  24   2.0000      -0.496586       -13.5128
  25   2.0000      -0.480058       -13.0630
  26   2.0000      -0.374062       -10.1788
  27   0.0000       0.008745         0.2380
  28   0.0000       0.028907         0.7866
  29   0.0000       0.029022         0.7897
  30   0.0000       0.040747         1.1088
  31   0.0000       0.060092         1.6352

MULLIKEN ATOMIC CHARGES
-----------------------
   0 N :   -0.635628
   1 N :   -0.629035
   2 N :   -0.629040
   3 C :   -0.303202
   4 C :    1.016434
   5 C :    0.462475
   6 C :    0.462478
   7 C :   -0.713533
   8 H :    0.330665
   9 H :    0.330664
  10 H :    0.307723
Sum of atomic charges:    0.0000000

LOEWDIN ATOMIC CHARGES
----------------------
   0 N :    0.587660
   1 N :    0.402182
   2 N :    0.402182
   3 C :   -0.339365
   4 C :   -0.087226
   5 C :   -0.396411
   6 C :   -0.396412
   7 C :    0.742276
   8 H :   -0.308767
   9 H :   -0.308766
  10 H :   -0.297353

  Mayer bond orders larger than 0.100000
B(  0-N ,  4-C ) :   1.9555 B(  0-N ,  7-C ) :   0.8230 B(  1-N ,  5-C ) :   2.5490
B(  2-N ,  6-C ) :   2.5490 B(  3-C ,  4-C ) :   1.2723 B(  3-C ,  5-C ) :   1.2579
B(  3-C ,  6-C ) :   1.2579 B(  4-C ,  5-C ) :  -0.1792 B(  4-C ,  6-C ) :  -0.1792
B(  7-C ,  8-H ) :   0.9125 B(  7-C ,  9-H ) :   0.9125 B(  7-C , 10-H ) :   0.8929

MP2 TOTAL ENERGY:     -355.929079102 Eh
FINAL SINGLE POINT ENERGY      -355.929079102022

DIPOLE MOMENT
-------------
                                X             Y             Z
Electronic contribution:     -6.87412       0.00001      -1.11533
Nuclear contribution   :      9.88853      -0.00001       1.33968
                        -----------------------------------------
Total Dipole Moment    :      3.01441      -0.00001       0.22435
                        -----------------------------------------
Magnitude (a.u.)       :      3.02274
Magnitude (Debye)      :      7.68320

Rotational constants in cm-1:     0.090424     0.047093     0.031744
Rotational constants in MHz :  2710.838680  1411.810199   951.646913

                             ****ORCA TERMINATED NORMALLY****
TOTAL RUN TIME: 0 days 0 hours 13 minutes 44 seconds 616 msec
