                         Program Version 5.0.4 -  RELEASE  -
|  1> !ri-mp2 aug-cc-pvqz aug-cc-pvqz/c tightscf
|  2> %pal nprocs 16 end
|  3>
|  4> * xyz 0 1
|  5> O      0.113175    0.611906   -0.000481
|  6> O     -0.850519   -0.571912   -0.000730
|  7> C      1.313138    0.157342   -0.000011
|  8> C     -2.131835    0.020694    0.000616
|  9> C      2.457104   -0.211516    0.000417
| 10> H     -2.297771    0.619401   -0.896754
| 11> H     -2.296639    0.617800    0.899259
| 12> H     -2.808117   -0.835719    0.000264
| 13> H      3.470842   -0.520554    0.000796
| 14> *
| 15>
| 16>                          ****END OF INPUT****

CARTESIAN COORDINATES (ANGSTROEM)
---------------------------------
  O      0.113175    0.611906   -0.000481
  O     -0.850519   -0.571912   -0.000730
  C      1.313138    0.157342   -0.000011
  C     -2.131835    0.020694    0.000616
  C      2.457104   -0.211516    0.000417
  H     -2.297771    0.619401   -0.896754
  H     -2.296639    0.617800    0.899259
  H     -2.808117   -0.835719    0.000264
  H      3.470842   -0.520554    0.000796

 Total Charge           Charge          ....    0
 Multiplicity           Mult            ....    1
 Number of Electrons    NEL             ....   38
 Basis Dimension        Dim             ....  584

ORBITAL ENERGIES
----------------

  NO   OCC          E(Eh)            E(eV)
   0   2.0000     -20.674406      -562.5792
   1   2.0000     -20.665133      -562.3269
   2   2.0000     -11.299239      -307.4679
   3   2.0000     -11.293217      -307.3040
   4   2.0000     -11.226771      -305.4960
   5   2.0000      -1.506915       -41.0052
   6   2.0000      -1.316936       -35.8356
   7   2.0000      -1.016458       -27.6592
   8   2.0000      -0.941968       -25.6323
   9   2.0000      -0.785921       -21.3860
  10   2.0000      -0.704411       -19.1680
  11   2.0000      -0.703360       -19.1394
  12   2.0000      -0.686218       -18.6729
  13   2.0000      -0.613283       -16.6883
  14   2.0000      -0.611149       -16.6302
  15   2.0000      -0.553564       -15.0632
  16   2.0000      -0.493452       -13.4275
  17   2.0000      -0.392423       -10.6784
  18   2.0000      -0.373901       -10.1744
  19   0.0000       0.024429         0.6648
  20   0.0000       0.032050         0.8721
  21   0.0000       0.040207         1.0941
  22   0.0000       0.041646         1.1333
  23   0.0000       0.063274         1.7218

MULLIKEN ATOMIC CHARGES
-----------------------
   0 O :   -0.538307
   1 O :   -0.351569
   2 C :    0.652469
   3 C :   -0.510277
   4 C :   -0.582086
   5 H :    0.272892
   6 H :    0.273006
   7 H :    0.413762
   8 H :    0.370110
Sum of atomic charges:    0.0000000

LOEWDIN ATOMIC CHARGES
----------------------
   0 O :    0.447762
   1 O :    0.575063
   2 C :   -0.503011
   3 C :    0.494931
   4 C :    0.480595
   5 H :   -0.324952
   6 H :   -0.324945
   7 H :   -0.349443
   8 H :   -0.496000

  Mayer bond orders larger than 0.100000
B(  0-O ,  1-O ) :   0.7706 B(  0-O ,  2-C ) :   0.8708 B(  1-O ,  3-C ) :   0.8060
B(  2-C ,  4-C ) :   2.4739 B(  3-C ,  5-H ) :   0.9170 B(  3-C ,  6-H ) :   0.9170
B(  3-C ,  7-H ) :   0.8145 B(  4-C ,  8-H ) :   0.9977

MP2 TOTAL ENERGY:     -266.589787141 Eh
FINAL SINGLE POINT ENERGY      -266.589787141266

DIPOLE MOMENT
-------------
                                X             Y             Z
Electronic contribution:      3.15952       0.12531      -0.00271
Nuclear contribution   :     -3.90521      -0.11730       0.00351
                        -----------------------------------------
Total Dipole Moment    :     -0.74569       0.00801       0.00080
                        -----------------------------------------
Magnitude (a.u.)       :      0.74573
Magnitude (Debye)      :      1.89550

Rotational constants in cm-1:     1.094067     0.087909     0.082668
Rotational constants in MHz : 32799.312916  2635.437625  2478.325425

                             ****ORCA TERMINATED NORMALLY****
TOTAL RUN TIME: 0 days 0 hours 8 minutes 1 seconds 644 msec
