                         Program Version 5.0.4 -  RELEASE  -
|  1> !ri-mp2 aug-cc-pvqz aug-cc-pvqz/c tightscf
|  2> %pal nprocs 16 end
|  3>
|  4> * xyz 0 1
|  5> C     0.000000     0.000000    1.631581
|  6> C     0.000000     0.000000    0.315547
|  7> H     0.000000     0.924656    2.195166
|  8> H     0.000000    -0.924656    2.195166
|  9> C     0.000000     0.769087   -0.928764
| 10> C     0.000000    -0.769087   -0.928764
| 11> H     0.910119     1.272300   -1.231981
| 12> H    -0.910119     1.272300   -1.231981
| 13> H    -0.910119    -1.272300   -1.231981
| 14> H     0.910119    -1.272300   -1.231981
| 15> *
| 16>
| 17>                          ****END OF INPUT****

CARTESIAN COORDINATES (ANGSTROEM)
---------------------------------
  C      0.000000    0.000000    1.631581
  C      0.000000    0.000000    0.315547
  H      0.000000    0.924656    2.195166
  H      0.000000   -0.924656    2.195166
  C      0.000000    0.769087   -0.928764
  C      0.000000   -0.769087   -0.928764
  H      0.910119    1.272300   -1.231981
  H     -0.910119    1.272300   -1.231981
  H     -0.910119   -1.272300   -1.231981
  H      0.910119   -1.272300   -1.231981

 Total Charge           Charge          ....    0
 Multiplicity           Mult            ....    1
 Number of Electrons    NEL             ....   30
 Basis Dimension        Dim             ....  596

ORBITAL ENERGIES
----------------

  NO   OCC          E(Eh)            E(eV)
   0   2.0000     -11.242871      -305.9341
   1   2.0000     -11.233088      -305.6679
   2   2.0000     -11.232541      -305.6530
   3   2.0000     -11.221062      -305.3406
   4   2.0000      -1.151577       -31.3360
   5   2.0000      -0.975964       -26.5573
   6   2.0000      -0.835091       -22.7240
   7   2.0000      -0.729274       -19.8445
   8   2.0000      -0.647343       -17.6151
   9   2.0000      -0.639674       -17.4064
  10   2.0000      -0.596875       -16.2418
  11   2.0000      -0.523187       -14.2366
  12   2.0000      -0.437248       -11.8981
  13   2.0000      -0.424013       -11.5380
  14   2.0000      -0.362911        -9.8753
  15   0.0000       0.028130         0.7654
  16   0.0000       0.034550         0.9402
  17   0.0000       0.034900         0.9497
  18   0.0000       0.037453         1.0191
  19   0.0000       0.050618         1.3774

MULLIKEN ATOMIC CHARGES
-----------------------
   0 C :   -0.629341
   1 C :   -0.084419
   2 H :    0.300977
   3 H :    0.300977
   4 C :   -0.630033
   5 C :   -0.630033
   6 H :    0.342968
   7 H :    0.342968
   8 H :    0.342968
   9 H :    0.342968
Sum of atomic charges:    0.0000000

LOEWDIN ATOMIC CHARGES
----------------------
   0 C :    0.799044
   1 C :   -0.043693
   2 H :   -0.372823
   3 H :   -0.372823
   4 C :    0.570805
   5 C :    0.570805
   6 H :   -0.287829
   7 H :   -0.287829
   8 H :   -0.287829
   9 H :   -0.287829

  Mayer bond orders larger than 0.100000
B(  0-C ,  1-C ) :   1.6823 B(  0-C ,  2-H ) :   0.9553 B(  0-C ,  3-H ) :   0.9553
B(  1-C ,  4-C ) :   0.9687 B(  1-C ,  5-C ) :   0.9687 B(  4-C ,  5-C ) :   1.0666
B(  4-C ,  6-H ) :   0.8565 B(  4-C ,  7-H ) :   0.8565 B(  5-C ,  8-H ) :   0.8565
B(  5-C ,  9-H ) :   0.8565

MP2 TOTAL ENERGY:     -155.654694883 Eh
FINAL SINGLE POINT ENERGY      -155.654694883314

DIPOLE MOMENT
-------------
                                X             Y             Z
Electronic contribution:     -0.00000      -0.00000       0.37174
Nuclear contribution   :      0.00000       0.00000      -0.55996
                        -----------------------------------------
Total Dipole Moment    :     -0.00000      -0.00000      -0.18822
                        -----------------------------------------
Magnitude (a.u.)       :      0.18822
Magnitude (Debye)      :      0.47841

Rotational constants in cm-1:     0.653420     0.230737     0.182878
Rotational constants in MHz : 19589.029761  6917.310248  5482.547746

                             ****ORCA TERMINATED NORMALLY****
TOTAL RUN TIME: 0 days 0 hours 8 minutes 21 seconds 577 msec
