                         Program Version 5.0.4 -  RELEASE  -
|  1> !ri-mp2 aug-cc-pvqz aug-cc-pvqz/c tightscf
|  2> %pal nprocs 16 end
|  3>
|  4> * xyz 0 1
|  5> C      1.860208   -1.388426    0.000000
|  6> N      1.300486   -0.046394    0.000000
|  7> C      0.000000    0.288733    0.000000
|  8> S     -0.535187    1.859700    0.000000
|  9> S     -1.092712   -1.125087    0.000000
| 10> H      1.555773   -1.946049    0.887371
| 11> H      1.555773   -1.946049   -0.887371
| 12> H      2.943735   -1.305923    0.000000
| 13> H      1.930390    0.739868    0.000000
| 14> H     -2.203937   -0.372747    0.000000
| 15> *
| 16>
| 17>                          ****END OF INPUT****

CARTESIAN COORDINATES (ANGSTROEM)
---------------------------------
  C      1.860208   -1.388426    0.000000
  N      1.300486   -0.046394    0.000000
  C      0.000000    0.288733    0.000000
  S     -0.535187    1.859700    0.000000
  S     -1.092712   -1.125087    0.000000
  H      1.555773   -1.946049    0.887371
  H      1.555773   -1.946049   -0.887371
  H      2.943735   -1.305923    0.000000
  H      1.930390    0.739868    0.000000
  H     -2.203937   -0.372747    0.000000

 Total Charge           Charge          ....    0
 Multiplicity           Mult            ....    1
 Number of Electrons    NEL             ....   56
 Basis Dimension        Dim             ....  638

ORBITAL ENERGIES
----------------

  NO   OCC          E(Eh)            E(eV)
   0   2.0000     -91.990696     -2503.1941
   1   2.0000     -91.902342     -2500.7899
   2   2.0000     -15.620706      -425.0610
   3   2.0000     -11.380981      -309.6922
   4   2.0000     -11.290206      -307.2221
   5   2.0000      -8.993507      -244.7258
   6   2.0000      -8.906515      -242.3586
   7   2.0000      -6.674928      -181.6340
   8   2.0000      -6.674023      -181.6094
   9   2.0000      -6.673235      -181.5880
  10   2.0000      -6.588199      -179.2740
  11   2.0000      -6.586498      -179.2277
  12   2.0000      -6.585874      -179.2107
  13   2.0000      -1.296427       -35.2776
  14   2.0000      -1.070884       -29.1402
  15   2.0000      -0.991931       -26.9918
  16   2.0000      -0.926689       -25.2165
  17   2.0000      -0.809351       -22.0236
  18   2.0000      -0.681020       -18.5315
  19   2.0000      -0.647898       -17.6302
  20   2.0000      -0.628064       -17.0905
  21   2.0000      -0.579194       -15.7607
  22   2.0000      -0.556794       -15.1511
  23   2.0000      -0.519041       -14.1238
  24   2.0000      -0.487390       -13.2626
  25   2.0000      -0.403529       -10.9806
  26   2.0000      -0.330657        -8.9976
  27   2.0000      -0.328692        -8.9442
  28   0.0000       0.018878         0.5137
  29   0.0000       0.032480         0.8838
  30   0.0000       0.039286         1.0690
  31   0.0000       0.039367         1.0712
  32   0.0000       0.050369         1.3706

MULLIKEN ATOMIC CHARGES
-----------------------
   0 C :   -0.677791
   1 N :   -0.258520
   2 C :   -0.175113
   3 S :   -0.206018
   4 S :    0.053396
   5 H :    0.269238
   6 H :    0.269238
   7 H :    0.421525
   8 H :    0.221626
   9 H :    0.082418
Sum of atomic charges:    0.0000000

LOEWDIN ATOMIC CHARGES
----------------------
   0 C :    0.727035
   1 N :    0.613354
   2 C :   -1.474131
   3 S :    0.917985
   4 S :    1.515462
   5 H :   -0.308270
   6 H :   -0.308270
   7 H :   -0.291891
   8 H :   -0.565177
   9 H :   -0.826098

  Mayer bond orders larger than 0.100000
B(  0-C ,  1-N ) :   0.7993 B(  0-C ,  5-H ) :   0.9487 B(  0-C ,  6-H ) :   0.9487
B(  0-C ,  7-H ) :   0.8154 B(  1-N ,  2-C ) :   1.0845 B(  1-N ,  8-H ) :   0.9792
B(  2-C ,  3-S ) :   1.4501 B(  2-C ,  4-S ) :   0.9193 B(  4-S ,  9-H ) :   1.0755

MP2 TOTAL ENERGY:     -929.216223706 Eh
FINAL SINGLE POINT ENERGY      -929.216223706089

DIPOLE MOMENT
-------------
                                X             Y             Z
Electronic contribution:     -4.70974       3.37556      -0.00000
Nuclear contribution   :      5.72972      -4.76251       0.00000
                        -----------------------------------------
Total Dipole Moment    :      1.01998      -1.38694      -0.00000
                        -----------------------------------------
Magnitude (a.u.)       :      1.72162
Magnitude (Debye)      :      4.37601

Rotational constants in cm-1:     0.139378     0.083302     0.052657
Rotational constants in MHz :  4178.442708  2497.320255  1578.605208

                             ****ORCA TERMINATED NORMALLY****
TOTAL RUN TIME: 0 days 0 hours 8 minutes 19 seconds 576 msec
