                         Program Version 5.0.4 -  RELEASE  -
|  1> !ri-mp2 aug-cc-pvqz aug-cc-pvqz/c tightscf
|  2> %pal nprocs 16 end
|  3>
|  4> * xyz 0 1
|  5> C     -0.018703    0.623324    0.000000
|  6> C     -0.018703   -1.537398    1.260653
|  7> C     -2.067621   -0.796408    0.000000
|  8> C     -0.018703   -1.537398   -1.260653
|  9> C      1.913511    1.985730    0.000000
| 10> C     -0.535531   -0.817672    0.000000
| 11> O     -0.704653    1.615360    0.000000
| 12> O      1.331529    0.672656    0.000000
| 13> H     -0.353319   -1.032473    2.168179
| 14> H     -0.406978   -2.556799    1.283172
| 15> H      1.068644   -1.583922    1.275217
| 16> H     -2.456671   -0.283818    0.878679
| 17> H     -2.447056   -1.819081    0.000000
| 18> H     -2.456671   -0.283818   -0.878679
| 19> H      1.068644   -1.583922   -1.275217
| 20> H     -0.406978   -2.556799   -1.283172
| 21> H     -0.353319   -1.032473   -2.168179
| 22> H      1.607640    2.539254    0.885978
| 23> H      1.607640    2.539254   -0.885978
| 24> H      2.987917    1.829400    0.000000
| 25> *
| 26>
| 27>                          ****END OF INPUT****

CARTESIAN COORDINATES (ANGSTROEM)
---------------------------------
  C     -0.018703    0.623324    0.000000
  C     -0.018703   -1.537398    1.260653
  C     -2.067621   -0.796408    0.000000
  C     -0.018703   -1.537398   -1.260653
  C      1.913511    1.985730    0.000000
  C     -0.535531   -0.817672    0.000000
  O     -0.704653    1.615360    0.000000
  O      1.331529    0.672656    0.000000
  H     -0.353319   -1.032473    2.168179
  H     -0.406978   -2.556799    1.283172
  H      1.068644   -1.583922    1.275217
  H     -2.456671   -0.283818    0.878679
  H     -2.447056   -1.819081    0.000000
  H     -2.456671   -0.283818   -0.878679
  H      1.068644   -1.583922   -1.275217
  H     -0.406978   -2.556799   -1.283172
  H     -0.353319   -1.032473   -2.168179
  H      1.607640    2.539254    0.885978
  H      1.607640    2.539254   -0.885978
  H      2.987917    1.829400    0.000000

 Total Charge           Charge          ....    0
 Multiplicity           Mult            ....    1
 Number of Electrons    NEL             ....   64
 Basis Dimension        Dim             .... 1192

ORBITAL ENERGIES
----------------

  NO   OCC          E(Eh)            E(eV)
   0   2.0000     -20.596530      -560.4601
   1   2.0000     -20.538177      -558.8722
   2   2.0000     -11.369942      -309.3918
   3   2.0000     -11.282694      -307.0177
   4   2.0000     -11.253410      -306.2209
   5   2.0000     -11.221202      -305.3444
   6   2.0000     -11.221188      -305.3440
   7   2.0000     -11.211321      -305.0756
   8   2.0000      -1.455517       -39.6066
   9   2.0000      -1.354133       -36.8478
  10   2.0000      -1.110515       -30.2186
  11   2.0000      -0.974614       -26.5206
  12   2.0000      -0.942289       -25.6410
  13   2.0000      -0.934774       -25.4365
  14   2.0000      -0.837883       -22.7999
  15   2.0000      -0.751748       -20.4561
  16   2.0000      -0.679727       -18.4963
  17   2.0000      -0.674637       -18.3578
  18   2.0000      -0.669818       -18.2267
  19   2.0000      -0.611324       -16.6350
  20   2.0000      -0.606045       -16.4913
  21   2.0000      -0.592954       -16.1351
  22   2.0000      -0.558145       -15.1879
  23   2.0000      -0.552461       -15.0332
  24   2.0000      -0.533911       -14.5285
  25   2.0000      -0.529864       -14.4183
  26   2.0000      -0.519399       -14.1336
  27   2.0000      -0.511456       -13.9174
  28   2.0000      -0.473965       -12.8973
  29   2.0000      -0.472366       -12.8537
  30   2.0000      -0.459967       -12.5163
  31   2.0000      -0.432713       -11.7747
  32   0.0000       0.024899         0.6775
  33   0.0000       0.029482         0.8022
  34   0.0000       0.032612         0.8874
  35   0.0000       0.034636         0.9425
  36   0.0000       0.046322         1.2605

MULLIKEN ATOMIC CHARGES
-----------------------
   0 C :    1.372319
   1 C :   -1.107582
   2 C :   -1.057626
   3 C :   -1.107583
   4 C :   -0.857880
   5 C :    1.126148
   6 O :   -0.970837
   7 O :   -0.792312
   8 H :    0.248893
   9 H :    0.278083
  10 H :    0.251472
  11 H :    0.230690
  12 H :    0.271954
  13 H :    0.230690
  14 H :    0.251471
  15 H :    0.278083
  16 H :    0.248894
  17 H :    0.346773
  18 H :    0.346773
  19 H :    0.411576
Sum of atomic charges:    0.0000000

LOEWDIN ATOMIC CHARGES
----------------------
   0 C :   -1.081682
   1 C :    0.906031
   2 C :    0.873387
   3 C :    0.906031
   4 C :    0.590232
   5 C :   -0.364324
   6 O :    0.747292
   7 O :    0.855729
   8 H :   -0.265105
   9 H :   -0.273193
  10 H :   -0.285337
  11 H :   -0.278719
  12 H :   -0.275623
  13 H :   -0.278719
  14 H :   -0.285337
  15 H :   -0.273193
  16 H :   -0.265105
  17 H :   -0.314826
  18 H :   -0.314826
  19 H :   -0.322713

  Mayer bond orders larger than 0.100000
B(  0-C ,  4-C ) :  -0.1120 B(  0-C ,  5-C ) :   0.9468 B(  0-C ,  6-O ) :   0.8041
B(  0-C ,  7-O ) :   1.0041 B(  1-C ,  2-C ) :   0.1258 B(  1-C ,  3-C ) :   0.1309
B(  1-C ,  5-C ) :   0.4883 B(  1-C ,  8-H ) :   1.0303 B(  1-C ,  9-H ) :   0.9752
B(  1-C , 10-H ) :   1.0141 B(  2-C ,  3-C ) :   0.1258 B(  2-C ,  5-C ) :   0.3372
B(  2-C , 11-H ) :   1.0713 B(  2-C , 12-H ) :   1.0083 B(  2-C , 13-H ) :   1.0713
B(  3-C ,  5-C ) :   0.4882 B(  3-C , 14-H ) :   1.0141 B(  3-C , 15-H ) :   0.9752
B(  3-C , 16-H ) :   1.0303 B(  4-C ,  7-O ) :   0.9846 B(  4-C , 17-H ) :   0.9030
B(  4-C , 18-H ) :   0.9030 B(  4-C , 19-H ) :   0.8503 B(  5-C ,  6-O ) :   0.3286
B(  5-C ,  7-O ) :  -0.3204 B(  5-C , 11-H ) :  -0.1445 B(  5-C , 12-H ) :  -0.1348
B(  5-C , 13-H ) :  -0.1445 B(  6-O ,  7-O ) :   0.1354

MP2 TOTAL ENERGY:     -385.720399837 Eh
FINAL SINGLE POINT ENERGY      -385.720399836544

DIPOLE MOMENT
-------------
                                X             Y             Z
Electronic contribution:      1.15445       5.46698      -0.00000
Nuclear contribution   :     -0.54906      -5.99031       0.00000
                        -----------------------------------------
Total Dipole Moment    :      0.60538      -0.52333      -0.00000
                        -----------------------------------------
Magnitude (a.u.)       :      0.80023
Magnitude (Debye)      :      2.03401

Rotational constants in cm-1:     0.105175     0.049830     0.043923
Rotational constants in MHz :  3153.062150  1493.867096  1316.767004

                             ****ORCA TERMINATED NORMALLY****
TOTAL RUN TIME: 0 days 1 hours 22 minutes 33 seconds 778 msec
