                         Program Version 5.0.4 -  RELEASE  -
|  1> !ri-mp2 aug-cc-pvqz aug-cc-pvqz/c tightscf
|  2> %pal nprocs 16 end
|  3>
|  4> * xyz 0 1
|  5> C      1.328264    0.334723    0.000000
|  6> O      0.000000    0.884876    0.000000
|  7> H      1.983497    1.199685    0.000000
|  8> H      1.493655   -0.273528    0.888518
|  9> H      1.493655   -0.273528   -0.888518
| 10> N     -1.045924   -0.048758    0.000000
| 11> O     -0.702365   -1.174834    0.000000
| 12> *
| 13>
| 14>                          ****END OF INPUT****

CARTESIAN COORDINATES (ANGSTROEM)
---------------------------------
  C      1.328264    0.334723    0.000000
  O      0.000000    0.884876    0.000000
  H      1.983497    1.199685    0.000000
  H      1.493655   -0.273528    0.888518
  H      1.493655   -0.273528   -0.888518
  N     -1.045924   -0.048758    0.000000
  O     -0.702365   -1.174834    0.000000

 Total Charge           Charge          ....    0
 Multiplicity           Mult            ....    1
 Number of Electrons    NEL             ....   32
 Basis Dimension        Dim             ....  458

ORBITAL ENERGIES
----------------

  NO   OCC          E(Eh)            E(eV)
   0   2.0000     -20.650812      -561.9372
   1   2.0000     -20.631258      -561.4051
   2   2.0000     -15.784796      -429.5261
   3   2.0000     -11.294776      -307.3465
   4   2.0000      -1.599156       -43.5152
   5   2.0000      -1.399597       -38.0850
   6   2.0000      -1.019872       -27.7521
   7   2.0000      -0.877603       -23.8808
   8   2.0000      -0.762872       -20.7588
   9   2.0000      -0.725980       -19.7549
  10   2.0000      -0.703041       -19.1307
  11   2.0000      -0.603107       -16.4114
  12   2.0000      -0.602361       -16.3911
  13   2.0000      -0.549870       -14.9627
  14   2.0000      -0.487336       -13.2611
  15   2.0000      -0.457358       -12.4453
  16   0.0000       0.025309         0.6887
  17   0.0000       0.041056         1.1172
  18   0.0000       0.041319         1.1243
  19   0.0000       0.060070         1.6346
  20   0.0000       0.090933         2.4744

MULLIKEN ATOMIC CHARGES
-----------------------
   0 C :   -0.532529
   1 O :   -0.470601
   2 H :    0.470248
   3 H :    0.243734
   4 H :    0.243734
   5 N :    0.455978
   6 O :   -0.410564
Sum of atomic charges:   -0.0000000

LOEWDIN ATOMIC CHARGES
----------------------
   0 C :    0.475298
   1 O :    0.528401
   2 H :   -0.345562
   3 H :   -0.345033
   4 H :   -0.345033
   5 N :   -0.344805
   6 O :    0.376733

  Mayer bond orders larger than 0.100000
B(  0-C ,  1-O ) :   0.7979 B(  0-C ,  2-H ) :   0.7668 B(  0-C ,  3-H ) :   0.9356
B(  0-C ,  4-H ) :   0.9356 B(  1-O ,  5-N ) :   0.9788 B(  5-N ,  6-O ) :   1.8559

MP2 TOTAL ENERGY:     -244.700241971 Eh
FINAL SINGLE POINT ENERGY      -244.700241971350

DIPOLE MOMENT
-------------
                                X             Y             Z
Electronic contribution:     -4.07163      -0.60893      -0.00000
Nuclear contribution   :      4.87718       0.63778       0.00000
                        -----------------------------------------
Total Dipole Moment    :      0.80555       0.02885      -0.00000
                        -----------------------------------------
Magnitude (a.u.)       :      0.80607
Magnitude (Debye)      :      2.04886

Rotational constants in cm-1:     0.686746     0.245408     0.187190
Rotational constants in MHz : 20588.123612  7357.147190  5611.815014

                             ****ORCA TERMINATED NORMALLY****
TOTAL RUN TIME: 0 days 0 hours 3 minutes 0 seconds 436 msec
