                         Program Version 5.0.4 -  RELEASE  -
|  1> !ri-mp2 aug-cc-pvqz aug-cc-pvqz/c tightscf
|  2> %pal nprocs 16 end
|  3>
|  4> * xyz 0 1
|  5> C     -1.716415   -1.342580    0.000000
|  6> C      1.817500    0.896420    0.000000
|  7> C     -0.231871   -1.002452    0.000000
|  8> S      0.000000    0.813744    0.000000
|  9> H     -2.213283   -0.938659    0.882278
| 10> H     -2.213283   -0.938659   -0.882278
| 11> H     -1.855592   -2.424603    0.000000
| 12> H      2.231538    0.426391    0.891139
| 13> H      2.087879    1.950284    0.000000
| 14> H      2.231538    0.426391   -0.891139
| 15> H      0.257960   -1.414687   -0.883038
| 16> H      0.257960   -1.414687    0.883038
| 17> *
| 18>
| 19>                          ****END OF INPUT****

CARTESIAN COORDINATES (ANGSTROEM)
---------------------------------
  C     -1.716415   -1.342580    0.000000
  C      1.817500    0.896420    0.000000
  C     -0.231871   -1.002452    0.000000
  S      0.000000    0.813744    0.000000
  H     -2.213283   -0.938659    0.882278
  H     -2.213283   -0.938659   -0.882278
  H     -1.855592   -2.424603    0.000000
  H      2.231538    0.426391    0.891139
  H      2.087879    1.950284    0.000000
  H      2.231538    0.426391   -0.891139
  H      0.257960   -1.414687   -0.883038
  H      0.257960   -1.414687    0.883038

 Total Charge           Charge          ....    0
 Multiplicity           Mult            ....    1
 Number of Electrons    NEL             ....   42
 Basis Dimension        Dim             ....  692

ORBITAL ENERGIES
----------------

  NO   OCC          E(Eh)            E(eV)
   0   2.0000     -91.938097     -2501.7628
   1   2.0000     -11.253926      -306.2349
   2   2.0000     -11.248109      -306.0766
   3   2.0000     -11.221544      -305.3537
   4   2.0000      -8.939627      -243.2596
   5   2.0000      -6.621191      -180.1718
   6   2.0000      -6.620299      -180.1475
   7   2.0000      -6.619415      -180.1234
   8   2.0000      -1.073499       -29.2114
   9   2.0000      -0.996842       -27.1254
  10   2.0000      -0.877189       -23.8695
  11   2.0000      -0.790496       -21.5105
  12   2.0000      -0.628886       -17.1129
  13   2.0000      -0.596321       -16.2267
  14   2.0000      -0.583583       -15.8801
  15   2.0000      -0.580266       -15.7898
  16   2.0000      -0.528292       -14.3755
  17   2.0000      -0.506798       -13.7907
  18   2.0000      -0.472372       -12.8539
  19   2.0000      -0.425585       -11.5807
  20   2.0000      -0.333976        -9.0880
  21   0.0000       0.026956         0.7335
  22   0.0000       0.030957         0.8424
  23   0.0000       0.037690         1.0256
  24   0.0000       0.038531         1.0485
  25   0.0000       0.049939         1.3589

MULLIKEN ATOMIC CHARGES
-----------------------
   0 C :   -0.808725
   1 C :   -0.954878
   2 C :   -0.438513
   3 S :   -0.006875
   4 H :    0.251764
   5 H :    0.251764
   6 H :    0.261189
   7 H :    0.267812
   8 H :    0.383818
   9 H :    0.267812
  10 H :    0.262415
  11 H :    0.262415
Sum of atomic charges:   -0.0000000

LOEWDIN ATOMIC CHARGES
----------------------
   0 C :    0.815166
   1 C :    0.542538
   2 C :    0.125726
   3 S :    1.288971
   4 H :   -0.307816
   5 H :   -0.307816
   6 H :   -0.292582
   7 H :   -0.372399
   8 H :   -0.398605
   9 H :   -0.372399
  10 H :   -0.360392
  11 H :   -0.360392

  Mayer bond orders larger than 0.100000
B(  0-C ,  2-C ) :   0.9173 B(  0-C ,  4-H ) :   0.9370 B(  0-C ,  5-H ) :   0.9370
B(  0-C ,  6-H ) :   0.9764 B(  1-C ,  3-S ) :   1.0400 B(  1-C ,  7-H ) :   0.9181
B(  1-C ,  8-H ) :   0.8471 B(  1-C ,  9-H ) :   0.9181 B(  2-C ,  3-S ) :   0.9549
B(  2-C , 10-H ) :   0.8757 B(  2-C , 11-H ) :   0.8757

MP2 TOTAL ENERGY:     -516.630426351 Eh
FINAL SINGLE POINT ENERGY      -516.630426351034

DIPOLE MOMENT
-------------
                                X             Y             Z
Electronic contribution:     -0.38991       3.94930      -0.00000
Nuclear contribution   :      0.81276      -4.50894       0.00000
                        -----------------------------------------
Total Dipole Moment    :      0.42285      -0.55964      -0.00000
                        -----------------------------------------
Magnitude (a.u.)       :      0.70142
Magnitude (Debye)      :      1.78288

Rotational constants in cm-1:     0.534328     0.104162     0.091665
Rotational constants in MHz : 16018.754104  3122.693307  2748.036545

                             ****ORCA TERMINATED NORMALLY****
TOTAL RUN TIME: 0 days 0 hours 12 minutes 33 seconds 124 msec
