                         Program Version 5.0.4 -  RELEASE  -
|  1> !ri-mp2 aug-cc-pvqz aug-cc-pvqz/c tightscf
|  2> %pal nprocs 16 end
|  3>
|  4> * xyz 0 1
|  5> H      2.527150   -1.893203    0.000000
|  6> H      2.462309   -0.342027    0.886291
|  7> H      2.462309   -0.342027   -0.886291
|  8> C      2.133452   -0.881675    0.000000
|  9> O      0.704179   -1.022573    0.000000
| 10> O      0.512478    1.224123    0.000000
| 11> C      0.000000    0.130493    0.000000
| 12> H     -1.752520   -1.187537    0.000000
| 13> C     -1.456302   -0.147598    0.000000
| 14> H     -3.407145    0.640284    0.000000
| 15> H     -2.020476    1.871183    0.000000
| 16> C     -2.344631    0.838935    0.000000
| 17> *
| 18>
| 19>                          ****END OF INPUT****

CARTESIAN COORDINATES (ANGSTROEM)
---------------------------------
  H      2.527150   -1.893203    0.000000
  H      2.462309   -0.342027    0.886291
  H      2.462309   -0.342027   -0.886291
  C      2.133452   -0.881675    0.000000
  O      0.704179   -1.022573    0.000000
  O      0.512478    1.224123    0.000000
  C      0.000000    0.130493    0.000000
  H     -1.752520   -1.187537    0.000000
  C     -1.456302   -0.147598    0.000000
  H     -3.407145    0.640284    0.000000
  H     -2.020476    1.871183    0.000000
  C     -2.344631    0.838935    0.000000

 Total Charge           Charge          ....    0
 Multiplicity           Mult            ....    1
 Number of Electrons    NEL             ....   46
 Basis Dimension        Dim             ....  756

ORBITAL ENERGIES
----------------

  NO   OCC          E(Eh)            E(eV)
   0   2.0000     -20.601923      -560.6068
   1   2.0000     -20.539331      -558.9036
   2   2.0000     -11.380342      -309.6749
   3   2.0000     -11.284093      -307.0558
   4   2.0000     -11.257157      -306.3228
   5   2.0000     -11.248187      -306.0787
   6   2.0000      -1.458146       -39.6782
   7   2.0000      -1.357055       -36.9273
   8   2.0000      -1.080737       -29.4083
   9   2.0000      -0.979368       -26.6500
  10   2.0000      -0.855289       -23.2736
  11   2.0000      -0.760421       -20.6921
  12   2.0000      -0.713967       -19.4280
  13   2.0000      -0.676116       -18.3980
  14   2.0000      -0.670584       -18.2475
  15   2.0000      -0.633160       -17.2292
  16   2.0000      -0.585582       -15.9345
  17   2.0000      -0.555716       -15.1218
  18   2.0000      -0.550110       -14.9693
  19   2.0000      -0.528714       -14.3870
  20   2.0000      -0.464564       -12.6414
  21   2.0000      -0.452810       -12.3216
  22   2.0000      -0.396564       -10.7911
  23   0.0000       0.024985         0.6799
  24   0.0000       0.028805         0.7838
  25   0.0000       0.036910         1.0044
  26   0.0000       0.045786         1.2459
  27   0.0000       0.047872         1.3027

MULLIKEN ATOMIC CHARGES
-----------------------
   0 H :    0.440180
   1 H :    0.289011
   2 H :    0.289011
   3 C :   -0.657693
   4 O :   -0.649397
   5 O :   -0.754997
   6 C :    1.236189
   7 H :    0.433824
   8 C :   -0.693477
   9 H :    0.370651
  10 H :    0.388816
  11 C :   -0.692118
Sum of atomic charges:    0.0000000

LOEWDIN ATOMIC CHARGES
----------------------
   0 H :   -0.326093
   1 H :   -0.318198
   2 H :   -0.318198
   3 C :    0.576488
   4 O :    0.823503
   5 O :    0.696643
   6 C :   -1.135023
   7 H :   -0.369689
   8 C :    0.284429
   9 H :   -0.339171
  10 H :   -0.356769
  11 C :    0.782078

  Mayer bond orders larger than 0.100000
B(  0-H ,  3-C ) :   0.8146 B(  1-H ,  3-C ) :   0.9186 B(  2-H ,  3-C ) :   0.9186
B(  3-C ,  4-O ) :   0.8303 B(  4-O ,  6-C ) :   0.9591 B(  5-O ,  6-C ) :   1.3337
B(  5-O ,  8-C ) :   0.1173 B(  6-C ,  8-C ) :   0.8991 B(  6-C , 11-C ) :  -0.2135
B(  7-H ,  8-C ) :   0.7994 B(  8-C , 11-C ) :   1.7339 B(  9-H , 11-C ) :   0.9738
B( 10-H , 11-C ) :   0.8307

MP2 TOTAL ENERGY:     -306.014453283 Eh
FINAL SINGLE POINT ENERGY      -306.014453282552

DIPOLE MOMENT
-------------
                                X             Y             Z
Electronic contribution:     -0.59622       0.64972       0.00000
Nuclear contribution   :      0.29182      -1.25453       0.00000
                        -----------------------------------------
Total Dipole Moment    :     -0.30439      -0.60481       0.00000
                        -----------------------------------------
Magnitude (a.u.)       :      0.67709
Magnitude (Debye)      :      1.72102

Rotational constants in cm-1:     0.344316     0.077244     0.063847
Rotational constants in MHz : 10322.332080  2315.704212  1914.079011

                             ****ORCA TERMINATED NORMALLY****
TOTAL RUN TIME: 0 days 0 hours 18 minutes 48 seconds 833 msec
