                         Program Version 5.0.4 -  RELEASE  -
|  1> !ri-mp2 aug-cc-pvqz aug-cc-pvqz/c tightscf
|  2> %pal nprocs 16 end
|  3> %maxcore 3800
|  4>
|  5> * xyz 0 1
|  6> C      1.212750   -0.008767    0.000000
|  7> C     -1.191217   -0.059999    0.000000
|  8> C      1.253899   -1.395528    0.000000
|  9> C     -1.163891   -1.439772    0.000000
| 10> C      0.000000    0.676566    0.000000
| 11> C      0.059380   -2.119086    0.000000
| 12> C      0.029615    2.157734    0.000000
| 13> C      1.187057   -4.229322    0.000000
| 14> C     -1.258011    4.136065    0.000000
| 15> O      1.037630    2.827599    0.000000
| 16> O     -0.016913   -3.473560    0.000000
| 17> O     -1.208484    2.702078    0.000000
| 18> H      2.130570    0.561741    0.000000
| 19> H     -2.138564    0.457542    0.000000
| 20> H      2.208636   -1.897967    0.000000
| 21> H     -2.077198   -2.017737    0.000000
| 22> H      1.783547   -4.025408    0.892035
| 23> H      1.783547   -4.025408   -0.892035
| 24> H      0.883035   -5.272089    0.000000
| 25> H     -2.313254    4.391701    0.000000
| 26> H     -0.767834    4.535668   -0.886018
| 27> H     -0.767834    4.535668    0.886018
| 28> *
| 29>
| 30>                          ****END OF INPUT****

CARTESIAN COORDINATES (ANGSTROEM)
---------------------------------
  C      1.212750   -0.008767    0.000000
  C     -1.191217   -0.059999    0.000000
  C      1.253899   -1.395528    0.000000
  C     -1.163891   -1.439772    0.000000
  C      0.000000    0.676566    0.000000
  C      0.059380   -2.119086    0.000000
  C      0.029615    2.157734    0.000000
  C      1.187057   -4.229322    0.000000
  C     -1.258011    4.136065    0.000000
  O      1.037630    2.827599    0.000000
  O     -0.016913   -3.473560    0.000000
  O     -1.208484    2.702078    0.000000
  H      2.130570    0.561741    0.000000
  H     -2.138564    0.457542    0.000000
  H      2.208636   -1.897967    0.000000
  H     -2.077198   -2.017737    0.000000
  H      1.783547   -4.025408    0.892035
  H      1.783547   -4.025408   -0.892035
  H      0.883035   -5.272089    0.000000
  H     -2.313254    4.391701    0.000000
  H     -0.767834    4.535668   -0.886018
  H     -0.767834    4.535668    0.886018

 Total Charge           Charge          ....    0
 Multiplicity           Mult            ....    1
 Number of Electrons    NEL             ....   88
 Basis Dimension        Dim             .... 1420

ORBITAL ENERGIES
----------------

  NO   OCC          E(Eh)            E(eV)
   0   2.0000     -20.596032      -560.4465
   1   2.0000     -20.595397      -560.4292
   2   2.0000     -20.532656      -558.7220
   3   2.0000     -11.375788      -309.5509
   4   2.0000     -11.317348      -307.9607
   5   2.0000     -11.292540      -307.2856
   6   2.0000     -11.280847      -306.9675
   7   2.0000     -11.251873      -306.1790
   8   2.0000     -11.251633      -306.1725
   9   2.0000     -11.239586      -305.8447
  10   2.0000     -11.237099      -305.7770
  11   2.0000     -11.232739      -305.6584
  12   2.0000      -1.453253       -39.5450
  13   2.0000      -1.422948       -38.7204
  14   2.0000      -1.350749       -36.7558
  15   2.0000      -1.164527       -31.6884
  16   2.0000      -1.048797       -28.5392
  17   2.0000      -1.033072       -28.1113
  18   2.0000      -0.977652       -26.6033
  19   2.0000      -0.950011       -25.8511
  20   2.0000      -0.849696       -23.1214
  21   2.0000      -0.842468       -22.9247
  22   2.0000      -0.775342       -21.0981
  23   2.0000      -0.740416       -20.1477
  24   2.0000      -0.711366       -19.3573
  25   2.0000      -0.686662       -18.6850
  26   2.0000      -0.667736       -18.1700
  27   2.0000      -0.665599       -18.1119
  28   2.0000      -0.656778       -17.8718
  29   2.0000      -0.636384       -17.3169
  30   2.0000      -0.607983       -16.5440
  31   2.0000      -0.600794       -16.3484
  32   2.0000      -0.584335       -15.9006
  33   2.0000      -0.558077       -15.1861
  34   2.0000      -0.555657       -15.1202
  35   2.0000      -0.533457       -14.5161
  36   2.0000      -0.532421       -14.4879
  37   2.0000      -0.523708       -14.2508
  38   2.0000      -0.490657       -13.3515
  39   2.0000      -0.476722       -12.9723
  40   2.0000      -0.459180       -12.4949
  41   2.0000      -0.447860       -12.1869
  42   2.0000      -0.352630        -9.5956
  43   2.0000      -0.325874        -8.8675
  44   0.0000       0.021938         0.5970
  45   0.0000       0.027035         0.7357
  46   0.0000       0.030875         0.8402
  47   0.0000       0.036829         1.0022
  48   0.0000       0.039094         1.0638

MULLIKEN ATOMIC CHARGES
-----------------------
   0 C :   -0.173932
   1 C :   -0.219745
   2 C :   -0.465763
   3 C :   -0.462691
   4 C :   -0.664577
   5 C :    1.218571
   6 C :    1.749298
   7 C :   -0.700757
   8 C :   -0.740202
   9 O :   -0.866693
  10 O :   -0.820213
  11 O :   -0.754334
  12 H :    0.202562
  13 H :    0.222764
  14 H :    0.175888
  15 H :    0.227227
  16 H :    0.255250
  17 H :    0.255250
  18 H :    0.511092
  19 H :    0.427432
  20 H :    0.311787
  21 H :    0.311787
Sum of atomic charges:   -0.0000000

LOEWDIN ATOMIC CHARGES
----------------------
   0 C :    0.323954
   1 C :    0.326177
   2 C :    0.350420
   3 C :    0.339743
   4 C :   -0.150395
   5 C :   -0.451245
   6 C :   -1.092075
   7 C :    0.587929
   8 C :    0.581881
   9 O :    0.713836
  10 O :    0.880019
  11 O :    0.832369
  12 H :   -0.331837
  13 H :   -0.337719
  14 H :   -0.358642
  15 H :   -0.327948
  16 H :   -0.305362
  17 H :   -0.305362
  18 H :   -0.317323
  19 H :   -0.324400
  20 H :   -0.317009
  21 H :   -0.317009

  Mayer bond orders larger than 0.100000
B(  0-C ,  2-C ) :   0.9602 B(  0-C ,  3-C ) :   0.1805 B(  0-C ,  4-C ) :   1.2446
B(  0-C ,  5-C ) :  -0.1729 B(  0-C ,  6-C ) :  -0.4283 B(  0-C ,  9-O ) :  -0.1621
B(  0-C , 12-H ) :   1.0197 B(  0-C , 14-H ) :  -0.1262 B(  1-C ,  3-C ) :   1.1912
B(  1-C ,  4-C ) :   1.0771 B(  1-C ,  5-C ) :  -0.2998 B(  1-C ,  6-C ) :  -0.3797
B(  1-C , 11-O ) :  -0.1277 B(  1-C , 13-H ) :   1.0631 B(  1-C , 15-H ) :  -0.1458
B(  2-C ,  4-C ) :  -0.3846 B(  2-C ,  5-C ) :   1.2901 B(  2-C ,  7-C ) :   0.1653
B(  2-C , 10-O ) :   0.1959 B(  2-C , 12-H ) :  -0.1841 B(  2-C , 14-H ) :   1.1563
B(  3-C ,  4-C ) :  -0.2314 B(  3-C ,  5-C ) :   1.1856 B(  3-C , 10-O ) :   0.2346
B(  3-C , 13-H ) :  -0.1464 B(  3-C , 15-H ) :   1.0511 B(  4-C ,  6-C ) :   1.2112
B(  4-C ,  9-O ) :   0.6345 B(  4-C , 11-O ) :   0.2635 B(  4-C , 13-H ) :  -0.1149
B(  5-C ,  7-C ) :  -0.1629 B(  6-C ,  8-C ) :  -0.1479 B(  6-C ,  9-O ) :   0.8632
B(  6-C , 11-O ) :   0.8396 B(  7-C , 10-O ) :   0.9276 B(  7-C , 16-H ) :   0.9225
B(  7-C , 17-H ) :   0.9225 B(  7-C , 18-H ) :   0.7344 B(  8-C , 11-O ) :   0.8618
B(  8-C , 19-H ) :   0.8338 B(  8-C , 20-H ) :   0.9155 B(  8-C , 21-H ) :   0.9155
B(  9-O , 11-O ) :   0.1101

MP2 TOTAL ENERGY:     -573.770721558 Eh
FINAL SINGLE POINT ENERGY      -573.770721557602

DIPOLE MOMENT
-------------
                                X             Y             Z
Electronic contribution:     -0.88784       1.91570      -0.00000
Nuclear contribution   :      0.71776      -2.70903       0.00000
                        -----------------------------------------
Total Dipole Moment    :     -0.17008      -0.79333      -0.00000
                        -----------------------------------------
Magnitude (a.u.)       :      0.81136
Magnitude (Debye)      :      2.06231

Rotational constants in cm-1:     0.108844     0.014265     0.012672
Rotational constants in MHz :  3263.051885   427.649565   379.908430

                             ****ORCA TERMINATED NORMALLY****
TOTAL RUN TIME: 0 days 2 hours 16 minutes 43 seconds 455 msec
