                         Program Version 5.0.4 -  RELEASE  -
|  1> !ri-mp2 aug-cc-pvqz aug-cc-pvqz/c tightscf
|  2> %pal nprocs 16 end
|  3>
|  4> * xyz 0 1
|  5> C     -0.006539    1.816315    0.000770
|  6> C     -1.206885    1.122732    0.003227
|  7> C      1.203615    1.128282   -0.003363
|  8> C      0.003201   -0.944349   -0.003037
|  9> C     -1.217101   -0.275020    0.000767
| 10> C      1.224038   -0.263414   -0.004087
| 11> C     -2.520205   -1.031510   -0.000034
| 12> C      2.523101   -1.026861    0.003313
| 13> H     -0.009355    2.898503    0.000809
| 14> H     -2.143779    1.666030    0.005352
| 15> H      2.135935    1.678679   -0.006919
| 16> H      0.006865   -2.028704   -0.006327
| 17> H     -2.355320   -2.108183    0.003671
| 18> H     -3.122522   -0.782103    0.875925
| 19> H     -3.118135   -0.787666   -0.880617
| 20> H      2.555129   -1.763345   -0.801592
| 21> H      3.375896   -0.360048   -0.117283
| 22> H      2.655935   -1.570209    0.941651
| 23> *
| 24>
| 25>                          ****END OF INPUT****

CARTESIAN COORDINATES (ANGSTROEM)
---------------------------------
  C     -0.006539    1.816315    0.000770
  C     -1.206885    1.122732    0.003227
  C      1.203615    1.128282   -0.003363
  C      0.003201   -0.944349   -0.003037
  C     -1.217101   -0.275020    0.000767
  C      1.224038   -0.263414   -0.004087
  C     -2.520205   -1.031510   -0.000034
  C      2.523101   -1.026861    0.003313
  H     -0.009355    2.898503    0.000809
  H     -2.143779    1.666030    0.005352
  H      2.135935    1.678679   -0.006919
  H      0.006865   -2.028704   -0.006327
  H     -2.355320   -2.108183    0.003671
  H     -3.122522   -0.782103    0.875925
  H     -3.118135   -0.787666   -0.880617
  H      2.555129   -1.763345   -0.801592
  H      3.375896   -0.360048   -0.117283
  H      2.655935   -1.570209    0.941651

 Total Charge           Charge          ....    0
 Multiplicity           Mult            ....    1
 Number of Electrons    NEL             ....   58
 Basis Dimension        Dim             .... 1100

ORBITAL ENERGIES
----------------

  NO   OCC          E(Eh)            E(eV)
   0   2.0000     -11.237148      -305.7783
   1   2.0000     -11.236726      -305.7669
   2   2.0000     -11.228383      -305.5398
   3   2.0000     -11.220265      -305.3189
   4   2.0000     -11.220180      -305.3166
   5   2.0000     -11.220118      -305.3149
   6   2.0000     -11.220066      -305.3135
   7   2.0000     -11.219720      -305.3041
   8   2.0000      -1.153693       -31.3936
   9   2.0000      -1.054650       -28.6985
  10   2.0000      -1.026304       -27.9272
  11   2.0000      -0.938032       -25.5252
  12   2.0000      -0.924677       -25.1617
  13   2.0000      -0.812608       -22.1122
  14   2.0000      -0.779590       -21.2137
  15   2.0000      -0.681512       -18.5449
  16   2.0000      -0.642482       -17.4828
  17   2.0000      -0.616155       -16.7664
  18   2.0000      -0.579576       -15.7711
  19   2.0000      -0.568287       -15.4639
  20   2.0000      -0.567175       -15.4336
  21   2.0000      -0.559573       -15.2267
  22   2.0000      -0.549962       -14.9652
  23   2.0000      -0.525329       -14.2949
  24   2.0000      -0.479682       -13.0528
  25   2.0000      -0.478709       -13.0263
  26   2.0000      -0.476068       -12.9545
  27   2.0000      -0.327050        -8.8995
  28   2.0000      -0.317584        -8.6419
  29   0.0000       0.025758         0.7009
  30   0.0000       0.028170         0.7665
  31   0.0000       0.029426         0.8007
  32   0.0000       0.040009         1.0887
  33   0.0000       0.040964         1.1147

MULLIKEN ATOMIC CHARGES
-----------------------
   0 C :   -0.348198
   1 C :   -0.401686
   2 C :   -0.471091
   3 C :   -0.447344
   4 C :    0.482535
   5 C :    0.371219
   6 C :   -0.833433
   7 C :   -0.830205
   8 H :    0.192705
   9 H :    0.327351
  10 H :    0.266986
  11 H :    0.277709
  12 H :    0.231331
  13 H :    0.227857
  14 H :    0.230981
  15 H :    0.223420
  16 H :    0.251579
  17 H :    0.248284
Sum of atomic charges:    0.0000000

LOEWDIN ATOMIC CHARGES
----------------------
   0 C :    0.347692
   1 C :    0.338980
   2 C :    0.342765
   3 C :    0.345425
   4 C :   -0.072193
   5 C :   -0.071645
   6 C :    0.906639
   7 C :    0.906965
   8 H :   -0.322030
   9 H :   -0.319584
  10 H :   -0.326559
  11 H :   -0.320332
  12 H :   -0.310143
  13 H :   -0.284195
  14 H :   -0.283854
  15 H :   -0.287097
  16 H :   -0.309524
  17 H :   -0.281312

  Mayer bond orders larger than 0.100000
B(  0-C ,  1-C ) :   1.2571 B(  0-C ,  2-C ) :   1.3051 B(  0-C ,  3-C ) :   0.1658
B(  0-C ,  4-C ) :  -0.2515 B(  0-C ,  5-C ) :  -0.3689 B(  0-C ,  8-H ) :   1.2163
B(  1-C ,  2-C ) :   0.1509 B(  1-C ,  4-C ) :   0.9609 B(  1-C ,  6-C ) :  -0.1008
B(  1-C ,  8-H ) :  -0.1652 B(  1-C ,  9-H ) :   0.9395 B(  2-C ,  5-C ) :   0.9484
B(  2-C ,  8-H ) :  -0.1603 B(  2-C , 10-H ) :   1.0035 B(  3-C ,  4-C ) :   1.0765
B(  3-C ,  5-C ) :   1.0636 B(  3-C ,  7-C ) :  -0.1754 B(  3-C , 11-H ) :   0.9495
B(  4-C ,  5-C ) :  -0.4259 B(  4-C ,  6-C ) :   0.7387 B(  5-C ,  7-C ) :   0.7925
B(  5-C , 15-H ) :  -0.1035 B(  6-C , 12-H ) :   1.0319 B(  6-C , 13-H ) :   1.0178
B(  6-C , 14-H ) :   1.0198 B(  7-C , 15-H ) :   1.0301 B(  7-C , 16-H ) :   1.0299
B(  7-C , 17-H ) :   0.9919

MP2 TOTAL ENERGY:     -310.291124513 Eh
FINAL SINGLE POINT ENERGY      -310.291124512628

DIPOLE MOMENT
-------------
                                X             Y             Z
Electronic contribution:      0.00545       3.08922      -0.01092
Nuclear contribution   :     -0.01985      -3.23913       0.01505
                        -----------------------------------------
Total Dipole Moment    :     -0.01440      -0.14990       0.00413
                        -----------------------------------------
Magnitude (a.u.)       :      0.15065
Magnitude (Debye)      :      0.38292

Rotational constants in cm-1:     0.119814     0.058907     0.040075
Rotational constants in MHz :  3591.922440  1765.975691  1201.419058

                             ****ORCA TERMINATED NORMALLY****
TOTAL RUN TIME: 0 days 1 hours 12 minutes 24 seconds 817 msec
