                         Program Version 5.0.4 -  RELEASE  -
|  1> !ri-mp2 aug-cc-pvqz aug-cc-pvqz/c tightscf
|  2> %pal nprocs 16 end
|  3>
|  4> * xyz 0 1
|  5> C     -2.236697    0.080677   -0.129130
|  6> H     -2.322637   -0.067127   -1.206237
|  7> H     -3.133658   -0.332836    0.333139
|  8> H     -2.233285    1.152436    0.067774
|  9> C     -1.000479   -0.609481    0.429352
| 10> H     -1.046983   -1.689171    0.288441
| 11> H     -0.841528   -0.414738    1.490353
| 12> C      0.730937    1.540292    0.218013
| 13> H     -0.093206    2.158259   -0.133594
| 14> S      0.566260   -0.160011   -0.432652
| 15> O      1.651899   -0.967089    0.229435
| 16> H      1.671903    1.924648   -0.167830
| 17> H      0.761473    1.496490    1.305499
| 18> *
| 19>
| 20>                          ****END OF INPUT****

CARTESIAN COORDINATES (ANGSTROEM)
---------------------------------
  C     -2.236697    0.080677   -0.129130
  H     -2.322637   -0.067127   -1.206237
  H     -3.133658   -0.332836    0.333139
  H     -2.233285    1.152436    0.067774
  C     -1.000479   -0.609481    0.429352
  H     -1.046983   -1.689171    0.288441
  H     -0.841528   -0.414738    1.490353
  C      0.730937    1.540292    0.218013
  H     -0.093206    2.158259   -0.133594
  S      0.566260   -0.160011   -0.432652
  O      1.651899   -0.967089    0.229435
  H      1.671903    1.924648   -0.167830
  H      0.761473    1.496490    1.305499

 Total Charge           Charge          ....    0
 Multiplicity           Mult            ....    1
 Number of Electrons    NEL             ....   50
 Basis Dimension        Dim             ....  772

ORBITAL ENERGIES
----------------

  NO   OCC          E(Eh)            E(eV)
   0   2.0000     -92.061779     -2505.1284
   1   2.0000     -20.498575      -557.7946
   2   2.0000     -11.266413      -306.5747
   3   2.0000     -11.260800      -306.4219
   4   2.0000     -11.243590      -305.9536
   5   2.0000      -9.049009      -246.2361
   6   2.0000      -6.731098      -183.1625
   7   2.0000      -6.730788      -183.1541
   8   2.0000      -6.729518      -183.1195
   9   2.0000      -1.324520       -36.0420
  10   2.0000      -1.081266       -29.4227
  11   2.0000      -1.009333       -27.4653
  12   2.0000      -0.902619       -24.5615
  13   2.0000      -0.802628       -21.8406
  14   2.0000      -0.655436       -17.8353
  15   2.0000      -0.635626       -17.2963
  16   2.0000      -0.613867       -16.7042
  17   2.0000      -0.590413       -16.0660
  18   2.0000      -0.573648       -15.6098
  19   2.0000      -0.557006       -15.1569
  20   2.0000      -0.531412       -14.4605
  21   2.0000      -0.517132       -14.0719
  22   2.0000      -0.507986       -13.8230
  23   2.0000      -0.410516       -11.1707
  24   2.0000      -0.363584        -9.8936
  25   0.0000       0.021186         0.5765
  26   0.0000       0.029129         0.7926
  27   0.0000       0.033487         0.9112
  28   0.0000       0.038364         1.0439
  29   0.0000       0.048910         1.3309

MULLIKEN ATOMIC CHARGES
-----------------------
   0 C :   -0.837122
   1 H :    0.246817
   2 H :    0.315121
   3 H :    0.248195
   4 C :   -0.541016
   5 H :    0.338188
   6 H :    0.266504
   7 C :   -1.057515
   8 H :    0.350569
   9 S :    1.138947
  10 O :   -1.190097
  11 H :    0.420587
  12 H :    0.300823
Sum of atomic charges:   -0.0000000

LOEWDIN ATOMIC CHARGES
----------------------
   0 C :    0.864153
   1 H :   -0.295825
   2 H :   -0.285603
   3 H :   -0.310933
   4 C :    0.316757
   5 H :   -0.357705
   6 H :   -0.340420
   7 C :    0.733024
   8 H :   -0.362152
   9 S :    0.679281
  10 O :    0.065812
  11 H :   -0.360277
  12 H :   -0.346111

  Mayer bond orders larger than 0.100000
B(  0-C ,  1-H ) :   0.9349 B(  0-C ,  2-H ) :   0.9054 B(  0-C ,  3-H ) :   0.9474
B(  0-C ,  4-C ) :   0.9801 B(  4-C ,  5-H ) :   0.8372 B(  4-C ,  6-H ) :   0.8887
B(  4-C ,  9-S ) :   0.9416 B(  7-C ,  8-H ) :   0.8794 B(  7-C ,  9-S ) :   0.9764
B(  7-C , 11-H ) :   0.8147 B(  7-C , 12-H ) :   0.8810 B(  9-S , 10-O ) :   1.2059

MP2 TOTAL ENERGY:     -591.755000191 Eh
FINAL SINGLE POINT ENERGY      -591.755000191169

DIPOLE MOMENT
-------------
                                X             Y             Z
Electronic contribution:      5.81536      -3.17389      -2.05324
Nuclear contribution   :     -7.36645       4.29764       2.03234
                        -----------------------------------------
Total Dipole Moment    :     -1.55109       1.12374      -0.02090
                        -----------------------------------------
Magnitude (a.u.)       :      1.91549
Magnitude (Debye)      :      4.86880

Rotational constants in cm-1:     0.213235     0.097347     0.076167
Rotational constants in MHz :  6392.621191  2918.403974  2283.420899

                             ****ORCA TERMINATED NORMALLY****
TOTAL RUN TIME: 0 days 0 hours 21 minutes 17 seconds 541 msec
