                         Program Version 5.0.4 -  RELEASE  -
|  1> !ri-mp2 aug-cc-pvqz aug-cc-pvqz/c tightscf
|  2> %pal nprocs 16 end
|  3>
|  4> * xyz 0 1
|  5> S     1.487854   -0.652185    0.000095
|  6> S    -2.683866    0.052343   -0.000262
|  7> N     0.082020    0.281815    0.000072
|  8> C     2.714170    0.680388    0.000283
|  9> C    -1.107551    0.131432   -0.000082
| 10> H     3.680142    0.176343    0.000324
| 11> H     2.621166    1.288815   -0.895396
| 12> H     2.621025    1.288688    0.896033
| 13> *
| 14>
| 15>                          ****END OF INPUT****

CARTESIAN COORDINATES (ANGSTROEM)
---------------------------------
  S      1.487854   -0.652185    0.000095
  S     -2.683866    0.052343   -0.000262
  N      0.082020    0.281815    0.000072
  C      2.714170    0.680388    0.000283
  C     -1.107551    0.131432   -0.000082
  H      3.680142    0.176343    0.000324
  H      2.621166    1.288815   -0.895396
  H      2.621025    1.288688    0.896033

 Total Charge           Charge          ....    0
 Multiplicity           Mult            ....    1
 Number of Electrons    NEL             ....   54
 Basis Dimension        Dim             ....  546

ORBITAL ENERGIES
----------------

  NO   OCC          E(Eh)            E(eV)
   0   2.0000     -92.022619     -2504.0628
   1   2.0000     -91.955552     -2502.2378
   2   2.0000     -15.620496      -425.0553
   3   2.0000     -11.378960      -309.6372
   4   2.0000     -11.277402      -306.8737
   5   2.0000      -9.019233      -245.4258
   6   2.0000      -8.959460      -243.7993
   7   2.0000      -6.700987      -182.3431
   8   2.0000      -6.699212      -182.2948
   9   2.0000      -6.698198      -182.2672
  10   2.0000      -6.641223      -180.7169
  11   2.0000      -6.639047      -180.6576
  12   2.0000      -6.638681      -180.6477
  13   2.0000      -1.296467       -35.2787
  14   2.0000      -1.083253       -29.4768
  15   2.0000      -1.026973       -27.9454
  16   2.0000      -0.912561       -24.8320
  17   2.0000      -0.700591       -19.0640
  18   2.0000      -0.625109       -17.0101
  19   2.0000      -0.609395       -16.5825
  20   2.0000      -0.606684       -16.5087
  21   2.0000      -0.579829       -15.7779
  22   2.0000      -0.579724       -15.7751
  23   2.0000      -0.489523       -13.3206
  24   2.0000      -0.417156       -11.3514
  25   2.0000      -0.373847       -10.1729
  26   2.0000      -0.332197        -9.0395
  27   0.0000       0.021312         0.5799
  28   0.0000       0.037172         1.0115
  29   0.0000       0.038937         1.0595
  30   0.0000       0.044657         1.2152
  31   0.0000       0.054870         1.4931

MULLIKEN ATOMIC CHARGES
-----------------------
   0 S :    0.420025
   1 S :    0.119698
   2 N :   -0.793115
   3 C :   -0.915513
   4 C :    0.237422
   5 H :    0.366967
   6 H :    0.282257
   7 H :    0.282260
Sum of atomic charges:   -0.0000000

LOEWDIN ATOMIC CHARGES
----------------------
   0 S :    1.042681
   1 S :    0.925078
   2 N :   -0.162192
   3 C :    0.543273
   4 C :   -1.198878
   5 H :   -0.401148
   6 H :   -0.374407
   7 H :   -0.374408

  Mayer bond orders larger than 0.100000
B(  0-S ,  2-N ) :   0.7438 B(  0-S ,  3-C ) :   1.0270 B(  1-S ,  2-N ) :   0.1096
B(  1-S ,  4-C ) :   1.5400 B(  2-N ,  4-C ) :   2.1860 B(  3-C ,  5-H ) :   0.8605
B(  3-C ,  6-H ) :   0.9063 B(  3-C ,  7-H ) :   0.9063

MP2 TOTAL ENERGY:     -927.993500573 Eh
FINAL SINGLE POINT ENERGY      -927.993500572714

DIPOLE MOMENT
-------------
                                X             Y             Z
Electronic contribution:     -7.30092      -2.44414      -0.00081
Nuclear contribution   :      8.63965       2.67491       0.00093
                        -----------------------------------------
Total Dipole Moment    :      1.33874       0.23077       0.00012
                        -----------------------------------------
Magnitude (a.u.)       :      1.35848
Magnitude (Debye)      :      3.45299

Rotational constants in cm-1:     0.664029     0.038867     0.036979
Rotational constants in MHz : 19907.094246  1165.216423  1108.595706

                             ****ORCA TERMINATED NORMALLY****
TOTAL RUN TIME: 0 days 0 hours 4 minutes 52 seconds 575 msec
