                         Program Version 5.0.4 -  RELEASE  -
|  1> !ri-mp2 aug-cc-pvqz aug-cc-pvqz/c tightscf
|  2> %pal nprocs 16 end
|  3>
|  4> * xyz 0 1
|  5> C      0.000000    0.466246    0.000000
|  6> C     -0.565797    2.760319    0.000000
|  7> C     -0.633002   -0.915121    0.000000
|  8> O      1.170077    0.724321    0.000000
|  9> O     -0.987371    1.382600    0.000000
| 10> Cl     0.569257   -2.233268    0.000000
| 11> H      0.026696    2.973494    0.887304
| 12> H     -1.480710    3.343662    0.000000
| 13> H      0.026696    2.973494   -0.887304
| 14> H     -1.259449   -1.024561   -0.881342
| 15> H     -1.259449   -1.024561    0.881342
| 16> *
| 17>
| 18>                          ****END OF INPUT****

CARTESIAN COORDINATES (ANGSTROEM)
---------------------------------
  C      0.000000    0.466246    0.000000
  C     -0.565797    2.760319    0.000000
  C     -0.633002   -0.915121    0.000000
  O      1.170077    0.724321    0.000000
  O     -0.987371    1.382600    0.000000
  Cl     0.569257   -2.233268    0.000000
  H      0.026696    2.973494    0.887304
  H     -1.480710    3.343662    0.000000
  H      0.026696    2.973494   -0.887304
  H     -1.259449   -1.024561   -0.881342
  H     -1.259449   -1.024561    0.881342

 Total Charge           Charge          ....    0
 Multiplicity           Mult            ....    1
 Number of Electrons    NEL             ....   56
 Basis Dimension        Dim             ....  714

ORBITAL ENERGIES
----------------

  NO   OCC          E(Eh)            E(eV)
   0   2.0000    -104.834274     -2852.6856
   1   2.0000     -20.617111      -561.0201
   2   2.0000     -20.559567      -559.4543
   3   2.0000     -11.397910      -310.1529
   4   2.0000     -11.317354      -307.9609
   5   2.0000     -11.296944      -307.4055
   6   2.0000     -10.559467      -287.3377
   7   2.0000      -8.026585      -218.4145
   8   2.0000      -8.024783      -218.3654
   9   2.0000      -8.024761      -218.3649
  10   2.0000      -1.476578       -40.1797
  11   2.0000      -1.377903       -37.4947
  12   2.0000      -1.147058       -31.2130
  13   2.0000      -1.017304       -27.6823
  14   2.0000      -0.934283       -25.4231
  15   2.0000      -0.788984       -21.4694
  16   2.0000      -0.722807       -19.6686
  17   2.0000      -0.698454       -19.0059
  18   2.0000      -0.688324       -18.7302
  19   2.0000      -0.638697       -17.3798
  20   2.0000      -0.612465       -16.6660
  21   2.0000      -0.556238       -15.1360
  22   2.0000      -0.551451       -15.0057
  23   2.0000      -0.544637       -14.8203
  24   2.0000      -0.479816       -13.0565
  25   2.0000      -0.472704       -12.8629
  26   2.0000      -0.446416       -12.1476
  27   2.0000      -0.444730       -12.1017
  28   0.0000       0.022006         0.5988
  29   0.0000       0.032196         0.8761
  30   0.0000       0.035729         0.9722
  31   0.0000       0.041073         1.1177
  32   0.0000       0.051585         1.4037

MULLIKEN ATOMIC CHARGES
-----------------------
   0 C :    0.946181
   1 C :   -0.660899
   2 C :   -0.379231
   3 O :   -0.694403
   4 O :   -0.652006
   5 Cl:   -0.275013
   6 H :    0.292557
   7 H :    0.434167
   8 H :    0.292557
   9 H :    0.348045
  10 H :    0.348045
Sum of atomic charges:    0.0000000

LOEWDIN ATOMIC CHARGES
----------------------
   0 C :   -1.200087
   1 C :    0.590529
   2 C :   -0.235870
   3 O :    0.677889
   4 O :    0.827883
   5 Cl:    1.133467
   6 H :   -0.315540
   7 H :   -0.323940
   8 H :   -0.315540
   9 H :   -0.419395
  10 H :   -0.419395

  Mayer bond orders larger than 0.100000
B(  0-C ,  2-C ) :   0.9383 B(  0-C ,  3-O ) :   1.4941 B(  0-C ,  4-O ) :   1.0483
B(  0-C ,  5-Cl) :  -0.1378 B(  1-C ,  4-O ) :   0.8281 B(  1-C ,  6-H ) :   0.9136
B(  1-C ,  7-H ) :   0.8211 B(  1-C ,  8-H ) :   0.9136 B(  2-C ,  5-Cl) :   0.9458
B(  2-C ,  9-H ) :   0.8349 B(  2-C , 10-H ) :   0.8349

MP2 TOTAL ENERGY:     -727.138518251 Eh
FINAL SINGLE POINT ENERGY      -727.138518250871

DIPOLE MOMENT
-------------
                                X             Y             Z
Electronic contribution:      3.40393      -9.38483       0.00000
Nuclear contribution   :     -4.61080      10.14640       0.00000
                        -----------------------------------------
Total Dipole Moment    :     -1.20686       0.76157       0.00000
                        -----------------------------------------
Magnitude (a.u.)       :      1.42707
Magnitude (Debye)      :      3.62731

Rotational constants in cm-1:     0.329383     0.045787     0.040813
Rotational constants in MHz :  9874.644410  1372.661064  1223.536428

                             ****ORCA TERMINATED NORMALLY****
TOTAL RUN TIME: 0 days 0 hours 14 minutes 45 seconds 624 msec
