                         Program Version 5.0.4 -  RELEASE  -
|  1> !ri-mp2 aug-cc-pvqz aug-cc-pvqz/c tightscf
|  2> %pal nprocs 16 end
|  3>
|  4> * xyz 0 1
|  5> O     -0.793144    1.368201   -0.000236
|  6> C     -0.564751    0.180694   -0.000163
|  7> C      0.769320   -0.452538   -0.000259
|  8> C      1.881122    0.280508    0.000126
|  9> C      3.269891   -0.259619    0.000137
| 10> O     -1.538842   -0.759642    0.000060
| 11> C     -2.885236   -0.262814    0.000226
| 12> H      0.797736   -1.534345   -0.001112
| 13> H      1.768232    1.360075    0.000946
| 14> H      3.819852    0.096612    0.875095
| 15> H      3.287143   -1.348669   -0.000445
| 16> H      3.820235    0.097410   -0.874284
| 17> H     -3.068501    0.342864    0.886099
| 18> H     -3.068919    0.342320   -0.885935
| 19> H     -3.521975   -1.142120    0.000642
| 20> *
| 21>
| 22>                          ****END OF INPUT****

CARTESIAN COORDINATES (ANGSTROEM)
---------------------------------
  O     -0.793144    1.368201   -0.000236
  C     -0.564751    0.180694   -0.000163
  C      0.769320   -0.452538   -0.000259
  C      1.881122    0.280508    0.000126
  C      3.269891   -0.259619    0.000137
  O     -1.538842   -0.759642    0.000060
  C     -2.885236   -0.262814    0.000226
  H      0.797736   -1.534345   -0.001112
  H      1.768232    1.360075    0.000946
  H      3.819852    0.096612    0.875095
  H      3.287143   -1.348669   -0.000445
  H      3.820235    0.097410   -0.874284
  H     -3.068501    0.342864    0.886099
  H     -3.068919    0.342320   -0.885935
  H     -3.521975   -1.142120    0.000642

 Total Charge           Charge          ....    0
 Multiplicity           Mult            ....    1
 Number of Electrons    NEL             ....   54
 Basis Dimension        Dim             ....  928

ORBITAL ENERGIES
----------------

  NO   OCC          E(Eh)            E(eV)
   0   2.0000     -20.595739      -560.4385
   1   2.0000     -20.531987      -558.7038
   2   2.0000     -11.374051      -309.5037
   3   2.0000     -11.279656      -306.9351
   4   2.0000     -11.261416      -306.4387
   5   2.0000     -11.237145      -305.7783
   6   2.0000     -11.234615      -305.7094
   7   2.0000      -1.451266       -39.4910
   8   2.0000      -1.349866       -36.7317
   9   2.0000      -1.098284       -29.8858
  10   2.0000      -0.999500       -27.1978
  11   2.0000      -0.945553       -25.7298
  12   2.0000      -0.818344       -22.2683
  13   2.0000      -0.750368       -20.4185
  14   2.0000      -0.712680       -19.3930
  15   2.0000      -0.671091       -18.2613
  16   2.0000      -0.665142       -18.0994
  17   2.0000      -0.607326       -16.5262
  18   2.0000      -0.597628       -16.2623
  19   2.0000      -0.584797       -15.9131
  20   2.0000      -0.551360       -15.0033
  21   2.0000      -0.548570       -14.9274
  22   2.0000      -0.526071       -14.3151
  23   2.0000      -0.519319       -14.1314
  24   2.0000      -0.459103       -12.4928
  25   2.0000      -0.446153       -12.1404
  26   2.0000      -0.377993       -10.2857
  27   0.0000       0.023782         0.6471
  28   0.0000       0.029075         0.7912
  29   0.0000       0.034660         0.9431
  30   0.0000       0.039233         1.0676
  31   0.0000       0.046339         1.2609

MULLIKEN ATOMIC CHARGES
-----------------------
   0 O :   -0.771191
   1 C :    1.335989
   2 C :   -0.875467
   3 C :   -0.228975
   4 C :   -0.665499
   5 O :   -0.727090
   6 C :   -0.678236
   7 H :    0.422086
   8 H :    0.444435
   9 H :    0.232216
  10 H :    0.251428
  11 H :    0.232176
  12 H :    0.294578
  13 H :    0.294563
  14 H :    0.438987
Sum of atomic charges:    0.0000000

LOEWDIN ATOMIC CHARGES
----------------------
   0 O :    0.698344
   1 C :   -1.121726
   2 C :    0.305553
   3 C :    0.363390
   4 C :    0.908489
   5 O :    0.824956
   6 C :    0.572547
   7 H :   -0.362992
   8 H :   -0.333150
   9 H :   -0.290534
  10 H :   -0.309259
  11 H :   -0.290512
  12 H :   -0.318994
  13 H :   -0.318960
  14 H :   -0.327150

  Mayer bond orders larger than 0.100000
B(  0-O ,  1-C ) :   1.2524 B(  0-O ,  2-C ) :   0.1053 B(  0-O ,  5-O ) :   0.1009
B(  1-C ,  2-C ) :   1.1203 B(  1-C ,  3-C ) :  -0.3309 B(  1-C ,  5-O ) :   0.9445
B(  2-C ,  3-C ) :   1.5205 B(  2-C ,  4-C ) :  -0.1780 B(  2-C ,  7-H ) :   0.7781
B(  3-C ,  4-C ) :   0.9053 B(  3-C ,  8-H ) :   0.7396 B(  4-C ,  9-H ) :   0.9839
B(  4-C , 10-H ) :   0.9572 B(  4-C , 11-H ) :   0.9840 B(  5-O ,  6-C ) :   0.8468
B(  6-C , 12-H ) :   0.9156 B(  6-C , 13-H ) :   0.9156 B(  6-C , 14-H ) :   0.8174

MP2 TOTAL ENERGY:     -345.256893465 Eh
FINAL SINGLE POINT ENERGY      -345.256893464599

DIPOLE MOMENT
-------------
                                X             Y             Z
Electronic contribution:     -3.39716       1.15784      -0.00084
Nuclear contribution   :      3.84631      -1.79931       0.00102
                        -----------------------------------------
Total Dipole Moment    :      0.44915      -0.64146       0.00017
                        -----------------------------------------
Magnitude (a.u.)       :      0.78308
Magnitude (Debye)      :      1.99042

Rotational constants in cm-1:     0.304551     0.041279     0.036849
Rotational constants in MHz :  9130.208382  1237.524976  1104.698963

                             ****ORCA TERMINATED NORMALLY****
TOTAL RUN TIME: 0 days 0 hours 32 minutes 3 seconds 645 msec
