                         Program Version 5.0.4 -  RELEASE  -
|  1> !ri-mp2 aug-cc-pvqz aug-cc-pvqz/c tightscf
|  2> %pal nprocs 16 end
|  3>
|  4> * xyz 0 1
|  5> C      0.284009   -0.759507    0.000000
|  6> C     -0.302823    1.638533    0.742121
|  7> C     -0.302823    1.638533   -0.742121
|  8> C     -0.688018    0.369102    0.000000
|  9> C     -0.302823   -2.152697    0.000000
| 10> O      1.484030   -0.570889    0.000000
| 11> H      0.655236    1.614399    1.240617
| 12> H     -1.093428    2.156153    1.265732
| 13> H     -1.093428    2.156153   -1.265732
| 14> H      0.655236    1.614399   -1.240617
| 15> H     -1.734635    0.099083    0.000000
| 16> H     -0.938808   -2.291274    0.877339
| 17> H     -0.938808   -2.291274   -0.877339
| 18> H      0.491252   -2.894317    0.000000
| 19> *
| 20>
| 21>                          ****END OF INPUT****

CARTESIAN COORDINATES (ANGSTROEM)
---------------------------------
  C      0.284009   -0.759507    0.000000
  C     -0.302823    1.638533    0.742121
  C     -0.302823    1.638533   -0.742121
  C     -0.688018    0.369102    0.000000
  C     -0.302823   -2.152697    0.000000
  O      1.484030   -0.570889    0.000000
  H      0.655236    1.614399    1.240617
  H     -1.093428    2.156153    1.265732
  H     -1.093428    2.156153   -1.265732
  H      0.655236    1.614399   -1.240617
  H     -1.734635    0.099083    0.000000
  H     -0.938808   -2.291274    0.877339
  H     -0.938808   -2.291274   -0.877339
  H      0.491252   -2.894317    0.000000

 Total Charge           Charge          ....    0
 Multiplicity           Mult            ....    1
 Number of Electrons    NEL             ....   46
 Basis Dimension        Dim             ....  848

ORBITAL ENERGIES
----------------

  NO   OCC          E(Eh)            E(eV)
   0   2.0000     -20.534143      -558.7624
   1   2.0000     -11.327980      -308.2500
   2   2.0000     -11.241335      -305.8923
   3   2.0000     -11.238647      -305.8191
   4   2.0000     -11.237970      -305.8007
   5   2.0000     -11.231776      -305.6322
   6   2.0000      -1.380058       -37.5533
   7   2.0000      -1.153792       -31.3963
   8   2.0000      -1.016924       -27.6719
   9   2.0000      -0.878244       -23.8982
  10   2.0000      -0.832076       -22.6419
  11   2.0000      -0.733669       -19.9642
  12   2.0000      -0.688403       -18.7324
  13   2.0000      -0.655157       -17.8277
  14   2.0000      -0.606535       -16.5047
  15   2.0000      -0.600924       -16.3520
  16   2.0000      -0.576221       -15.6798
  17   2.0000      -0.544208       -14.8087
  18   2.0000      -0.531488       -14.4625
  19   2.0000      -0.500227       -13.6119
  20   2.0000      -0.450029       -12.2459
  21   2.0000      -0.417861       -11.3706
  22   2.0000      -0.407135       -11.0787
  23   0.0000       0.022771         0.6196
  24   0.0000       0.029625         0.8061
  25   0.0000       0.032698         0.8898
  26   0.0000       0.037209         1.0125
  27   0.0000       0.048405         1.3172

MULLIKEN ATOMIC CHARGES
-----------------------
   0 C :    0.768121
   1 C :   -0.600980
   2 C :   -0.600980
   3 C :   -0.579359
   4 C :   -0.904994
   5 O :   -0.763260
   6 H :    0.367118
   7 H :    0.365105
   8 H :    0.365107
   9 H :    0.367118
  10 H :    0.412271
  11 H :    0.247978
  12 H :    0.247979
  13 H :    0.308776
Sum of atomic charges:    0.0000000

LOEWDIN ATOMIC CHARGES
----------------------
   0 C :   -0.645232
   1 C :    0.591475
   2 C :    0.591475
   3 C :    0.114771
   4 C :    0.898872
   5 O :    0.748475
   6 H :   -0.288240
   7 H :   -0.266367
   8 H :   -0.266367
   9 H :   -0.288240
  10 H :   -0.290534
  11 H :   -0.291564
  12 H :   -0.291564
  13 H :   -0.316958

  Mayer bond orders larger than 0.100000
B(  0-C ,  3-C ) :   0.7970 B(  0-C ,  4-C ) :   0.9492 B(  0-C ,  5-O ) :   1.1849
B(  1-C ,  2-C ) :   1.1438 B(  1-C ,  3-C ) :   0.7818 B(  1-C ,  6-H ) :   0.8430
B(  1-C ,  7-H ) :   0.8560 B(  2-C ,  3-C ) :   0.7817 B(  2-C ,  8-H ) :   0.8560
B(  2-C ,  9-H ) :   0.8430 B(  3-C ,  5-O ) :   0.1919 B(  3-C , 10-H ) :   0.8016
B(  4-C ,  5-O ) :   0.1012 B(  4-C , 11-H ) :   0.9559 B(  4-C , 12-H ) :   0.9559
B(  4-C , 13-H ) :   0.9815

MP2 TOTAL ENERGY:     -270.090597027 Eh
FINAL SINGLE POINT ENERGY      -270.090597026690

DIPOLE MOMENT
-------------
                                X             Y             Z
Electronic contribution:      2.79690      -0.15925       0.00000
Nuclear contribution   :     -4.08139       0.15849      -0.00000
                        -----------------------------------------
Total Dipole Moment    :     -1.28449      -0.00075       0.00000
                        -----------------------------------------
Magnitude (a.u.)       :      1.28449
Magnitude (Debye)      :      3.26491

Rotational constants in cm-1:     0.241054     0.087241     0.076301
Rotational constants in MHz :  7226.631877  2615.414379  2287.455152

                             ****ORCA TERMINATED NORMALLY****
TOTAL RUN TIME: 0 days 0 hours 29 minutes 6 seconds 159 msec
