                         Program Version 5.0.4 -  RELEASE  -
|  1> !ri-mp2 aug-cc-pvqz aug-cc-pvqz/c tightscf
|  2> %pal nprocs 16 end
|  3>
|  4> * xyz 0 1
|  5> N      0.000000    0.723823    0.000000
|  6> N     -0.513023    1.731413    0.000000
|  7> N      0.675733   -0.298488    0.000000
|  8> C     -0.069885   -1.567760    0.000000
|  9> H      0.668896   -2.362474    0.000000
| 10> H     -0.694278   -1.664099    0.890793
| 11> H     -0.694278   -1.664099   -0.890793
| 12> *
| 13>
| 14>                          ****END OF INPUT****

CARTESIAN COORDINATES (ANGSTROEM)
---------------------------------
  N      0.000000    0.723823    0.000000
  N     -0.513023    1.731413    0.000000
  N      0.675733   -0.298488    0.000000
  C     -0.069885   -1.567760    0.000000
  H      0.668896   -2.362474    0.000000
  H     -0.694278   -1.664099    0.890793
  H     -0.694278   -1.664099   -0.890793

 Total Charge           Charge          ....    0
 Multiplicity           Mult            ....    1
 Number of Electrons    NEL             ....   30
 Basis Dimension        Dim             ....  458

ORBITAL ENERGIES
----------------

  NO   OCC          E(Eh)            E(eV)
   0   2.0000     -15.779816      -429.3906
   1   2.0000     -15.661376      -426.1677
   2   2.0000     -15.604770      -424.6274
   3   2.0000     -11.278030      -306.8908
   4   2.0000      -1.504867       -40.9495
   5   2.0000      -1.292702       -35.1762
   6   2.0000      -0.997845       -27.1527
   7   2.0000      -0.738211       -20.0877
   8   2.0000      -0.709727       -19.3127
   9   2.0000      -0.705198       -19.1894
  10   2.0000      -0.666659       -18.1407
  11   2.0000      -0.594159       -16.1679
  12   2.0000      -0.575838       -15.6694
  13   2.0000      -0.440146       -11.9770
  14   2.0000      -0.377888       -10.2829
  15   0.0000       0.025031         0.6811
  16   0.0000       0.039948         1.0870
  17   0.0000       0.040918         1.1134
  18   0.0000       0.056743         1.5440
  19   0.0000       0.080906         2.2016

MULLIKEN ATOMIC CHARGES
-----------------------
   0 N :    0.243385
   1 N :   -0.289099
   2 N :   -0.221866
   3 C :   -0.606477
   4 H :    0.350794
   5 H :    0.261631
   6 H :    0.261631
Sum of atomic charges:   -0.0000000

LOEWDIN ATOMIC CHARGES
----------------------
   0 N :   -0.298684
   1 N :    0.347115
   2 N :    0.310271
   3 C :    0.637207
   4 H :   -0.347359
   5 H :   -0.324275
   6 H :   -0.324275

  Mayer bond orders larger than 0.100000
B(  0-N ,  1-N ) :   2.3345 B(  0-N ,  2-N ) :   1.4707 B(  1-N ,  2-N ) :   0.2166
B(  2-N ,  3-C ) :   0.8402 B(  3-C ,  4-H ) :   0.8922 B(  3-C ,  5-H ) :   0.9195
B(  3-C ,  6-H ) :   0.9195

MP2 TOTAL ENERGY:     -203.800302763 Eh
FINAL SINGLE POINT ENERGY      -203.800302763042

DIPOLE MOMENT
-------------
                                X             Y             Z
Electronic contribution:      0.33859       4.86528       0.00000
Nuclear contribution   :     -0.70971      -5.60698       0.00000
                        -----------------------------------------
Total Dipole Moment    :     -0.37112      -0.74170       0.00000
                        -----------------------------------------
Magnitude (a.u.)       :      0.82936
Magnitude (Debye)      :      2.10807

Rotational constants in cm-1:     1.534572     0.178354     0.164781
Rotational constants in MHz : 46005.303092  5346.932212  4940.004015

                             ****ORCA TERMINATED NORMALLY****
TOTAL RUN TIME: 0 days 0 hours 2 minutes 44 seconds 115 msec
