                         Program Version 5.0.4 -  RELEASE  -
|  1> !ri-mp2 aug-cc-pvqz aug-cc-pvqz/c tightscf
|  2> %pal nprocs 16 end
|  3>
|  4> * xyz 0 1
|  5> C     -1.176124   -0.240930   -0.001430
|  6> N      0.026647    0.569467   -0.122671
|  7> N      1.244597   -0.148622    0.053689
|  8> H      1.130779   -0.914669    0.717137
|  9> H      1.508519   -0.549814   -0.837623
| 10> H     -1.242751   -0.927801   -0.846695
| 11> H     -1.212149   -0.834846    0.925321
| 12> H     -2.049950    0.411665   -0.026287
| 13> H      0.023585    1.315124    0.559605
| 14> *
| 15>
| 16>                          ****END OF INPUT****

CARTESIAN COORDINATES (ANGSTROEM)
---------------------------------
  C     -1.176124   -0.240930   -0.001430
  N      0.026647    0.569467   -0.122671
  N      1.244597   -0.148622    0.053689
  H      1.130779   -0.914669    0.717137
  H      1.508519   -0.549814   -0.837623
  H     -1.242751   -0.927801   -0.846695
  H     -1.212149   -0.834846    0.925321
  H     -2.049950    0.411665   -0.026287
  H      0.023585    1.315124    0.559605

 Total Charge           Charge          ....    0
 Multiplicity           Mult            ....    1
 Number of Electrons    NEL             ....   26
 Basis Dimension        Dim             ....  516

ORBITAL ENERGIES
----------------

  NO   OCC          E(Eh)            E(eV)
   0   2.0000     -15.569155      -423.6582
   1   2.0000     -15.566260      -423.5795
   2   2.0000     -11.246212      -306.0250
   3   2.0000      -1.269279       -34.5388
   4   2.0000      -1.048082       -28.5198
   5   2.0000      -0.889263       -24.1981
   6   2.0000      -0.682075       -18.5602
   7   2.0000      -0.646155       -17.5828
   8   2.0000      -0.622983       -16.9522
   9   2.0000      -0.567740       -15.4490
  10   2.0000      -0.530310       -14.4305
  11   2.0000      -0.409409       -11.1406
  12   2.0000      -0.385629       -10.4935
  13   0.0000       0.025701         0.6994
  14   0.0000       0.035716         0.9719
  15   0.0000       0.039373         1.0714
  16   0.0000       0.042871         1.1666
  17   0.0000       0.059178         1.6103

MULLIKEN ATOMIC CHARGES
-----------------------
   0 C :   -0.725278
   1 N :   -0.325096
   2 N :   -0.505321
   3 H :    0.235836
   4 H :    0.254103
   5 H :    0.273847
   6 H :    0.238763
   7 H :    0.320622
   8 H :    0.232525
Sum of atomic charges:   -0.0000000

LOEWDIN ATOMIC CHARGES
----------------------
   0 C :    0.734612
   1 N :    0.705403
   2 N :    1.114863
   3 H :   -0.542479
   4 H :   -0.543265
   5 H :   -0.310155
   6 H :   -0.294314
   7 H :   -0.307881
   8 H :   -0.556785

  Mayer bond orders larger than 0.100000
B(  0-C ,  1-N ) :   0.9522 B(  0-C ,  5-H ) :   0.9221 B(  0-C ,  6-H ) :   0.9415
B(  0-C ,  7-H ) :   0.9136 B(  1-N ,  2-N ) :   0.8182 B(  1-N ,  8-H ) :   0.9284
B(  2-N ,  3-H ) :   0.9324 B(  2-N ,  4-H ) :   0.9328

MP2 TOTAL ENERGY:     -150.937769647 Eh
FINAL SINGLE POINT ENERGY      -150.937769646688

DIPOLE MOMENT
-------------
                                X             Y             Z
Electronic contribution:      1.50600       1.08468      -0.26093
Nuclear contribution   :     -1.94428      -1.58750       0.52044
                        -----------------------------------------
Total Dipole Moment    :     -0.43828      -0.50281       0.25950
                        -----------------------------------------
Magnitude (a.u.)       :      0.71572
Magnitude (Debye)      :      1.81922

Rotational constants in cm-1:     1.248982     0.321439     0.284346
Rotational constants in MHz : 37443.539027  9636.513005  8524.491498

                             ****ORCA TERMINATED NORMALLY****
TOTAL RUN TIME: 0 days 0 hours 3 minutes 47 seconds 260 msec
