                         Program Version 5.0.4 -  RELEASE  -
|  1> !ri-mp2 aug-cc-pvqz aug-cc-pvqz/c tightscf
|  2> %pal nprocs 16 end
|  3>
|  4> * xyz 0 1
|  5> C      0.157346    2.550685    0.000000
|  6> C      0.000000    1.065125    0.000000
|  7> C      1.254968    0.250008    0.000000
|  8> C     -1.184685    0.435491    0.000000
|  9> O      2.350763    0.783788    0.000000
| 10> C      1.133424   -1.225777    0.000000
| 11> C     -1.308516   -1.034538    0.000000
| 12> C     -0.057139   -1.827836    0.000000
| 13> O     -2.399405   -1.581506    0.000000
| 14> H     -0.810637    3.047202    0.000000
| 15> H      0.726761    2.875723    0.872072
| 16> H      0.726761    2.875723   -0.872072
| 17> H     -2.120792    0.980088    0.000000
| 18> H      2.067297   -1.772322    0.000000
| 19> H     -0.172634   -2.903622    0.000000
| 20> *
| 21>
| 22>                          ****END OF INPUT****

CARTESIAN COORDINATES (ANGSTROEM)
---------------------------------
  C      0.157346    2.550685    0.000000
  C      0.000000    1.065125    0.000000
  C      1.254968    0.250008    0.000000
  C     -1.184685    0.435491    0.000000
  O      2.350763    0.783788    0.000000
  C      1.133424   -1.225777    0.000000
  C     -1.308516   -1.034538    0.000000
  C     -0.057139   -1.827836    0.000000
  O     -2.399405   -1.581506    0.000000
  H     -0.810637    3.047202    0.000000
  H      0.726761    2.875723    0.872072
  H      0.726761    2.875723   -0.872072
  H     -2.120792    0.980088    0.000000
  H      2.067297   -1.772322    0.000000
  H     -0.172634   -2.903622    0.000000

 Total Charge           Charge          ....    0
 Multiplicity           Mult            ....    1
 Number of Electrons    NEL             ....   64
 Basis Dimension        Dim             ....  996

ORBITAL ENERGIES
----------------

  NO   OCC          E(Eh)            E(eV)
   0   2.0000     -20.575998      -559.9014
   1   2.0000     -20.569997      -559.7381
   2   2.0000     -11.358622      -309.0838
   3   2.0000     -11.354327      -308.9669
   4   2.0000     -11.286504      -307.1214
   5   2.0000     -11.278414      -306.9013
   6   2.0000     -11.276677      -306.8540
   7   2.0000     -11.267637      -306.6080
   8   2.0000     -11.242578      -305.9261
   9   2.0000      -1.413803       -38.4715
  10   2.0000      -1.405945       -38.2577
  11   2.0000      -1.161973       -31.6189
  12   2.0000      -1.092384       -29.7253
  13   2.0000      -0.991282       -26.9742
  14   2.0000      -0.942708       -25.6524
  15   2.0000      -0.855222       -23.2718
  16   2.0000      -0.813484       -22.1360
  17   2.0000      -0.722017       -19.6471
  18   2.0000      -0.705664       -19.2021
  19   2.0000      -0.678081       -18.4515
  20   2.0000      -0.631039       -17.1714
  21   2.0000      -0.618661       -16.8346
  22   2.0000      -0.614137       -16.7115
  23   2.0000      -0.600572       -16.3424
  24   2.0000      -0.575993       -15.6736
  25   2.0000      -0.570145       -15.5144
  26   2.0000      -0.557508       -15.1706
  27   2.0000      -0.548719       -14.9314
  28   2.0000      -0.461517       -12.5585
  29   2.0000      -0.437478       -11.9044
  30   2.0000      -0.413886       -11.2624
  31   2.0000      -0.395646       -10.7661
  32   0.0000       0.006732         0.1832
  33   0.0000       0.022878         0.6225
  34   0.0000       0.025304         0.6885
  35   0.0000       0.034477         0.9382
  36   0.0000       0.040498         1.1020

MULLIKEN ATOMIC CHARGES
-----------------------
   0 C :   -0.770869
   1 C :    0.235480
   2 C :    1.168248
   3 C :   -0.787505
   4 O :   -0.811250
   5 C :   -0.582128
   6 C :    1.088552
   7 C :   -0.475003
   8 O :   -0.778385
   9 H :    0.282182
  10 H :    0.232578
  11 H :    0.232578
  12 H :    0.288227
  13 H :    0.330894
  14 H :    0.346400
Sum of atomic charges:   -0.0000000

LOEWDIN ATOMIC CHARGES
----------------------
   0 C :    0.889028
   1 C :   -0.085228
   2 C :   -0.691226
   3 C :    0.329957
   4 O :    0.745397
   5 C :    0.337513
   6 C :   -0.702058
   7 C :    0.334368
   8 O :    0.719042
   9 H :   -0.301545
  10 H :   -0.284657
  11 H :   -0.284657
  12 H :   -0.335971
  13 H :   -0.336171
  14 H :   -0.333793

  Mayer bond orders larger than 0.100000
B(  0-C ,  1-C ) :   0.6978 B(  0-C ,  3-C ) :  -0.1190 B(  0-C ,  9-H ) :   1.0226
B(  0-C , 10-H ) :   1.0057 B(  0-C , 11-H ) :   1.0057 B(  1-C ,  2-C ) :   0.9074
B(  1-C ,  3-C ) :   1.1923 B(  1-C ,  4-O ) :   0.3498 B(  1-C ,  6-C ) :  -0.3863
B(  1-C ,  9-H ) :  -0.1189 B(  2-C ,  4-O ) :   0.5321 B(  2-C ,  5-C ) :   1.1128
B(  2-C ,  6-C ) :   0.1226 B(  2-C ,  7-C ) :  -0.1500 B(  3-C ,  6-C ) :   1.3498
B(  3-C ,  7-C ) :   0.1364 B(  3-C ,  8-O ) :   0.3338 B(  3-C , 12-H ) :   0.9400
B(  4-O ,  5-C ) :   0.3339 B(  4-O ,  7-C ) :   0.1203 B(  5-C ,  6-C ) :  -0.1732
B(  5-C ,  7-C ) :   1.4707 B(  5-C ,  8-O ) :   0.1014 B(  5-C , 13-H ) :   0.9281
B(  6-C ,  7-C ) :   1.0790 B(  6-C ,  8-O ) :   0.6427 B(  7-C ,  8-O ) :   0.3269
B(  7-C , 14-H ) :   0.9117

MP2 TOTAL ENERGY:     -420.115446882 Eh
FINAL SINGLE POINT ENERGY      -420.115446882223

DIPOLE MOMENT
-------------
                                X             Y             Z
Electronic contribution:     -0.25004      -4.73332       0.00000
Nuclear contribution   :      0.40943       5.00993       0.00000
                        -----------------------------------------
Total Dipole Moment    :      0.15939       0.27660       0.00000
                        -----------------------------------------
Magnitude (a.u.)       :      0.31924
Magnitude (Debye)      :      0.81145

Rotational constants in cm-1:     0.099009     0.048143     0.032584
Rotational constants in MHz :  2968.226898  1443.299808   976.857523

                             ****ORCA TERMINATED NORMALLY****
TOTAL RUN TIME: 0 days 0 hours 51 minutes 42 seconds 985 msec
