                         Program Version 5.0.4 -  RELEASE  -
|  1> !ri-mp2 aug-cc-pvqz aug-cc-pvqz/c tightscf
|  2> %pal nprocs 16 end
|  3>
|  4> * xyz 0 1
|  5> C      1.436557    1.185794    0.000000
|  6> C     -1.314175   -1.253686    0.000000
|  7> C      0.000000    0.706828    0.000000
|  8> O     -0.011621   -0.711204    0.000000
|  9> H      1.471309    2.276007    0.000000
| 10> H      1.962303    0.823929    0.883530
| 11> H      1.962303    0.823929   -0.883530
| 12> H     -1.877412   -0.946607    0.889974
| 13> H     -1.215654   -2.337382    0.000000
| 14> H     -1.877412   -0.946607   -0.889974
| 15> H     -0.533380    1.081375   -0.884588
| 16> H     -0.533380    1.081375    0.884588
| 17> *
| 18>
| 19>                          ****END OF INPUT****

CARTESIAN COORDINATES (ANGSTROEM)
---------------------------------
  C      1.436557    1.185794    0.000000
  C     -1.314175   -1.253686    0.000000
  C      0.000000    0.706828    0.000000
  O     -0.011621   -0.711204    0.000000
  H      1.471309    2.276007    0.000000
  H      1.962303    0.823929    0.883530
  H      1.962303    0.823929   -0.883530
  H     -1.877412   -0.946607    0.889974
  H     -1.215654   -2.337382    0.000000
  H     -1.877412   -0.946607   -0.889974
  H     -0.533380    1.081375   -0.884588
  H     -0.533380    1.081375    0.884588

 Total Charge           Charge          ....    0
 Multiplicity           Mult            ....    1
 Number of Electrons    NEL             ....   34
 Basis Dimension        Dim             ....  688

ORBITAL ENERGIES
----------------

  NO   OCC          E(Eh)            E(eV)
   0   2.0000     -20.549778      -559.1879
   1   2.0000     -11.271773      -306.7205
   2   2.0000     -11.266605      -306.5799
   3   2.0000     -11.211088      -305.0692
   4   2.0000      -1.368858       -37.2485
   5   2.0000      -1.023724       -27.8569
   6   2.0000      -0.913663       -24.8620
   7   2.0000      -0.829699       -22.5773
   8   2.0000      -0.667431       -18.1617
   9   2.0000      -0.651893       -17.7389
  10   2.0000      -0.624377       -16.9901
  11   2.0000      -0.581936       -15.8353
  12   2.0000      -0.535389       -14.5687
  13   2.0000      -0.507357       -13.8059
  14   2.0000      -0.502534       -13.6746
  15   2.0000      -0.474117       -12.9014
  16   2.0000      -0.420545       -11.4436
  17   0.0000       0.027397         0.7455
  18   0.0000       0.033978         0.9246
  19   0.0000       0.037809         1.0288
  20   0.0000       0.038342         1.0433
  21   0.0000       0.051811         1.4098

MULLIKEN ATOMIC CHARGES
-----------------------
   0 C :   -0.867138
   1 C :   -0.616581
   2 C :    0.103619
   3 O :   -0.770789
   4 H :    0.267110
   5 H :    0.251107
   6 H :    0.251107
   7 H :    0.254907
   8 H :    0.388738
   9 H :    0.254907
  10 H :    0.241506
  11 H :    0.241506
Sum of atomic charges:   -0.0000000

LOEWDIN ATOMIC CHARGES
----------------------
   0 C :    0.901780
   1 C :    0.553766
   2 C :    0.120602
   3 O :    0.865047
   4 H :   -0.294383
   5 H :   -0.294082
   6 H :   -0.294082
   7 H :   -0.312032
   8 H :   -0.329764
   9 H :   -0.312032
  10 H :   -0.302411
  11 H :   -0.302411

  Mayer bond orders larger than 0.100000
B(  0-C ,  2-C ) :   0.9538 B(  0-C ,  4-H ) :   0.9715 B(  0-C ,  5-H ) :   0.9308
B(  0-C ,  6-H ) :   0.9308 B(  1-C ,  3-O ) :   0.9102 B(  1-C ,  7-H ) :   0.9168
B(  1-C ,  8-H ) :   0.8725 B(  1-C ,  9-H ) :   0.9168 B(  2-C ,  3-O ) :   0.7641
B(  2-C , 10-H ) :   0.8729 B(  2-C , 11-H ) :   0.8729

MP2 TOTAL ENERGY:     -194.023752977 Eh
FINAL SINGLE POINT ENERGY      -194.023752976533

DIPOLE MOMENT
-------------
                                X             Y             Z
Electronic contribution:      0.25594      -1.63596       0.00000
Nuclear contribution   :     -0.68163       1.96018       0.00000
                        -----------------------------------------
Total Dipole Moment    :     -0.42569       0.32422       0.00000
                        -----------------------------------------
Magnitude (a.u.)       :      0.53510
Magnitude (Debye)      :      1.36011

Rotational constants in cm-1:     0.948344     0.137697     0.128974
Rotational constants in MHz : 28430.638960  4128.057989  3866.557217

                             ****ORCA TERMINATED NORMALLY****
TOTAL RUN TIME: 0 days 0 hours 10 minutes 12 seconds 956 msec
