                         Program Version 5.0.4 -  RELEASE  -
|  1> !ri-mp2 aug-cc-pvqz aug-cc-pvqz/c tightscf
|  2> %pal nprocs 16 end
|  3>
|  4> * xyz 0 1
|  5> C      0.000000    0.000000    0.529544
|  6> O      0.000000    1.174198   -0.247524
|  7> O      0.000000   -1.174198   -0.247524
|  8> H     -0.891011   -0.071326    1.155757
|  9> H      0.891011    0.071326    1.155757
| 10> H     -0.812903    1.199741   -0.764202
| 11> H      0.812903   -1.199741   -0.764202
| 12> *
| 13>
| 14>                          ****END OF INPUT****

CARTESIAN COORDINATES (ANGSTROEM)
---------------------------------
  C      0.000000    0.000000    0.529544
  O      0.000000    1.174198   -0.247524
  O      0.000000   -1.174198   -0.247524
  H     -0.891011   -0.071326    1.155757
  H      0.891011    0.071326    1.155757
  H     -0.812903    1.199741   -0.764202
  H      0.812903   -1.199741   -0.764202

 Total Charge           Charge          ....    0
 Multiplicity           Mult            ....    1
 Number of Electrons    NEL             ....   26
 Basis Dimension        Dim             ....  424

ORBITAL ENERGIES
----------------

  NO   OCC          E(Eh)            E(eV)
   0   2.0000     -20.568711      -559.7031
   1   2.0000     -20.568690      -559.7025
   2   2.0000     -11.334245      -308.4205
   3   2.0000      -1.410523       -38.3823
   4   2.0000      -1.337374       -36.3918
   5   2.0000      -0.916230       -24.9319
   6   2.0000      -0.751711       -20.4551
   7   2.0000      -0.659742       -17.9525
   8   2.0000      -0.644476       -17.5371
   9   2.0000      -0.616404       -16.7732
  10   2.0000      -0.503233       -13.6937
  11   2.0000      -0.499365       -13.5884
  12   2.0000      -0.470092       -12.7919
  13   0.0000       0.026616         0.7243
  14   0.0000       0.036165         0.9841
  15   0.0000       0.039242         1.0678
  16   0.0000       0.050178         1.3654
  17   0.0000       0.081910         2.2289

MULLIKEN ATOMIC CHARGES
-----------------------
   0 C :    0.310906
   1 O :   -0.753421
   2 O :   -0.753421
   3 H :    0.246730
   4 H :    0.246730
   5 H :    0.351238
   6 H :    0.351238
Sum of atomic charges:    0.0000000

LOEWDIN ATOMIC CHARGES
----------------------
   0 C :   -0.171165
   1 O :    1.239509
   2 O :    1.239509
   3 H :   -0.351253
   4 H :   -0.351253
   5 H :   -0.802673
   6 H :   -0.802673

  Mayer bond orders larger than 0.100000
B(  0-C ,  1-O ) :   0.7981 B(  0-C ,  2-O ) :   0.7981 B(  0-C ,  3-H ) :   0.9093
B(  0-C ,  4-H ) :   0.9093 B(  1-O ,  5-H ) :   0.8759 B(  2-O ,  6-H ) :   0.8759

MP2 TOTAL ENERGY:     -190.723202560 Eh
FINAL SINGLE POINT ENERGY      -190.723202560275

DIPOLE MOMENT
-------------
                                X             Y             Z
Electronic contribution:     -0.00000      -0.00000      -0.79455
Nuclear contribution   :      0.00000       0.00000       0.78804
                        -----------------------------------------
Total Dipole Moment    :     -0.00000      -0.00000      -0.00651
                        -----------------------------------------
Magnitude (a.u.)       :      0.00651
Magnitude (Debye)      :      0.01654

Rotational constants in cm-1:     1.399825     0.337411     0.299468
Rotational constants in MHz : 41965.703848 10115.338944  8977.830851

                             ****ORCA TERMINATED NORMALLY****
TOTAL RUN TIME: 0 days 0 hours 2 minutes 51 seconds 675 msec
