                         Program Version 5.0.4 -  RELEASE  -
|  1> !ri-mp2 aug-cc-pvqz aug-cc-pvqz/c tightscf
|  2> %pal nprocs 16 end
|  3> %maxcore 3800
|  4>
|  5> * xyz 0 1
|  6> C     -1.111854   -0.407602    0.125096
|  7> C      2.519955    0.359470   -0.688408
|  8> C      1.969676   -1.052974   -0.470654
|  9> C      1.411901    1.411583   -0.589259
| 10> C      1.194356   -1.168658    0.847170
| 11> C      0.666104    1.312877    0.744533
| 12> C      0.099900   -0.101797    0.994429
| 13> C     -3.281670    0.319162   -0.471198
| 14> O     -1.250170   -1.370670   -0.588255
| 15> O     -2.072170    0.532062    0.273850
| 16> H      3.284420    0.574297    0.066511
| 17> H      3.016327    0.424143   -1.659020
| 18> H      1.308119   -1.318004   -1.297782
| 19> H      2.784895   -1.779646   -0.477318
| 20> H      1.828011    2.414978   -0.702103
| 21> H      0.706946    1.275720   -1.416225
| 22> H      0.756983   -2.162764    0.937526
| 23> H      1.888488   -1.047022    1.684150
| 24> H      1.361886    1.538168    1.557947
| 25> H     -0.133635    2.050051    0.799485
| 26> H     -0.284837   -0.125874    2.018897
| 27> H     -3.073608    0.295602   -1.539403
| 28> H     -3.927090    1.157271   -0.226901
| 29> H     -3.748380   -0.620419   -0.180785
| 30> *
| 31>
| 32>                          ****END OF INPUT****

CARTESIAN COORDINATES (ANGSTROEM)
---------------------------------
  C     -1.111854   -0.407602    0.125096
  C      2.519955    0.359470   -0.688408
  C      1.969676   -1.052974   -0.470654
  C      1.411901    1.411583   -0.589259
  C      1.194356   -1.168658    0.847170
  C      0.666104    1.312877    0.744533
  C      0.099900   -0.101797    0.994429
  C     -3.281670    0.319162   -0.471198
  O     -1.250170   -1.370670   -0.588255
  O     -2.072170    0.532062    0.273850
  H      3.284420    0.574297    0.066511
  H      3.016327    0.424143   -1.659020
  H      1.308119   -1.318004   -1.297782
  H      2.784895   -1.779646   -0.477318
  H      1.828011    2.414978   -0.702103
  H      0.706946    1.275720   -1.416225
  H      0.756983   -2.162764    0.937526
  H      1.888488   -1.047022    1.684150
  H      1.361886    1.538168    1.557947
  H     -0.133635    2.050051    0.799485
  H     -0.284837   -0.125874    2.018897
  H     -3.073608    0.295602   -1.539403
  H     -3.927090    1.157271   -0.226901
  H     -3.748380   -0.620419   -0.180785

 Total Charge           Charge          ....    0
 Multiplicity           Mult            ....    1
 Number of Electrons    NEL             ....   78
 Basis Dimension        Dim             .... 1444

ORBITAL ENERGIES
----------------

  NO   OCC          E(Eh)            E(eV)
   0   2.0000     -20.596276      -560.4532
   1   2.0000     -20.537998      -558.8673
   2   2.0000     -11.371369      -309.4307
   3   2.0000     -11.282318      -307.0075
   4   2.0000     -11.241569      -305.8986
   5   2.0000     -11.224107      -305.4235
   6   2.0000     -11.217407      -305.2412
   7   2.0000     -11.217043      -305.2313
   8   2.0000     -11.213472      -305.1341
   9   2.0000     -11.209099      -305.0151
  10   2.0000      -1.454938       -39.5909
  11   2.0000      -1.354002       -36.8443
  12   2.0000      -1.124020       -30.5861
  13   2.0000      -1.030409       -28.0388
  14   2.0000      -1.005624       -27.3644
  15   2.0000      -0.965712       -26.2784
  16   2.0000      -0.859498       -23.3881
  17   2.0000      -0.834600       -22.7106
  18   2.0000      -0.785882       -21.3849
  19   2.0000      -0.748544       -20.3689
  20   2.0000      -0.681895       -18.5553
  21   2.0000      -0.673227       -18.3194
  22   2.0000      -0.670729       -18.2515
  23   2.0000      -0.644321       -17.5329
  24   2.0000      -0.612644       -16.6709
  25   2.0000      -0.604325       -16.4445
  26   2.0000      -0.588487       -16.0136
  27   2.0000      -0.555000       -15.1023
  28   2.0000      -0.536358       -14.5950
  29   2.0000      -0.529038       -14.3959
  30   2.0000      -0.524416       -14.2701
  31   2.0000      -0.514945       -14.0124
  32   2.0000      -0.511735       -13.9250
  33   2.0000      -0.484761       -13.1910
  34   2.0000      -0.468303       -12.7432
  35   2.0000      -0.457877       -12.4595
  36   2.0000      -0.434183       -11.8147
  37   2.0000      -0.432402       -11.7663
  38   2.0000      -0.429546       -11.6885
  39   0.0000       0.023652         0.6436
  40   0.0000       0.028346         0.7713
  41   0.0000       0.029851         0.8123
  42   0.0000       0.032333         0.8798
  43   0.0000       0.042696         1.1618

MULLIKEN ATOMIC CHARGES
-----------------------
   0 C :    1.426900
   1 C :   -0.470012
   2 C :   -0.388300
   3 C :   -0.437378
   4 C :   -0.377366
   5 C :   -0.454580
   6 C :   -0.117849
   7 C :   -0.867167
   8 O :   -0.962032
   9 O :   -0.831454
  10 H :    0.130511
  11 H :    0.227321
  12 H :    0.176924
  13 H :    0.247146
  14 H :    0.251493
  15 H :    0.146032
  16 H :    0.207558
  17 H :    0.128340
  18 H :    0.132928
  19 H :    0.287412
  20 H :    0.423283
  21 H :    0.335122
  22 H :    0.431652
  23 H :    0.353517
Sum of atomic charges:   -0.0000000

LOEWDIN ATOMIC CHARGES
----------------------
   0 C :   -1.046260
   1 C :    0.539518
   2 C :    0.539470
   3 C :    0.541518
   4 C :    0.513730
   5 C :    0.530846
   6 C :    0.083533
   7 C :    0.587849
   8 O :    0.754717
   9 O :    0.859151
  10 H :   -0.264793
  11 H :   -0.260156
  12 H :   -0.287068
  13 H :   -0.257500
  14 H :   -0.257862
  15 H :   -0.262688
  16 H :   -0.274641
  17 H :   -0.261044
  18 H :   -0.260170
  19 H :   -0.280807
  20 H :   -0.282084
  21 H :   -0.315314
  22 H :   -0.323612
  23 H :   -0.316332

  Mayer bond orders larger than 0.100000
B(  0-C ,  6-C ) :   1.1013 B(  0-C ,  7-C ) :  -0.1311 B(  0-C ,  8-O ) :   0.9800
B(  0-C ,  9-O ) :   0.8309 B(  1-C ,  2-C ) :   0.8608 B(  1-C ,  3-C ) :   0.8474
B(  1-C , 10-H ) :   1.0331 B(  1-C , 11-H ) :   0.9783 B(  2-C ,  4-C ) :   0.8254
B(  2-C , 12-H ) :   0.9958 B(  2-C , 13-H ) :   0.9605 B(  3-C ,  5-C ) :   0.8503
B(  3-C , 14-H ) :   0.9667 B(  3-C , 15-H ) :   0.9999 B(  4-C ,  6-C ) :   0.8558
B(  4-C , 16-H ) :   0.9804 B(  4-C , 17-H ) :   1.1095 B(  5-C ,  6-C ) :   0.7370
B(  5-C , 18-H ) :   1.0472 B(  5-C , 19-H ) :   0.9489 B(  6-C ,  8-O ) :   0.2325
B(  6-C , 20-H ) :   0.7915 B(  7-C ,  9-O ) :   0.9863 B(  7-C , 21-H ) :   0.9041
B(  7-C , 22-H ) :   0.8362 B(  7-C , 23-H ) :   0.9004 B(  8-O ,  9-O ) :   0.1448

MP2 TOTAL ENERGY:     -462.998818391 Eh
FINAL SINGLE POINT ENERGY      -462.998818390579

DIPOLE MOMENT
-------------
                                X             Y             Z
Electronic contribution:     -5.93845      -2.09589       0.79507
Nuclear contribution   :      5.88867       2.74366      -0.45325
                        -----------------------------------------
Total Dipole Moment    :     -0.04978       0.64777       0.34182
                        -----------------------------------------
Magnitude (a.u.)       :      0.73412
Magnitude (Debye)      :      1.86598

Rotational constants in cm-1:     0.079920     0.030332     0.026885
Rotational constants in MHz :  2395.947742   909.329911   805.992257

                             ****ORCA TERMINATED NORMALLY****
TOTAL RUN TIME: 0 days 2 hours 39 minutes 44 seconds 864 msec
