                         Program Version 5.0.4 -  RELEASE  -
|  1> !ri-mp2 aug-cc-pvqz aug-cc-pvqz/c tightscf
|  2> %pal nprocs 16 end
|  3>
|  4> * xyz 0 1
|  5> C      2.017694   -0.664820        0.000000
|  6> C      1.387653    0.571113        0.000000
|  7> C      1.276764   -1.840590        0.000000
|  8> C     -0.768595   -0.561020        0.000000
|  9> C      0.000000    0.590564        0.000000
| 10> C     -0.116519   -1.789441        0.000000
| 11> N     -0.695089    1.896684        0.000000
| 12> O     -0.004530    2.904797        0.000000
| 13> O     -1.916677    1.890568        0.000000
| 14> O     -0.896581   -2.906357        0.000000
| 15> H      3.097332   -0.716014        0.000000
| 16> H      1.940706    1.495858        0.000000
| 17> H      1.780940   -2.799344        0.000000
| 18> H     -1.845347   -0.507182        0.000000
| 19> H     -0.347696   -3.696993        0.000000
| 20> *
| 21>
| 22>                          ****END OF INPUT****

CARTESIAN COORDINATES (ANGSTROEM)
---------------------------------
  C      2.017694   -0.664820    0.000000
  C      1.387653    0.571113    0.000000
  C      1.276764   -1.840590    0.000000
  C     -0.768595   -0.561020    0.000000
  C      0.000000    0.590564    0.000000
  C     -0.116519   -1.789441    0.000000
  N     -0.695089    1.896684    0.000000
  O     -0.004530    2.904797    0.000000
  O     -1.916677    1.890568    0.000000
  O     -0.896581   -2.906357    0.000000
  H      3.097332   -0.716014    0.000000
  H      1.940706    1.495858    0.000000
  H      1.780940   -2.799344    0.000000
  H     -1.845347   -0.507182    0.000000
  H     -0.347696   -3.696993    0.000000

 Total Charge           Charge          ....    0
 Multiplicity           Mult            ....    1
 Number of Electrons    NEL             ....   72
 Basis Dimension        Dim             .... 1030

ORBITAL ENERGIES
----------------

  NO   OCC          E(Eh)            E(eV)
   0   2.0000     -20.613064      -560.9100
   1   2.0000     -20.601377      -560.5920
   2   2.0000     -20.601181      -560.5866
   3   2.0000     -15.853751      -431.4025
   4   2.0000     -11.333836      -308.4094
   5   2.0000     -11.316437      -307.9359
   6   2.0000     -11.271365      -306.7094
   7   2.0000     -11.269569      -306.6606
   8   2.0000     -11.267098      -306.5933
   9   2.0000     -11.265331      -306.5453
  10   2.0000      -1.607961       -43.7549
  11   2.0000      -1.432077       -38.9688
  12   2.0000      -1.401119       -38.1264
  13   2.0000      -1.199105       -32.6293
  14   2.0000      -1.093051       -29.7434
  15   2.0000      -1.048394       -28.5282
  16   2.0000      -0.966804       -26.3081
  17   2.0000      -0.865310       -23.5463
  18   2.0000      -0.850877       -23.1535
  19   2.0000      -0.793667       -21.5968
  20   2.0000      -0.733316       -19.9545
  21   2.0000      -0.721407       -19.6305
  22   2.0000      -0.718560       -19.5530
  23   2.0000      -0.710983       -19.3468
  24   2.0000      -0.679279       -18.4841
  25   2.0000      -0.637295       -17.3417
  26   2.0000      -0.618830       -16.8392
  27   2.0000      -0.602112       -16.3843
  28   2.0000      -0.568676       -15.4745
  29   2.0000      -0.541850       -14.7445
  30   2.0000      -0.519933       -14.1481
  31   2.0000      -0.496845       -13.5199
  32   2.0000      -0.495836       -13.4924
  33   2.0000      -0.456048       -12.4097
  34   2.0000      -0.383249       -10.4287
  35   2.0000      -0.348429        -9.4812
  36   0.0000       0.013731         0.3737
  37   0.0000       0.025049         0.6816
  38   0.0000       0.033750         0.9184
  39   0.0000       0.033968         0.9243
  40   0.0000       0.043534         1.1846

MULLIKEN ATOMIC CHARGES
-----------------------
   0 C :   -0.336653
   1 C :   -0.165570
   2 C :   -0.427016
   3 C :   -0.558027
   4 C :    0.013368
   5 C :    1.102265
   6 N :    0.713760
   7 O :   -0.592088
   8 O :   -0.588644
   9 O :   -0.807034
  10 H :    0.208493
  11 H :    0.371968
  12 H :    0.257769
  13 H :    0.441388
  14 H :    0.366022
Sum of atomic charges:   -0.0000000

LOEWDIN ATOMIC CHARGES
----------------------
   0 C :    0.354519
   1 C :    0.317913
   2 C :    0.350252
   3 C :    0.301508
   4 C :   -0.305061
   5 C :   -0.416203
   6 N :   -0.832760
   7 O :    0.543097
   8 O :    0.544889
   9 O :    1.281362
  10 H :   -0.315796
  11 H :   -0.356412
  12 H :   -0.317367
  13 H :   -0.354204
  14 H :   -0.795737

  Mayer bond orders larger than 0.100000
B(  0-C ,  1-C ) :   1.3012 B(  0-C ,  2-C ) :   1.1646 B(  0-C ,  4-C ) :  -0.2870
B(  0-C ,  5-C ) :  -0.1731 B(  0-C , 10-H ) :   1.1552 B(  0-C , 12-H ) :  -0.1020
B(  1-C ,  4-C ) :   1.2256 B(  1-C , 10-H ) :  -0.1039 B(  1-C , 11-H ) :   0.8414
B(  2-C ,  5-C ) :   1.2585 B(  2-C ,  9-O ) :   0.2198 B(  2-C , 10-H ) :  -0.1224
B(  2-C , 12-H ) :   1.0343 B(  3-C ,  4-C ) :   1.3668 B(  3-C ,  5-C ) :   1.5140
B(  3-C ,  9-O ) :   0.3375 B(  3-C , 13-H ) :   0.7502 B(  4-C ,  5-C ) :  -0.4177
B(  4-C ,  6-N ) :   0.8294 B(  4-C ,  7-O ) :   0.2183 B(  4-C ,  8-O ) :   0.2011
B(  4-C , 13-H ) :  -0.1050 B(  5-C , 14-H ) :  -0.1120 B(  6-N ,  7-O ) :   1.1754
B(  6-N ,  8-O ) :   1.1863 B(  9-O , 14-H ) :   0.8940

MP2 TOTAL ENERGY:     -511.255056353 Eh
FINAL SINGLE POINT ENERGY      -511.255056352930

DIPOLE MOMENT
-------------
                                X             Y             Z
Electronic contribution:     -3.04781       3.99604      -0.00000
Nuclear contribution   :      4.44948      -6.00993       0.00000
                        -----------------------------------------
Total Dipole Moment    :      1.40166      -2.01388      -0.00000
                        -----------------------------------------
Magnitude (a.u.)       :      2.45365
Magnitude (Debye)      :      6.23668

Rotational constants in cm-1:     0.091467     0.032955     0.024227
Rotational constants in MHz :  2742.098430   987.979507   726.295027

                             ****ORCA TERMINATED NORMALLY****
TOTAL RUN TIME: 0 days 0 hours 47 minutes 29 seconds 688 msec
