                         Program Version 5.0.4 -  RELEASE  -
|  1> !ri-mp2 aug-cc-pvqz aug-cc-pvqz/c tightscf
|  2> %pal nprocs 16 end
|  3>
|  4> * xyz 0 1
|  5> C     -0.671285   -0.386770    0.000000
|  6> C      0.000000    0.736156    0.000000
|  7> C      1.508464    0.811358    0.000000
|  8> O     -1.266323   -1.387836    0.000000
|  9> H     -0.595082    1.639797    0.000000
| 10> H      1.954606   -0.181706    0.000000
| 11> H      1.873994    1.340067    0.882008
| 12> H      1.873994    1.340067   -0.882008
| 13> *
| 14>
| 15>                          ****END OF INPUT****

CARTESIAN COORDINATES (ANGSTROEM)
---------------------------------
  C     -0.671285   -0.386770    0.000000
  C      0.000000    0.736156    0.000000
  C      1.508464    0.811358    0.000000
  O     -1.266323   -1.387836    0.000000
  H     -0.595082    1.639797    0.000000
  H      1.954606   -0.181706    0.000000
  H      1.873994    1.340067    0.882008
  H      1.873994    1.340067   -0.882008

 Total Charge           Charge          ....    0
 Multiplicity           Mult            ....    1
 Number of Electrons    NEL             ....   30
 Basis Dimension        Dim             ....  504

ORBITAL ENERGIES
----------------

  NO   OCC          E(Eh)            E(eV)
   0   2.0000     -20.616102      -560.9927
   1   2.0000     -11.368300      -309.3472
   2   2.0000     -11.244125      -305.9682
   3   2.0000     -11.239707      -305.8480
   4   2.0000      -1.461660       -39.7738
   5   2.0000      -1.083579       -29.4857
   6   2.0000      -0.934141       -25.4193
   7   2.0000      -0.742962       -20.2170
   8   2.0000      -0.683032       -18.5862
   9   2.0000      -0.639431       -17.3998
  10   2.0000      -0.619323       -16.8526
  11   2.0000      -0.578550       -15.7431
  12   2.0000      -0.557067       -15.1586
  13   2.0000      -0.532315       -14.4850
  14   2.0000      -0.347665        -9.4604
  15   0.0000       0.023516         0.6399
  16   0.0000       0.034006         0.9254
  17   0.0000       0.039946         1.0870
  18   0.0000       0.042681         1.1614
  19   0.0000       0.064101         1.7443

MULLIKEN ATOMIC CHARGES
-----------------------
   0 C :    0.821913
   1 C :   -0.660859
   2 C :   -0.671487
   3 O :   -0.680770
   4 H :    0.445331
   5 H :    0.275716
   6 H :    0.235078
   7 H :    0.235078
Sum of atomic charges:   -0.0000000

LOEWDIN ATOMIC CHARGES
----------------------
   0 C :   -0.431954
   1 C :    0.282964
   2 C :    0.843873
   3 O :    0.621586
   4 H :   -0.389855
   5 H :   -0.316856
   6 H :   -0.304879
   7 H :   -0.304879

  Mayer bond orders larger than 0.100000
B(  0-C ,  1-C ) :   1.9363 B(  0-C ,  3-O ) :   1.5828 B(  1-C ,  2-C ) :   0.8799
B(  1-C ,  3-O ) :   0.2144 B(  1-C ,  4-H ) :   0.7496 B(  2-C ,  5-H ) :   0.9289
B(  2-C ,  6-H ) :   0.9560 B(  2-C ,  7-H ) :   0.9560

MP2 TOTAL ENERGY:     -191.611345176 Eh
FINAL SINGLE POINT ENERGY      -191.611345175752

DIPOLE MOMENT
-------------
                                X             Y             Z
Electronic contribution:     -4.58088      -3.42837      -0.00000
Nuclear contribution   :      5.11279       4.13677       0.00000
                        -----------------------------------------
Total Dipole Moment    :      0.53191       0.70840      -0.00000
                        -----------------------------------------
Magnitude (a.u.)       :      0.88587
Magnitude (Debye)      :      2.25170

Rotational constants in cm-1:     1.318442     0.149613     0.137811
Rotational constants in MHz : 39525.888585  4485.293078  4131.476334

                             ****ORCA TERMINATED NORMALLY****
TOTAL RUN TIME: 0 days 0 hours 5 minutes 36 seconds 53 msec
