                         Program Version 5.0.4 -  RELEASE  -
|  1> !ri-mp2 aug-cc-pvqz aug-cc-pvqz/c tightscf
|  2> %pal nprocs 16 end
|  3>
|  4> * xyz 0 1
|  5> C      0.056004    0.583317       0.000000
|  6> N      0.056004   -0.680483       0.000000
|  7> H     -0.843040    1.205928       0.000000
|  8> H      1.009028    1.110493       0.000000
|  9> H     -0.894042   -1.052940       0.000000
| 10> *
| 11>
| 12>                          ****END OF INPUT****

CARTESIAN COORDINATES (ANGSTROEM)
---------------------------------
  C      0.056004    0.583317    0.000000
  N      0.056004   -0.680483    0.000000
  H     -0.843040    1.205928    0.000000
  H      1.009028    1.110493    0.000000
  H     -0.894042   -1.052940    0.000000

 Total Charge           Charge          ....    0
 Multiplicity           Mult            ....    1
 Number of Electrons    NEL             ....   16
 Basis Dimension        Dim             ....  298

ORBITAL ENERGIES
----------------

  NO   OCC          E(Eh)            E(eV)
   0   2.0000     -15.563291      -423.4987
   1   2.0000     -11.283614      -307.0427
   2   2.0000      -1.212147       -32.9842
   3   2.0000      -0.844928       -22.9917
   4   2.0000      -0.687221       -18.7002
   5   2.0000      -0.607019       -16.5178
   6   2.0000      -0.452915       -12.3244
   7   2.0000      -0.430847       -11.7240
   8   0.0000       0.024880         0.6770
   9   0.0000       0.037459         1.0193
  10   0.0000       0.043243         1.1767
  11   0.0000       0.066343         1.8053
  12   0.0000       0.085320         2.3217

MULLIKEN ATOMIC CHARGES
-----------------------
   0 C :   -0.582245
   1 N :   -0.575492
   2 H :    0.408717
   3 H :    0.461503
   4 H :    0.287517
Sum of atomic charges:    0.0000000

LOEWDIN ATOMIC CHARGES
----------------------
   0 C :    0.496646
   1 N :    0.932130
   2 H :   -0.351763
   3 H :   -0.388187
   4 H :   -0.688826

  Mayer bond orders larger than 0.100000
B(  0-C ,  1-N ) :   1.8935 B(  0-C ,  2-H ) :   0.7806 B(  0-C ,  3-H ) :   0.7907
B(  0-C ,  4-H ) :   0.1044 B(  1-N ,  4-H ) :   0.8418

MP2 TOTAL ENERGY:      -94.473541737 Eh
FINAL SINGLE POINT ENERGY       -94.473541737211

DIPOLE MOMENT
-------------
                                X             Y             Z
Electronic contribution:      0.19100      -0.63520       0.00000
Nuclear contribution   :     -0.75296       1.30317       0.00000
                        -----------------------------------------
Total Dipole Moment    :     -0.56196       0.66796       0.00000
                        -----------------------------------------
Magnitude (a.u.)       :      0.87291
Magnitude (Debye)      :      2.21877

Rotational constants in cm-1:     6.645702     1.168981     0.994115
Rotational constants in MHz : 199233.123545 35045.156770 29802.831227

                             ****ORCA TERMINATED NORMALLY****
TOTAL RUN TIME: 0 days 0 hours 0 minutes 37 seconds 859 msec
