                         Program Version 5.0.4 -  RELEASE  -
|  1> !ri-mp2 aug-cc-pvqz aug-cc-pvqz/c tightscf
|  2> %pal nprocs 16 end
|  3>
|  4> * xyz 0 1
|  5> C     -0.739782   -1.773761    0.000000
|  6> C     -0.089048   -1.206811    1.264899
|  7> C     -0.089048   -1.206811   -1.264899
|  8> C     -0.089048    0.324852    1.260545
|  9> C     -0.089048    0.324852   -1.260545
| 10> C      0.566508    0.906527    0.000000
| 11> C      0.533702    2.434333    0.000000
| 12> H     -0.680166   -2.864513    0.000000
| 13> H     -1.805477   -1.520961    0.000000
| 14> H     -0.602476   -1.579676    2.154131
| 15> H      0.943314   -1.566555    1.330389
| 16> H      0.943314   -1.566555   -1.330389
| 17> H     -0.602476   -1.579676   -2.154131
| 18> H     -1.122408    0.686328    1.318579
| 19> H      0.419978    0.704095    2.150588
| 20> H      0.419978    0.704095   -2.150588
| 21> H     -1.122408    0.686328   -1.318579
| 22> H      1.617471    0.591208    0.000000
| 23> H      1.030791    2.842574    0.882126
| 24> H      1.030791    2.842574   -0.882126
| 25> H     -0.495635    2.801645    0.000000
| 26> *
| 27>
| 28>                          ****END OF INPUT****

CARTESIAN COORDINATES (ANGSTROEM)
---------------------------------
  C     -0.739782   -1.773761    0.000000
  C     -0.089048   -1.206811    1.264899
  C     -0.089048   -1.206811   -1.264899
  C     -0.089048    0.324852    1.260545
  C     -0.089048    0.324852   -1.260545
  C      0.566508    0.906527    0.000000
  C      0.533702    2.434333    0.000000
  H     -0.680166   -2.864513    0.000000
  H     -1.805477   -1.520961    0.000000
  H     -0.602476   -1.579676    2.154131
  H      0.943314   -1.566555    1.330389
  H      0.943314   -1.566555   -1.330389
  H     -0.602476   -1.579676   -2.154131
  H     -1.122408    0.686328    1.318579
  H      0.419978    0.704095    2.150588
  H      0.419978    0.704095   -2.150588
  H     -1.122408    0.686328   -1.318579
  H      1.617471    0.591208    0.000000
  H      1.030791    2.842574    0.882126
  H      1.030791    2.842574   -0.882126
  H     -0.495635    2.801645    0.000000

 Total Charge           Charge          ....    0
 Multiplicity           Mult            ....    1
 Number of Electrons    NEL             ....   56
 Basis Dimension        Dim             .... 1204

ORBITAL ENERGIES
----------------

  NO   OCC          E(Eh)            E(eV)
   0   2.0000     -11.216813      -305.2250
   1   2.0000     -11.210877      -305.0635
   2   2.0000     -11.210575      -305.0553
   3   2.0000     -11.210004      -305.0397
   4   2.0000     -11.209116      -305.0155
   5   2.0000     -11.209077      -305.0145
   6   2.0000     -11.205412      -304.9148
   7   2.0000      -1.116148       -30.3719
   8   2.0000      -1.027824       -27.9685
   9   2.0000      -0.998071       -27.1589
  10   2.0000      -0.914539       -24.8859
  11   2.0000      -0.828404       -22.5420
  12   2.0000      -0.797425       -21.6990
  13   2.0000      -0.747074       -20.3289
  14   2.0000      -0.638782       -17.3821
  15   2.0000      -0.607087       -16.5197
  16   2.0000      -0.598056       -16.2739
  17   2.0000      -0.597760       -16.2659
  18   2.0000      -0.563851       -15.3432
  19   2.0000      -0.530957       -14.4481
  20   2.0000      -0.520930       -14.1752
  21   2.0000      -0.508029       -13.8242
  22   2.0000      -0.486819       -13.2470
  23   2.0000      -0.477387       -12.9904
  24   2.0000      -0.466201       -12.6860
  25   2.0000      -0.445857       -12.1324
  26   2.0000      -0.423402       -11.5213
  27   2.0000      -0.419916       -11.4265
  28   0.0000       0.027309         0.7431
  29   0.0000       0.030217         0.8223
  30   0.0000       0.030996         0.8435
  31   0.0000       0.032288         0.8786
  32   0.0000       0.044622         1.2142

MULLIKEN ATOMIC CHARGES
-----------------------
   0 C :   -0.417962
   1 C :   -0.474367
   2 C :   -0.474358
   3 C :   -0.398736
   4 C :   -0.398739
   5 C :    0.386944
   6 C :   -0.966238
   7 H :    0.245681
   8 H :    0.115671
   9 H :    0.222252
  10 H :    0.140096
  11 H :    0.140100
  12 H :    0.222257
  13 H :    0.167149
  14 H :    0.254182
  15 H :    0.254167
  16 H :    0.167143
  17 H :    0.208543
  18 H :    0.217637
  19 H :    0.217638
  20 H :    0.170940
Sum of atomic charges:    0.0000000

LOEWDIN ATOMIC CHARGES
----------------------
   0 C :    0.535470
   1 C :    0.541570
   2 C :    0.541570
   3 C :    0.525007
   4 C :    0.525007
   5 C :    0.112043
   6 C :    0.932113
   7 H :   -0.261845
   8 H :   -0.265060
   9 H :   -0.260878
  10 H :   -0.263931
  11 H :   -0.263931
  12 H :   -0.260878
  13 H :   -0.263278
  14 H :   -0.259152
  15 H :   -0.259152
  16 H :   -0.263278
  17 H :   -0.265858
  18 H :   -0.274761
  19 H :   -0.274761
  20 H :   -0.276017

  Mayer bond orders larger than 0.100000
B(  0-C ,  1-C ) :   0.8792 B(  0-C ,  2-C ) :   0.8792 B(  0-C ,  7-H ) :   0.9471
B(  0-C ,  8-H ) :   1.0439 B(  1-C ,  3-C ) :   0.8827 B(  1-C ,  9-H ) :   1.0018
B(  1-C , 10-H ) :   1.0179 B(  2-C ,  4-C ) :   0.8827 B(  2-C , 11-H ) :   1.0179
B(  2-C , 12-H ) :   1.0018 B(  3-C ,  5-C ) :   0.6843 B(  3-C , 13-H ) :   0.9697
B(  3-C , 14-H ) :   0.9654 B(  4-C ,  5-C ) :   0.6843 B(  4-C , 15-H ) :   0.9655
B(  4-C , 16-H ) :   0.9697 B(  5-C ,  6-C ) :   0.5282 B(  5-C , 17-H ) :   0.9639
B(  5-C , 18-H ) :  -0.1276 B(  5-C , 19-H ) :  -0.1276 B(  6-C , 18-H ) :   1.0816
B(  6-C , 19-H ) :   1.0816 B(  6-C , 20-H ) :   1.0349

MP2 TOTAL ENERGY:     -274.654107381 Eh
FINAL SINGLE POINT ENERGY      -274.654107380742

DIPOLE MOMENT
-------------
                                X             Y             Z
Electronic contribution:      0.04934      -1.30422      -0.00000
Nuclear contribution   :     -0.02722       1.26490      -0.00000
                        -----------------------------------------
Total Dipole Moment    :      0.02212      -0.03932      -0.00000
                        -----------------------------------------
Magnitude (a.u.)       :      0.04511
Magnitude (Debye)      :      0.11467

Rotational constants in cm-1:     0.140196     0.072707     0.052768
Rotational constants in MHz :  4202.975826  2179.697574  1581.951856

                             ****ORCA TERMINATED NORMALLY****
TOTAL RUN TIME: 0 days 1 hours 50 minutes 28 seconds 35 msec
