                         Program Version 5.0.4 -  RELEASE  -
|  1> !ri-mp2 aug-cc-pvqz aug-cc-pvqz/c tightscf
|  2> %pal nprocs 16 end
|  3>
|  4> * xyz 0 1
|  5> C      0.838039    1.595359    0.000000
|  6> O      0.838039   -0.743500    1.259473
|  7> O      0.838039   -0.743500   -1.259473
|  8> S      0.445322   -0.156189    0.000000
|  9> Cl    -1.666500   -0.052456    0.000000
| 10> H      0.421587    2.033909    0.900953
| 11> H      1.925327    1.646800    0.000000
| 12> H      0.421587    2.033909   -0.900953
| 13> *
| 14>
| 15>                          ****END OF INPUT****

CARTESIAN COORDINATES (ANGSTROEM)
---------------------------------
  C      0.838039    1.595359    0.000000
  O      0.838039   -0.743500    1.259473
  O      0.838039   -0.743500   -1.259473
  S      0.445322   -0.156189    0.000000
  Cl    -1.666500   -0.052456    0.000000
  H      0.421587    2.033909    0.900953
  H      1.925327    1.646800    0.000000
  H      0.421587    2.033909   -0.900953

 Total Charge           Charge          ....    0
 Multiplicity           Mult            ....    1
 Number of Electrons    NEL             ....   58
 Basis Dimension        Dim             ....  546

ORBITAL ENERGIES
----------------

  NO   OCC          E(Eh)            E(eV)
   0   2.0000    -104.871388     -2853.6956
   1   2.0000     -92.235646     -2509.8595
   2   2.0000     -20.587710      -560.2201
   3   2.0000     -20.587687      -560.2194
   4   2.0000     -11.309615      -307.7503
   5   2.0000     -10.596204      -288.3374
   6   2.0000      -9.201496      -250.3854
   7   2.0000      -8.062940      -219.4037
   8   2.0000      -8.061183      -219.3559
   9   2.0000      -8.061130      -219.3545
  10   2.0000      -6.887731      -187.4247
  11   2.0000      -6.885442      -187.3624
  12   2.0000      -6.885063      -187.3521
  13   2.0000      -1.488721       -40.5102
  14   2.0000      -1.377990       -37.4970
  15   2.0000      -1.140652       -31.0387
  16   2.0000      -1.062323       -28.9073
  17   2.0000      -0.849756       -23.1230
  18   2.0000      -0.713595       -19.4179
  19   2.0000      -0.699894       -19.0451
  20   2.0000      -0.689303       -18.7569
  21   2.0000      -0.634658       -17.2699
  22   2.0000      -0.630602       -17.1596
  23   2.0000      -0.547758       -14.9052
  24   2.0000      -0.536409       -14.5964
  25   2.0000      -0.517545       -14.0831
  26   2.0000      -0.492890       -13.4122
  27   2.0000      -0.480107       -13.0644
  28   2.0000      -0.476926       -12.9778
  29   0.0000       0.018218         0.4957
  30   0.0000       0.037457         1.0193
  31   0.0000       0.037773         1.0279
  32   0.0000       0.051770         1.4087
  33   0.0000       0.061645         1.6775

MULLIKEN ATOMIC CHARGES
-----------------------
   0 C :   -0.956526
   1 O :   -1.076416
   2 O :   -1.076416
   3 S :    2.281179
   4 Cl:   -0.233700
   5 H :    0.361477
   6 H :    0.338924
   7 H :    0.361477
Sum of atomic charges:    0.0000000

LOEWDIN ATOMIC CHARGES
----------------------
   0 C :    0.735231
   1 O :    0.204097
   2 O :    0.204097
   3 S :   -0.837103
   4 Cl:    0.737958
   5 H :   -0.353727
   6 H :   -0.336826
   7 H :   -0.353727

  Mayer bond orders larger than 0.100000
B(  0-C ,  3-S ) :   0.9591 B(  0-C ,  5-H ) :   0.8745 B(  0-C ,  6-H ) :   0.8514
B(  0-C ,  7-H ) :   0.8745 B(  1-O ,  3-S ) :   1.1866 B(  2-O ,  3-S ) :   1.1866
B(  3-S ,  4-Cl) :   0.8476

MP2 TOTAL ENERGY:    -1047.593908292 Eh
FINAL SINGLE POINT ENERGY     -1047.593908292051

DIPOLE MOMENT
-------------
                                X             Y             Z
Electronic contribution:     -4.87581      -3.77616      -0.00000
Nuclear contribution   :      4.91204       5.48801       0.00000
                        -----------------------------------------
Total Dipole Moment    :      0.03623       1.71185      -0.00000
                        -----------------------------------------
Magnitude (a.u.)       :      1.71223
Magnitude (Debye)      :      4.35215

Rotational constants in cm-1:     0.150134     0.087791     0.084493
Rotational constants in MHz :  4500.918194  2631.911946  2533.032070

                             ****ORCA TERMINATED NORMALLY****
TOTAL RUN TIME: 0 days 0 hours 8 minutes 50 seconds 135 msec
