                         Program Version 5.0.4 -  RELEASE  -
|  1> !ri-mp2 aug-cc-pvqz aug-cc-pvqz/c tightscf
|  2> %pal nprocs 16 end
|  3>
|  4> * xyz 0 1
|  5> C      0.000000    0.000000    2.071388
|  6> C      0.000000    1.208808    1.386957
|  7> C      0.000000   -1.208808    1.386957
|  8> C      0.000000    0.000000   -0.713068
|  9> C      0.000000    1.191420   -0.000840
| 10> C      0.000000   -1.191420   -0.000840
| 11> Cl     0.000000    2.703797   -0.881717
| 12> Cl     0.000000   -2.703797   -0.881717
| 13> H      0.000000    0.000000    3.152761
| 14> H      0.000000    2.149253    1.916981
| 15> H      0.000000   -2.149253    1.916981
| 16> H      0.000000    0.000000   -1.791679
| 17> *
| 18>
| 19>                          ****END OF INPUT****

CARTESIAN COORDINATES (ANGSTROEM)
---------------------------------
  C      0.000000    0.000000    2.071388
  C      0.000000    1.208808    1.386957
  C      0.000000   -1.208808    1.386957
  C      0.000000    0.000000   -0.713068
  C      0.000000    1.191420   -0.000840
  C      0.000000   -1.191420   -0.000840
  Cl     0.000000    2.703797   -0.881717
  Cl     0.000000   -2.703797   -0.881717
  H      0.000000    0.000000    3.152761
  H      0.000000    2.149253    1.916981
  H      0.000000   -2.149253    1.916981
  H      0.000000    0.000000   -1.791679

 Total Charge           Charge          ....    0
 Multiplicity           Mult            ....    1
 Number of Electrons    NEL             ....   74
 Basis Dimension        Dim             ....  832

ORBITAL ENERGIES
----------------

  NO   OCC          E(Eh)            E(eV)
   0   2.0000    -104.848604     -2853.0756
   1   2.0000    -104.848604     -2853.0756
   2   2.0000     -11.318763      -307.9992
   3   2.0000     -11.318754      -307.9989
   4   2.0000     -11.264410      -306.5202
   5   2.0000     -11.263520      -306.4960
   6   2.0000     -11.259727      -306.3927
   7   2.0000     -11.259508      -306.3868
   8   2.0000     -10.573819      -287.7282
   9   2.0000     -10.573818      -287.7282
  10   2.0000      -8.040942      -218.8052
  11   2.0000      -8.040942      -218.8052
  12   2.0000      -8.039192      -218.7575
  13   2.0000      -8.039192      -218.7575
  14   2.0000      -8.039149      -218.7564
  15   2.0000      -8.039149      -218.7564
  16   2.0000      -1.215713       -33.0812
  17   2.0000      -1.160834       -31.5879
  18   2.0000      -1.110260       -30.2117
  19   2.0000      -1.029692       -28.0193
  20   2.0000      -1.004684       -27.3388
  21   2.0000      -0.856156       -23.2972
  22   2.0000      -0.825444       -22.4615
  23   2.0000      -0.721026       -19.6201
  24   2.0000      -0.676312       -18.4034
  25   2.0000      -0.649114       -17.6633
  26   2.0000      -0.609927       -16.5970
  27   2.0000      -0.601534       -16.3686
  28   2.0000      -0.571409       -15.5488
  29   2.0000      -0.536483       -14.5984
  30   2.0000      -0.528607       -14.3841
  31   2.0000      -0.512023       -13.9328
  32   2.0000      -0.468860       -12.7583
  33   2.0000      -0.462719       -12.5912
  34   2.0000      -0.461035       -12.5454
  35   2.0000      -0.360052        -9.7975
  36   2.0000      -0.346888        -9.4393
  37   0.0000       0.023162         0.6303
  38   0.0000       0.031692         0.8624
  39   0.0000       0.033625         0.9150
  40   0.0000       0.044093         1.1998
  41   0.0000       0.061174         1.6646

MULLIKEN ATOMIC CHARGES
-----------------------
   0 C :   -0.302352
   1 C :   -0.016846
   2 C :   -0.016784
   3 C :    0.069943
   4 C :   -0.406349
   5 C :   -0.406310
   6 Cl:   -0.308754
   7 Cl:   -0.308751
   8 H :    0.256072
   9 H :    0.443568
  10 H :    0.443561
  11 H :    0.553003
Sum of atomic charges:    0.0000000

LOEWDIN ATOMIC CHARGES
----------------------
   0 C :    0.319462
   1 C :    0.200744
   2 C :    0.200745
   3 C :    0.057098
   4 C :   -0.857916
   5 C :   -0.857916
   6 Cl:    1.182747
   7 Cl:    1.182747
   8 H :   -0.319056
   9 H :   -0.357791
  10 H :   -0.357791
  11 H :   -0.393071

  Mayer bond orders larger than 0.100000
B(  0-C ,  1-C ) :   1.2129 B(  0-C ,  2-C ) :   1.2128 B(  0-C ,  8-H ) :   1.0935
B(  1-C ,  4-C ) :   1.1507 B(  1-C ,  5-C ) :   0.1179 B(  1-C ,  6-Cl) :  -0.2016
B(  1-C ,  8-H ) :  -0.1121 B(  1-C ,  9-H ) :   0.8307 B(  2-C ,  4-C ) :   0.1179
B(  2-C ,  5-C ) :   1.1506 B(  2-C ,  7-Cl) :  -0.2016 B(  2-C ,  8-H ) :  -0.1121
B(  2-C , 10-H ) :   0.8308 B(  3-C ,  4-C ) :   1.2436 B(  3-C ,  5-C ) :   1.2435
B(  3-C ,  6-Cl) :  -0.2083 B(  3-C ,  7-Cl) :  -0.2083 B(  3-C , 11-H ) :   0.7543
B(  4-C ,  6-Cl) :   1.1603 B(  5-C ,  7-Cl) :   1.1603

MP2 TOTAL ENERGY:    -1150.096601818 Eh
FINAL SINGLE POINT ENERGY     -1150.096601817832

DIPOLE MOMENT
-------------
                                X             Y             Z
Electronic contribution:     -0.00000       0.00000      -6.55825
Nuclear contribution   :      0.00000       0.00000       7.29650
                        -----------------------------------------
Total Dipole Moment    :     -0.00000       0.00000       0.73826
                        -----------------------------------------
Magnitude (a.u.)       :      0.73826
Magnitude (Debye)      :      1.87650

Rotational constants in cm-1:     0.094051     0.028243     0.021721
Rotational constants in MHz :  2819.574862   846.713009   651.168375

                             ****ORCA TERMINATED NORMALLY****
TOTAL RUN TIME: 0 days 0 hours 35 minutes 35 seconds 712 msec
