                         Program Version 5.0.4 -  RELEASE  -
|  1> !ri-mp2 aug-cc-pvqz aug-cc-pvqz/c tightscf
|  2> %pal nprocs 16 end
|  3>
|  4> * xyz 0 1
|  5> C      0.000000    0.000000    1.764506
|  6> C      0.000000    1.210426    1.080320
|  7> C      0.000000   -1.210426    1.080320
|  8> C      0.000000    0.000000   -1.026563
|  9> C      0.000000    1.180185   -0.303243
| 10> C      0.000000   -1.180185   -0.303243
| 11> F      0.000000    2.345713   -0.982604
| 12> F      0.000000   -2.345713   -0.982604
| 13> H      0.000000    0.000000    2.845406
| 14> H      0.000000    2.158300    1.597384
| 15> H      0.000000   -2.158300    1.597384
| 16> H      0.000000    0.000000   -2.105879
| 17> *
| 18>
| 19>                          ****END OF INPUT****

CARTESIAN COORDINATES (ANGSTROEM)
---------------------------------
  C      0.000000    0.000000    1.764506
  C      0.000000    1.210426    1.080320
  C      0.000000   -1.210426    1.080320
  C      0.000000    0.000000   -1.026563
  C      0.000000    1.180185   -0.303243
  C      0.000000   -1.180185   -0.303243
  F      0.000000    2.345713   -0.982604
  F      0.000000   -2.345713   -0.982604
  H      0.000000    0.000000    2.845406
  H      0.000000    2.158300    1.597384
  H      0.000000   -2.158300    1.597384
  H      0.000000    0.000000   -2.105879

 Total Charge           Charge          ....    0
 Multiplicity           Mult            ....    1
 Number of Electrons    NEL             ....   58
 Basis Dimension        Dim             ....  824

ORBITAL ENERGIES
----------------

  NO   OCC          E(Eh)            E(eV)
   0   2.0000     -26.316843      -716.1177
   1   2.0000     -26.316843      -716.1177
   2   2.0000     -11.345419      -308.7245
   3   2.0000     -11.345413      -308.7244
   4   2.0000     -11.265828      -306.5588
   5   2.0000     -11.254070      -306.2388
   6   2.0000     -11.249812      -306.1229
   7   2.0000     -11.249749      -306.1212
   8   2.0000      -1.635642       -44.5081
   9   2.0000      -1.635071       -44.4925
  10   2.0000      -1.182215       -32.1697
  11   2.0000      -1.048610       -28.5341
  12   2.0000      -1.038404       -28.2564
  13   2.0000      -0.876612       -23.8538
  14   2.0000      -0.866564       -23.5804
  15   2.0000      -0.776837       -21.1388
  16   2.0000      -0.743649       -20.2357
  17   2.0000      -0.707523       -19.2527
  18   2.0000      -0.705426       -19.1956
  19   2.0000      -0.699479       -19.0338
  20   2.0000      -0.687591       -18.7103
  21   2.0000      -0.671852       -18.2820
  22   2.0000      -0.625880       -17.0310
  23   2.0000      -0.592359       -16.1189
  24   2.0000      -0.558558       -15.1991
  25   2.0000      -0.536566       -14.6007
  26   2.0000      -0.519876       -14.1466
  27   2.0000      -0.363786        -9.8991
  28   2.0000      -0.352716        -9.5979
  29   0.0000       0.023536         0.6405
  30   0.0000       0.031506         0.8573
  31   0.0000       0.032061         0.8724
  32   0.0000       0.043209         1.1758
  33   0.0000       0.063225         1.7204

MULLIKEN ATOMIC CHARGES
-----------------------
   0 C :   -0.469611
   1 C :   -0.385007
   2 C :   -0.385005
   3 C :   -0.576046
   4 C :    0.835967
   5 C :    0.835981
   6 F :   -0.741747
   7 F :   -0.741747
   8 H :    0.198306
   9 H :    0.439910
  10 H :    0.439918
  11 H :    0.549081
Sum of atomic charges:    0.0000000

LOEWDIN ATOMIC CHARGES
----------------------
   0 C :    0.315759
   1 C :    0.298711
   2 C :    0.298711
   3 C :    0.260363
   4 C :   -0.699303
   5 C :   -0.699303
   6 F :    0.775744
   7 F :    0.775744
   8 H :   -0.318239
   9 H :   -0.334676
  10 H :   -0.334676
  11 H :   -0.338837

  Mayer bond orders larger than 0.100000
B(  0-C ,  1-C ) :   1.2244 B(  0-C ,  2-C ) :   1.2244 B(  0-C ,  4-C ) :  -0.1527
B(  0-C ,  5-C ) :  -0.1526 B(  0-C ,  8-H ) :   1.1755 B(  1-C ,  4-C ) :   1.3617
B(  1-C ,  6-F ) :   0.1840 B(  1-C ,  9-H ) :   0.8042 B(  2-C ,  5-C ) :   1.3617
B(  2-C ,  7-F ) :   0.1840 B(  2-C , 10-H ) :   0.8042 B(  3-C ,  4-C ) :   1.4776
B(  3-C ,  5-C ) :   1.4776 B(  3-C ,  6-F ) :   0.1229 B(  3-C ,  7-F ) :   0.1229
B(  3-C , 11-H ) :   0.6142 B(  4-C ,  5-C ) :  -0.2074

MP2 TOTAL ENERGY:     -430.138240404 Eh
FINAL SINGLE POINT ENERGY      -430.138240404336

DIPOLE MOMENT
-------------
                                X             Y             Z
Electronic contribution:     -0.00000       0.00000      -4.90589
Nuclear contribution   :      0.00000       0.00000       5.60911
                        -----------------------------------------
Total Dipole Moment    :     -0.00000       0.00000       0.70322
                        -----------------------------------------
Magnitude (a.u.)       :      0.70322
Magnitude (Debye)      :      1.78744

Rotational constants in cm-1:     0.125372     0.058714     0.039987
Rotational constants in MHz :  3758.569905  1760.209952  1198.792546

                             ****ORCA TERMINATED NORMALLY****
TOTAL RUN TIME: 0 days 0 hours 36 minutes 31 seconds 503 msec
