                         Program Version 5.0.4 -  RELEASE  -
|  1> !ri-mp2 aug-cc-pvqz aug-cc-pvqz/c tightscf
|  2> %pal nprocs 16 end
|  3>
|  4> * xyz 0 1
|  5> C     -1.883880    0.052683    0.051156
|  6> H     -2.056506    0.749901   -0.773592
|  7> H     -2.696495   -0.669693    0.034127
|  8> H     -1.939587    0.605039    0.992852
|  9> H     -0.628998   -1.659843   -0.030177
| 10> N     -0.629825   -0.657566   -0.098325
| 11> C      0.625516   -0.112385   -0.011604
| 12> H     -0.085368    1.818229   -0.316218
| 13> H      1.594033    1.648111   -0.085107
| 14> N      0.672759    1.267776    0.047964
| 15> O      1.632821   -0.800625    0.036666
| 16> *
| 17>
| 18>                          ****END OF INPUT****

CARTESIAN COORDINATES (ANGSTROEM)
---------------------------------
  C     -1.883880    0.052683    0.051156
  H     -2.056506    0.749901   -0.773592
  H     -2.696495   -0.669693    0.034127
  H     -1.939587    0.605039    0.992852
  H     -0.628998   -1.659843   -0.030177
  N     -0.629825   -0.657566   -0.098325
  C      0.625516   -0.112385   -0.011604
  H     -0.085368    1.818229   -0.316218
  H      1.594033    1.648111   -0.085107
  N      0.672759    1.267776    0.047964
  O      1.632821   -0.800625    0.036666

 Total Charge           Charge          ....    0
 Multiplicity           Mult            ....    1
 Number of Electrons    NEL             ....   40
 Basis Dimension        Dim             ....  676

ORBITAL ENERGIES
----------------

  NO   OCC          E(Eh)            E(eV)
   0   2.0000     -20.500072      -557.8353
   1   2.0000     -15.579417      -423.9375
   2   2.0000     -15.578387      -423.9095
   3   2.0000     -11.371513      -309.4346
   4   2.0000     -11.277138      -306.8665
   5   2.0000      -1.383878       -37.6572
   6   2.0000      -1.239921       -33.7400
   7   2.0000      -1.187993       -32.3269
   8   2.0000      -0.961791       -26.1717
   9   2.0000      -0.818456       -22.2713
  10   2.0000      -0.740035       -20.1374
  11   2.0000      -0.681257       -18.5379
  12   2.0000      -0.647616       -17.6225
  13   2.0000      -0.639226       -17.3942
  14   2.0000      -0.592122       -16.1125
  15   2.0000      -0.567814       -15.4510
  16   2.0000      -0.562927       -15.3180
  17   2.0000      -0.436785       -11.8855
  18   2.0000      -0.423080       -11.5126
  19   2.0000      -0.394319       -10.7300
  20   0.0000       0.018766         0.5107
  21   0.0000       0.028556         0.7770
  22   0.0000       0.038647         1.0516
  23   0.0000       0.040283         1.0961
  24   0.0000       0.050634         1.3778

MULLIKEN ATOMIC CHARGES
-----------------------
   0 C :   -0.701373
   1 H :    0.221008
   2 H :    0.398865
   3 H :    0.282227
   4 H :    0.198202
   5 N :   -0.580767
   6 C :    1.096473
   7 H :    0.327249
   8 H :    0.215665
   9 N :   -0.684664
  10 O :   -0.772885
Sum of atomic charges:   -0.0000000

LOEWDIN ATOMIC CHARGES
----------------------
   0 C :    0.774861
   1 H :   -0.292935
   2 H :   -0.295303
   3 H :   -0.284147
   4 H :   -0.526669
   5 N :    0.808657
   6 C :   -1.023891
   7 H :   -0.535275
   8 H :   -0.517207
   9 N :    1.234176
  10 O :    0.657734

  Mayer bond orders larger than 0.100000
B(  0-C ,  1-H ) :   1.0015 B(  0-C ,  2-H ) :   0.8516 B(  0-C ,  3-H ) :   0.9406
B(  0-C ,  5-N ) :   0.8148 B(  4-H ,  5-N ) :   1.0371 B(  5-N ,  6-C ) :   1.1921
B(  5-N , 10-O ) :   0.1706 B(  6-C ,  9-N ) :   1.1334 B(  6-C , 10-O ) :   1.4051
B(  7-H ,  9-N ) :   0.8582 B(  8-H ,  9-N ) :   0.9935 B(  9-N , 10-O ) :   0.1060

MP2 TOTAL ENERGY:     -264.198734006 Eh
FINAL SINGLE POINT ENERGY      -264.198734006083

DIPOLE MOMENT
-------------
                                X             Y             Z
Electronic contribution:      4.28788      -1.61026      -0.05303
Nuclear contribution   :     -5.86816       2.51755      -0.18033
                        -----------------------------------------
Total Dipole Moment    :     -1.58028       0.90730      -0.23336
                        -----------------------------------------
Magnitude (a.u.)       :      1.83710
Magnitude (Debye)      :      4.66954

Rotational constants in cm-1:     0.330481     0.138424     0.099774
Rotational constants in MHz :  9907.559272  4149.861380  2991.157860

                             ****ORCA TERMINATED NORMALLY****
TOTAL RUN TIME: 0 days 0 hours 8 minutes 52 seconds 522 msec
