                         Program Version 5.0.4 -  RELEASE  -
|  1> !ri-mp2 aug-cc-pvqz aug-cc-pvqz/c tightscf
|  2> %pal nprocs 16 end
|  3>
|  4> * xyz 0 1
|  5> C      0.000000    0.105348    0.000000
|  6> C      2.229810   -1.101248    0.000000
|  7> C     -2.125328    1.140307    0.000000
|  8> C      0.712415   -1.227832    0.000000
|  9> O      0.529639    1.188224    0.000000
| 10> O     -1.340167   -0.063276    0.000000
| 11> H      2.578825   -0.559466    0.877868
| 12> H      2.691306   -2.088610    0.000000
| 13> H      2.578825   -0.559466   -0.877868
| 14> H     -3.160662    0.813935    0.000000
| 15> H     -1.911948    1.735162   -0.886287
| 16> H     -1.911948    1.735162    0.886287
| 17> H      0.359222   -1.787875    0.869073
| 18> H      0.359222   -1.787875   -0.869073
| 19> *
| 20>
| 21>                          ****END OF INPUT****

CARTESIAN COORDINATES (ANGSTROEM)
---------------------------------
  C      0.000000    0.105348    0.000000
  C      2.229810   -1.101248    0.000000
  C     -2.125328    1.140307    0.000000
  C      0.712415   -1.227832    0.000000
  O      0.529639    1.188224    0.000000
  O     -1.340167   -0.063276    0.000000
  H      2.578825   -0.559466    0.877868
  H      2.691306   -2.088610    0.000000
  H      2.578825   -0.559466   -0.877868
  H     -3.160662    0.813935    0.000000
  H     -1.911948    1.735162   -0.886287
  H     -1.911948    1.735162    0.886287
  H      0.359222   -1.787875    0.869073
  H      0.359222   -1.787875   -0.869073

 Total Charge           Charge          ....    0
 Multiplicity           Mult            ....    1
 Number of Electrons    NEL             ....   48
 Basis Dimension        Dim             ....  848

ORBITAL ENERGIES
----------------

  NO   OCC          E(Eh)            E(eV)
   0   2.0000     -20.598280      -560.5077
   1   2.0000     -20.540526      -558.9361
   2   2.0000     -11.374801      -309.5241
   3   2.0000     -11.283283      -307.0337
   4   2.0000     -11.243042      -305.9387
   5   2.0000     -11.218778      -305.2785
   6   2.0000      -1.456498       -39.6333
   7   2.0000      -1.356497       -36.9122
   8   2.0000      -1.064188       -28.9580
   9   2.0000      -0.973716       -26.4961
  10   2.0000      -0.878691       -23.9104
  11   2.0000      -0.766805       -20.8658
  12   2.0000      -0.700051       -19.0494
  13   2.0000      -0.677661       -18.4401
  14   2.0000      -0.669590       -18.2205
  15   2.0000      -0.619844       -16.8668
  16   2.0000      -0.601376       -16.3643
  17   2.0000      -0.542278       -14.7561
  18   2.0000      -0.538150       -14.6438
  19   2.0000      -0.524591       -14.2748
  20   2.0000      -0.518441       -14.1075
  21   2.0000      -0.496525       -13.5111
  22   2.0000      -0.462302       -12.5799
  23   2.0000      -0.446138       -12.1400
  24   0.0000       0.025167         0.6848
  25   0.0000       0.029942         0.8148
  26   0.0000       0.036347         0.9890
  27   0.0000       0.037969         1.0332
  28   0.0000       0.048130         1.3097

MULLIKEN ATOMIC CHARGES
-----------------------
   0 C :    1.027275
   1 C :   -0.805070
   2 C :   -0.692404
   3 C :   -0.422475
   4 O :   -0.768996
   5 O :   -0.710876
   6 H :    0.228596
   7 H :    0.304788
   8 H :    0.228596
   9 H :    0.442202
  10 H :    0.296813
  11 H :    0.296813
  12 H :    0.287369
  13 H :    0.287369
Sum of atomic charges:    0.0000000

LOEWDIN ATOMIC CHARGES
----------------------
   0 C :   -1.068290
   1 C :    0.897036
   2 C :    0.578934
   3 C :    0.443255
   4 O :    0.723008
   5 O :    0.841992
   6 H :   -0.290565
   7 H :   -0.285591
   8 H :   -0.290565
   9 H :   -0.326605
  10 H :   -0.317944
  11 H :   -0.317944
  12 H :   -0.293360
  13 H :   -0.293360

  Mayer bond orders larger than 0.100000
B(  0-C ,  1-C ) :  -0.1048 B(  0-C ,  3-C ) :   0.8922 B(  0-C ,  4-O ) :   1.3768
B(  0-C ,  5-O ) :   0.9944 B(  1-C ,  3-C ) :   1.0344 B(  1-C ,  6-H ) :   0.9515
B(  1-C ,  7-H ) :   0.9524 B(  1-C ,  8-H ) :   0.9515 B(  2-C ,  5-O ) :   0.8578
B(  2-C ,  9-H ) :   0.8173 B(  2-C , 10-H ) :   0.9137 B(  2-C , 11-H ) :   0.9137
B(  3-C , 12-H ) :   0.8691 B(  3-C , 13-H ) :   0.8691

MP2 TOTAL ENERGY:     -307.242535232 Eh
FINAL SINGLE POINT ENERGY      -307.242535232260

DIPOLE MOMENT
-------------
                                X             Y             Z
Electronic contribution:     -2.07343       1.94779      -0.00000
Nuclear contribution   :      1.60644      -2.53879       0.00000
                        -----------------------------------------
Total Dipole Moment    :     -0.46699      -0.59100      -0.00000
                        -----------------------------------------
Magnitude (a.u.)       :      0.75324
Magnitude (Debye)      :      1.91457

Rotational constants in cm-1:     0.319299     0.071005     0.060015
Rotational constants in MHz :  9572.352740  2128.678736  1799.203763

                             ****ORCA TERMINATED NORMALLY****
TOTAL RUN TIME: 0 days 0 hours 27 minutes 0 seconds 569 msec
