                         Program Version 5.0.4 -  RELEASE  -
|  1> !ri-mp2 aug-cc-pvqz aug-cc-pvqz/c tightscf
|  2> %pal nprocs 16 end
|  3>
|  4> * xyz 0 1
|  5> O     -0.918919    0.545512   -0.000017
|  6> O      2.432931    0.084775    0.000018
|  7> N      0.106029   -0.423845   -0.000029
|  8> C     -2.173941   -0.133816    0.000020
|  9> C      1.278201   -0.072865   -0.000002
| 10> H     -2.914348    0.662738    0.000020
| 11> H     -2.282738   -0.749000    0.894011
| 12> H     -2.282772   -0.749032   -0.893944
| 13> *
| 14>
| 15>                          ****END OF INPUT****

CARTESIAN COORDINATES (ANGSTROEM)
---------------------------------
  O     -0.918919    0.545512   -0.000017
  O      2.432931    0.084775    0.000018
  N      0.106029   -0.423845   -0.000029
  C     -2.173941   -0.133816    0.000020
  C      1.278201   -0.072865   -0.000002
  H     -2.914348    0.662738    0.000020
  H     -2.282738   -0.749000    0.894011
  H     -2.282772   -0.749032   -0.893944

 Total Charge           Charge          ....    0
 Multiplicity           Mult            ....    1
 Number of Electrons    NEL             ....   38
 Basis Dimension        Dim             ....  538

ORBITAL ENERGIES
----------------

  NO   OCC          E(Eh)            E(eV)
   0   2.0000     -20.636672      -561.5524
   1   2.0000     -20.634196      -561.4850
   2   2.0000     -15.635745      -425.4703
   3   2.0000     -11.414432      -310.6025
   4   2.0000     -11.293639      -307.3156
   5   2.0000      -1.486426       -40.4477
   6   2.0000      -1.448998       -39.4292
   7   2.0000      -1.211389       -32.9636
   8   2.0000      -0.945344       -25.7241
   9   2.0000      -0.775598       -21.1051
  10   2.0000      -0.733028       -19.9467
  11   2.0000      -0.697008       -18.9665
  12   2.0000      -0.683542       -18.6001
  13   2.0000      -0.647023       -17.6064
  14   2.0000      -0.612062       -16.6551
  15   2.0000      -0.569252       -15.4901
  16   2.0000      -0.531534       -14.4638
  17   2.0000      -0.473605       -12.8875
  18   2.0000      -0.407124       -11.0784
  19   0.0000       0.024512         0.6670
  20   0.0000       0.039260         1.0683
  21   0.0000       0.040533         1.1029
  22   0.0000       0.049177         1.3382
  23   0.0000       0.069207         1.8832

MULLIKEN ATOMIC CHARGES
-----------------------
   0 O :   -0.497550
   1 O :   -0.549639
   2 N :   -0.475704
   3 C :   -0.523731
   4 C :    1.110132
   5 H :    0.410879
   6 H :    0.262809
   7 H :    0.262806
Sum of atomic charges:   -0.0000000

LOEWDIN ATOMIC CHARGES
----------------------
   0 O :    0.554396
   1 O :    0.594065
   2 N :    0.110219
   3 C :    0.522282
   4 C :   -0.789327
   5 H :   -0.342094
   6 H :   -0.324770
   7 H :   -0.324771

  Mayer bond orders larger than 0.100000
B(  0-O ,  2-N ) :   0.8033 B(  0-O ,  3-C ) :   0.8491 B(  1-O ,  2-N ) :   0.2714
B(  1-O ,  4-C ) :   1.8328 B(  2-N ,  4-C ) :   1.9754 B(  3-C ,  5-H ) :   0.8381
B(  3-C ,  6-H ) :   0.9216 B(  3-C ,  7-H ) :   0.9216

MP2 TOTAL ENERGY:     -282.750325441 Eh
FINAL SINGLE POINT ENERGY      -282.750325441008

DIPOLE MOMENT
-------------
                                X             Y             Z
Electronic contribution:      6.30183       0.72938      -0.00006
Nuclear contribution   :     -7.28348      -0.80876       0.00008
                        -----------------------------------------
Total Dipole Moment    :     -0.98165      -0.07938       0.00002
                        -----------------------------------------
Magnitude (a.u.)       :      0.98485
Magnitude (Debye)      :      2.50330

Rotational constants in cm-1:     1.555951     0.082355     0.079402
Rotational constants in MHz : 46646.224679  2468.946532  2380.425881

                             ****ORCA TERMINATED NORMALLY****
TOTAL RUN TIME: 0 days 0 hours 3 minutes 41 seconds 452 msec
