                         Program Version 5.0.4 -  RELEASE  -
|  1> !ri-mp2 aug-cc-pvqz aug-cc-pvqz/c tightscf
|  2> %pal nprocs 16 end
|  3>
|  4> * xyz 0 1
|  5> C      0.000000    0.495796    0.000000
|  6> C     -1.126166    1.493825    0.000000
|  7> C      0.518397   -1.810474    0.000000
|  8> O      1.175144    0.763556    0.000000
|  9> O     -0.472599   -0.769316    0.000000
| 10> H     -1.754646    1.346302    0.878098
| 11> H     -1.754646    1.346302   -0.878098
| 12> H     -0.719073    2.499833    0.000000
| 13> H      1.146150   -1.739249   -0.886325
| 14> H     -0.037679   -2.742743    0.000000
| 15> H      1.146150   -1.739249    0.886325
| 16> *
| 17>
| 18>                          ****END OF INPUT****

CARTESIAN COORDINATES (ANGSTROEM)
---------------------------------
  C      0.000000    0.495796    0.000000
  C     -1.126166    1.493825    0.000000
  C      0.518397   -1.810474    0.000000
  O      1.175144    0.763556    0.000000
  O     -0.472599   -0.769316    0.000000
  H     -1.754646    1.346302    0.878098
  H     -1.754646    1.346302   -0.878098
  H     -0.719073    2.499833    0.000000
  H      1.146150   -1.739249   -0.886325
  H     -0.037679   -2.742743    0.000000
  H      1.146150   -1.739249    0.886325

 Total Charge           Charge          ....    0
 Multiplicity           Mult            ....    1
 Number of Electrons    NEL             ....   40
 Basis Dimension        Dim             ....  676

ORBITAL ENERGIES
----------------

  NO   OCC          E(Eh)            E(eV)
   0   2.0000     -20.600270      -560.5618
   1   2.0000     -20.541789      -558.9705
   2   2.0000     -11.378949      -309.6370
   3   2.0000     -11.284296      -307.0613
   4   2.0000     -11.239721      -305.8484
   5   2.0000      -1.458123       -39.6775
   6   2.0000      -1.357802       -36.9477
   7   2.0000      -1.034096       -28.1392
   8   2.0000      -0.948649       -25.8141
   9   2.0000      -0.777451       -21.1555
  10   2.0000      -0.694696       -18.9036
  11   2.0000      -0.676178       -18.3997
  12   2.0000      -0.676018       -18.3954
  13   2.0000      -0.594329       -16.1725
  14   2.0000      -0.592366       -16.1191
  15   2.0000      -0.560208       -15.2440
  16   2.0000      -0.528771       -14.3886
  17   2.0000      -0.524080       -14.2609
  18   2.0000      -0.463674       -12.6172
  19   2.0000      -0.449975       -12.2444
  20   0.0000       0.025154         0.6845
  21   0.0000       0.031841         0.8664
  22   0.0000       0.038650         1.0517
  23   0.0000       0.041556         1.1308
  24   0.0000       0.051276         1.3953

MULLIKEN ATOMIC CHARGES
-----------------------
   0 C :    0.909527
   1 C :   -0.758814
   2 C :   -0.643709
   3 O :   -0.724219
   4 O :   -0.648700
   5 H :    0.288872
   6 H :    0.288872
   7 H :    0.298019
   8 H :    0.285546
   9 H :    0.419062
  10 H :    0.285546
Sum of atomic charges:   -0.0000000

LOEWDIN ATOMIC CHARGES
----------------------
   0 C :   -1.080034
   1 C :    0.866734
   2 C :    0.575138
   3 O :    0.700828
   4 O :    0.832035
   5 H :   -0.302770
   6 H :   -0.302770
   7 H :   -0.324259
   8 H :   -0.318867
   9 H :   -0.327166
  10 H :   -0.318867

  Mayer bond orders larger than 0.100000
B(  0-C ,  1-C ) :   0.8849 B(  0-C ,  3-O ) :   1.4900 B(  0-C ,  4-O ) :   0.9995
B(  1-C ,  5-H ) :   0.9198 B(  1-C ,  6-H ) :   0.9198 B(  1-C ,  7-H ) :   0.9651
B(  2-C ,  4-O ) :   0.8369 B(  2-C ,  8-H ) :   0.9165 B(  2-C ,  9-H ) :   0.8349
B(  2-C , 10-H ) :   0.9165

MP2 TOTAL ENERGY:     -268.006156474 Eh
FINAL SINGLE POINT ENERGY      -268.006156473869

DIPOLE MOMENT
-------------
                                X             Y             Z
Electronic contribution:      1.26512       0.67122      -0.00000
Nuclear contribution   :     -1.99033      -1.04339       0.00000
                        -----------------------------------------
Total Dipole Moment    :     -0.72521      -0.37217      -0.00000
                        -----------------------------------------
Magnitude (a.u.)       :      0.81513
Magnitude (Debye)      :      2.07191

Rotational constants in cm-1:     0.341883     0.138217     0.102170
Rotational constants in MHz : 10249.404004  4143.653742  3062.969866

                             ****ORCA TERMINATED NORMALLY****
TOTAL RUN TIME: 0 days 0 hours 12 minutes 5 seconds 284 msec
