                         Program Version 5.0.4 -  RELEASE  -
|  1> !ri-mp2 aug-cc-pvqz aug-cc-pvqz/c tightscf
|  2> %pal nprocs 16 end
|  3>
|  4> * xyz 0 1
|  5> C     -0.048962    0.706625        0.000000
|  6> N     -0.048962   -0.757428        0.000000
|  7> H      0.945026    1.171177        0.000000
|  8> H     -0.587216    1.065175        0.877567
|  9> H     -0.587216    1.065175       -0.877567
| 10> H      0.432957   -1.119643        0.812861
| 11> H      0.432957   -1.119643       -0.812861
| 12> *
| 13>
| 14>                          ****END OF INPUT****

CARTESIAN COORDINATES (ANGSTROEM)
---------------------------------
  C     -0.048962    0.706625    0.000000
  N     -0.048962   -0.757428    0.000000
  H      0.945026    1.171177    0.000000
  H     -0.587216    1.065175    0.877567
  H     -0.587216    1.065175   -0.877567
  H      0.432957   -1.119643    0.812861
  H      0.432957   -1.119643   -0.812861

 Total Charge           Charge          ....    0
 Multiplicity           Mult            ....    1
 Number of Electrons    NEL             ....   18
 Basis Dimension        Dim             ....  390

ORBITAL ENERGIES
----------------

  NO   OCC          E(Eh)            E(eV)
   0   2.0000     -15.537427      -422.7949
   1   2.0000     -11.240696      -305.8749
   2   2.0000      -1.168029       -31.7837
   3   2.0000      -0.895835       -24.3769
   4   2.0000      -0.662312       -18.0224
   5   2.0000      -0.602600       -16.3976
   6   2.0000      -0.557388       -15.1673
   7   2.0000      -0.517492       -14.0817
   8   2.0000      -0.389958       -10.6113
   9   0.0000       0.026258         0.7145
  10   0.0000       0.038617         1.0508
  11   0.0000       0.039498         1.0748
  12   0.0000       0.044448         1.2095
  13   0.0000       0.062489         1.7004

MULLIKEN ATOMIC CHARGES
-----------------------
   0 C :   -0.642913
   1 N :   -0.612044
   2 H :    0.235830
   3 H :    0.266675
   4 H :    0.266675
   5 H :    0.242889
   6 H :    0.242889
Sum of atomic charges:   -0.0000000

LOEWDIN ATOMIC CHARGES
----------------------
   0 C :    0.742002
   1 N :    1.245289
   2 H :   -0.295717
   3 H :   -0.316924
   4 H :   -0.316924
   5 H :   -0.528863
   6 H :   -0.528863

  Mayer bond orders larger than 0.100000
B(  0-C ,  1-N ) :   0.9752 B(  0-C ,  2-H ) :   0.9464 B(  0-C ,  3-H ) :   0.9250
B(  0-C ,  4-H ) :   0.9250 B(  1-N ,  5-H ) :   0.9308 B(  1-N ,  6-H ) :   0.9308

MP2 TOTAL ENERGY:      -95.695845351 Eh
FINAL SINGLE POINT ENERGY       -95.695845351063

DIPOLE MOMENT
-------------
                                X             Y             Z
Electronic contribution:     -0.17782      -0.99654      -0.00000
Nuclear contribution   :      0.69250       1.15137       0.00000
                        -----------------------------------------
Total Dipole Moment    :      0.51468       0.15483      -0.00000
                        -----------------------------------------
Magnitude (a.u.)       :      0.53746
Magnitude (Debye)      :      1.36611

Rotational constants in cm-1:     3.477185     0.758754     0.728547
Rotational constants in MHz : 104243.391778 22746.878696 21841.295162

                             ****ORCA TERMINATED NORMALLY****
TOTAL RUN TIME: 0 days 0 hours 1 minutes 10 seconds 69 msec
