                         Program Version 5.0.4 -  RELEASE  -
|  1> !ri-mp2 aug-cc-pvqz aug-cc-pvqz/c tightscf
|  2> %pal nprocs 16 end
|  3>
|  4> * xyz 0 1
|  5> C      0.932507   -0.092918    0.000000
|  6> C     -1.369372    0.416095    0.000000
|  7> O      0.725872   -1.275132    0.000000
|  8> O      0.000000    0.866990    0.000000
|  9> H      1.926421    0.370591    0.000000
| 10> H     -1.972732    1.317760    0.000000
| 11> H     -1.569738   -0.181136    0.887236
| 12> H     -1.569738   -0.181136   -0.887236
| 13> *
| 14>
| 15>                          ****END OF INPUT****

CARTESIAN COORDINATES (ANGSTROEM)
---------------------------------
  C      0.932507   -0.092918    0.000000
  C     -1.369372    0.416095    0.000000
  O      0.725872   -1.275132    0.000000
  O      0.000000    0.866990    0.000000
  H      1.926421    0.370591    0.000000
  H     -1.972732    1.317760    0.000000
  H     -1.569738   -0.181136    0.887236
  H     -1.569738   -0.181136   -0.887236

 Total Charge           Charge          ....    0
 Multiplicity           Mult            ....    1
 Number of Electrons    NEL             ....   32
 Basis Dimension        Dim             ....  504

ORBITAL ENERGIES
----------------

  NO   OCC          E(Eh)            E(eV)
   0   2.0000     -20.612617      -560.8978
   1   2.0000     -20.555546      -559.3448
   2   2.0000     -11.383679      -309.7657
   3   2.0000     -11.292272      -307.2783
   4   2.0000      -1.467759       -39.9397
   5   2.0000      -1.370787       -37.3010
   6   2.0000      -0.991371       -26.9766
   7   2.0000      -0.821350       -22.3501
   8   2.0000      -0.739362       -20.1191
   9   2.0000      -0.682095       -18.5607
  10   2.0000      -0.676559       -18.4101
  11   2.0000      -0.598391       -16.2831
  12   2.0000      -0.557351       -15.1663
  13   2.0000      -0.538956       -14.6657
  14   2.0000      -0.471683       -12.8352
  15   2.0000      -0.466011       -12.6808
  16   0.0000       0.025270         0.6876
  17   0.0000       0.034339         0.9344
  18   0.0000       0.042965         1.1691
  19   0.0000       0.043602         1.1865
  20   0.0000       0.074615         2.0304

MULLIKEN ATOMIC CHARGES
-----------------------
   0 C :    0.289652
   1 C :   -0.562331
   2 O :   -0.678983
   3 O :   -0.611177
   4 H :    0.589769
   5 H :    0.433558
   6 H :    0.269757
   7 H :    0.269757
Sum of atomic charges:    0.0000000

LOEWDIN ATOMIC CHARGES
----------------------
   0 C :   -0.678272
   1 C :    0.572108
   2 O :    0.665764
   3 O :    0.813476
   4 H :   -0.404223
   5 H :   -0.328220
   6 H :   -0.320316
   7 H :   -0.320316

  Mayer bond orders larger than 0.100000
B(  0-C ,  2-O ) :   1.7560 B(  0-C ,  3-O ) :   1.1152 B(  0-C ,  4-H ) :   0.6204
B(  1-C ,  3-O ) :   0.7845 B(  1-C ,  5-H ) :   0.8132 B(  1-C ,  6-H ) :   0.9222
B(  1-C ,  7-H ) :   0.9222

MP2 TOTAL ENERGY:     -228.759480528 Eh
FINAL SINGLE POINT ENERGY      -228.759480528075

DIPOLE MOMENT
-------------
                                X             Y             Z
Electronic contribution:      2.84035      -0.58130       0.00000
Nuclear contribution   :     -3.17679       1.32066       0.00000
                        -----------------------------------------
Total Dipole Moment    :     -0.33645       0.73936       0.00000
                        -----------------------------------------
Magnitude (a.u.)       :      0.81231
Magnitude (Debye)      :      2.06473

Rotational constants in cm-1:     0.676045     0.227039     0.175579
Rotational constants in MHz : 20267.310411  6806.468342  5263.731474

                             ****ORCA TERMINATED NORMALLY****
TOTAL RUN TIME: 0 days 0 hours 5 minutes 14 seconds 885 msec
