                         Program Version 5.0.4 -  RELEASE  -
|  1> !ri-mp2 aug-cc-pvqz aug-cc-pvqz/c tightscf
|  2> %pal nprocs 16 end
|  3>
|  4> * xyz 0 1
|  5> C     -2.888226    0.352672    0.043352
|  6> C      2.230326    1.007436    0.361276
|  7> C     -1.472280    0.450501   -0.510263
|  8> S      1.475203   -0.449173   -0.449721
|  9> S     -0.358677   -0.632636    0.485898
| 10> H     -3.263170   -0.670018   -0.003336
| 11> H     -2.934951    0.684419    1.080970
| 12> H     -3.559094    0.983985   -0.541222
| 13> H      1.664668    1.911244    0.149935
| 14> H      3.229499    1.100849   -0.064440
| 15> H      2.305148    0.847335    1.433383
| 16> H     -1.100520    1.472025   -0.456081
| 17> H     -1.424923    0.115456   -1.544229
| 18> *
| 19>
| 20>                          ****END OF INPUT****

CARTESIAN COORDINATES (ANGSTROEM)
---------------------------------
  C     -2.888226    0.352672    0.043352
  C      2.230326    1.007436    0.361276
  C     -1.472280    0.450501   -0.510263
  S      1.475203   -0.449173   -0.449721
  S     -0.358677   -0.632636    0.485898
  H     -3.263170   -0.670018   -0.003336
  H     -2.934951    0.684419    1.080970
  H     -3.559094    0.983985   -0.541222
  H      1.664668    1.911244    0.149935
  H      3.229499    1.100849   -0.064440
  H      2.305148    0.847335    1.433383
  H     -1.100520    1.472025   -0.456081
  H     -1.424923    0.115456   -1.544229

 Total Charge           Charge          ....    0
 Multiplicity           Mult            ....    1
 Number of Electrons    NEL             ....   58
 Basis Dimension        Dim             ....  776

ORBITAL ENERGIES
----------------

  NO   OCC          E(Eh)            E(eV)
   0   2.0000     -91.969876     -2502.6276
   1   2.0000     -91.966458     -2502.5346
   2   2.0000     -11.261562      -306.4427
   3   2.0000     -11.256259      -306.2984
   4   2.0000     -11.228936      -305.5549
   5   2.0000      -8.969273      -244.0663
   6   2.0000      -8.966230      -243.9835
   7   2.0000      -6.650625      -180.9727
   8   2.0000      -6.649486      -180.9417
   9   2.0000      -6.648685      -180.9199
  10   2.0000      -6.647529      -180.8885
  11   2.0000      -6.646387      -180.8574
  12   2.0000      -6.645618      -180.8365
  13   2.0000      -1.085949       -29.5502
  14   2.0000      -1.035334       -28.1729
  15   2.0000      -0.945191       -25.7200
  16   2.0000      -0.852739       -23.2042
  17   2.0000      -0.779194       -21.2029
  18   2.0000      -0.634140       -17.2558
  19   2.0000      -0.608437       -16.5564
  20   2.0000      -0.595081       -16.1930
  21   2.0000      -0.580466       -15.7953
  22   2.0000      -0.542350       -14.7581
  23   2.0000      -0.522170       -14.2090
  24   2.0000      -0.505593       -13.7579
  25   2.0000      -0.471779       -12.8378
  26   2.0000      -0.433746       -11.8028
  27   2.0000      -0.352769        -9.5993
  28   2.0000      -0.347758        -9.4630
  29   0.0000       0.025499         0.6939
  30   0.0000       0.030332         0.8254
  31   0.0000       0.036379         0.9899
  32   0.0000       0.038958         1.0601
  33   0.0000       0.048543         1.3209

MULLIKEN ATOMIC CHARGES
-----------------------
   0 C :   -0.839872
   1 C :   -0.904867
   2 C :   -0.389099
   3 S :   -0.029818
   4 S :   -0.118497
   5 H :    0.255807
   6 H :    0.260322
   7 H :    0.301543
   8 H :    0.282546
   9 H :    0.349557
  10 H :    0.285004
  11 H :    0.261437
  12 H :    0.285938
Sum of atomic charges:   -0.0000000

LOEWDIN ATOMIC CHARGES
----------------------
   0 C :    0.807851
   1 C :    0.468454
   2 C :    0.069390
   3 S :    0.744054
   4 S :    0.771419
   5 H :   -0.309325
   6 H :   -0.307976
   7 H :   -0.292381
   8 H :   -0.390699
   9 H :   -0.406443
  10 H :   -0.395592
  11 H :   -0.377349
  12 H :   -0.381404

  Mayer bond orders larger than 0.100000
B(  0-C ,  2-C ) :   0.9530 B(  0-C ,  5-H ) :   0.9416 B(  0-C ,  6-H ) :   0.9344
B(  0-C ,  7-H ) :   0.9118 B(  1-C ,  3-S ) :   0.9822 B(  1-C ,  8-H ) :   0.9143
B(  1-C ,  9-H ) :   0.8487 B(  1-C , 10-H ) :   0.9103 B(  2-C ,  4-S ) :   0.8753
B(  2-C , 11-H ) :   0.8840 B(  2-C , 12-H ) :   0.8723 B(  3-S ,  4-S ) :   1.1526

MP2 TOTAL ENERGY:     -914.376355900 Eh
FINAL SINGLE POINT ENERGY      -914.376355899857

DIPOLE MOMENT
-------------
                                X             Y             Z
Electronic contribution:      4.93049      -5.62939      -0.12763
Nuclear contribution   :     -5.15143       6.52125       0.05422
                        -----------------------------------------
Total Dipole Moment    :     -0.22094       0.89186      -0.07342
                        -----------------------------------------
Magnitude (a.u.)       :      0.92175
Magnitude (Debye)      :      2.34290

Rotational constants in cm-1:     0.242208     0.049771     0.047006
Rotational constants in MHz :  7261.206508  1492.094161  1409.209997

                             ****ORCA TERMINATED NORMALLY****
TOTAL RUN TIME: 0 days 0 hours 17 minutes 12 seconds 189 msec
