                         Program Version 5.0.4 -  RELEASE  -
|  1> !ri-mp2 aug-cc-pvqz aug-cc-pvqz/c tightscf
|  2> %pal nprocs 16 end
|  3> %maxcore 3800
|  4>
|  5> * xyz 0 1
|  6> N      1.383360   -1.709403   -0.280672
|  7> C      0.902676   -0.326707   -0.137165
|  8> C      2.097848    0.644277   -0.084187
|  9> O      1.986464    1.809740    0.191438
| 10> O      3.270321    0.085065   -0.408810
| 11> H      3.067922   -0.861838   -0.574079
| 12> C     -0.045437   -0.081707    1.039348
| 13> C     -1.394296   -0.791390    0.929264
| 14> S     -2.401897   -0.377571   -0.542342
| 15> C     -2.782880    1.376943   -0.230855
| 16> H      0.370857   -0.069835   -1.056761
| 17> H      0.441708   -0.411029    1.964287
| 18> H     -0.185549    0.993103    1.140986
| 19> H     -1.266805   -1.872991    0.865831
| 20> H     -1.989980   -0.594509    1.821028
| 21> H     -3.454759    1.689893   -1.027050
| 22> H     -3.289548    1.495435    0.725679
| 23> H     -1.889992    1.996927   -0.261114
| 24> H      1.404146   -2.198452    0.605725
| 25> H      0.817076   -2.246682   -0.921820
| 26> *
| 27>
| 28>                          ****END OF INPUT****

CARTESIAN COORDINATES (ANGSTROEM)
---------------------------------
  N      1.383360   -1.709403   -0.280672
  C      0.902676   -0.326707   -0.137165
  C      2.097848    0.644277   -0.084187
  O      1.986464    1.809740    0.191438
  O      3.270321    0.085065   -0.408810
  H      3.067922   -0.861838   -0.574079
  C     -0.045437   -0.081707    1.039348
  C     -1.394296   -0.791390    0.929264
  S     -2.401897   -0.377571   -0.542342
  C     -2.782880    1.376943   -0.230855
  H      0.370857   -0.069835   -1.056761
  H      0.441708   -0.411029    1.964287
  H     -0.185549    0.993103    1.140986
  H     -1.266805   -1.872991    0.865831
  H     -1.989980   -0.594509    1.821028
  H     -3.454759    1.689893   -1.027050
  H     -3.289548    1.495435    0.725679
  H     -1.889992    1.996927   -0.261114
  H      1.404146   -2.198452    0.605725
  H      0.817076   -2.246682   -0.921820

 Total Charge           Charge          ....    0
 Multiplicity           Mult            ....    1
 Number of Electrons    NEL             ....   80
 Basis Dimension        Dim             .... 1230

ORBITAL ENERGIES
----------------

  NO   OCC          E(Eh)            E(eV)
   0   2.0000     -91.953950     -2502.1942
   1   2.0000     -20.592966      -560.3631
   2   2.0000     -20.532412      -558.7153
   3   2.0000     -15.582132      -424.0114
   4   2.0000     -11.373134      -309.4787
   5   2.0000     -11.290597      -307.2328
   6   2.0000     -11.271780      -306.7207
   7   2.0000     -11.258098      -306.3484
   8   2.0000     -11.247695      -306.0653
   9   2.0000      -8.955484      -243.6911
  10   2.0000      -6.637082      -180.6042
  11   2.0000      -6.636121      -180.5780
  12   2.0000      -6.635333      -180.5566
  13   2.0000      -1.450121       -39.4598
  14   2.0000      -1.354468       -36.8569
  15   2.0000      -1.224105       -33.3096
  16   2.0000      -1.095644       -29.8140
  17   2.0000      -1.027065       -27.9479
  18   2.0000      -0.964270       -26.2391
  19   2.0000      -0.884080       -24.0570
  20   2.0000      -0.810158       -22.0455
  21   2.0000      -0.789509       -21.4836
  22   2.0000      -0.742626       -20.2079
  23   2.0000      -0.699652       -19.0385
  24   2.0000      -0.667809       -18.1720
  25   2.0000      -0.637817       -17.3559
  26   2.0000      -0.625523       -17.0213
  27   2.0000      -0.617748       -16.8098
  28   2.0000      -0.608269       -16.5518
  29   2.0000      -0.589750       -16.0479
  30   2.0000      -0.582814       -15.8592
  31   2.0000      -0.549137       -14.9428
  32   2.0000      -0.532046       -14.4777
  33   2.0000      -0.528818       -14.3899
  34   2.0000      -0.487444       -13.2640
  35   2.0000      -0.469080       -12.7643
  36   2.0000      -0.466018       -12.6810
  37   2.0000      -0.435730       -11.8568
  38   2.0000      -0.418194       -11.3796
  39   2.0000      -0.350767        -9.5448
  40   0.0000       0.017005         0.4627
  41   0.0000       0.026390         0.7181
  42   0.0000       0.029014         0.7895
  43   0.0000       0.036104         0.9824
  44   0.0000       0.042301         1.1511

MULLIKEN ATOMIC CHARGES
-----------------------
   0 N :   -0.723967
   1 C :   -0.005250
   2 C :    1.306897
   3 O :   -0.847731
   4 O :   -0.922730
   5 H :    0.407324
   6 C :   -0.465060
   7 C :   -0.588970
   8 S :   -0.086158
   9 C :   -1.074620
  10 H :    0.282545
  11 H :    0.331490
  12 H :    0.352917
  13 H :    0.284060
  14 H :    0.250913
  15 H :    0.422215
  16 H :    0.275779
  17 H :    0.327568
  18 H :    0.243012
  19 H :    0.229765
Sum of atomic charges:   -0.0000000

LOEWDIN ATOMIC CHARGES
----------------------
   0 N :    1.303669
   1 C :   -0.079264
   2 C :   -1.007504
   3 O :    0.684555
   4 O :    1.254314
   5 H :   -0.951213
   6 C :    0.430844
   7 C :    0.179905
   8 S :    1.330231
   9 C :    0.572962
  10 H :   -0.338600
  11 H :   -0.263731
  12 H :   -0.332478
  13 H :   -0.383214
  14 H :   -0.349347
  15 H :   -0.390765
  16 H :   -0.362701
  17 H :   -0.367705
  18 H :   -0.469593
  19 H :   -0.460366

  Mayer bond orders larger than 0.100000
B(  0-N ,  1-C ) :   0.7051 B(  0-N , 18-H ) :   0.9270 B(  0-N , 19-H ) :   1.0123
B(  1-C ,  2-C ) :   1.1996 B(  1-C ,  3-O ) :   0.2838 B(  1-C ,  4-O ) :   0.1752
B(  1-C ,  6-C ) :   0.8025 B(  1-C , 10-H ) :   0.8457 B(  2-C ,  3-O ) :   1.2674
B(  2-C ,  4-O ) :   0.5809 B(  3-O ,  4-O ) :   0.1437 B(  4-O ,  5-H ) :   0.7469
B(  6-C ,  7-C ) :   0.8728 B(  6-C , 11-H ) :   0.8490 B(  6-C , 12-H ) :   0.8500
B(  7-C ,  8-S ) :   0.9302 B(  7-C , 13-H ) :   0.8992 B(  7-C , 14-H ) :   0.9770
B(  8-S ,  9-C ) :   1.0689 B(  9-C , 15-H ) :   0.8258 B(  9-C , 16-H ) :   0.9179
B(  9-C , 17-H ) :   0.8707

MP2 TOTAL ENERGY:     -799.511889358 Eh
FINAL SINGLE POINT ENERGY      -799.511889358124

DIPOLE MOMENT
-------------
                                X             Y             Z
Electronic contribution:      4.77725       0.60250      -2.89216
Nuclear contribution   :     -5.85023      -2.06274       3.31729
                        -----------------------------------------
Total Dipole Moment    :     -1.07298      -1.46024       0.42513
                        -----------------------------------------
Magnitude (a.u.)       :      1.86127
Magnitude (Debye)      :      4.73097

Rotational constants in cm-1:     0.080085     0.023355     0.020332
Rotational constants in MHz :  2400.884606   700.166264   609.539398

                             ****ORCA TERMINATED NORMALLY****
TOTAL RUN TIME: 0 days 1 hours 13 minutes 49 seconds 596 msec
