                         Program Version 5.0.4 -  RELEASE  -
|  1> !ri-mp2 aug-cc-pvqz aug-cc-pvqz/c tightscf
|  2> %pal nprocs 16 end
|  3> %maxcore 3800
|  4>
|  5> * xyz 0 1
|  6> C      1.488939    1.017839    0.000000
|  7> C     -3.766271   -2.671937    0.000000
|  8> C      3.138511    2.711319    0.000000
|  9> C      0.000000    0.760101    0.000000
| 10> C     -2.256886   -2.436231    0.000000
| 11> C     -0.365395   -0.720041    0.000000
| 12> C     -1.876026   -0.955711    0.000000
| 13> O      2.352499    0.176679    0.000000
| 14> O      1.749338    2.343823    0.000000
| 15> H     -4.235468   -2.228565    0.880789
| 16> H     -4.235468   -2.228565   -0.880789
| 17> H     -4.003230   -3.736674    0.000000
| 18> H      3.153724    3.796785    0.000000
| 19> H      3.636516    2.322018   -0.886207
| 20> H      3.636516    2.322018    0.886207
| 21> H     -0.422849    1.270771   -0.869472
| 22> H     -0.422849    1.270771    0.869472
| 23> H     -1.811861   -2.921057   -0.873831
| 24> H     -1.811861   -2.921057    0.873831
| 25> H      0.084585   -1.201251    0.871034
| 26> H      0.084585   -1.201251   -0.871034
| 27> H     -2.322130   -0.469995   -0.874710
| 28> H     -2.322130   -0.469995    0.874710
| 29> *
| 30>
| 31>                          ****END OF INPUT****

CARTESIAN COORDINATES (ANGSTROEM)
---------------------------------
  C      1.488939    1.017839    0.000000
  C     -3.766271   -2.671937    0.000000
  C      3.138511    2.711319    0.000000
  C      0.000000    0.760101    0.000000
  C     -2.256886   -2.436231    0.000000
  C     -0.365395   -0.720041    0.000000
  C     -1.876026   -0.955711    0.000000
  O      2.352499    0.176679    0.000000
  O      1.749338    2.343823    0.000000
  H     -4.235468   -2.228565    0.880789
  H     -4.235468   -2.228565   -0.880789
  H     -4.003230   -3.736674    0.000000
  H      3.153724    3.796785    0.000000
  H      3.636516    2.322018   -0.886207
  H      3.636516    2.322018    0.886207
  H     -0.422849    1.270771   -0.869472
  H     -0.422849    1.270771    0.869472
  H     -1.811861   -2.921057   -0.873831
  H     -1.811861   -2.921057    0.873831
  H      0.084585   -1.201251    0.871034
  H      0.084585   -1.201251   -0.871034
  H     -2.322130   -0.469995   -0.874710
  H     -2.322130   -0.469995    0.874710

 Total Charge           Charge          ....    0
 Multiplicity           Mult            ....    1
 Number of Electrons    NEL             ....   72
 Basis Dimension        Dim             .... 1364

ORBITAL ENERGIES
----------------

  NO   OCC          E(Eh)            E(eV)
   0   2.0000     -20.597290      -560.4807
   1   2.0000     -20.539465      -558.9073
   2   2.0000     -11.374100      -309.5050
   3   2.0000     -11.282522      -307.0130
   4   2.0000     -11.239572      -305.8443
   5   2.0000     -11.220731      -305.3316
   6   2.0000     -11.218951      -305.2832
   7   2.0000     -11.217321      -305.2388
   8   2.0000     -11.210737      -305.0597
   9   2.0000      -1.455451       -39.6048
  10   2.0000      -1.355403       -36.8824
  11   2.0000      -1.093212       -29.7478
  12   2.0000      -1.042731       -28.3741
  13   2.0000      -0.981737       -26.7144
  14   2.0000      -0.930510       -25.3205
  15   2.0000      -0.843581       -22.9550
  16   2.0000      -0.793791       -21.6001
  17   2.0000      -0.765259       -20.8238
  18   2.0000      -0.695718       -18.9314
  19   2.0000      -0.679078       -18.4786
  20   2.0000      -0.669528       -18.2188
  21   2.0000      -0.649967       -17.6865
  22   2.0000      -0.607898       -16.5418
  23   2.0000      -0.598613       -16.2891
  24   2.0000      -0.572458       -15.5774
  25   2.0000      -0.559336       -15.2203
  26   2.0000      -0.555505       -15.1161
  27   2.0000      -0.527470       -14.3532
  28   2.0000      -0.519900       -14.1472
  29   2.0000      -0.508351       -13.8329
  30   2.0000      -0.483935       -13.1686
  31   2.0000      -0.470873       -12.8131
  32   2.0000      -0.466704       -12.6996
  33   2.0000      -0.465316       -12.6619
  34   2.0000      -0.459728       -12.5098
  35   2.0000      -0.441738       -12.0203
  36   0.0000       0.024856         0.6764
  37   0.0000       0.026968         0.7338
  38   0.0000       0.033548         0.9129
  39   0.0000       0.033792         0.9195
  40   0.0000       0.040094         1.0910

MULLIKEN ATOMIC CHARGES
-----------------------
   0 C :    1.157357
   1 C :   -0.912978
   2 C :   -0.767278
   3 C :   -0.594612
   4 C :   -0.489102
   5 C :   -0.180308
   6 C :   -0.249512
   7 O :   -0.855339
   8 O :   -0.780437
   9 H :    0.225881
  10 H :    0.225857
  11 H :    0.264801
  12 H :    0.445938
  13 H :    0.317226
  14 H :    0.317231
  15 H :    0.247220
  16 H :    0.247316
  17 H :    0.228483
  18 H :    0.228484
  19 H :    0.224473
  20 H :    0.224470
  21 H :    0.237420
  22 H :    0.237409
Sum of atomic charges:   -0.0000000

LOEWDIN ATOMIC CHARGES
----------------------
   0 C :   -1.049536
   1 C :    0.927398
   2 C :    0.578975
   3 C :    0.462718
   4 C :    0.510618
   5 C :    0.493678
   6 C :    0.511879
   7 O :    0.729575
   8 O :    0.844802
   9 H :   -0.285220
  10 H :   -0.285220
  11 H :   -0.284422
  12 H :   -0.326695
  13 H :   -0.317992
  14 H :   -0.317992
  15 H :   -0.283777
  16 H :   -0.283777
  17 H :   -0.272189
  18 H :   -0.272189
  19 H :   -0.272556
  20 H :   -0.272556
  21 H :   -0.267761
  22 H :   -0.267761

  Mayer bond orders larger than 0.100000
B(  0-C ,  2-C ) :  -0.1055 B(  0-C ,  3-C ) :   1.3232 B(  0-C ,  5-C ) :  -0.3375
B(  0-C ,  7-O ) :   1.2041 B(  0-C ,  8-O ) :   0.8365 B(  1-C ,  4-C ) :   1.0403
B(  1-C ,  6-C ) :  -0.1158 B(  1-C ,  9-H ) :   0.9543 B(  1-C , 10-H ) :   0.9543
B(  1-C , 11-H ) :   1.0241 B(  2-C ,  8-O ) :   0.8945 B(  2-C , 12-H ) :   0.8154
B(  2-C , 13-H ) :   0.9044 B(  2-C , 14-H ) :   0.9044 B(  3-C ,  5-C ) :   1.0641
B(  3-C ,  6-C ) :  -0.1308 B(  3-C ,  7-O ) :   0.1701 B(  3-C ,  8-O ) :   0.1408
B(  3-C , 15-H ) :   0.8699 B(  3-C , 16-H ) :   0.8698 B(  4-C ,  6-C ) :   0.9943
B(  4-C , 17-H ) :   0.8782 B(  4-C , 18-H ) :   0.8782 B(  5-C ,  6-C ) :   1.0693
B(  5-C , 19-H ) :   0.8379 B(  5-C , 20-H ) :   0.8380 B(  6-C , 21-H ) :   0.8576
B(  6-C , 22-H ) :   0.8577 B(  7-O ,  8-O ) :   0.1189

MP2 TOTAL ENERGY:     -424.951095772 Eh
FINAL SINGLE POINT ENERGY      -424.951095772394

DIPOLE MOMENT
-------------
                                X             Y             Z
Electronic contribution:     10.93046       7.16008      -0.00000
Nuclear contribution   :    -11.34981      -6.60211       0.00000
                        -----------------------------------------
Total Dipole Moment    :     -0.41935       0.55797      -0.00000
                        -----------------------------------------
Magnitude (a.u.)       :      0.69798
Magnitude (Debye)      :      1.77414

Rotational constants in cm-1:     0.234824     0.015995     0.015226
Rotational constants in MHz :  7039.839904   479.529826   456.477392

                             ****ORCA TERMINATED NORMALLY****
TOTAL RUN TIME: 0 days 1 hours 42 minutes 49 seconds 945 msec
