                         Program Version 5.0.4 -  RELEASE  -
|  1> !ri-mp2 aug-cc-pvqz aug-cc-pvqz/c tightscf
|  2> %pal nprocs 16 end
|  3>
|  4> * xyz 0 1
|  5> H      2.599637   -1.376904    0.000000
|  6> H      2.446132    0.154878    0.891870
|  7> H      2.446132    0.154878   -0.891870
|  8> C      2.130026   -0.397042    0.000000
|  9> O      0.728282   -0.616731    0.000000
| 10> H      0.230030    1.194926   -0.885833
| 11> H      0.230030    1.194926    0.885833
| 12> C      0.000000    0.588434    0.000000
| 13> N     -2.565567    0.100471    0.000000
| 14> C     -1.433235    0.293249    0.000000
| 15> *
| 16>
| 17>                          ****END OF INPUT****

CARTESIAN COORDINATES (ANGSTROEM)
---------------------------------
  H      2.599637   -1.376904    0.000000
  H      2.446132    0.154878    0.891870
  H      2.446132    0.154878   -0.891870
  C      2.130026   -0.397042    0.000000
  O      0.728282   -0.616731    0.000000
  H      0.230030    1.194926   -0.885833
  H      0.230030    1.194926    0.885833
  C      0.000000    0.588434    0.000000
  N     -2.565567    0.100471    0.000000
  C     -1.433235    0.293249    0.000000

 Total Charge           Charge          ....    0
 Multiplicity           Mult            ....    1
 Number of Electrons    NEL             ....   38
 Basis Dimension        Dim             ....  630

ORBITAL ENERGIES
----------------

  NO   OCC          E(Eh)            E(eV)
   0   2.0000     -20.592866      -560.3604
   1   2.0000     -15.575516      -423.8313
   2   2.0000     -11.342815      -308.6537
   3   2.0000     -11.296672      -307.3981
   4   2.0000     -11.276185      -306.8406
   5   2.0000      -1.413581       -38.4655
   6   2.0000      -1.226351       -33.3707
   7   2.0000      -1.037132       -28.2218
   8   2.0000      -0.927512       -25.2389
   9   2.0000      -0.740428       -20.1481
  10   2.0000      -0.708535       -19.2802
  11   2.0000      -0.689014       -18.7490
  12   2.0000      -0.606603       -16.5065
  13   2.0000      -0.603924       -16.4336
  14   2.0000      -0.557943       -15.1824
  15   2.0000      -0.524248       -14.2655
  16   2.0000      -0.482497       -13.1294
  17   2.0000      -0.476741       -12.9728
  18   2.0000      -0.453759       -12.3474
  19   0.0000       0.018406         0.5009
  20   0.0000       0.031988         0.8704
  21   0.0000       0.032730         0.8906
  22   0.0000       0.042500         1.1565
  23   0.0000       0.054592         1.4855

MULLIKEN ATOMIC CHARGES
-----------------------
   0 H :    0.406353
   1 H :    0.260545
   2 H :    0.260545
   3 C :   -0.627475
   4 O :   -0.680629
   5 H :    0.293998
   6 H :    0.293998
   7 C :    0.055549
   8 N :   -0.627216
   9 C :    0.364331
Sum of atomic charges:   -0.0000000

LOEWDIN ATOMIC CHARGES
----------------------
   0 H :   -0.322752
   1 H :   -0.306494
   2 H :   -0.306494
   3 C :    0.577331
   4 O :    0.847948
   5 H :   -0.326221
   6 H :   -0.326221
   7 C :    0.038667
   8 N :    0.399186
   9 C :   -0.274953

  Mayer bond orders larger than 0.100000
B(  0-H ,  3-C ) :   0.8486 B(  1-H ,  3-C ) :   0.9230 B(  2-H ,  3-C ) :   0.9230
B(  3-C ,  4-O ) :   0.9048 B(  4-O ,  7-C ) :   0.8310 B(  5-H ,  7-C ) :   0.8635
B(  6-H ,  7-C ) :   0.8635 B(  7-C ,  9-C ) :   1.1125 B(  8-N ,  9-C ) :   2.5472

MP2 TOTAL ENERGY:     -246.886454103 Eh
FINAL SINGLE POINT ENERGY      -246.886454102622

DIPOLE MOMENT
-------------
                                X             Y             Z
Electronic contribution:     -6.06557      -0.58420       0.00000
Nuclear contribution   :      7.98056       1.31889       0.00000
                        -----------------------------------------
Total Dipole Moment    :      1.91499       0.73469       0.00000
                        -----------------------------------------
Magnitude (a.u.)       :      2.05109
Magnitude (Debye)      :      5.21346

Rotational constants in cm-1:     0.996231     0.082021     0.078016
Rotational constants in MHz : 29866.240300  2458.936483  2338.875178

                             ****ORCA TERMINATED NORMALLY****
TOTAL RUN TIME: 0 days 0 hours 6 minutes 53 seconds 775 msec
