                         Program Version 5.0.4 -  RELEASE  -
|  1> !ri-mp2 aug-cc-pvqz aug-cc-pvqz/c tightscf
|  2> %pal nprocs 16 end
|  3>
|  4> * xyz 0 1
|  5> S     -0.076909    1.429668   -0.296124
|  6> S     -2.320711   -0.430992    0.003087
|  7> N      0.165442   -1.221447    0.348448
|  8> N      2.533503   -1.512399   -0.373747
|  9> C     -0.698146   -0.166640    0.047913
| 10> C      1.601582    1.576805    0.424261
| 11> C      1.436783   -1.360875   -0.047466
| 12> H      2.364171    1.136291   -0.207540
| 13> H      1.754503    2.651749    0.498792
| 14> H      1.630211    1.146821    1.421550
| 15> H     -0.320892   -2.072484    0.604643
| 16> *
| 17>
| 18>                          ****END OF INPUT****

CARTESIAN COORDINATES (ANGSTROEM)
---------------------------------
  S     -0.076909    1.429668   -0.296124
  S     -2.320711   -0.430992    0.003087
  N      0.165442   -1.221447    0.348448
  N      2.533503   -1.512399   -0.373747
  C     -0.698146   -0.166640    0.047913
  C      1.601582    1.576805    0.424261
  C      1.436783   -1.360875   -0.047466
  H      2.364171    1.136291   -0.207540
  H      1.754503    2.651749    0.498792
  H      1.630211    1.146821    1.421550
  H     -0.320892   -2.072484    0.604643

 Total Charge           Charge          ....    0
 Multiplicity           Mult            ....    1
 Number of Electrons    NEL             ....   68
 Basis Dimension        Dim             ....  752

ORBITAL ENERGIES
----------------

  NO   OCC          E(Eh)            E(eV)
   0   2.0000     -92.006410     -2503.6217
   1   2.0000     -91.941583     -2501.8577
   2   2.0000     -15.678996      -426.6472
   3   2.0000     -15.594868      -424.3579
   4   2.0000     -11.413126      -310.5670
   5   2.0000     -11.336771      -308.4892
   6   2.0000     -11.285031      -307.0813
   7   2.0000      -9.007734      -245.1129
   8   2.0000      -8.945460      -243.4183
   9   2.0000      -6.689120      -182.0202
  10   2.0000      -6.687830      -181.9851
  11   2.0000      -6.687230      -181.9688
  12   2.0000      -6.626822      -180.3250
  13   2.0000      -6.625515      -180.2894
  14   2.0000      -6.624579      -180.2640
  15   2.0000      -1.351876       -36.7864
  16   2.0000      -1.237376       -33.6707
  17   2.0000      -1.114184       -30.3185
  18   2.0000      -1.039550       -28.2876
  19   2.0000      -0.920971       -25.0609
  20   2.0000      -0.867381       -23.6026
  21   2.0000      -0.811283       -22.0761
  22   2.0000      -0.662206       -18.0195
  23   2.0000      -0.644409       -17.5353
  24   2.0000      -0.624893       -17.0042
  25   2.0000      -0.606401       -16.5010
  26   2.0000      -0.590202       -16.0602
  27   2.0000      -0.538911       -14.6645
  28   2.0000      -0.507036       -13.7972
  29   2.0000      -0.498019       -13.5518
  30   2.0000      -0.477216       -12.9857
  31   2.0000      -0.418127       -11.3778
  32   2.0000      -0.367736       -10.0066
  33   2.0000      -0.352121        -9.5817
  34   0.0000       0.020568         0.5597
  35   0.0000       0.027105         0.7376
  36   0.0000       0.036358         0.9893
  37   0.0000       0.041093         1.1182
  38   0.0000       0.047433         1.2907

MULLIKEN ATOMIC CHARGES
-----------------------
   0 S :    0.373140
   1 S :   -0.078266
   2 N :   -0.523461
   3 N :   -0.635748
   4 C :   -0.262442
   5 C :   -0.934110
   6 C :    0.811333
   7 H :    0.300065
   8 H :    0.412016
   9 H :    0.278644
  10 H :    0.258830
Sum of atomic charges:    0.0000000

LOEWDIN ATOMIC CHARGES
----------------------
   0 S :    1.217600
   1 S :    0.972976
   2 N :    0.555388
   3 N :    0.430745
   4 C :   -1.476800
   5 C :    0.581536
   6 C :   -0.520945
   7 H :   -0.414011
   8 H :   -0.385951
   9 H :   -0.361016
  10 H :   -0.599521

  Mayer bond orders larger than 0.100000
B(  0-S ,  4-C ) :   0.9846 B(  0-S ,  5-C ) :   0.9838 B(  1-S ,  4-C ) :   1.5631
B(  2-N ,  4-C ) :   0.9110 B(  2-N ,  6-C ) :   1.1663 B(  2-N , 10-H ) :   0.9722
B(  3-N ,  6-C ) :   2.6081 B(  5-C ,  7-H ) :   0.8907 B(  5-C ,  8-H ) :   0.8239
B(  5-C ,  9-H ) :   0.9100

MP2 TOTAL ENERGY:    -1021.305417150 Eh
FINAL SINGLE POINT ENERGY     -1021.305417150255

DIPOLE MOMENT
-------------
                                X             Y             Z
Electronic contribution:     -4.96691      -2.38431      -1.56981
Nuclear contribution   :      5.33041       2.71989       2.24733
                        -----------------------------------------
Total Dipole Moment    :      0.36349       0.33558       0.67751
                        -----------------------------------------
Magnitude (a.u.)       :      0.83891
Magnitude (Debye)      :      2.13233

Rotational constants in cm-1:     0.083659     0.048456     0.032002
Rotational constants in MHz :  2508.044266  1452.686550   959.381262

                             ****ORCA TERMINATED NORMALLY****
TOTAL RUN TIME: 0 days 0 hours 17 minutes 42 seconds 45 msec
