                         Program Version 5.0.4 -  RELEASE  -
|  1> !ri-mp2 aug-cc-pvqz aug-cc-pvqz/c tightscf
|  2> %pal nprocs 16 end
|  3> %maxcore 3800
|  4>
|  5> * xyz 0 1
|  6> C     -3.009194    0.132720    0.000067
|  7> C      5.949220   -0.256907    0.000078
|  8> C     -5.358960   -0.130980   -0.000089
|  9> C     -1.695422   -0.613559    0.000091
| 10> C      4.637910    0.526987   -0.000135
| 11> C     -0.471203    0.295500   -0.000112
| 12> C      3.398027   -0.367925    0.000074
| 13> C      0.841821   -0.487584    0.000072
| 14> C      2.080878    0.408235   -0.000139
| 15> O     -3.143099    1.330753    0.000219
| 16> O     -4.051638   -0.727268   -0.000120
| 17> H      6.025429   -0.898227   -0.880487
| 18> H      6.025395   -0.897805    0.880953
| 19> H      6.812866    0.409515   -0.000065
| 20> H     -6.058778   -0.960891   -0.000238
| 21> H     -5.497418    0.485846   -0.886256
| 22> H     -5.497491    0.485592    0.886244
| 23> H     -1.693478   -1.276884   -0.869154
| 24> H     -1.693380   -1.276583    0.869569
| 25> H      4.606452    1.184753    0.873644
| 26> H      4.606474    1.184314   -0.874245
| 27> H     -0.510948    0.953181    0.870826
| 28> H     -0.510932    0.952783   -0.871354
| 29> H      3.430023   -1.026718   -0.874390
| 30> H      3.430000   -1.026275    0.874873
| 31> H      0.873319   -1.146380   -0.874384
| 32> H      0.873315   -1.145960    0.874844
| 33> H      2.049304    1.066245   -0.874663
| 34> H      2.049281    1.066686    0.874053
| 35> *
| 36>
| 37>                          ****END OF INPUT****

CARTESIAN COORDINATES (ANGSTROEM)
---------------------------------
  C     -3.009194    0.132720    0.000067
  C      5.949220   -0.256907    0.000078
  C     -5.358960   -0.130980   -0.000089
  C     -1.695422   -0.613559    0.000091
  C      4.637910    0.526987   -0.000135
  C     -0.471203    0.295500   -0.000112
  C      3.398027   -0.367925    0.000074
  C      0.841821   -0.487584    0.000072
  C      2.080878    0.408235   -0.000139
  O     -3.143099    1.330753    0.000219
  O     -4.051638   -0.727268   -0.000120
  H      6.025429   -0.898227   -0.880487
  H      6.025395   -0.897805    0.880953
  H      6.812866    0.409515   -0.000065
  H     -6.058778   -0.960891   -0.000238
  H     -5.497418    0.485846   -0.886256
  H     -5.497491    0.485592    0.886244
  H     -1.693478   -1.276884   -0.869154
  H     -1.693380   -1.276583    0.869569
  H      4.606452    1.184753    0.873644
  H      4.606474    1.184314   -0.874245
  H     -0.510948    0.953181    0.870826
  H     -0.510932    0.952783   -0.871354
  H      3.430023   -1.026718   -0.874390
  H      3.430000   -1.026275    0.874873
  H      0.873319   -1.146380   -0.874384
  H      0.873315   -1.145960    0.874844
  H      2.049304    1.066245   -0.874663
  H      2.049281    1.066686    0.874053

 Total Charge           Charge          ....    0
 Multiplicity           Mult            ....    1
 Number of Electrons    NEL             ....   88
 Basis Dimension        Dim             .... 1708

ORBITAL ENERGIES
----------------

  NO   OCC          E(Eh)            E(eV)
   0   2.0000     -20.597093      -560.4754
   1   2.0000     -20.539313      -558.9031
   2   2.0000     -11.373924      -309.5002
   3   2.0000     -11.282409      -307.0099
   4   2.0000     -11.239298      -305.8368
   5   2.0000     -11.220472      -305.3246
   6   2.0000     -11.218598      -305.2736
   7   2.0000     -11.215056      -305.1772
   8   2.0000     -11.214802      -305.1703
   9   2.0000     -11.213641      -305.1387
  10   2.0000     -11.208882      -305.0092
  11   2.0000      -1.455250       -39.5994
  12   2.0000      -1.355242       -36.8780
  13   2.0000      -1.097183       -29.8559
  14   2.0000      -1.066700       -29.0264
  15   2.0000      -1.018460       -27.7137
  16   2.0000      -0.972623       -26.4664
  17   2.0000      -0.925699       -25.1895
  18   2.0000      -0.855359       -23.2755
  19   2.0000      -0.800249       -21.7759
  20   2.0000      -0.788303       -21.4508
  21   2.0000      -0.764650       -20.8072
  22   2.0000      -0.695356       -18.9216
  23   2.0000      -0.679072       -18.4785
  24   2.0000      -0.669461       -18.2170
  25   2.0000      -0.656110       -17.8537
  26   2.0000      -0.628866       -17.1123
  27   2.0000      -0.597194       -16.2505
  28   2.0000      -0.589664       -16.0456
  29   2.0000      -0.583903       -15.8888
  30   2.0000      -0.566788       -15.4231
  31   2.0000      -0.548527       -14.9262
  32   2.0000      -0.531755       -14.4698
  33   2.0000      -0.520260       -14.1570
  34   2.0000      -0.519163       -14.1271
  35   2.0000      -0.517769       -14.0892
  36   2.0000      -0.488643       -13.2966
  37   2.0000      -0.481539       -13.1033
  38   2.0000      -0.469391       -12.7728
  39   2.0000      -0.461491       -12.5578
  40   2.0000      -0.461299       -12.5526
  41   2.0000      -0.459445       -12.5021
  42   2.0000      -0.452302       -12.3078
  43   2.0000      -0.436320       -11.8729
  44   0.0000       0.024921         0.6781
  45   0.0000       0.025668         0.6985
  46   0.0000       0.032062         0.8724
  47   0.0000       0.032464         0.8834
  48   0.0000       0.035967         0.9787

MULLIKEN ATOMIC CHARGES
-----------------------
   0 C :    1.180932
   1 C :   -0.915620
   2 C :   -0.783984
   3 C :   -0.618284
   4 C :   -0.539710
   5 C :   -0.259251
   6 C :   -0.301301
   7 C :   -0.328616
   8 C :   -0.349568
   9 O :   -0.866256
  10 O :   -0.785998
  11 H :    0.225052
  12 H :    0.225069
  13 H :    0.269099
  14 H :    0.448727
  15 H :    0.321847
  16 H :    0.321860
  17 H :    0.241331
  18 H :    0.241254
  19 H :    0.221661
  20 H :    0.221418
  21 H :    0.195761
  22 H :    0.195687
  23 H :    0.228197
  24 H :    0.228283
  25 H :    0.237352
  26 H :    0.237409
  27 H :    0.253881
  28 H :    0.253769
Sum of atomic charges:    0.0000000

LOEWDIN ATOMIC CHARGES
----------------------
   0 C :   -1.049316
   1 C :    0.926295
   2 C :    0.579022
   3 C :    0.463010
   4 C :    0.509287
   5 C :    0.498010
   6 C :    0.513569
   7 C :    0.527323
   8 C :    0.527716
   9 O :    0.729212
  10 O :    0.844739
  11 H :   -0.285616
  12 H :   -0.285616
  13 H :   -0.284842
  14 H :   -0.326741
  15 H :   -0.317962
  16 H :   -0.317962
  17 H :   -0.283902
  18 H :   -0.283889
  19 H :   -0.273161
  20 H :   -0.273162
  21 H :   -0.271429
  22 H :   -0.271407
  23 H :   -0.267933
  24 H :   -0.267934
  25 H :   -0.264495
  26 H :   -0.264499
  27 H :   -0.264159
  28 H :   -0.264159

  Mayer bond orders larger than 0.100000
B(  0-C ,  2-C ) :  -0.1301 B(  0-C ,  3-C ) :   1.3658 B(  0-C ,  5-C ) :  -0.3689
B(  0-C ,  9-O ) :   1.1692 B(  0-C , 10-O ) :   0.8236 B(  1-C ,  4-C ) :   1.0588
B(  1-C ,  6-C ) :  -0.1427 B(  1-C , 11-H ) :   0.9566 B(  1-C , 12-H ) :   0.9566
B(  1-C , 13-H ) :   1.0248 B(  2-C , 10-O ) :   0.8911 B(  2-C , 14-H ) :   0.8145
B(  2-C , 15-H ) :   0.9039 B(  2-C , 16-H ) :   0.9039 B(  3-C ,  5-C ) :   1.1166
B(  3-C ,  7-C ) :  -0.2040 B(  3-C ,  9-O ) :   0.2007 B(  3-C , 10-O ) :   0.1245
B(  3-C , 17-H ) :   0.8669 B(  3-C , 18-H ) :   0.8669 B(  4-C ,  6-C ) :   1.0100
B(  4-C ,  8-C ) :  -0.1210 B(  4-C , 19-H ) :   0.8840 B(  4-C , 20-H ) :   0.8843
B(  5-C ,  7-C ) :   1.1781 B(  5-C ,  8-C ) :  -0.1626 B(  5-C ,  9-O ) :  -0.1003
B(  5-C , 21-H ) :   0.8400 B(  5-C , 22-H ) :   0.8399 B(  6-C ,  7-C ) :  -0.1493
B(  6-C ,  8-C ) :   1.1081 B(  6-C , 23-H ) :   0.8585 B(  6-C , 24-H ) :   0.8585
B(  7-C ,  8-C ) :   1.1790 B(  7-C , 25-H ) :   0.8324 B(  7-C , 26-H ) :   0.8320
B(  8-C , 27-H ) :   0.8285 B(  8-C , 28-H ) :   0.8284 B(  9-O , 10-O ) :   0.1179

MP2 TOTAL ENERGY:     -503.423657575 Eh
FINAL SINGLE POINT ENERGY      -503.423657575061

DIPOLE MOMENT
-------------
                                X             Y             Z
Electronic contribution:    -20.07968       1.24529       0.00016
Nuclear contribution   :     20.05919      -1.93980      -0.00024
                        -----------------------------------------
Total Dipole Moment    :     -0.02049      -0.69451      -0.00008
                        -----------------------------------------
Magnitude (a.u.)       :      0.69481
Magnitude (Debye)      :      1.76607

Rotational constants in cm-1:     0.200807     0.008008     0.007789
Rotational constants in MHz :  6020.030529   240.080918   233.511893

                             ****ORCA TERMINATED NORMALLY****
TOTAL RUN TIME: 0 days 3 hours 37 minutes 24 seconds 133 msec
