                         Program Version 5.0.4 -  RELEASE  -
|  1> !ri-mp2 aug-cc-pvqz aug-cc-pvqz/c tightscf
|  2> %pal nprocs 16 end
|  3>
|  4> * xyz 0 1
|  5> S     -1.181973   -0.258533   -0.605061
|  6> S      0.526277   -0.912219    0.396167
|  7> N      2.499926    1.048130   -0.266984
|  8> C     -1.850452    1.006228    0.528769
|  9> C      1.684030    0.266004   -0.023640
| 10> H     -2.789196    1.324506    0.074977
| 11> H     -1.175486    1.854944    0.595860
| 12> H     -2.045134    0.582281    1.509582
| 13> *
| 14>
| 15>                          ****END OF INPUT****

CARTESIAN COORDINATES (ANGSTROEM)
---------------------------------
  S     -1.181973   -0.258533   -0.605061
  S      0.526277   -0.912219    0.396167
  N      2.499926    1.048130   -0.266984
  C     -1.850452    1.006228    0.528769
  C      1.684030    0.266004   -0.023640
  H     -2.789196    1.324506    0.074977
  H     -1.175486    1.854944    0.595860
  H     -2.045134    0.582281    1.509582

 Total Charge           Charge          ....    0
 Multiplicity           Mult            ....    1
 Number of Electrons    NEL             ....   54
 Basis Dimension        Dim             ....  546

ORBITAL ENERGIES
----------------

  NO   OCC          E(Eh)            E(eV)
   0   2.0000     -92.041168     -2504.5675
   1   2.0000     -92.012446     -2503.7859
   2   2.0000     -15.587168      -424.1484
   3   2.0000     -11.300414      -307.4999
   4   2.0000     -11.283827      -307.0485
   5   2.0000      -9.039678      -245.9821
   6   2.0000      -9.011638      -245.2191
   7   2.0000      -6.721048      -182.8890
   8   2.0000      -6.719739      -182.8534
   9   2.0000      -6.718796      -182.8277
  10   2.0000      -6.692880      -182.1225
  11   2.0000      -6.691478      -182.0844
  12   2.0000      -6.690642      -182.0616
  13   2.0000      -1.234966       -33.6051
  14   2.0000      -1.111186       -30.2369
  15   2.0000      -1.018550       -27.7161
  16   2.0000      -0.873471       -23.7683
  17   2.0000      -0.680926       -18.5289
  18   2.0000      -0.624250       -16.9867
  19   2.0000      -0.615926       -16.7602
  20   2.0000      -0.571488       -15.5510
  21   2.0000      -0.558144       -15.1879
  22   2.0000      -0.535411       -14.5693
  23   2.0000      -0.503619       -13.7042
  24   2.0000      -0.452787       -12.3210
  25   2.0000      -0.402441       -10.9510
  26   2.0000      -0.390106       -10.6153
  27   0.0000       0.021224         0.5775
  28   0.0000       0.034096         0.9278
  29   0.0000       0.039938         1.0868
  30   0.0000       0.045229         1.2307
  31   0.0000       0.050841         1.3834

MULLIKEN ATOMIC CHARGES
-----------------------
   0 S :    0.078956
   1 S :    0.360354
   2 N :   -0.494552
   3 C :   -0.817721
   4 C :   -0.012323
   5 H :    0.319867
   6 H :    0.285098
   7 H :    0.280320
Sum of atomic charges:   -0.0000000

LOEWDIN ATOMIC CHARGES
----------------------
   0 S :    0.764956
   1 S :    0.663217
   2 N :    0.248060
   3 C :    0.479419
   4 C :   -0.979911
   5 H :   -0.400983
   6 H :   -0.385382
   7 H :   -0.389376

  Mayer bond orders larger than 0.100000
B(  0-S ,  1-S ) :   1.1062 B(  0-S ,  3-C ) :   0.9762 B(  1-S ,  4-C ) :   0.8875
B(  2-N ,  4-C ) :   2.6229 B(  3-C ,  5-H ) :   0.8592 B(  3-C ,  6-H ) :   0.9129
B(  3-C ,  7-H ) :   0.9126

MP2 TOTAL ENERGY:     -928.000953412 Eh
FINAL SINGLE POINT ENERGY      -928.000953412387

DIPOLE MOMENT
-------------
                                X             Y             Z
Electronic contribution:      4.22798      -3.88158      -1.57347
Nuclear contribution   :     -5.76147       3.66812       2.10723
                        -----------------------------------------
Total Dipole Moment    :     -1.53349      -0.21347       0.53377
                        -----------------------------------------
Magnitude (a.u.)       :      1.63770
Magnitude (Debye)      :      4.16271

Rotational constants in cm-1:     0.195972     0.066517     0.057654
Rotational constants in MHz :  5875.105092  1994.130646  1728.413958

                             ****ORCA TERMINATED NORMALLY****
TOTAL RUN TIME: 0 days 0 hours 5 minutes 24 seconds 337 msec
