                         Program Version 5.0.4 -  RELEASE  -
|  1> !ri-mp2 aug-cc-pvqz aug-cc-pvqz/c tightscf
|  2> %pal nprocs 16 end
|  3>
|  4> * xyz 0 1
|  5> C     -1.527992   -0.778219   -0.025802
|  6> C     -1.527998    0.778215   -0.025762
|  7> C     -0.054746   -1.195602    0.153522
|  8> C     -0.054742    1.195610    0.153491
|  9> C      0.759977   -0.000005   -0.361654
| 10> C      2.225909   -0.000001    0.053568
| 11> H     -2.163452   -1.189245    0.758393
| 12> H     -1.917173   -1.155891   -0.972214
| 13> H     -1.917255    1.155933   -0.972124
| 14> H     -2.163406    1.189187    0.758504
| 15> H      0.170715   -1.346139    1.213831
| 16> H      0.187200   -2.127106   -0.360157
| 17> H      0.187182    2.127090   -0.360241
| 18> H      0.170755    1.346201    1.213784
| 19> H      0.706863   -0.000021   -1.457058
| 20> H      2.748064    0.880936   -0.324665
| 21> H      2.320004    0.000014    1.142416
| 22> H      2.748063   -0.880949   -0.324642
| 23> *
| 24>
| 25>                          ****END OF INPUT****

CARTESIAN COORDINATES (ANGSTROEM)
---------------------------------
  C     -1.527992   -0.778219   -0.025802
  C     -1.527998    0.778215   -0.025762
  C     -0.054746   -1.195602    0.153522
  C     -0.054742    1.195610    0.153491
  C      0.759977   -0.000005   -0.361654
  C      2.225909   -0.000001    0.053568
  H     -2.163452   -1.189245    0.758393
  H     -1.917173   -1.155891   -0.972214
  H     -1.917255    1.155933   -0.972124
  H     -2.163406    1.189187    0.758504
  H      0.170715   -1.346139    1.213831
  H      0.187200   -2.127106   -0.360157
  H      0.187182    2.127090   -0.360241
  H      0.170755    1.346201    1.213784
  H      0.706863   -0.000021   -1.457058
  H      2.748064    0.880936   -0.324665
  H      2.320004    0.000014    1.142416
  H      2.748063   -0.880949   -0.324642

 Total Charge           Charge          ....    0
 Multiplicity           Mult            ....    1
 Number of Electrons    NEL             ....   48
 Basis Dimension        Dim             .... 1032

ORBITAL ENERGIES
----------------

  NO   OCC          E(Eh)            E(eV)
   0   2.0000     -11.216129      -305.2064
   1   2.0000     -11.210421      -305.0511
   2   2.0000     -11.209892      -305.0367
   3   2.0000     -11.208279      -304.9928
   4   2.0000     -11.208261      -304.9923
   5   2.0000     -11.206513      -304.9447
   6   2.0000      -1.119477       -30.4625
   7   2.0000      -1.001049       -27.2399
   8   2.0000      -0.956069       -26.0160
   9   2.0000      -0.887381       -24.1469
  10   2.0000      -0.770456       -20.9652
  11   2.0000      -0.757964       -20.6253
  12   2.0000      -0.651175       -17.7194
  13   2.0000      -0.621862       -16.9217
  14   2.0000      -0.586844       -15.9688
  15   2.0000      -0.574025       -15.6200
  16   2.0000      -0.551755       -15.0140
  17   2.0000      -0.518857       -14.1188
  18   2.0000      -0.472989       -12.8707
  19   2.0000      -0.466054       -12.6820
  20   2.0000      -0.460765       -12.5381
  21   2.0000      -0.449354       -12.2276
  22   2.0000      -0.447941       -12.1891
  23   2.0000      -0.439675       -11.9642
  24   0.0000       0.027870         0.7584
  25   0.0000       0.032079         0.8729
  26   0.0000       0.033435         0.9098
  27   0.0000       0.033589         0.9140
  28   0.0000       0.048152         1.3103

MULLIKEN ATOMIC CHARGES
-----------------------
   0 C :   -0.513668
   1 C :   -0.513592
   2 C :   -0.595592
   3 C :   -0.595660
   4 C :    0.225067
   5 C :   -0.887497
   6 H :    0.296439
   7 H :    0.184070
   8 H :    0.184035
   9 H :    0.296441
  10 H :    0.190454
  11 H :    0.326416
  12 H :    0.326409
  13 H :    0.190444
  14 H :    0.271613
  15 H :    0.215130
  16 H :    0.184385
  17 H :    0.215108
Sum of atomic charges:    0.0000000

LOEWDIN ATOMIC CHARGES
----------------------
   0 C :    0.558948
   1 C :    0.558953
   2 C :    0.527139
   3 C :    0.527144
   4 C :    0.097232
   5 C :    0.936568
   6 H :   -0.265658
   7 H :   -0.270674
   8 H :   -0.270674
   9 H :   -0.265659
  10 H :   -0.267672
  11 H :   -0.251695
  12 H :   -0.251696
  13 H :   -0.267675
  14 H :   -0.260074
  15 H :   -0.275312
  16 H :   -0.283884
  17 H :   -0.275312

  Mayer bond orders larger than 0.100000
B(  0-C ,  1-C ) :   0.9709 B(  0-C ,  2-C ) :   1.0251 B(  0-C ,  4-C ) :  -0.1143
B(  0-C ,  6-H ) :   0.8998 B(  0-C ,  7-H ) :   0.9962 B(  1-C ,  3-C ) :   1.0250
B(  1-C ,  4-C ) :  -0.1143 B(  1-C ,  8-H ) :   0.9962 B(  1-C ,  9-H ) :   0.8998
B(  2-C ,  4-C ) :   0.7507 B(  2-C , 10-H ) :   0.9761 B(  2-C , 11-H ) :   0.8685
B(  3-C ,  4-C ) :   0.7507 B(  3-C , 12-H ) :   0.8685 B(  3-C , 13-H ) :   0.9761
B(  4-C ,  5-C ) :   0.5738 B(  4-C , 14-H ) :   0.9186 B(  4-C , 15-H ) :  -0.1138
B(  4-C , 17-H ) :  -0.1138 B(  5-C , 15-H ) :   1.0752 B(  5-C , 16-H ) :   0.9833
B(  5-C , 17-H ) :   1.0752

MP2 TOTAL ENERGY:     -235.407110930 Eh
FINAL SINGLE POINT ENERGY      -235.407110930338

DIPOLE MOMENT
-------------
                                X             Y             Z
Electronic contribution:     -1.16216      -0.00001      -0.37277
Nuclear contribution   :      1.15419       0.00001       0.33829
                        -----------------------------------------
Total Dipole Moment    :     -0.00797      -0.00000      -0.03448
                        -----------------------------------------
Magnitude (a.u.)       :      0.03539
Magnitude (Debye)      :      0.08995

Rotational constants in cm-1:     0.208324     0.097515     0.073456
Rotational constants in MHz :  6245.405843  2923.430510  2202.144883

                             ****ORCA TERMINATED NORMALLY****
TOTAL RUN TIME: 0 days 0 hours 54 minutes 27 seconds 134 msec
