                         Program Version 5.0.4 -  RELEASE  -
|  1> !ri-mp2 aug-cc-pvqz aug-cc-pvqz/c tightscf
|  2> %pal nprocs 16 end
|  3>
|  4> * xyz 0 1
|  5> C      0.000000    0.000000        0.000000
|  6> H      0.628317    0.628317        0.628317
|  7> H     -0.628317   -0.628317        0.628317
|  8> H     -0.628317    0.628317       -0.628317
|  9> H      0.628317   -0.628317       -0.628317
| 10> *
| 11>
| 12>                          ****END OF INPUT****

CARTESIAN COORDINATES (ANGSTROEM)
---------------------------------
  C      0.000000    0.000000    0.000000
  H      0.628317    0.628317    0.628317
  H     -0.628317   -0.628317    0.628317
  H     -0.628317    0.628317   -0.628317
  H      0.628317   -0.628317   -0.628317

 Total Charge           Charge          ....    0
 Multiplicity           Mult            ....    1
 Number of Electrons    NEL             ....   10
 Basis Dimension        Dim             ....  264

ORBITAL ENERGIES
----------------

  NO   OCC          E(Eh)            E(eV)
   0   2.0000     -11.205515      -304.9176
   1   2.0000      -0.942984       -25.6599
   2   2.0000      -0.545132       -14.8338
   3   2.0000      -0.545132       -14.8338
   4   2.0000      -0.545132       -14.8338
   5   0.0000       0.027429         0.7464
   6   0.0000       0.045165         1.2290
   7   0.0000       0.045165         1.2290
   8   0.0000       0.045165         1.2290
   9   0.0000       0.106311         2.8929

MULLIKEN ATOMIC CHARGES
-----------------------
   0 C :   -0.968603
   1 H :    0.242151
   2 H :    0.242151
   3 H :    0.242151
   4 H :    0.242151
Sum of atomic charges:   -0.0000000

LOEWDIN ATOMIC CHARGES
----------------------
   0 C :    1.304742
   1 H :   -0.326185
   2 H :   -0.326185
   3 H :   -0.326185
   4 H :   -0.326185

  Mayer bond orders larger than 0.100000
B(  0-C ,  1-H ) :   0.9402 B(  0-C ,  2-H ) :   0.9402 B(  0-C ,  3-H ) :   0.9402
B(  0-C ,  4-H ) :   0.9402

MP2 TOTAL ENERGY:      -40.427356476 Eh
FINAL SINGLE POINT ENERGY       -40.427356475973

DIPOLE MOMENT
-------------
                                X             Y             Z
Electronic contribution:     -0.00000       0.00000       0.00000
Nuclear contribution   :      0.00000       0.00000       0.00000
                        -----------------------------------------
Total Dipole Moment    :     -0.00000       0.00000       0.00000
                        -----------------------------------------
Magnitude (a.u.)       :      0.00000
Magnitude (Debye)      :      0.00000

Rotational constants in cm-1:     5.295278     5.295278     5.295278
Rotational constants in MHz : 158748.439259 158748.439259 158748.439259

                             ****ORCA TERMINATED NORMALLY****
TOTAL RUN TIME: 0 days 0 hours 0 minutes 45 seconds 672 msec
