                         Program Version 5.0.4 -  RELEASE  -
|  1> !ri-mp2 aug-cc-pvqz aug-cc-pvqz/c tightscf
|  2> %pal nprocs 16 end
|  3>
|  4> * xyz 0 1
|  5> C     -1.162065   -0.316600    0.000000
|  6> C      3.891987    0.293233    0.000000
|  7> C     -3.521231   -0.471592    0.000000
|  8> C      0.000000    0.649193    0.000000
|  9> C      2.521478    0.967777    0.000000
| 10> C      1.364398   -0.031139    0.000000
| 11> O     -1.082593   -1.519471    0.000000
| 12> O     -2.339681    0.346164    0.000000
| 13> H      4.019803   -0.339306    0.880577
| 14> H      4.019803   -0.339306   -0.880577
| 15> H      4.697325    1.028826    0.000000
| 16> H     -3.548612   -1.103036    0.886262
| 17> H     -3.548612   -1.103036   -0.886262
| 18> H     -4.356547    0.221758    0.000000
| 19> H     -0.114752    1.302305   -0.869458
| 20> H     -0.114752    1.302305    0.869458
| 21> H      2.437814    1.621046    0.874090
| 22> H      2.437814    1.621046   -0.874090
| 23> H      1.440757   -0.685686    0.871083
| 24> H      1.440757   -0.685686   -0.871083
| 25> *
| 26>
| 27>                          ****END OF INPUT****

CARTESIAN COORDINATES (ANGSTROEM)
---------------------------------
  C     -1.162065   -0.316600    0.000000
  C      3.891987    0.293233    0.000000
  C     -3.521231   -0.471592    0.000000
  C      0.000000    0.649193    0.000000
  C      2.521478    0.967777    0.000000
  C      1.364398   -0.031139    0.000000
  O     -1.082593   -1.519471    0.000000
  O     -2.339681    0.346164    0.000000
  H      4.019803   -0.339306    0.880577
  H      4.019803   -0.339306   -0.880577
  H      4.697325    1.028826    0.000000
  H     -3.548612   -1.103036    0.886262
  H     -3.548612   -1.103036   -0.886262
  H     -4.356547    0.221758    0.000000
  H     -0.114752    1.302305   -0.869458
  H     -0.114752    1.302305    0.869458
  H      2.437814    1.621046    0.874090
  H      2.437814    1.621046   -0.874090
  H      1.440757   -0.685686    0.871083
  H      1.440757   -0.685686   -0.871083

 Total Charge           Charge          ....    0
 Multiplicity           Mult            ....    1
 Number of Electrons    NEL             ....   64
 Basis Dimension        Dim             .... 1192

ORBITAL ENERGIES
----------------

  NO   OCC          E(Eh)            E(eV)
   0   2.0000     -20.597415      -560.4842
   1   2.0000     -20.539633      -558.9118
   2   2.0000     -11.374285      -309.5100
   3   2.0000     -11.282632      -307.0160
   4   2.0000     -11.239759      -305.8494
   5   2.0000     -11.221636      -305.3562
   6   2.0000     -11.220801      -305.3335
   7   2.0000     -11.211952      -305.0927
   8   2.0000      -1.455590       -39.6086
   9   2.0000      -1.355572       -36.8870
  10   2.0000      -1.088899       -29.6305
  11   2.0000      -1.022345       -27.8194
  12   2.0000      -0.963880       -26.2285
  13   2.0000      -0.885828       -24.1046
  14   2.0000      -0.803283       -21.8585
  15   2.0000      -0.765733       -20.8366
  16   2.0000      -0.695554       -18.9270
  17   2.0000      -0.678948       -18.4751
  18   2.0000      -0.670155       -18.2358
  19   2.0000      -0.644361       -17.5340
  20   2.0000      -0.597107       -16.2481
  21   2.0000      -0.590701       -16.0738
  22   2.0000      -0.578521       -15.7424
  23   2.0000      -0.538860       -14.6631
  24   2.0000      -0.537299       -14.6207
  25   2.0000      -0.525942       -14.3116
  26   2.0000      -0.500047       -13.6070
  27   2.0000      -0.480745       -13.0817
  28   2.0000      -0.475986       -12.9522
  29   2.0000      -0.471141       -12.8204
  30   2.0000      -0.460136       -12.5209
  31   2.0000      -0.443613       -12.0713
  32   0.0000       0.024762         0.6738
  33   0.0000       0.027663         0.7527
  34   0.0000       0.034522         0.9394
  35   0.0000       0.035422         0.9639
  36   0.0000       0.041899         1.1401

MULLIKEN ATOMIC CHARGES
-----------------------
   0 C :    1.153247
   1 C :   -0.892319
   2 C :   -0.747884
   3 C :   -0.525988
   4 C :   -0.458588
   5 C :   -0.163996
   6 O :   -0.840517
   7 O :   -0.771834
   8 H :    0.228160
   9 H :    0.228162
  10 H :    0.256565
  11 H :    0.313022
  12 H :    0.313018
  13 H :    0.442057
  14 H :    0.270454
  15 H :    0.270348
  16 H :    0.230103
  17 H :    0.230100
  18 H :    0.232982
  19 H :    0.232910
Sum of atomic charges:    0.0000000

LOEWDIN ATOMIC CHARGES
----------------------
   0 C :   -1.050139
   1 C :    0.929008
   2 C :    0.579069
   3 C :    0.459222
   4 C :    0.507294
   5 C :    0.481359
   6 O :    0.729190
   7 O :    0.844790
   8 H :   -0.283972
   9 H :   -0.283972
  10 H :   -0.284003
  11 H :   -0.317946
  12 H :   -0.317946
  13 H :   -0.326691
  14 H :   -0.284570
  15 H :   -0.284570
  16 H :   -0.273098
  17 H :   -0.273098
  18 H :   -0.274963
  19 H :   -0.274963

  Mayer bond orders larger than 0.100000
B(  0-C ,  3-C ) :   1.2438 B(  0-C ,  5-C ) :  -0.2711 B(  0-C ,  6-O ) :   1.2335
B(  0-C ,  7-O ) :   0.8356 B(  1-C ,  4-C ) :   1.0255 B(  1-C ,  8-H ) :   0.9513
B(  1-C ,  9-H ) :   0.9513 B(  1-C , 10-H ) :   1.0232 B(  2-C ,  7-O ) :   0.8955
B(  2-C , 11-H ) :   0.9066 B(  2-C , 12-H ) :   0.9066 B(  2-C , 13-H ) :   0.8187
B(  3-C ,  5-C ) :   1.0240 B(  3-C ,  6-O ) :   0.1329 B(  3-C ,  7-O ) :   0.1649
B(  3-C , 14-H ) :   0.8573 B(  3-C , 15-H ) :   0.8574 B(  4-C ,  5-C ) :   0.9919
B(  4-C , 16-H ) :   0.8769 B(  4-C , 17-H ) :   0.8769 B(  5-C , 18-H ) :   0.8648
B(  5-C , 19-H ) :   0.8648 B(  6-O ,  7-O ) :   0.1151

MP2 TOTAL ENERGY:     -385.714800034 Eh
FINAL SINGLE POINT ENERGY      -385.714800033509

DIPOLE MOMENT
-------------
                                X             Y             Z
Electronic contribution:     -9.22588      -2.20666       0.00000
Nuclear contribution   :      9.06116       2.92083       0.00000
                        -----------------------------------------
Total Dipole Moment    :     -0.16472       0.71416       0.00000
                        -----------------------------------------
Magnitude (a.u.)       :      0.73291
Magnitude (Debye)      :      1.86292

Rotational constants in cm-1:     0.253606     0.024449     0.022765
Rotational constants in MHz :  7602.923228   732.957149   682.486139

                             ****ORCA TERMINATED NORMALLY****
TOTAL RUN TIME: 0 days 1 hours 9 minutes 15 seconds 63 msec
