                         Program Version 5.0.4 -  RELEASE  -
|  1> !ri-mp2 aug-cc-pvqz aug-cc-pvqz/c tightscf
|  2> %pal nprocs 16 end
|  3> %maxcore 3800
|  4>
|  5> * xyz 0 1
|  6> C      1.195072    0.696188   -0.000003
|  7> C     -1.200452    0.686869   -0.000003
|  8> C      0.005380   -1.383057   -0.000003
|  9> C      0.000000    1.404022   -0.000002
| 10> C      1.215919   -0.702011   -0.000002
| 11> C     -1.215919   -0.702011   -0.000002
| 12> C     -0.014264    2.911190    0.000003
| 13> C      2.528296   -1.443242    0.000003
| 14> C     -2.514032   -1.467948    0.000003
| 15> H      2.133281    1.239569   -0.000006
| 16> H     -2.140139    1.227691   -0.000006
| 17> H      0.006857   -2.467260   -0.000006
| 18> H     -0.532837    3.302058   -0.878113
| 19> H     -0.532703    3.302052    0.878201
| 20> H      0.996060    3.318393   -0.000072
| 21> H      2.375782   -2.521810   -0.000072
| 22> H      3.126084   -1.189578   -0.878113
| 23> H      3.126012   -1.189692    0.878201
| 24> H     -2.593309   -2.112360    0.878201
| 25> H     -3.371843   -0.796583   -0.000072
| 26> H     -2.593247   -2.112479   -0.878113
| 27> *
| 28>
| 29>                          ****END OF INPUT****

CARTESIAN COORDINATES (ANGSTROEM)
---------------------------------
  C      1.195072    0.696188   -0.000003
  C     -1.200452    0.686869   -0.000003
  C      0.005380   -1.383057   -0.000003
  C      0.000000    1.404022   -0.000002
  C      1.215919   -0.702011   -0.000002
  C     -1.215919   -0.702011   -0.000002
  C     -0.014264    2.911190    0.000003
  C      2.528296   -1.443242    0.000003
  C     -2.514032   -1.467948    0.000003
  H      2.133281    1.239569   -0.000006
  H     -2.140139    1.227691   -0.000006
  H      0.006857   -2.467260   -0.000006
  H     -0.532837    3.302058   -0.878113
  H     -0.532703    3.302052    0.878201
  H      0.996060    3.318393   -0.000072
  H      2.375782   -2.521810   -0.000072
  H      3.126084   -1.189578   -0.878113
  H      3.126012   -1.189692    0.878201
  H     -2.593309   -2.112360    0.878201
  H     -3.371843   -0.796583   -0.000072
  H     -2.593247   -2.112479   -0.878113

 Total Charge           Charge          ....    0
 Multiplicity           Mult            ....    1
 Number of Electrons    NEL             ....   66
 Basis Dimension        Dim             .... 1272

ORBITAL ENERGIES
----------------

  NO   OCC          E(Eh)            E(eV)
   0   2.0000     -11.234767      -305.7135
   1   2.0000     -11.234731      -305.7126
   2   2.0000     -11.234730      -305.7125
   3   2.0000     -11.218490      -305.2706
   4   2.0000     -11.218490      -305.2706
   5   2.0000     -11.218490      -305.2706
   6   2.0000     -11.213803      -305.1431
   7   2.0000     -11.213802      -305.1431
   8   2.0000     -11.213733      -305.1412
   9   2.0000      -1.154366       -31.4119
  10   2.0000      -1.051847       -28.6222
  11   2.0000      -1.051847       -28.6222
  12   2.0000      -0.947918       -25.7942
  13   2.0000      -0.922511       -25.1028
  14   2.0000      -0.922511       -25.1028
  15   2.0000      -0.780196       -21.2302
  16   2.0000      -0.780196       -21.2302
  17   2.0000      -0.672301       -18.2942
  18   2.0000      -0.650605       -17.7039
  19   2.0000      -0.593434       -16.1482
  20   2.0000      -0.582291       -15.8449
  21   2.0000      -0.565196       -15.3798
  22   2.0000      -0.565196       -15.3798
  23   2.0000      -0.557108       -15.1597
  24   2.0000      -0.557108       -15.1597
  25   2.0000      -0.547163       -14.8891
  26   2.0000      -0.547163       -14.8891
  27   2.0000      -0.512405       -13.9433
  28   2.0000      -0.473111       -12.8740
  29   2.0000      -0.473111       -12.8740
  30   2.0000      -0.463465       -12.6115
  31   2.0000      -0.315709        -8.5909
  32   2.0000      -0.315709        -8.5909
  33   0.0000       0.025094         0.6829
  34   0.0000       0.028103         0.7647
  35   0.0000       0.028107         0.7648
  36   0.0000       0.038301         1.0422
  37   0.0000       0.040661         1.1064

MULLIKEN ATOMIC CHARGES
-----------------------
   0 C :   -0.508747
   1 C :   -0.509180
   2 C :   -0.508786
   3 C :    0.394791
   4 C :    0.394911
   5 C :    0.394534
   6 C :   -0.877405
   7 C :   -0.877494
   8 C :   -0.877440
   9 H :    0.270632
  10 H :    0.270806
  11 H :    0.270652
  12 H :    0.239136
  13 H :    0.239141
  14 H :    0.242693
  15 H :    0.242703
  16 H :    0.239096
  17 H :    0.239105
  18 H :    0.239152
  19 H :    0.242556
  20 H :    0.239144
Sum of atomic charges:    0.0000000

LOEWDIN ATOMIC CHARGES
----------------------
   0 C :    0.348908
   1 C :    0.348907
   2 C :    0.348908
   3 C :   -0.062144
   4 C :   -0.062143
   5 C :   -0.062143
   6 C :    0.909609
   7 C :    0.909609
   8 C :    0.909609
   9 H :   -0.320306
  10 H :   -0.320305
  11 H :   -0.320306
  12 H :   -0.283236
  13 H :   -0.283233
  14 H :   -0.309598
  15 H :   -0.309598
  16 H :   -0.283236
  17 H :   -0.283233
  18 H :   -0.283233
  19 H :   -0.309597
  20 H :   -0.283237

  Mayer bond orders larger than 0.100000
B(  0-C ,  1-C ) :   0.1382 B(  0-C ,  2-C ) :   0.1381 B(  0-C ,  3-C ) :   0.9719
B(  0-C ,  4-C ) :   1.0484 B(  0-C ,  6-C ) :  -0.1343 B(  0-C ,  7-C ) :  -0.1859
B(  0-C ,  9-H ) :   0.9494 B(  1-C ,  2-C ) :   0.1380 B(  1-C ,  3-C ) :   1.0488
B(  1-C ,  5-C ) :   0.9721 B(  1-C ,  6-C ) :  -0.1856 B(  1-C ,  8-C ) :  -0.1342
B(  1-C , 10-H ) :   0.9492 B(  2-C ,  4-C ) :   0.9719 B(  2-C ,  5-C ) :   1.0486
B(  2-C ,  7-C ) :  -0.1344 B(  2-C ,  8-C ) :  -0.1859 B(  2-C , 11-H ) :   0.9494
B(  3-C ,  4-C ) :  -0.4984 B(  3-C ,  5-C ) :  -0.4985 B(  3-C ,  6-C ) :   0.7682
B(  3-C , 12-H ) :  -0.1111 B(  3-C , 13-H ) :  -0.1111 B(  4-C ,  5-C ) :  -0.4984
B(  4-C ,  7-C ) :   0.7686 B(  4-C , 16-H ) :  -0.1110 B(  4-C , 17-H ) :  -0.1110
B(  5-C ,  8-C ) :   0.7682 B(  5-C , 18-H ) :  -0.1111 B(  5-C , 20-H ) :  -0.1111
B(  6-C , 12-H ) :   1.0237 B(  6-C , 13-H ) :   1.0237 B(  6-C , 14-H ) :   1.0291
B(  7-C , 15-H ) :   1.0292 B(  7-C , 16-H ) :   1.0238 B(  7-C , 17-H ) :   1.0237
B(  8-C , 18-H ) :   1.0237 B(  8-C , 19-H ) :   1.0293 B(  8-C , 20-H ) :   1.0238

MP2 TOTAL ENERGY:     -349.531701930 Eh
FINAL SINGLE POINT ENERGY      -349.531701929742

DIPOLE MOMENT
-------------
                                X             Y             Z
Electronic contribution:      0.00000      -0.00000      -0.00002
Nuclear contribution   :     -0.00000       0.00000       0.00003
                        -----------------------------------------
Total Dipole Moment    :      0.00000      -0.00000       0.00001
                        -----------------------------------------
Magnitude (a.u.)       :      0.00001
Magnitude (Debye)      :      0.00002

Rotational constants in cm-1:     0.058428     0.058428     0.029694
Rotational constants in MHz :  1751.618159  1751.617658   890.199095

                             ****ORCA TERMINATED NORMALLY****
TOTAL RUN TIME: 0 days 1 hours 44 minutes 21 seconds 959 msec
