                         Program Version 5.0.4 -  RELEASE  -
|  1> !ri-mp2 aug-cc-pvqz aug-cc-pvqz/c tightscf
|  2> %pal nprocs 16 end
|  3>
|  4> * xyz 0 1
|  5> C      0.151273    1.784647    0.002216
|  6> C     -1.096568    1.176867   -0.008450
|  7> C      1.312680    1.021029    0.007796
|  8> C     -0.038671   -0.979205   -0.009708
|  9> C     -1.203017   -0.216446   -0.011775
| 10> C      1.211066   -0.366488    0.000942
| 11> C     -2.552960   -0.884863    0.009391
| 12> O      2.309364   -1.184166    0.000798
| 13> H      0.225667    2.863983    0.002825
| 14> H     -1.992065    1.784194   -0.016938
| 15> H      2.285648    1.497705    0.012651
| 16> H     -0.084931   -2.060188   -0.018605
| 17> H     -2.509721   -1.885386   -0.419767
| 18> H     -2.922457   -0.982907    1.033294
| 19> H     -3.290088   -0.306426   -0.547493
| 20> H      3.110211   -0.650896    0.005175
| 21> *
| 22>
| 23>                          ****END OF INPUT****

CARTESIAN COORDINATES (ANGSTROEM)
---------------------------------
  C      0.151273    1.784647    0.002216
  C     -1.096568    1.176867   -0.008450
  C      1.312680    1.021029    0.007796
  C     -0.038671   -0.979205   -0.009708
  C     -1.203017   -0.216446   -0.011775
  C      1.211066   -0.366488    0.000942
  C     -2.552960   -0.884863    0.009391
  O      2.309364   -1.184166    0.000798
  H      0.225667    2.863983    0.002825
  H     -1.992065    1.784194   -0.016938
  H      2.285648    1.497705    0.012651
  H     -0.084931   -2.060188   -0.018605
  H     -2.509721   -1.885386   -0.419767
  H     -2.922457   -0.982907    1.033294
  H     -3.290088   -0.306426   -0.547493
  H      3.110211   -0.650896    0.005175

 Total Charge           Charge          ....    0
 Multiplicity           Mult            ....    1
 Number of Electrons    NEL             ....   58
 Basis Dimension        Dim             .... 1008

ORBITAL ENERGIES
----------------

  NO   OCC          E(Eh)            E(eV)
   0   2.0000     -20.586874      -560.1973
   1   2.0000     -11.300359      -307.4984
   2   2.0000     -11.245275      -305.9995
   3   2.0000     -11.238629      -305.8187
   4   2.0000     -11.226705      -305.4942
   5   2.0000     -11.222711      -305.3855
   6   2.0000     -11.220083      -305.3140
   7   2.0000     -11.219125      -305.2879
   8   2.0000      -1.402799       -38.1721
   9   2.0000      -1.151447       -31.3325
  10   2.0000      -1.045805       -28.4578
  11   2.0000      -1.006806       -27.3966
  12   2.0000      -0.937612       -25.5137
  13   2.0000      -0.825719       -22.4689
  14   2.0000      -0.822613       -22.3844
  15   2.0000      -0.713014       -19.4021
  16   2.0000      -0.682987       -18.5850
  17   2.0000      -0.655428       -17.8351
  18   2.0000      -0.610643       -16.6164
  19   2.0000      -0.592499       -16.1227
  20   2.0000      -0.573230       -15.5984
  21   2.0000      -0.572040       -15.5660
  22   2.0000      -0.570518       -15.5246
  23   2.0000      -0.534702       -14.5500
  24   2.0000      -0.508027       -13.8241
  25   2.0000      -0.487344       -13.2613
  26   2.0000      -0.472671       -12.8620
  27   2.0000      -0.333949        -9.0872
  28   2.0000      -0.312929        -8.5152
  29   0.0000       0.023667         0.6440
  30   0.0000       0.027824         0.7571
  31   0.0000       0.031261         0.8507
  32   0.0000       0.041797         1.1373
  33   0.0000       0.042575         1.1585

MULLIKEN ATOMIC CHARGES
-----------------------
   0 C :   -0.381842
   1 C :   -0.356949
   2 C :   -0.547807
   3 C :   -0.669455
   4 C :    0.219050
   5 C :    1.113089
   6 C :   -0.778961
   7 O :   -0.823485
   8 H :    0.207300
   9 H :    0.302440
  10 H :    0.261088
  11 H :    0.365336
  12 H :    0.221875
  13 H :    0.285086
  14 H :    0.217773
  15 H :    0.365464
Sum of atomic charges:   -0.0000000

LOEWDIN ATOMIC CHARGES
----------------------
   0 C :    0.333592
   1 C :    0.336673
   2 C :    0.328947
   3 C :    0.324701
   4 C :   -0.086887
   5 C :   -0.430925
   6 C :    0.908314
   7 O :    1.273117
   8 H :   -0.320859
   9 H :   -0.327084
  10 H :   -0.329162
  11 H :   -0.327210
  12 H :   -0.301223
  13 H :   -0.277145
  14 H :   -0.297173
  15 H :   -0.807676

  Mayer bond orders larger than 0.100000
B(  0-C ,  1-C ) :   1.3065 B(  0-C ,  2-C ) :   1.1876 B(  0-C ,  3-C ) :   0.1006
B(  0-C ,  4-C ) :  -0.2027 B(  0-C ,  5-C ) :  -0.1890 B(  0-C ,  8-H ) :   1.1644
B(  1-C ,  4-C ) :   1.0460 B(  1-C ,  8-H ) :  -0.1219 B(  1-C ,  9-H ) :   0.9638
B(  2-C ,  5-C ) :   1.2832 B(  2-C ,  7-O ) :   0.1976 B(  2-C ,  8-H ) :  -0.1465
B(  2-C , 10-H ) :   1.0114 B(  3-C ,  4-C ) :   1.0897 B(  3-C ,  5-C ) :   1.4962
B(  3-C ,  6-C ) :  -0.1244 B(  3-C ,  7-O ) :   0.3573 B(  3-C , 11-H ) :   0.8659
B(  4-C ,  5-C ) :  -0.3725 B(  4-C ,  6-C ) :   0.8454 B(  4-C , 12-H ) :  -0.1021
B(  5-C , 15-H ) :  -0.1101 B(  6-C , 12-H ) :   1.0346 B(  6-C , 13-H ) :   0.9281
B(  6-C , 14-H ) :   1.0327 B(  7-O , 15-H ) :   0.8950

MP2 TOTAL ENERGY:     -346.203442444 Eh
FINAL SINGLE POINT ENERGY      -346.203442444110

DIPOLE MOMENT
-------------
                                X             Y             Z
Electronic contribution:      5.25072       0.16951      -0.03607
Nuclear contribution   :     -5.17881       0.24317       0.05153
                        -----------------------------------------
Total Dipole Moment    :      0.07191       0.41268       0.01546
                        -----------------------------------------
Magnitude (a.u.)       :      0.41919
Magnitude (Debye)      :      1.06549

Rotational constants in cm-1:     0.122834     0.060063     0.040642
Rotational constants in MHz :  3682.464132  1800.646458  1218.426440

                             ****ORCA TERMINATED NORMALLY****
TOTAL RUN TIME: 0 days 0 hours 51 minutes 21 seconds 487 msec
