                         Program Version 5.0.4 -  RELEASE  -
|  1> !ri-mp2 aug-cc-pvqz aug-cc-pvqz/c tightscf
|  2> %pal nprocs 16 end
|  3>
|  4> * xyz 0 1
|  5> C      2.631509    0.344451    0.000050
|  6> C      1.698472    1.371404   -0.000121
|  7> C      2.188597   -0.975522    0.000179
|  8> C      0.334547    1.093914   -0.000188
|  9> C      0.832934   -1.262341    0.000136
| 10> C     -0.109855   -0.227934   -0.000068
| 11> C     -2.721440    0.856894    0.000405
| 12> S     -1.818130   -0.717138   -0.000261
| 13> H      3.689808    0.566132    0.000100
| 14> H      2.026789    2.402640   -0.000214
| 15> H      2.903178   -1.788083    0.000345
| 16> H     -0.367984    1.913568   -0.000322
| 17> H      0.498331   -2.291718    0.000281
| 18> H     -2.506706    1.440121    0.893802
| 19> H     -3.774965    0.585558    0.000442
| 20> H     -2.506952    1.440801   -0.892611
| 21> *
| 22>
| 23>                          ****END OF INPUT****

CARTESIAN COORDINATES (ANGSTROEM)
---------------------------------
  C      2.631509    0.344451    0.000050
  C      1.698472    1.371404   -0.000121
  C      2.188597   -0.975522    0.000179
  C      0.334547    1.093914   -0.000188
  C      0.832934   -1.262341    0.000136
  C     -0.109855   -0.227934   -0.000068
  C     -2.721440    0.856894    0.000405
  S     -1.818130   -0.717138   -0.000261
  H      3.689808    0.566132    0.000100
  H      2.026789    2.402640   -0.000214
  H      2.903178   -1.788083    0.000345
  H     -0.367984    1.913568   -0.000322
  H      0.498331   -2.291718    0.000281
  H     -2.506706    1.440121    0.893802
  H     -3.774965    0.585558    0.000442
  H     -2.506952    1.440801   -0.892611

 Total Charge           Charge          ....    0
 Multiplicity           Mult            ....    1
 Number of Electrons    NEL             ....   66
 Basis Dimension        Dim             .... 1012

ORBITAL ENERGIES
----------------

  NO   OCC          E(Eh)            E(eV)
   0   2.0000     -91.956868     -2502.2736
   1   2.0000     -11.271589      -306.7155
   2   2.0000     -11.259121      -306.3763
   3   2.0000     -11.238875      -305.8253
   4   2.0000     -11.238216      -305.8074
   5   2.0000     -11.236616      -305.7639
   6   2.0000     -11.235254      -305.7268
   7   2.0000     -11.231284      -305.6188
   8   2.0000      -8.958443      -243.7716
   9   2.0000      -6.640107      -180.6865
  10   2.0000      -6.639081      -180.6586
  11   2.0000      -6.638264      -180.6363
  12   2.0000      -1.163251       -31.6537
  13   2.0000      -1.068755       -29.0823
  14   2.0000      -1.021226       -27.7890
  15   2.0000      -0.998089       -27.1594
  16   2.0000      -0.883747       -24.0480
  17   2.0000      -0.831257       -22.6196
  18   2.0000      -0.791833       -21.5469
  19   2.0000      -0.701241       -19.0817
  20   2.0000      -0.634716       -17.2715
  21   2.0000      -0.632562       -17.2129
  22   2.0000      -0.607686       -16.5360
  23   2.0000      -0.598166       -16.2769
  24   2.0000      -0.588636       -16.0176
  25   2.0000      -0.548820       -14.9341
  26   2.0000      -0.516688       -14.0598
  27   2.0000      -0.506373       -13.7791
  28   2.0000      -0.490318       -13.3422
  29   2.0000      -0.445225       -12.1152
  30   2.0000      -0.400729       -10.9044
  31   2.0000      -0.343407        -9.3446
  32   2.0000      -0.298701        -8.1281
  33   0.0000       0.024332         0.6621
  34   0.0000       0.026700         0.7265
  35   0.0000       0.030514         0.8303
  36   0.0000       0.039932         1.0866
  37   0.0000       0.041656         1.1335

MULLIKEN ATOMIC CHARGES
-----------------------
   0 C :   -0.259399
   1 C :   -0.392791
   2 C :   -0.306540
   3 C :   -0.207597
   4 C :   -0.183099
   5 C :   -0.210223
   6 C :   -0.941500
   7 S :    0.014466
   8 H :    0.334468
   9 H :    0.246471
  10 H :    0.263496
  11 H :    0.373377
  12 H :    0.370447
  13 H :    0.234228
  14 H :    0.430032
  15 H :    0.234165
Sum of atomic charges:    0.0000000

LOEWDIN ATOMIC CHARGES
----------------------
   0 C :    0.333170
   1 C :    0.333777
   2 C :    0.327018
   3 C :    0.247505
   4 C :    0.211058
   5 C :   -0.503715
   6 C :    0.549466
   7 S :    1.330745
   8 H :   -0.327409
   9 H :   -0.321872
  10 H :   -0.322703
  11 H :   -0.382634
  12 H :   -0.352895
  13 H :   -0.365150
  14 H :   -0.391196
  15 H :   -0.365166

  Mayer bond orders larger than 0.100000
B(  0-C ,  1-C ) :   1.2420 B(  0-C ,  2-C ) :   1.1162 B(  0-C ,  3-C ) :  -0.1084
B(  0-C ,  8-H ) :   0.9866 B(  0-C , 10-H ) :  -0.1114 B(  1-C ,  3-C ) :   1.1110
B(  1-C ,  4-C ) :   0.1291 B(  1-C ,  5-C ) :  -0.1120 B(  1-C ,  9-H ) :   1.1051
B(  1-C , 11-H ) :  -0.1294 B(  2-C ,  4-C ) :   1.3699 B(  2-C ,  5-C ) :  -0.1990
B(  2-C , 10-H ) :   1.0850 B(  3-C ,  5-C ) :   1.0748 B(  3-C ,  7-S ) :  -0.1895
B(  3-C ,  9-H ) :  -0.1062 B(  3-C , 11-H ) :   0.8922 B(  4-C ,  5-C ) :   0.9310
B(  4-C ,  7-S ) :  -0.1723 B(  4-C , 10-H ) :  -0.1110 B(  4-C , 12-H ) :   0.8935
B(  5-C ,  7-S ) :   0.9657 B(  6-C ,  7-S ) :   1.0908 B(  6-C , 13-H ) :   0.9332
B(  6-C , 14-H ) :   0.8083 B(  6-C , 15-H ) :   0.9333

MP2 TOTAL ENERGY:     -668.786633350 Eh
FINAL SINGLE POINT ENERGY      -668.786633349882

DIPOLE MOMENT
-------------
                                X             Y             Z
Electronic contribution:     -0.01338      -3.70469      -0.00155
Nuclear contribution   :      0.01757       4.28257       0.00183
                        -----------------------------------------
Total Dipole Moment    :      0.00419       0.57788       0.00028
                        -----------------------------------------
Magnitude (a.u.)       :      0.57790
Magnitude (Debye)      :      1.46890

Rotational constants in cm-1:     0.141727     0.038683     0.030566
Rotational constants in MHz :  4248.864622  1159.698785   916.351142

                             ****ORCA TERMINATED NORMALLY****
TOTAL RUN TIME: 0 days 0 hours 55 minutes 34 seconds 832 msec
