                         Program Version 5.0.4 -  RELEASE  -
|  1> !ri-mp2 aug-cc-pvqz aug-cc-pvqz/c tightscf
|  2> %pal nprocs 16 end
|  3>
|  4> * xyz 0 1
|  5> C     -0.309415   -2.118342    0.000000
|  6> C      0.000000    0.358652    0.000000
|  7> C      0.510898    2.662545    0.000000
|  8> C      0.648261   -1.022919    0.000000
|  9> N     -1.032584   -3.010339    0.000000
| 10> O     -1.177335    0.583267    0.000000
| 11> O      0.963844    1.293027    0.000000
| 12> H      1.413063    3.264948    0.000000
| 13> H     -0.085786    2.861008    0.887616
| 14> H     -0.085786    2.861008   -0.887616
| 15> H      1.298037   -1.102284    0.873564
| 16> H      1.298037   -1.102284   -0.873564
| 17> *
| 18>
| 19>                          ****END OF INPUT****

CARTESIAN COORDINATES (ANGSTROEM)
---------------------------------
  C     -0.309415   -2.118342    0.000000
  C      0.000000    0.358652    0.000000
  C      0.510898    2.662545    0.000000
  C      0.648261   -1.022919    0.000000
  N     -1.032584   -3.010339    0.000000
  O     -1.177335    0.583267    0.000000
  O      0.963844    1.293027    0.000000
  H      1.413063    3.264948    0.000000
  H     -0.085786    2.861008    0.887616
  H     -0.085786    2.861008   -0.887616
  H      1.298037   -1.102284    0.873564
  H      1.298037   -1.102284   -0.873564

 Total Charge           Charge          ....    0
 Multiplicity           Mult            ....    1
 Number of Electrons    NEL             ....   52
 Basis Dimension        Dim             ....  790

ORBITAL ENERGIES
----------------

  NO   OCC          E(Eh)            E(eV)
   0   2.0000     -20.628141      -561.3203
   1   2.0000     -20.571490      -559.7787
   2   2.0000     -15.576123      -423.8479
   3   2.0000     -11.412853      -310.5595
   4   2.0000     -11.310767      -307.7816
   5   2.0000     -11.304925      -307.6226
   6   2.0000     -11.280895      -306.9688
   7   2.0000      -1.488798       -40.5122
   8   2.0000      -1.390199       -37.8292
   9   2.0000      -1.230169       -33.4746
  10   2.0000      -1.092525       -29.7291
  11   2.0000      -0.987797       -26.8793
  12   2.0000      -0.817659       -22.2496
  13   2.0000      -0.743611       -20.2347
  14   2.0000      -0.726517       -19.7695
  15   2.0000      -0.709158       -19.2972
  16   2.0000      -0.675208       -18.3733
  17   2.0000      -0.648579       -17.6487
  18   2.0000      -0.615862       -16.7585
  19   2.0000      -0.563084       -15.3223
  20   2.0000      -0.562513       -15.3068
  21   2.0000      -0.555317       -15.1109
  22   2.0000      -0.490088       -13.3360
  23   2.0000      -0.489757       -13.3270
  24   2.0000      -0.470249       -12.7961
  25   2.0000      -0.466570       -12.6960
  26   0.0000       0.017309         0.4710
  27   0.0000       0.028290         0.7698
  28   0.0000       0.032160         0.8751
  29   0.0000       0.037973         1.0333
  30   0.0000       0.048648         1.3238

MULLIKEN ATOMIC CHARGES
-----------------------
   0 C :    0.486023
   1 C :    1.045068
   2 C :   -0.669564
   3 C :   -0.484622
   4 N :   -0.668804
   5 O :   -0.707044
   6 O :   -0.672387
   7 H :    0.429371
   8 H :    0.298738
   9 H :    0.298738
  10 H :    0.322242
  11 H :    0.322242
Sum of atomic charges:   -0.0000000

LOEWDIN ATOMIC CHARGES
----------------------
   0 C :   -0.288875
   1 C :   -1.090784
   2 C :    0.600768
   3 C :    0.372672
   4 N :    0.417017
   5 O :    0.726245
   6 O :    0.843902
   7 H :   -0.321894
   8 H :   -0.313187
   9 H :   -0.313187
  10 H :   -0.316339
  11 H :   -0.316339

  Mayer bond orders larger than 0.100000
B(  0-C ,  1-C ) :  -0.2230 B(  0-C ,  3-C ) :   1.2433 B(  0-C ,  4-N ) :   2.5252
B(  1-C ,  3-C ) :   0.9494 B(  1-C ,  5-O ) :   1.4501 B(  1-C ,  6-O ) :   1.0400
B(  2-C ,  6-O ) :   0.8182 B(  2-C ,  7-H ) :   0.8310 B(  2-C ,  8-H ) :   0.9118
B(  2-C ,  9-H ) :   0.9118 B(  3-C ,  5-O ) :   0.1140 B(  3-C , 10-H ) :   0.8506
B(  3-C , 11-H ) :   0.8506

MP2 TOTAL ENERGY:     -360.107416062 Eh
FINAL SINGLE POINT ENERGY      -360.107416062026

DIPOLE MOMENT
-------------
                                X             Y             Z
Electronic contribution:     -2.04566      -5.19271       0.00000
Nuclear contribution   :      3.77292       6.69631       0.00000
                        -----------------------------------------
Total Dipole Moment    :      1.72726       1.50360       0.00000
                        -----------------------------------------
Magnitude (a.u.)       :      2.29003
Magnitude (Debye)      :      5.82080

Rotational constants in cm-1:     0.317898     0.046654     0.041307
Rotational constants in MHz :  9530.352229  1398.664634  1238.356893

                             ****ORCA TERMINATED NORMALLY****
TOTAL RUN TIME: 0 days 0 hours 17 minutes 44 seconds 733 msec
