                         Program Version 5.0.4 -  RELEASE  -
|  1> !ri-mp2 aug-cc-pvqz aug-cc-pvqz/c tightscf
|  2> %pal nprocs 16 end
|  3>
|  4> * xyz 0 1
|  5> C      0.017458    0.114976   -0.000014
|  6> C     -2.442157   -0.010060    0.000035
|  7> C      2.370388   -0.058037    0.000016
|  8> N     -1.126195   -0.614338   -0.000060
|  9> O      0.091274    1.325205   -0.000014
| 10> O      1.096157   -0.714172    0.000010
| 11> H     -2.316092    1.068892   -0.000449
| 12> H     -3.008671   -0.296928    0.887756
| 13> H     -3.009081   -0.297691   -0.887170
| 14> H      2.483823    0.563324    0.886629
| 15> H      2.483850    0.563286   -0.886620
| 16> H      3.107408   -0.855675    0.000044
| 17> H     -1.031457   -1.614379    0.000035
| 18> *
| 19>
| 20>                          ****END OF INPUT****

CARTESIAN COORDINATES (ANGSTROEM)
---------------------------------
  C      0.017458    0.114976   -0.000014
  C     -2.442157   -0.010060    0.000035
  C      2.370388   -0.058037    0.000016
  N     -1.126195   -0.614338   -0.000060
  O      0.091274    1.325205   -0.000014
  O      1.096157   -0.714172    0.000010
  H     -2.316092    1.068892   -0.000449
  H     -3.008671   -0.296928    0.887756
  H     -3.009081   -0.297691   -0.887170
  H      2.483823    0.563324    0.886629
  H      2.483850    0.563286   -0.886620
  H      3.107408   -0.855675    0.000044
  H     -1.031457   -1.614379    0.000035

 Total Charge           Charge          ....    0
 Multiplicity           Mult            ....    1
 Number of Electrons    NEL             ....   48
 Basis Dimension        Dim             ....  802

ORBITAL ENERGIES
----------------

  NO   OCC          E(Eh)            E(eV)
   0   2.0000     -20.594639      -560.4086
   1   2.0000     -20.519365      -558.3603
   2   2.0000     -15.583810      -424.0570
   3   2.0000     -11.395538      -310.0884
   4   2.0000     -11.280186      -306.9495
   5   2.0000     -11.260758      -306.4208
   6   2.0000      -1.455926       -39.6178
   7   2.0000      -1.348923       -36.7061
   8   2.0000      -1.234963       -33.6051
   9   2.0000      -0.989959       -26.9382
  10   2.0000      -0.922885       -25.1130
  11   2.0000      -0.794103       -21.6086
  12   2.0000      -0.747855       -20.3502
  13   2.0000      -0.678010       -18.4496
  14   2.0000      -0.676231       -18.4012
  15   2.0000      -0.626474       -17.0472
  16   2.0000      -0.614140       -16.7116
  17   2.0000      -0.589854       -16.0507
  18   2.0000      -0.549880       -14.9630
  19   2.0000      -0.548867       -14.9354
  20   2.0000      -0.529660       -14.4128
  21   2.0000      -0.463191       -12.6041
  22   2.0000      -0.453826       -12.3492
  23   2.0000      -0.398908       -10.8548
  24   0.0000       0.023227         0.6320
  25   0.0000       0.030945         0.8421
  26   0.0000       0.038850         1.0572
  27   0.0000       0.039055         1.0627
  28   0.0000       0.050080         1.3627

MULLIKEN ATOMIC CHARGES
-----------------------
   0 C :    1.249369
   1 C :   -0.733463
   2 C :   -0.673407
   3 N :   -0.473597
   4 O :   -0.758265
   5 O :   -0.690196
   6 H :    0.302493
   7 H :    0.259879
   8 H :    0.259804
   9 H :    0.289752
  10 H :    0.289754
  11 H :    0.430869
  12 H :    0.247008
Sum of atomic charges:   -0.0000000

LOEWDIN ATOMIC CHARGES
----------------------
   0 C :   -1.255388
   1 C :    0.782268
   2 C :    0.570762
   3 N :    0.781345
   4 O :    0.692924
   5 O :    0.832510
   6 H :   -0.349627
   7 H :   -0.286615
   8 H :   -0.286633
   9 H :   -0.318638
  10 H :   -0.318636
  11 H :   -0.328741
  12 H :   -0.515532

  Mayer bond orders larger than 0.100000
B(  0-C ,  3-N ) :   1.2599 B(  0-C ,  4-O ) :   1.4712 B(  0-C ,  5-O ) :   0.9746
B(  1-C ,  3-N ) :   0.8071 B(  1-C ,  6-H ) :   0.9203 B(  1-C ,  7-H ) :   0.9708
B(  1-C ,  8-H ) :   0.9709 B(  2-C ,  5-O ) :   0.8443 B(  2-C ,  9-H ) :   0.9179
B(  2-C , 10-H ) :   0.9179 B(  2-C , 11-H ) :   0.8260 B(  3-N , 12-H ) :   0.9861

MP2 TOTAL ENERGY:     -323.293729113 Eh
FINAL SINGLE POINT ENERGY      -323.293729113420

DIPOLE MOMENT
-------------
                                X             Y             Z
Electronic contribution:      1.10520      -0.09536      -0.00016
Nuclear contribution   :     -1.29322      -0.87335       0.00023
                        -----------------------------------------
Total Dipole Moment    :     -0.18802      -0.96871       0.00007
                        -----------------------------------------
Magnitude (a.u.)       :      0.98679
Magnitude (Debye)      :      2.50821

Rotational constants in cm-1:     0.335570     0.074489     0.062389
Rotational constants in MHz : 10060.137430  2233.115820  1870.376049

                             ****ORCA TERMINATED NORMALLY****
TOTAL RUN TIME: 0 days 0 hours 13 minutes 29 seconds 262 msec
