                         Program Version 5.0.4 -  RELEASE  -
|  1> !ri-mp2 aug-cc-pvqz aug-cc-pvqz/c tightscf
|  2> %pal nprocs 16 end
|  3>
|  4> * xyz 0 1
|  5> S     -2.265968   -0.918361   -0.000001
|  6> S      2.145504   -0.995460    0.000002
|  7> O     -0.634755   -0.362504    0.000000
|  8> O     -1.517867    1.704175   -0.000002
|  9> C     -0.541512    0.991131   -0.000001
| 10> C      0.843271    1.467699    0.000000
| 11> C      1.974268    0.747540    0.000000
| 12> H     -1.833773   -2.193713    0.000000
| 13> H      3.490805   -0.983923    0.000003
| 14> H      0.921463    2.545287   -0.000001
| 15> H      2.913753    1.281908    0.000000
| 16> *
| 17>
| 18>                          ****END OF INPUT****

CARTESIAN COORDINATES (ANGSTROEM)
---------------------------------
  S     -2.265968   -0.918361   -0.000001
  S      2.145504   -0.995460    0.000002
  O     -0.634755   -0.362504    0.000000
  O     -1.517867    1.704175   -0.000002
  C     -0.541512    0.991131   -0.000001
  C      0.843271    1.467699    0.000000
  C      1.974268    0.747540    0.000000
  H     -1.833773   -2.193713    0.000000
  H      3.490805   -0.983923    0.000003
  H      0.921463    2.545287   -0.000001
  H      2.913753    1.281908    0.000000

 Total Charge           Charge          ....    0
 Multiplicity           Mult            ....    1
 Number of Electrons    NEL             ....   70
 Basis Dimension        Dim             ....  752

ORBITAL ENERGIES
----------------

  NO   OCC          E(Eh)            E(eV)
   0   2.0000     -92.021924     -2504.0438
   1   2.0000     -91.990727     -2503.1949
   2   2.0000     -20.628644      -561.3339
   3   2.0000     -20.551772      -559.2421
   4   2.0000     -11.394148      -310.0505
   5   2.0000     -11.311882      -307.8120
   6   2.0000     -11.257103      -306.3214
   7   2.0000      -9.017913      -245.3899
   8   2.0000      -8.992682      -244.7033
   9   2.0000      -6.699098      -182.2917
  10   2.0000      -6.697748      -182.2550
  11   2.0000      -6.696250      -182.2142
  12   2.0000      -6.674042      -181.6099
  13   2.0000      -6.673194      -181.5868
  14   2.0000      -6.672279      -181.5619
  15   2.0000      -1.468665       -39.9644
  16   2.0000      -1.364614       -37.1330
  17   2.0000      -1.123239       -30.5649
  18   2.0000      -1.016609       -27.6633
  19   2.0000      -0.973033       -26.4776
  20   2.0000      -0.853810       -23.2334
  21   2.0000      -0.762693       -20.7539
  22   2.0000      -0.704659       -19.1747
  23   2.0000      -0.681902       -18.5555
  24   2.0000      -0.657270       -17.8852
  25   2.0000      -0.652266       -17.7491
  26   2.0000      -0.598938       -16.2979
  27   2.0000      -0.566501       -15.4153
  28   2.0000      -0.513264       -13.9666
  29   2.0000      -0.510084       -13.8801
  30   2.0000      -0.484680       -13.1888
  31   2.0000      -0.474457       -12.9106
  32   2.0000      -0.465017       -12.6537
  33   2.0000      -0.378964       -10.3121
  34   2.0000      -0.351171        -9.5559
  35   0.0000       0.018931         0.5151
  36   0.0000       0.029939         0.8147
  37   0.0000       0.034091         0.9277
  38   0.0000       0.046312         1.2602
  39   0.0000       0.057425         1.5626

MULLIKEN ATOMIC CHARGES
-----------------------
   0 S :    0.221097
   1 S :    0.236879
   2 O :   -0.597814
   3 O :   -0.715968
   4 C :    1.059898
   5 C :   -0.493764
   6 C :   -0.355273
   7 H :    0.070585
   8 H :   -0.059760
   9 H :    0.340398
  10 H :    0.293723
Sum of atomic charges:    0.0000000

LOEWDIN ATOMIC CHARGES
----------------------
   0 S :    1.235527
   1 S :    1.582740
   2 O :    0.273927
   3 O :    0.632974
   4 C :   -1.344250
   5 C :    0.164909
   6 C :   -0.124041
   7 H :   -0.825545
   8 H :   -0.776484
   9 H :   -0.392008
  10 H :   -0.427749

  Mayer bond orders larger than 0.100000
B(  0-S ,  2-O ) :   0.6513 B(  0-S ,  7-H ) :   1.0656 B(  1-S ,  6-C ) :   0.7597
B(  1-S ,  8-H ) :   1.0893 B(  2-O ,  4-C ) :   0.9721 B(  3-O ,  4-C ) :   1.3357
B(  3-O ,  5-C ) :   0.1949 B(  4-C ,  5-C ) :   1.1407 B(  5-C ,  6-C ) :   1.5989
B(  5-C ,  9-H ) :   0.9073 B(  5-C , 10-H ) :  -0.1086 B(  6-C , 10-H ) :   0.9724

MP2 TOTAL ENERGY:    -1062.232680495 Eh
FINAL SINGLE POINT ENERGY     -1062.232680495144

DIPOLE MOMENT
-------------
                                X             Y             Z
Electronic contribution:     -3.80468      -1.34233      -0.00000
Nuclear contribution   :      5.27281       0.70448       0.00000
                        -----------------------------------------
Total Dipole Moment    :      1.46813      -0.63785       0.00000
                        -----------------------------------------
Magnitude (a.u.)       :      1.60070
Magnitude (Debye)      :      4.06866

Rotational constants in cm-1:     0.101792     0.038364     0.027863
Rotational constants in MHz :  3051.641439  1150.132703   835.312061

                             ****ORCA TERMINATED NORMALLY****
TOTAL RUN TIME: 0 days 0 hours 22 minutes 24 seconds 166 msec
