                         Program Version 5.0.4 -  RELEASE  -
|  1> !ri-mp2 aug-cc-pvqz aug-cc-pvqz/c tightscf
|  2> %pal nprocs 16 end
|  3>
|  4> * xyz 0 1
|  5> C    -2.911807   -0.353161    0.000000
|  6> C    -1.970075   -1.370420    0.000028
|  7> C    -2.420063    0.945020   -0.000029
|  8> C    -0.295388    0.168403   -0.000001
|  9> C     1.202333    0.467839    0.000009
| 10> C     3.415957   -0.609641   -0.000010
| 11> N    -0.663500   -1.117055    0.000026
| 12> N    -1.117120    1.213429   -0.000028
| 13> N     1.969122   -0.648818   -0.000052
| 14> O     1.629250    1.606620    0.000055
| 15> H    -3.971769   -0.560591    0.000002
| 16> H    -2.264814   -2.413448    0.000052
| 17> H    -3.089232    1.798175   -0.000054
| 18> H     3.820894   -1.101243   -0.886355
| 19> H     3.820882   -1.099999    0.887039
| 20> H     3.726013    0.431675   -0.000714
| 21> H     1.478770   -1.528660   -0.000016
| 22> *
| 23>
| 24>                          ****END OF INPUT****

CARTESIAN COORDINATES (ANGSTROEM)
---------------------------------
  C     -2.911807   -0.353161    0.000000
  C     -1.970075   -1.370420    0.000028
  C     -2.420063    0.945020   -0.000029
  C     -0.295388    0.168403   -0.000001
  C      1.202333    0.467839    0.000009
  C      3.415957   -0.609641   -0.000010
  N     -0.663500   -1.117055    0.000026
  N     -1.117120    1.213429   -0.000028
  N      1.969122   -0.648818   -0.000052
  O      1.629250    1.606620    0.000055
  H     -3.971769   -0.560591    0.000002
  H     -2.264814   -2.413448    0.000052
  H     -3.089232    1.798175   -0.000054
  H      3.820894   -1.101243   -0.886355
  H      3.820882   -1.099999    0.887039
  H      3.726013    0.431675   -0.000714
  H      1.478770   -1.528660   -0.000016

 Total Charge           Charge          ....    0
 Multiplicity           Mult            ....    1
 Number of Electrons    NEL             ....   72
 Basis Dimension        Dim             .... 1122

ORBITAL ENERGIES
----------------

  NO   OCC          E(Eh)            E(eV)
   0   2.0000     -20.513269      -558.1944
   1   2.0000     -15.590488      -424.2388
   2   2.0000     -15.582481      -424.0209
   3   2.0000     -15.578110      -423.9019
   4   2.0000     -11.350049      -308.8505
   5   2.0000     -11.332966      -308.3857
   6   2.0000     -11.311926      -307.8132
   7   2.0000     -11.308295      -307.7144
   8   2.0000     -11.261598      -306.4437
   9   2.0000     -11.254691      -306.2557
  10   2.0000      -1.382385       -37.6166
  11   2.0000      -1.328216       -36.1426
  12   2.0000      -1.232338       -33.5336
  13   2.0000      -1.207660       -32.8621
  14   2.0000      -1.093976       -29.7686
  15   2.0000      -0.972711       -26.4688
  16   2.0000      -0.912328       -24.8257
  17   2.0000      -0.901781       -24.5387
  18   2.0000      -0.796747       -21.6806
  19   2.0000      -0.762615       -20.7518
  20   2.0000      -0.722490       -19.6600
  21   2.0000      -0.688837       -18.7442
  22   2.0000      -0.638887       -17.3850
  23   2.0000      -0.633820       -17.2471
  24   2.0000      -0.628126       -17.0922
  25   2.0000      -0.608000       -16.5445
  26   2.0000      -0.594325       -16.1724
  27   2.0000      -0.581763       -15.8306
  28   2.0000      -0.546184       -14.8624
  29   2.0000      -0.530405       -14.4331
  30   2.0000      -0.500002       -13.6057
  31   2.0000      -0.437505       -11.9051
  32   2.0000      -0.432837       -11.7781
  33   2.0000      -0.420316       -11.4374
  34   2.0000      -0.390780       -10.6337
  35   2.0000      -0.382599       -10.4111
  36   0.0000       0.017306         0.4709
  37   0.0000       0.025011         0.6806
  38   0.0000       0.030862         0.8398
  39   0.0000       0.039846         1.0843
  40   0.0000       0.041151         1.1198

MULLIKEN ATOMIC CHARGES
-----------------------
   0 C :   -0.200587
   1 C :   -0.428989
   2 C :   -0.264617
   3 C :    0.032329
   4 C :    1.272387
   5 C :   -0.851114
   6 N :   -0.354770
   7 N :   -0.420384
   8 N :   -0.412220
   9 O :   -0.827095
  10 H :    0.414906
  11 H :    0.439772
  12 H :    0.476309
  13 H :    0.258830
  14 H :    0.258937
  15 H :    0.303012
  16 H :    0.303293
Sum of atomic charges:    0.0000000

LOEWDIN ATOMIC CHARGES
----------------------
   0 C :    0.343677
   1 C :    0.100607
   2 C :    0.089588
   3 C :   -0.621623
   4 C :   -0.880527
   5 C :    0.795032
   6 N :    0.594390
   7 N :    0.590612
   8 N :    0.798421
   9 O :    0.694789
  10 H :   -0.327576
  11 H :   -0.333539
  12 H :   -0.334413
  13 H :   -0.284684
  14 H :   -0.284662
  15 H :   -0.348464
  16 H :   -0.591627

  Mayer bond orders larger than 0.100000
B(  0-C ,  1-C ) :   1.2949 B(  0-C ,  2-C ) :   1.2124 B(  0-C ,  3-C ) :   0.1141
B(  0-C , 10-H ) :   0.8896 B(  1-C ,  2-C ) :   0.1191 B(  1-C ,  6-N ) :   1.2965
B(  1-C , 10-H ) :  -0.1090 B(  1-C , 11-H ) :   0.9137 B(  2-C ,  7-N ) :   1.2467
B(  2-C , 12-H ) :   0.8758 B(  3-C ,  4-C ) :   1.2545 B(  3-C ,  6-N ) :   1.2810
B(  3-C ,  7-N ) :   1.2398 B(  3-C ,  8-N ) :  -0.1334 B(  3-C ,  9-O ) :   0.4909
B(  4-C ,  6-N ) :  -0.1439 B(  4-C ,  8-N ) :   1.2623 B(  4-C ,  9-O ) :   0.7981
B(  5-C ,  8-N ) :   0.7807 B(  5-C , 13-H ) :   0.9932 B(  5-C , 14-H ) :   0.9930
B(  5-C , 15-H ) :   0.9338 B(  8-N ,  9-O ) :   0.2035 B(  8-N , 16-H ) :   0.9098

MP2 TOTAL ENERGY:     -471.607600524 Eh
FINAL SINGLE POINT ENERGY      -471.607600524252

DIPOLE MOMENT
-------------
                                X             Y             Z
Electronic contribution:     -4.74790       2.65902       0.00001
Nuclear contribution   :      3.49785      -4.38965      -0.00004
                        -----------------------------------------
Total Dipole Moment    :     -1.25005      -1.73063      -0.00004
                        -----------------------------------------
Magnitude (a.u.)       :      2.13488
Magnitude (Debye)      :      5.42643

Rotational constants in cm-1:     0.117660     0.029281     0.023550
Rotational constants in MHz :  3527.363457   877.824553   706.012769

                             ****ORCA TERMINATED NORMALLY****
TOTAL RUN TIME: 0 days 0 hours 58 minutes 36 seconds 779 msec
