                         Program Version 5.0.4 -  RELEASE  -
|  1> !ri-mp2 aug-cc-pvqz aug-cc-pvqz/c tightscf
|  2> %pal nprocs 16 end
|  3>
|  4> * xyz 0 1
|  5> C      2.232485    0.157278   -0.013976
|  6> C     -0.853827    1.545278   -0.325744
|  7> N      1.037219   -0.489380   -0.546136
|  8> O     -0.349336   -0.241094    1.524633
|  9> O     -1.388574   -1.007152   -0.660628
| 10> S     -0.465777   -0.166383    0.079766
| 11> H      3.102438   -0.419525   -0.323302
| 12> H      2.182272    0.139563    1.071682
| 13> H      2.358894    1.190382   -0.351993
| 14> H     -0.896516    1.650085   -1.406514
| 15> H     -1.825831    1.753159    0.115159
| 16> H     -0.099484    2.195057    0.110415
| 17> H      1.001456   -0.650307   -1.542474
| 18> *
| 19>
| 20>                          ****END OF INPUT****

CARTESIAN COORDINATES (ANGSTROEM)
---------------------------------
  C      2.232485    0.157278   -0.013976
  C     -0.853827    1.545278   -0.325744
  N      1.037219   -0.489380   -0.546136
  O     -0.349336   -0.241094    1.524633
  O     -1.388574   -1.007152   -0.660628
  S     -0.465777   -0.166383    0.079766
  H      3.102438   -0.419525   -0.323302
  H      2.182272    0.139563    1.071682
  H      2.358894    1.190382   -0.351993
  H     -0.896516    1.650085   -1.406514
  H     -1.825831    1.753159    0.115159
  H     -0.099484    2.195057    0.110415
  H      1.001456   -0.650307   -1.542474

 Total Charge           Charge          ....    0
 Multiplicity           Mult            ....    1
 Number of Electrons    NEL             ....   58
 Basis Dimension        Dim             ....  806

ORBITAL ENERGIES
----------------

  NO   OCC          E(Eh)            E(eV)
   0   2.0000     -92.192465     -2508.6845
   1   2.0000     -20.543442      -559.0155
   2   2.0000     -20.543244      -559.0101
   3   2.0000     -15.602542      -424.5668
   4   2.0000     -11.280559      -306.9596
   5   2.0000     -11.276308      -306.8439
   6   2.0000      -9.157596      -249.1909
   7   2.0000      -6.843587      -186.2235
   8   2.0000      -6.842696      -186.1992
   9   2.0000      -6.842344      -186.1896
  10   2.0000      -1.455580       -39.6084
  11   2.0000      -1.338385       -36.4193
  12   2.0000      -1.237027       -33.6612
  13   2.0000      -1.037781       -28.2394
  14   2.0000      -0.961549       -26.1651
  15   2.0000      -0.830226       -22.5916
  16   2.0000      -0.727336       -19.7918
  17   2.0000      -0.679758       -18.4971
  18   2.0000      -0.677353       -18.4317
  19   2.0000      -0.643005       -17.4970
  20   2.0000      -0.619225       -16.8500
  21   2.0000      -0.606411       -16.5013
  22   2.0000      -0.600130       -16.3304
  23   2.0000      -0.568825       -15.4785
  24   2.0000      -0.508739       -13.8435
  25   2.0000      -0.497248       -13.5308
  26   2.0000      -0.473049       -12.8723
  27   2.0000      -0.463284       -12.6066
  28   2.0000      -0.432680       -11.7738
  29   0.0000       0.016775         0.4565
  30   0.0000       0.028597         0.7782
  31   0.0000       0.032979         0.8974
  32   0.0000       0.038797         1.0557
  33   0.0000       0.049751         1.3538

MULLIKEN ATOMIC CHARGES
-----------------------
   0 C :   -0.880960
   1 C :   -1.016093
   2 N :   -0.536429
   3 O :   -1.220737
   4 O :   -1.282081
   5 S :    2.655192
   6 H :    0.399429
   7 H :    0.315070
   8 H :    0.286994
   9 H :    0.321119
  10 H :    0.398411
  11 H :    0.325592
  12 H :    0.234493
Sum of atomic charges:    0.0000000

LOEWDIN ATOMIC CHARGES
----------------------
   0 C :    0.730345
   1 C :    0.827310
   2 N :    0.678516
   3 O :    0.314761
   4 O :    0.305300
   5 S :   -0.361996
   6 H :   -0.297724
   7 H :   -0.334440
   8 H :   -0.291368
   9 H :   -0.330754
  10 H :   -0.333729
  11 H :   -0.336158
  12 H :   -0.570063

  Mayer bond orders larger than 0.100000
B(  0-C ,  2-N ) :   0.9336 B(  0-C ,  6-H ) :   0.8535 B(  0-C ,  7-H ) :   0.9166
B(  0-C ,  8-H ) :   0.9165 B(  1-C ,  5-S ) :   0.9302 B(  1-C ,  9-H ) :   0.8832
B(  1-C , 10-H ) :   0.8424 B(  1-C , 11-H ) :   0.8900 B(  2-N ,  5-S ) :   0.7515
B(  2-N , 12-H ) :   0.9886 B(  3-O ,  5-S ) :   1.0160 B(  4-O ,  5-S ) :   0.9615

MP2 TOTAL ENERGY:     -682.965973878 Eh
FINAL SINGLE POINT ENERGY      -682.965973878428

DIPOLE MOMENT
-------------
                                X             Y             Z
Electronic contribution:     -4.55699      -4.26587       1.26257
Nuclear contribution   :      5.80485       5.82951      -2.31451
                        -----------------------------------------
Total Dipole Moment    :      1.24786       1.56363      -1.05194
                        -----------------------------------------
Magnitude (a.u.)       :      2.26024
Magnitude (Debye)      :      5.74508

Rotational constants in cm-1:     0.142529     0.082638     0.079731
Rotational constants in MHz :  4272.921255  2477.435554  2390.267053

                             ****ORCA TERMINATED NORMALLY****
TOTAL RUN TIME: 0 days 0 hours 15 minutes 18 seconds 523 msec
