                         Program Version 5.0.4 -  RELEASE  -
|  1> !ri-mp2 aug-cc-pvqz aug-cc-pvqz/c tightscf
|  2> %pal nprocs 16 end
|  3>
|  4> * xyz 0 1
|  5> C     -0.252099   -1.864578    0.000000
|  6> C      0.698505   -0.690619    0.000000
|  7> N      0.000000    0.657769    0.000000
|  8> O      0.728213    1.635752    0.000000
|  9> O     -1.217324    0.683616    0.000000
| 10> H     -0.889475   -1.861633    0.881474
| 11> H     -0.889475   -1.861633   -0.881474
| 12> H      0.333046   -2.784908    0.000000
| 13> H      1.340180   -0.659983   -0.878434
| 14> H      1.340180   -0.659983    0.878434
| 15> *
| 16>
| 17>                          ****END OF INPUT****

CARTESIAN COORDINATES (ANGSTROEM)
---------------------------------
  C     -0.252099   -1.864578    0.000000
  C      0.698505   -0.690619    0.000000
  N      0.000000    0.657769    0.000000
  O      0.728213    1.635752    0.000000
  O     -1.217324    0.683616    0.000000
  H     -0.889475   -1.861633    0.881474
  H     -0.889475   -1.861633   -0.881474
  H      0.333046   -2.784908    0.000000
  H      1.340180   -0.659983   -0.878434
  H      1.340180   -0.659983    0.878434

 Total Charge           Charge          ....    0
 Multiplicity           Mult            ....    1
 Number of Electrons    NEL             ....   40
 Basis Dimension        Dim             ....  630

ORBITAL ENERGIES
----------------

  NO   OCC          E(Eh)            E(eV)
   0   2.0000     -20.604099      -560.6661
   1   2.0000     -20.598153      -560.5042
   2   2.0000     -15.844892      -431.1614
   3   2.0000     -11.312443      -307.8272
   4   2.0000     -11.248170      -306.0783
   5   2.0000      -1.606193       -43.7067
   6   2.0000      -1.401564       -38.1385
   7   2.0000      -1.119506       -30.4633
   8   2.0000      -0.966692       -26.3050
   9   2.0000      -0.839201       -22.8358
  10   2.0000      -0.754070       -20.5193
  11   2.0000      -0.738074       -20.0840
  12   2.0000      -0.726484       -19.7686
  13   2.0000      -0.634437       -17.2639
  14   2.0000      -0.595955       -16.2168
  15   2.0000      -0.565125       -15.3778
  16   2.0000      -0.538446       -14.6519
  17   2.0000      -0.495036       -13.4706
  18   2.0000      -0.483763       -13.1639
  19   2.0000      -0.454207       -12.3596
  20   0.0000       0.019840         0.5399
  21   0.0000       0.032135         0.8744
  22   0.0000       0.033898         0.9224
  23   0.0000       0.041402         1.1266
  24   0.0000       0.055972         1.5231

MULLIKEN ATOMIC CHARGES
-----------------------
   0 C :   -0.771883
   1 C :   -0.380810
   2 N :    0.868557
   3 O :   -0.598221
   4 O :   -0.566350
   5 H :    0.258480
   6 H :    0.258480
   7 H :    0.296740
   8 H :    0.317503
   9 H :    0.317503
Sum of atomic charges:    0.0000000

LOEWDIN ATOMIC CHARGES
----------------------
   0 C :    0.899430
   1 C :    0.335112
   2 N :   -0.835200
   3 O :    0.529006
   4 O :    0.540771
   5 H :   -0.293921
   6 H :   -0.293921
   7 H :   -0.284022
   8 H :   -0.298627
   9 H :   -0.298627

  Mayer bond orders larger than 0.100000
B(  0-C ,  1-C ) :   1.0283 B(  0-C ,  5-H ) :   0.9295 B(  0-C ,  6-H ) :   0.9295
B(  0-C ,  7-H ) :   0.9160 B(  1-C ,  2-N ) :   0.7882 B(  1-C ,  3-O ) :   0.1015
B(  1-C ,  8-H ) :   0.8490 B(  1-C ,  9-H ) :   0.8490 B(  2-N ,  3-O ) :   1.2682
B(  2-N ,  4-O ) :   1.3103 B(  3-O ,  4-O ) :   0.1245

MP2 TOTAL ENERGY:     -283.951187300 Eh
FINAL SINGLE POINT ENERGY      -283.951187299559

DIPOLE MOMENT
-------------
                                X             Y             Z
Electronic contribution:     -0.61380       6.21161       0.00000
Nuclear contribution   :      1.22766      -7.79352       0.00000
                        -----------------------------------------
Total Dipole Moment    :      0.61386      -1.58191       0.00000
                        -----------------------------------------
Magnitude (a.u.)       :      1.69684
Magnitude (Debye)      :      4.31302

Rotational constants in cm-1:     0.360892     0.137755     0.103522
Rotational constants in MHz : 10819.259661  4129.790579  3103.513304

                             ****ORCA TERMINATED NORMALLY****
TOTAL RUN TIME: 0 days 0 hours 8 minutes 23 seconds 807 msec
