                         Program Version 5.0.4 -  RELEASE  -
|  1> !ri-mp2 aug-cc-pvqz aug-cc-pvqz/c tightscf
|  2> %pal nprocs 16 end
|  3>
|  4> * xyz 0 1
|  5> C     -2.061141    1.167898    0.047427
|  6> C      2.042644    1.195619   -0.057100
|  7> N     -0.984023    0.568342   -0.743304
|  8> N      1.205917    0.297792    0.735190
|  9> O     -0.706460   -1.214268    1.093487
| 10> O      0.585495   -1.313495   -1.089732
| 11> S      0.003297   -0.568296    0.006116
| 12> H     -2.593209    1.870367   -0.591540
| 13> H     -1.635479    1.730384    0.877392
| 14> H     -2.760962    0.433271    0.448081
| 15> H      1.506342    2.078498   -0.412353
| 16> H      2.430424    0.647758   -0.912276
| 17> H      2.883696    1.505789    0.560159
| 18> H     -1.279673    0.182618   -1.630608
| 19> H      0.921539    0.622114    1.648067
| 20> *
| 21>
| 22>                          ****END OF INPUT****

CARTESIAN COORDINATES (ANGSTROEM)
---------------------------------
  C     -2.061141    1.167898    0.047427
  C      2.042644    1.195619   -0.057100
  N     -0.984023    0.568342   -0.743304
  N      1.205917    0.297792    0.735190
  O     -0.706460   -1.214268    1.093487
  O      0.585495   -1.313495   -1.089732
  S      0.003297   -0.568296    0.006116
  H     -2.593209    1.870367   -0.591540
  H     -1.635479    1.730384    0.877392
  H     -2.760962    0.433271    0.448081
  H      1.506342    2.078498   -0.412353
  H      2.430424    0.647758   -0.912276
  H      2.883696    1.505789    0.560159
  H     -1.279673    0.182618   -1.630608
  H      0.921539    0.622114    1.648067

 Total Charge           Charge          ....    0
 Multiplicity           Mult            ....    1
 Number of Electrons    NEL             ....   66
 Basis Dimension        Dim             ....  932

ORBITAL ENERGIES
----------------

  NO   OCC          E(Eh)            E(eV)
   0   2.0000     -92.209061     -2509.1361
   1   2.0000     -20.547533      -559.1268
   2   2.0000     -20.546506      -559.0989
   3   2.0000     -15.600991      -424.5245
   4   2.0000     -15.600546      -424.5124
   5   2.0000     -11.276957      -306.8616
   6   2.0000     -11.273765      -306.7748
   7   2.0000      -9.171039      -249.5566
   8   2.0000      -6.857096      -186.5911
   9   2.0000      -6.856887      -186.5854
  10   2.0000      -6.856075      -186.5633
  11   2.0000      -1.468345       -39.9557
  12   2.0000      -1.344646       -36.5897
  13   2.0000      -1.244130       -33.8545
  14   2.0000      -1.223496       -33.2930
  15   2.0000      -0.973312       -26.4852
  16   2.0000      -0.948103       -25.7992
  17   2.0000      -0.838012       -22.8035
  18   2.0000      -0.742988       -20.2177
  19   2.0000      -0.707862       -19.2619
  20   2.0000      -0.683474       -18.5983
  21   2.0000      -0.654316       -17.8048
  22   2.0000      -0.638299       -17.3690
  23   2.0000      -0.616017       -16.7627
  24   2.0000      -0.604192       -16.4409
  25   2.0000      -0.573621       -15.6090
  26   2.0000      -0.567157       -15.4331
  27   2.0000      -0.518378       -14.1058
  28   2.0000      -0.500525       -13.6200
  29   2.0000      -0.496294       -13.5049
  30   2.0000      -0.477153       -12.9840
  31   2.0000      -0.446067       -12.1381
  32   2.0000      -0.422939       -11.5088
  33   0.0000       0.018716         0.5093
  34   0.0000       0.027310         0.7432
  35   0.0000       0.033472         0.9108
  36   0.0000       0.038706         1.0532
  37   0.0000       0.048351         1.3157

MULLIKEN ATOMIC CHARGES
-----------------------
   0 C :   -0.865325
   1 C :   -0.901085
   2 N :   -0.552826
   3 N :   -0.506689
   4 O :   -1.281875
   5 O :   -1.271397
   6 S :    2.846992
   7 H :    0.388500
   8 H :    0.308532
   9 H :    0.320501
  10 H :    0.304279
  11 H :    0.319481
  12 H :    0.399949
  13 H :    0.250608
  14 H :    0.240355
Sum of atomic charges:   -0.0000000

LOEWDIN ATOMIC CHARGES
----------------------
   0 C :    0.720281
   1 C :    0.735099
   2 N :    0.702906
   3 N :    0.678090
   4 O :    0.328703
   5 O :    0.331523
   6 S :   -0.495162
   7 H :   -0.301009
   8 H :   -0.310430
   9 H :   -0.303792
  10 H :   -0.293440
  11 H :   -0.323053
  12 H :   -0.298642
  13 H :   -0.594412
  14 H :   -0.576661

  Mayer bond orders larger than 0.100000
B(  0-C ,  2-N ) :   0.9474 B(  0-C ,  7-H ) :   0.8674 B(  0-C ,  8-H ) :   0.9286
B(  0-C ,  9-H ) :   0.8936 B(  1-C ,  3-N ) :   0.9198 B(  1-C , 10-H ) :   0.9024
B(  1-C , 11-H ) :   0.9268 B(  1-C , 12-H ) :   0.8640 B(  2-N ,  6-S ) :   0.8749
B(  2-N , 13-H ) :   0.9596 B(  3-N ,  5-O ) :  -0.1030 B(  3-N ,  6-S ) :   0.8372
B(  3-N , 14-H ) :   0.9696 B(  4-O ,  6-S ) :   0.9365 B(  5-O ,  6-S ) :   1.0315

MP2 TOTAL ENERGY:     -738.243952977 Eh
FINAL SINGLE POINT ENERGY      -738.243952977299

DIPOLE MOMENT
-------------
                                X             Y             Z
Electronic contribution:      0.26724      -7.02560       0.03444
Nuclear contribution   :     -0.52715       9.03861      -0.01323
                        -----------------------------------------
Total Dipole Moment    :     -0.25992       2.01301       0.02121
                        -----------------------------------------
Magnitude (a.u.)       :      2.02983
Magnitude (Debye)      :      5.15942

Rotational constants in cm-1:     0.095782     0.068414     0.056326
Rotational constants in MHz :  2871.458515  2051.011251  1688.615707

                             ****ORCA TERMINATED NORMALLY****
TOTAL RUN TIME: 0 days 0 hours 25 minutes 48 seconds 491 msec
