                         Program Version 5.0.4 -  RELEASE  -
|  1> !ri-mp2 aug-cc-pvqz aug-cc-pvqz/c tightscf
|  2> %pal nprocs 16 end
|  3>
|  4> * xyz 0 1
|  5> N      0.000000    0.712570   -0.000004
|  6> C      1.187127    0.077814   -0.000007
|  7> C     -1.187127    0.077815   -0.000007
|  8> C      2.251031   -0.475403    0.000008
|  9> C     -2.251031   -0.475403    0.000009
| 10> H      0.000000    1.720650    0.000024
| 11> H      3.189310   -0.968793   -0.000008
| 12> H     -3.189310   -0.968793   -0.000007
| 13> *
| 14>
| 15>                          ****END OF INPUT****

CARTESIAN COORDINATES (ANGSTROEM)
---------------------------------
  N      0.000000    0.712570   -0.000004
  C      1.187127    0.077814   -0.000007
  C     -1.187127    0.077815   -0.000007
  C      2.251031   -0.475403    0.000008
  C     -2.251031   -0.475403    0.000009
  H      0.000000    1.720650    0.000024
  H      3.189310   -0.968793   -0.000008
  H     -3.189310   -0.968793   -0.000007

 Total Charge           Charge          ....    0
 Multiplicity           Mult            ....    1
 Number of Electrons    NEL             ....   34
 Basis Dimension        Dim             ....  538

ORBITAL ENERGIES
----------------

  NO   OCC          E(Eh)            E(eV)
   0   2.0000     -15.639929      -425.5841
   1   2.0000     -11.279462      -306.9298
   2   2.0000     -11.279446      -306.9293
   3   2.0000     -11.229165      -305.5611
   4   2.0000     -11.229164      -305.5611
   5   2.0000      -1.296822       -35.2883
   6   2.0000      -1.044793       -28.4303
   7   2.0000      -1.006398       -27.3855
   8   2.0000      -0.829205       -22.5638
   9   2.0000      -0.783917       -21.3315
  10   2.0000      -0.707376       -19.2487
  11   2.0000      -0.700121       -19.0513
  12   2.0000      -0.593453       -16.1487
  13   2.0000      -0.421199       -11.4614
  14   2.0000      -0.418812       -11.3965
  15   2.0000      -0.406797       -11.0695
  16   2.0000      -0.334687        -9.1073
  17   0.0000       0.022729         0.6185
  18   0.0000       0.028433         0.7737
  19   0.0000       0.033519         0.9121
  20   0.0000       0.068243         1.8570
  21   0.0000       0.070233         1.9111

MULLIKEN ATOMIC CHARGES
-----------------------
   0 N :   -0.609969
   1 C :    0.265921
   2 C :    0.265929
   3 C :   -0.628427
   4 C :   -0.628431
   5 H :    0.355248
   6 H :    0.489864
   7 H :    0.489865
Sum of atomic charges:    0.0000000

LOEWDIN ATOMIC CHARGES
----------------------
   0 N :    0.633793
   1 C :   -0.117706
   2 C :   -0.117706
   3 C :    0.543033
   4 C :    0.543033
   5 H :   -0.527206
   6 H :   -0.478620
   7 H :   -0.478620

  Mayer bond orders larger than 0.100000
B(  0-N ,  1-C ) :   1.0215 B(  0-N ,  2-C ) :   1.0215 B(  0-N ,  3-C ) :  -0.1270
B(  0-N ,  4-C ) :  -0.1270 B(  0-N ,  5-H ) :   0.8839 B(  1-C ,  2-C ) :  -0.1102
B(  1-C ,  3-C ) :   2.7814 B(  2-C ,  4-C ) :   2.7814 B(  3-C ,  6-H ) :   0.8191
B(  4-C ,  7-H ) :   0.8191

MP2 TOTAL ENERGY:     -208.452618803 Eh
FINAL SINGLE POINT ENERGY      -208.452618803103

DIPOLE MOMENT
-------------
                                X             Y             Z
Electronic contribution:      0.00000       0.61550      -0.00001
Nuclear contribution   :      0.00000      -0.20876       0.00001
                        -----------------------------------------
Total Dipole Moment    :      0.00000       0.40674      -0.00000
                        -----------------------------------------
Magnitude (a.u.)       :      0.40674
Magnitude (Debye)      :      1.03386

Rotational constants in cm-1:     0.959864     0.095737     0.087054
Rotational constants in MHz : 28776.007155  2870.129096  2609.824301

                             ****ORCA TERMINATED NORMALLY****
TOTAL RUN TIME: 0 days 0 hours 4 minutes 30 seconds 788 msec
