                         Program Version 5.0.4 -  RELEASE  -
|  1> !ri-mp2 aug-cc-pvqz aug-cc-pvqz/c tightscf
|  2> %pal nprocs 16 end
|  3>
|  4> * xyz 0 1
|  5> C     0.000000     0.000000    1.385266
|  6> C     0.000000     1.130265    0.339297
|  7> C     0.000000    -1.130265    0.339297
|  8> C     1.252143     0.780951   -0.492266
|  9> C    -1.252143     0.780951   -0.492266
| 10> C    -1.252143    -0.780951   -0.492266
| 11> C     1.252143    -0.780951   -0.492266
| 12> H    -0.887352     0.000000    2.020515
| 13> H     0.887352     0.000000    2.020515
| 14> H     0.000000     2.146851    0.729171
| 15> H     0.000000    -2.146851    0.729171
| 16> H     2.153759     1.172887   -0.019845
| 17> H    -2.153759    -1.172887   -0.019845
| 18> H     2.153759    -1.172887   -0.019845
| 19> H    -2.153759     1.172887   -0.019845
| 20> H     1.204295    -1.201509   -1.497189
| 21> H    -1.204295     1.201509   -1.497189
| 22> H     1.204295     1.201509   -1.497189
| 23> H    -1.204295    -1.201509   -1.497189
| 24> *
| 25>
| 26>                          ****END OF INPUT****

CARTESIAN COORDINATES (ANGSTROEM)
---------------------------------
  C      0.000000    0.000000    1.385266
  C      0.000000    1.130265    0.339297
  C      0.000000   -1.130265    0.339297
  C      1.252143    0.780951   -0.492266
  C     -1.252143    0.780951   -0.492266
  C     -1.252143   -0.780951   -0.492266
  C      1.252143   -0.780951   -0.492266
  H     -0.887352    0.000000    2.020515
  H      0.887352    0.000000    2.020515
  H      0.000000    2.146851    0.729171
  H      0.000000   -2.146851    0.729171
  H      2.153759    1.172887   -0.019845
  H     -2.153759   -1.172887   -0.019845
  H      2.153759   -1.172887   -0.019845
  H     -2.153759    1.172887   -0.019845
  H      1.204295   -1.201509   -1.497189
  H     -1.204295    1.201509   -1.497189
  H      1.204295    1.201509   -1.497189
  H     -1.204295   -1.201509   -1.497189

 Total Charge           Charge          ....    0
 Multiplicity           Mult            ....    1
 Number of Electrons    NEL             ....   54
 Basis Dimension        Dim             .... 1112

ORBITAL ENERGIES
----------------

  NO   OCC          E(Eh)            E(eV)
   0   2.0000     -11.215613      -305.1923
   1   2.0000     -11.215604      -305.1921
   2   2.0000     -11.210256      -305.0466
   3   2.0000     -11.210214      -305.0454
   4   2.0000     -11.209717      -305.0319
   5   2.0000     -11.209679      -305.0309
   6   2.0000     -11.207995      -304.9851
   7   2.0000      -1.158290       -31.5187
   8   2.0000      -0.994506       -27.0619
   9   2.0000      -0.975493       -26.5445
  10   2.0000      -0.938036       -25.5253
  11   2.0000      -0.820214       -22.3192
  12   2.0000      -0.753278       -20.4977
  13   2.0000      -0.726299       -19.7636
  14   2.0000      -0.676096       -18.3975
  15   2.0000      -0.634321       -17.2608
  16   2.0000      -0.625671       -17.0254
  17   2.0000      -0.545656       -14.8480
  18   2.0000      -0.541763       -14.7421
  19   2.0000      -0.502006       -13.6603
  20   2.0000      -0.492311       -13.3965
  21   2.0000      -0.481866       -13.1123
  22   2.0000      -0.464232       -12.6324
  23   2.0000      -0.461499       -12.5580
  24   2.0000      -0.442075       -12.0295
  25   2.0000      -0.428581       -11.6623
  26   2.0000      -0.416170       -11.3246
  27   0.0000       0.025825         0.7027
  28   0.0000       0.031007         0.8438
  29   0.0000       0.033147         0.9020
  30   0.0000       0.033320         0.9067
  31   0.0000       0.044830         1.2199

MULLIKEN ATOMIC CHARGES
-----------------------
   0 C :   -0.724217
   1 C :   -0.031256
   2 C :   -0.031302
   3 C :   -0.636153
   4 C :   -0.636155
   5 C :   -0.636122
   6 C :   -0.636117
   7 H :    0.254292
   8 H :    0.254290
   9 H :    0.438204
  10 H :    0.438194
  11 H :    0.225812
  12 H :    0.225795
  13 H :    0.225790
  14 H :    0.225813
  15 H :    0.260785
  16 H :    0.260780
  17 H :    0.260782
  18 H :    0.260784
Sum of atomic charges:    0.0000000

LOEWDIN ATOMIC CHARGES
----------------------
   0 C :    0.529588
   1 C :    0.143045
   2 C :    0.143045
   3 C :    0.554611
   4 C :    0.554611
   5 C :    0.554611
   6 C :    0.554611
   7 H :   -0.244229
   8 H :   -0.244229
   9 H :   -0.234783
  10 H :   -0.234783
  11 H :   -0.257721
  12 H :   -0.257721
  13 H :   -0.257721
  14 H :   -0.257721
  15 H :   -0.261304
  16 H :   -0.261304
  17 H :   -0.261304
  18 H :   -0.261304

  Mayer bond orders larger than 0.100000
B(  0-C ,  1-C ) :   0.9321 B(  0-C ,  2-C ) :   0.9321 B(  0-C ,  7-H ) :   0.9249
B(  0-C ,  8-H ) :   0.9249 B(  1-C ,  3-C ) :   0.8617 B(  1-C ,  4-C ) :   0.8617
B(  1-C ,  9-H ) :   0.7315 B(  2-C ,  5-C ) :   0.8617 B(  2-C ,  6-C ) :   0.8617
B(  2-C , 10-H ) :   0.7316 B(  3-C ,  6-C ) :   0.9649 B(  3-C , 11-H ) :   1.0075
B(  3-C , 17-H ) :   0.9512 B(  4-C ,  5-C ) :   0.9649 B(  4-C , 14-H ) :   1.0075
B(  4-C , 16-H ) :   0.9512 B(  5-C , 12-H ) :   1.0075 B(  5-C , 18-H ) :   0.9512
B(  6-C , 13-H ) :   1.0075 B(  6-C , 15-H ) :   0.9511

MP2 TOTAL ENERGY:     -273.444335724 Eh
FINAL SINGLE POINT ENERGY      -273.444335724265

DIPOLE MOMENT
-------------
                                X             Y             Z
Electronic contribution:      0.00000      -0.00000       0.63064
Nuclear contribution   :      0.00000       0.00000      -0.59977
                        -----------------------------------------
Total Dipole Moment    :      0.00000      -0.00000       0.03087
                        -----------------------------------------
Magnitude (a.u.)       :      0.03087
Magnitude (Debye)      :      0.07846

Rotational constants in cm-1:     0.123551     0.107196     0.092567
Rotational constants in MHz :  3703.952102  3213.665698  2775.086773

                             ****ORCA TERMINATED NORMALLY****
TOTAL RUN TIME: 0 days 1 hours 17 minutes 10 seconds 52 msec
