                         Program Version 5.0.4 -  RELEASE  -
|  1> !ri-mp2 aug-cc-pvqz aug-cc-pvqz/c tightscf
|  2> %pal nprocs 16 end
|  3>
|  4> * xyz 0 1
|  5> C      0.000229   -1.324841    0.000000
|  6> N     -0.009436    0.173920    0.000000
|  7> O      0.000229    0.730465    1.084390
|  8> O      0.000229    0.730465   -1.084390
|  9> H     -0.491970   -1.664331   -0.903741
| 10> H     -0.491970   -1.664331    0.903741
| 11> H      1.044943   -1.627166    0.000000
| 12> *
| 13>
| 14>                          ****END OF INPUT****

CARTESIAN COORDINATES (ANGSTROEM)
---------------------------------
  C      0.000229   -1.324841    0.000000
  N     -0.009436    0.173920    0.000000
  O      0.000229    0.730465    1.084390
  O      0.000229    0.730465   -1.084390
  H     -0.491970   -1.664331   -0.903741
  H     -0.491970   -1.664331    0.903741
  H      1.044943   -1.627166    0.000000

 Total Charge           Charge          ....    0
 Multiplicity           Mult            ....    1
 Number of Electrons    NEL             ....   32
 Basis Dimension        Dim             ....  458

ORBITAL ENERGIES
----------------

  NO   OCC          E(Eh)            E(eV)
   0   2.0000     -20.606520      -560.7319
   1   2.0000     -20.606468      -560.7305
   2   2.0000     -15.852800      -431.3766
   3   2.0000     -11.312010      -307.8155
   4   2.0000      -1.611737       -43.8576
   5   2.0000      -1.406732       -38.2791
   6   2.0000      -1.100925       -29.9577
   7   2.0000      -0.871586       -23.7171
   8   2.0000      -0.758136       -20.6299
   9   2.0000      -0.739009       -20.1094
  10   2.0000      -0.738292       -20.0899
  11   2.0000      -0.629844       -17.1389
  12   2.0000      -0.604186       -16.4407
  13   2.0000      -0.498947       -13.5770
  14   2.0000      -0.495882       -13.4936
  15   2.0000      -0.459263       -12.4972
  16   0.0000       0.019277         0.5246
  17   0.0000       0.035316         0.9610
  18   0.0000       0.039067         1.0631
  19   0.0000       0.061334         1.6690
  20   0.0000       0.083230         2.2648

MULLIKEN ATOMIC CHARGES
-----------------------
   0 C :   -0.736020
   1 N :    0.804358
   2 O :   -0.539557
   3 O :   -0.539557
   4 H :    0.349435
   5 H :    0.349435
   6 H :    0.311907
Sum of atomic charges:   -0.0000000

LOEWDIN ATOMIC CHARGES
----------------------
   0 C :    0.751567
   1 N :   -0.863770
   2 O :    0.522077
   3 O :    0.522077
   4 H :   -0.319138
   5 H :   -0.319138
   6 H :   -0.293675

  Mayer bond orders larger than 0.100000
B(  0-C ,  1-N ) :   0.8086 B(  0-C ,  4-H ) :   0.8768 B(  0-C ,  5-H ) :   0.8768
B(  0-C ,  6-H ) :   0.8918 B(  1-N ,  2-O ) :   1.3874 B(  1-N ,  3-O ) :   1.3874
B(  2-O ,  3-O ) :   0.1603

MP2 TOTAL ENERGY:     -244.711671891 Eh
FINAL SINGLE POINT ENERGY      -244.711671890655

DIPOLE MOMENT
-------------
                                X             Y             Z
Electronic contribution:     -0.05556       3.24049       0.00000
Nuclear contribution   :      0.06002      -4.85569       0.00000
                        -----------------------------------------
Total Dipole Moment    :      0.00446      -1.61521       0.00000
                        -----------------------------------------
Magnitude (a.u.)       :      1.61521
Magnitude (Debye)      :      4.10555

Rotational constants in cm-1:     0.412544     0.350994     0.196678
Rotational constants in MHz : 12367.746883 10522.541801  5896.271476

                             ****ORCA TERMINATED NORMALLY****
TOTAL RUN TIME: 0 days 0 hours 3 minutes 35 seconds 36 msec
