                         Program Version 5.0.4 -  RELEASE  -
|  1> !ri-mp2 aug-cc-pvqz aug-cc-pvqz/c tightscf
|  2> %pal nprocs 16 end
|  3> %maxcore 3800
|  4>
|  5> * xyz 0 1
|  6> C     -2.810255    0.874015        0.000000
|  7> C     -2.014183    2.040128        0.000000
|  8> C     -2.216594   -0.361309        0.000000
|  9> C     -0.646606    1.950634        0.000000
| 10> C     -0.160779   -1.748178        0.000000
| 11> C      1.205234   -1.842363        0.000000
| 12> C      1.407649    0.566607        0.000000
| 13> C     -0.807166   -0.489734        0.000000
| 14> C      0.000000    0.689037        0.000000
| 15> C      1.997415   -0.671969        0.000000
| 16> O      3.364255   -0.741235        0.000000
| 17> H     -3.888286    0.960491        0.000000
| 18> H     -2.491116    3.011227        0.000000
| 19> H     -2.821658   -1.259354        0.000000
| 20> H     -0.040456    2.847562        0.000000
| 21> H     -0.762742   -2.647866        0.000000
| 22> H      1.687194   -2.813217        0.000000
| 23> H      2.030075    1.451183        0.000000
| 24> H      3.644668   -1.661357        0.000000
| 25> *
| 26>
| 27>                          ****END OF INPUT****

CARTESIAN COORDINATES (ANGSTROEM)
---------------------------------
  C     -2.810255    0.874015    0.000000
  C     -2.014183    2.040128    0.000000
  C     -2.216594   -0.361309    0.000000
  C     -0.646606    1.950634    0.000000
  C     -0.160779   -1.748178    0.000000
  C      1.205234   -1.842363    0.000000
  C      1.407649    0.566607    0.000000
  C     -0.807166   -0.489734    0.000000
  C      0.000000    0.689037    0.000000
  C      1.997415   -0.671969    0.000000
  O      3.364255   -0.741235    0.000000
  H     -3.888286    0.960491    0.000000
  H     -2.491116    3.011227    0.000000
  H     -2.821658   -1.259354    0.000000
  H     -0.040456    2.847562    0.000000
  H     -0.762742   -2.647866    0.000000
  H      1.687194   -2.813217    0.000000
  H      2.030075    1.451183    0.000000
  H      3.644668   -1.661357    0.000000

 Total Charge           Charge          ....    0
 Multiplicity           Mult            ....    1
 Number of Electrons    NEL             ....   76
 Basis Dimension        Dim             .... 1248

ORBITAL ENERGIES
----------------

  NO   OCC          E(Eh)            E(eV)
   0   2.0000     -20.590276      -560.2899
   1   2.0000     -11.304002      -307.5975
   2   2.0000     -11.247305      -306.0547
   3   2.0000     -11.247102      -306.0492
   4   2.0000     -11.240164      -305.8604
   5   2.0000     -11.239141      -305.8326
   6   2.0000     -11.236943      -305.7728
   7   2.0000     -11.235630      -305.7370
   8   2.0000     -11.231393      -305.6217
   9   2.0000     -11.230146      -305.5878
  10   2.0000     -11.224248      -305.4273
  11   2.0000      -1.406570       -38.2747
  12   2.0000      -1.177649       -32.0455
  13   2.0000      -1.109266       -30.1847
  14   2.0000      -1.053088       -28.6560
  15   2.0000      -1.007086       -27.4042
  16   2.0000      -0.984309       -26.7844
  17   2.0000      -0.861597       -23.4452
  18   2.0000      -0.844291       -22.9743
  19   2.0000      -0.816618       -22.2213
  20   2.0000      -0.749657       -20.3992
  21   2.0000      -0.707119       -19.2417
  22   2.0000      -0.689371       -18.7587
  23   2.0000      -0.657828       -17.9004
  24   2.0000      -0.627487       -17.0748
  25   2.0000      -0.601632       -16.3712
  26   2.0000      -0.596763       -16.2388
  27   2.0000      -0.594017       -16.1640
  28   2.0000      -0.581659       -15.8278
  29   2.0000      -0.567659       -15.4468
  30   2.0000      -0.526566       -14.3286
  31   2.0000      -0.525509       -14.2998
  32   2.0000      -0.501036       -13.6339
  33   2.0000      -0.479524       -13.0485
  34   2.0000      -0.438448       -11.9308
  35   2.0000      -0.386517       -10.5177
  36   2.0000      -0.315870        -8.5953
  37   2.0000      -0.284802        -7.7499
  38   0.0000       0.021655         0.5893
  39   0.0000       0.026427         0.7191
  40   0.0000       0.028832         0.7846
  41   0.0000       0.037893         1.0311
  42   0.0000       0.039823         1.0836

MULLIKEN ATOMIC CHARGES
-----------------------
   0 C :   -0.441962
   1 C :   -0.371311
   2 C :   -0.467164
   3 C :   -0.610742
   4 C :   -0.467898
   5 C :   -0.602376
   6 C :   -0.780030
   7 C :    0.761546
   8 C :    0.812917
   9 C :    1.172350
  10 O :   -0.855868
  11 H :    0.262939
  12 H :    0.256537
  13 H :    0.194803
  14 H :    0.205432
  15 H :    0.158350
  16 H :    0.181566
  17 H :    0.218600
  18 H :    0.372311
Sum of atomic charges:    0.0000000

LOEWDIN ATOMIC CHARGES
----------------------
   0 C :    0.349446
   1 C :    0.348954
   2 C :    0.349747
   3 C :    0.355900
   4 C :    0.357457
   5 C :    0.351410
   6 C :    0.336810
   7 C :   -0.112847
   8 C :   -0.118687
   9 C :   -0.418112
  10 O :    1.273420
  11 H :   -0.327892
  12 H :   -0.323801
  13 H :   -0.321190
  14 H :   -0.322898
  15 H :   -0.316960
  16 H :   -0.325000
  17 H :   -0.326739
  18 H :   -0.809018

  Mayer bond orders larger than 0.100000
B(  0-C ,  1-C ) :   1.1231 B(  0-C ,  2-C ) :   1.3704 B(  0-C ,  7-C ) :  -0.2973
B(  0-C , 11-H ) :   1.1247 B(  1-C ,  3-C ) :   1.3680 B(  1-C ,  8-C ) :  -0.3555
B(  1-C , 12-H ) :   1.1424 B(  2-C ,  3-C ) :   0.1626 B(  2-C ,  4-C ) :  -0.1867
B(  2-C ,  7-C ) :   0.6028 B(  2-C ,  8-C ) :  -0.2649 B(  2-C , 11-H ) :  -0.1679
B(  2-C , 13-H ) :   1.1238 B(  3-C ,  6-C ) :  -0.3188 B(  3-C ,  7-C ) :  -0.1832
B(  3-C ,  8-C ) :   0.6423 B(  3-C , 12-H ) :  -0.1677 B(  3-C , 14-H ) :   1.1108
B(  4-C ,  5-C ) :   1.2198 B(  4-C ,  6-C ) :   0.1511 B(  4-C ,  7-C ) :   0.7977
B(  4-C ,  8-C ) :  -0.2484 B(  4-C ,  9-C ) :  -0.1246 B(  4-C , 15-H ) :   1.1395
B(  4-C , 16-H ) :  -0.1916 B(  5-C ,  7-C ) :  -0.3119 B(  5-C ,  9-C ) :   1.2242
B(  5-C , 10-O ) :   0.2621 B(  5-C , 15-H ) :  -0.1764 B(  5-C , 16-H ) :   1.1299
B(  6-C ,  7-C ) :  -0.2760 B(  6-C ,  8-C ) :   0.5998 B(  6-C ,  9-C ) :   1.6801
B(  6-C , 10-O ) :   0.4010 B(  6-C , 17-H ) :   1.0320 B(  7-C ,  8-C ) :   1.1607
B(  7-C , 13-H ) :  -0.1759 B(  7-C , 15-H ) :  -0.1478 B(  8-C ,  9-C ) :  -0.4318
B(  8-C , 14-H ) :  -0.1743 B(  8-C , 17-H ) :  -0.2129 B(  9-C , 10-O ) :  -0.2945
B(  9-C , 16-H ) :  -0.1036 B(  9-C , 18-H ) :  -0.1343 B( 10-O , 18-H ) :   0.8924

MP2 TOTAL ENERGY:     -460.328971567 Eh
FINAL SINGLE POINT ENERGY      -460.328971566868

DIPOLE MOMENT
-------------
                                X             Y             Z
Electronic contribution:      2.42575      -0.50131      -0.00000
Nuclear contribution   :     -2.56344      -0.12179       0.00000
                        -----------------------------------------
Total Dipole Moment    :     -0.13768      -0.62310      -0.00000
                        -----------------------------------------
Magnitude (a.u.)       :      0.63813
Magnitude (Debye)      :      1.62199

Rotational constants in cm-1:     0.095536     0.027618     0.021425
Rotational constants in MHz :  2864.089635   827.972612   642.293553

                             ****ORCA TERMINATED NORMALLY****
TOTAL RUN TIME: 0 days 1 hours 54 minutes 39 seconds 899 msec
