                         Program Version 5.0.4 -  RELEASE  -
|  1> !ri-mp2 aug-cc-pvqz aug-cc-pvqz/c tightscf
|  2> %pal nprocs 16 end
|  3>
|  4> * xyz 0 1
|  5> C     -0.000029   -1.883915    0.767287
|  6> N      0.000023    0.323654    0.000000
|  7> C      0.000000   -0.423893   -1.187980
|  8> C     -0.000029   -1.883915   -0.767287
|  9> C      0.000000   -0.423893    1.187980
| 10> Cl     0.000020    2.020882    0.000000
| 11> H      0.876572   -2.363854   -1.200021
| 12> H     -0.876661   -2.363803   -1.200016
| 13> H      0.876572   -2.363854    1.200021
| 14> H     -0.876661   -2.363803    1.200016
| 15> O      0.000000    0.033027   -2.295994
| 16> O      0.000000    0.033027    2.295994
| 17> *
| 18>
| 19>                          ****END OF INPUT****

CARTESIAN COORDINATES (ANGSTROEM)
---------------------------------
  C     -0.000029   -1.883915    0.767287
  N      0.000023    0.323654    0.000000
  C      0.000000   -0.423893   -1.187980
  C     -0.000029   -1.883915   -0.767287
  C      0.000000   -0.423893    1.187980
  Cl     0.000020    2.020882    0.000000
  H      0.876572   -2.363854   -1.200021
  H     -0.876661   -2.363803   -1.200016
  H      0.876572   -2.363854    1.200021
  H     -0.876661   -2.363803    1.200016
  O      0.000000    0.033027   -2.295994
  O      0.000000    0.033027    2.295994

 Total Charge           Charge          ....    0
 Multiplicity           Mult            ....    1
 Number of Electrons    NEL             ....   68
 Basis Dimension        Dim             ....  828

ORBITAL ENERGIES
----------------

  NO   OCC          E(Eh)            E(eV)
   0   2.0000    -104.893577     -2854.2994
   1   2.0000     -20.566047      -559.6306
   2   2.0000     -20.566047      -559.6306
   3   2.0000     -15.676051      -426.5670
   4   2.0000     -11.394438      -310.0584
   5   2.0000     -11.394420      -310.0579
   6   2.0000     -11.280213      -306.9502
   7   2.0000     -11.279612      -306.9339
   8   2.0000     -10.615166      -288.8533
   9   2.0000      -8.082542      -219.9371
  10   2.0000      -8.079791      -219.8623
  11   2.0000      -8.079643      -219.8583
  12   2.0000      -1.444782       -39.3145
  13   2.0000      -1.422728       -38.7144
  14   2.0000      -1.314021       -35.7563
  15   2.0000      -1.153295       -31.3828
  16   2.0000      -1.051166       -28.6037
  17   2.0000      -0.975541       -26.5458
  18   2.0000      -0.865360       -23.5477
  19   2.0000      -0.774564       -21.0770
  20   2.0000      -0.710192       -19.3253
  21   2.0000      -0.703878       -19.1535
  22   2.0000      -0.681384       -18.5414
  23   2.0000      -0.634382       -17.2624
  24   2.0000      -0.623754       -16.9732
  25   2.0000      -0.622175       -16.9302
  26   2.0000      -0.602214       -16.3871
  27   2.0000      -0.585338       -15.9279
  28   2.0000      -0.518120       -14.0988
  29   2.0000      -0.517099       -14.0710
  30   2.0000      -0.491251       -13.3676
  31   2.0000      -0.480075       -13.0635
  32   2.0000      -0.445495       -12.1225
  33   2.0000      -0.419714       -11.4210
  34   0.0000       0.017961         0.4887
  35   0.0000       0.030276         0.8239
  36   0.0000       0.034781         0.9464
  37   0.0000       0.045675         1.2429
  38   0.0000       0.051086         1.3901

MULLIKEN ATOMIC CHARGES
-----------------------
   0 C :   -0.494564
   1 N :   -0.466046
   2 C :    0.960325
   3 C :   -0.494564
   4 C :    0.960325
   5 Cl:   -0.044585
   6 H :    0.281890
   7 H :    0.281890
   8 H :    0.281890
   9 H :    0.281890
  10 O :   -0.774225
  11 O :   -0.774225
Sum of atomic charges:    0.0000000

LOEWDIN ATOMIC CHARGES
----------------------
   0 C :    0.489714
   1 N :   -0.354070
   2 C :   -0.978809
   3 C :    0.489714
   4 C :   -0.978809
   5 Cl:    1.079070
   6 H :   -0.275223
   7 H :   -0.275225
   8 H :   -0.275223
   9 H :   -0.275225
  10 O :    0.677042
  11 O :    0.677042

  Mayer bond orders larger than 0.100000
B(  0-C ,  3-C ) :   1.0447 B(  0-C ,  4-C ) :   1.0523 B(  0-C ,  8-H ) :   0.8845
B(  0-C ,  9-H ) :   0.8844 B(  0-C , 11-O ) :   0.1656 B(  1-N ,  2-C ) :   1.1368
B(  1-N ,  4-C ) :   1.1368 B(  1-N ,  5-Cl) :   0.8402 B(  1-N , 10-O ) :   0.2045
B(  1-N , 11-O ) :   0.2045 B(  2-C ,  3-C ) :   1.0523 B(  2-C , 10-O ) :   1.2481
B(  3-C ,  6-H ) :   0.8845 B(  3-C ,  7-H ) :   0.8844 B(  3-C , 10-O ) :   0.1656
B(  4-C , 11-O ) :   1.2481

MP2 TOTAL ENERGY:     -819.246686748 Eh
FINAL SINGLE POINT ENERGY      -819.246686748467

DIPOLE MOMENT
-------------
                                X             Y             Z
Electronic contribution:      0.00017      10.31460      -0.00000
Nuclear contribution   :     -0.00020     -11.80511       0.00000
                        -----------------------------------------
Total Dipole Moment    :     -0.00002      -1.49051      -0.00000
                        -----------------------------------------
Magnitude (a.u.)       :      1.49051
Magnitude (Debye)      :      3.78857

Rotational constants in cm-1:     0.074714     0.064746     0.035135
Rotational constants in MHz :  2239.863554  1941.037351  1053.316277

                             ****ORCA TERMINATED NORMALLY****
TOTAL RUN TIME: 0 days 0 hours 22 minutes 47 seconds 248 msec
