                         Program Version 5.0.4 -  RELEASE  -
|  1> !ri-mp2 aug-cc-pvqz aug-cc-pvqz/c tightscf
|  2> %pal nprocs 16 end
|  3>
|  4> * xyz 0 1
|  5> Cl   -0.857697    1.572767    0.000268
|  6> N    -0.570057   -0.129205   -0.000081
|  7> N     1.743589    0.140834    0.000082
|  8> N    -2.544730   -1.638675   -0.000357
|  9> C     0.749729   -0.615993   -0.000106
| 10> C    -1.632177   -0.928384   -0.000224
| 11> C     3.070199   -0.442365    0.000029
| 12> H     0.755182   -1.709286   -0.000314
| 13> H     3.613291   -0.089928    0.877506
| 14> H     3.613351   -0.089629   -0.877292
| 15> H     3.070905   -1.538419   -0.000158
| 16> *
| 17>
| 18>                          ****END OF INPUT****

CARTESIAN COORDINATES (ANGSTROEM)
---------------------------------
  Cl    -0.857697    1.572767    0.000268
  N     -0.570057   -0.129205   -0.000081
  N      1.743589    0.140834    0.000082
  N     -2.544730   -1.638675   -0.000357
  C      0.749729   -0.615993   -0.000106
  C     -1.632177   -0.928384   -0.000224
  C      3.070199   -0.442365    0.000029
  H      0.755182   -1.709286   -0.000314
  H      3.613291   -0.089928    0.877506
  H      3.613351   -0.089629   -0.877292
  H      3.070905   -1.538419   -0.000158

 Total Charge           Charge          ....    0
 Multiplicity           Mult            ....    1
 Number of Electrons    NEL             ....   60
 Basis Dimension        Dim             ....  748

ORBITAL ENERGIES
----------------

  NO   OCC          E(Eh)            E(eV)
   0   2.0000    -104.906927     -2854.6626
   1   2.0000     -15.698670      -427.1825
   2   2.0000     -15.586473      -424.1295
   3   2.0000     -15.580637      -423.9707
   4   2.0000     -11.356333      -309.0215
   5   2.0000     -11.327635      -308.2406
   6   2.0000     -11.270666      -306.6904
   7   2.0000     -10.628186      -289.2076
   8   2.0000      -8.095459      -220.2886
   9   2.0000      -8.092702      -220.2136
  10   2.0000      -8.092481      -220.2076
  11   2.0000      -1.369342       -37.2617
  12   2.0000      -1.259895       -34.2835
  13   2.0000      -1.222442       -33.2643
  14   2.0000      -1.105423       -30.0801
  15   2.0000      -0.990067       -26.9411
  16   2.0000      -0.871693       -23.7200
  17   2.0000      -0.788434       -21.4544
  18   2.0000      -0.690715       -18.7953
  19   2.0000      -0.668395       -18.1879
  20   2.0000      -0.654287       -17.8040
  21   2.0000      -0.608706       -16.5637
  22   2.0000      -0.582912       -15.8618
  23   2.0000      -0.577421       -15.7124
  24   2.0000      -0.509317       -13.8592
  25   2.0000      -0.507883       -13.8202
  26   2.0000      -0.483121       -13.1464
  27   2.0000      -0.478211       -13.0128
  28   2.0000      -0.443784       -12.0760
  29   2.0000      -0.385755       -10.4969
  30   0.0000       0.020404         0.5552
  31   0.0000       0.034488         0.9385
  32   0.0000       0.036840         1.0025
  33   0.0000       0.040982         1.1152
  34   0.0000       0.052697         1.4340

MULLIKEN ATOMIC CHARGES
-----------------------
   0 Cl:    0.038326
   1 N :   -0.474556
   2 N :   -0.511577
   3 N :   -0.615454
   4 C :    0.037168
   5 C :    0.826273
   6 C :   -0.686929
   7 H :    0.549415
   8 H :    0.286933
   9 H :    0.286936
  10 H :    0.263465
Sum of atomic charges:    0.0000000

LOEWDIN ATOMIC CHARGES
----------------------
   0 Cl:    1.058554
   1 N :   -0.406092
   2 N :    0.539351
   3 N :    0.376537
   4 C :   -0.230769
   5 C :   -0.699477
   6 C :    0.669381
   7 H :   -0.342734
   8 H :   -0.319561
   9 H :   -0.319559
  10 H :   -0.325631

  Mayer bond orders larger than 0.100000
B(  0-Cl,  1-N ) :   0.7857 B(  1-N ,  4-C ) :   1.1754 B(  1-N ,  5-C ) :   1.2342
B(  2-N ,  4-C ) :   1.8314 B(  2-N ,  6-C ) :   0.8936 B(  3-N ,  5-C ) :   2.5728
B(  4-C ,  7-H ) :   0.6022 B(  6-C ,  8-H ) :   0.9346 B(  6-C ,  9-H ) :   0.9346
B(  6-C , 10-H ) :   0.9247

MP2 TOTAL ENERGY:     -740.180709265 Eh
FINAL SINGLE POINT ENERGY      -740.180709264565

DIPOLE MOMENT
-------------
                                X             Y             Z
Electronic contribution:    -10.32480       5.51722       0.00066
Nuclear contribution   :     11.76490      -5.45202      -0.00062
                        -----------------------------------------
Total Dipole Moment    :      1.44010       0.06520       0.00004
                        -----------------------------------------
Magnitude (a.u.)       :      1.44157
Magnitude (Debye)      :      3.66419

Rotational constants in cm-1:     0.112706     0.047795     0.033771
Rotational constants in MHz :  3378.855324  1432.845421  1012.424077

                             ****ORCA TERMINATED NORMALLY****
TOTAL RUN TIME: 0 days 0 hours 14 minutes 52 seconds 905 msec
