                         Program Version 5.0.4 -  RELEASE  -
|  1> !ri-mp2 aug-cc-pvqz aug-cc-pvqz/c tightscf
|  2> %pal nprocs 16 end
|  3>
|  4> * xyz 0 1
|  5> Cl     2.020286   -0.360915    0.000049
|  6> O      0.203450    1.555974   -0.000169
|  7> N     -0.574181   -0.605015    0.000072
|  8> C      0.376440    0.384407   -0.000039
|  9> C     -1.897702   -0.346943    0.000026
| 10> C     -3.075438   -0.133700   -0.000002
| 11> H     -0.254865   -1.560965    0.000162
| 12> H     -4.118136    0.061245   -0.000060
| 13> *
| 14>
| 15>                          ****END OF INPUT****

CARTESIAN COORDINATES (ANGSTROEM)
---------------------------------
  Cl     2.020286   -0.360915    0.000049
  O      0.203450    1.555974   -0.000169
  N     -0.574181   -0.605015    0.000072
  C      0.376440    0.384407   -0.000039
  C     -1.897702   -0.346943    0.000026
  C     -3.075438   -0.133700   -0.000002
  H     -0.254865   -1.560965    0.000162
  H     -4.118136    0.061245   -0.000060

 Total Charge           Charge          ....    0
 Multiplicity           Mult            ....    1
 Number of Electrons    NEL             ....   52
 Basis Dimension        Dim             ....  576

ORBITAL ENERGIES
----------------

  NO   OCC          E(Eh)            E(eV)
   0   2.0000    -104.868277     -2853.6109
   1   2.0000     -20.585398      -560.1572
   2   2.0000     -15.660775      -426.1514
   3   2.0000     -11.449040      -311.5442
   4   2.0000     -11.292212      -307.2767
   5   2.0000     -11.248680      -306.0921
   6   2.0000     -10.593652      -288.2679
   7   2.0000      -8.060571      -219.3393
   8   2.0000      -8.058850      -219.2925
   9   2.0000      -8.058824      -219.2917
  10   2.0000      -1.461075       -39.7579
  11   2.0000      -1.310586       -35.6628
  12   2.0000      -1.142829       -31.0980
  13   2.0000      -1.042453       -28.3666
  14   2.0000      -0.885809       -24.1041
  15   2.0000      -0.813990       -22.1498
  16   2.0000      -0.728262       -19.8170
  17   2.0000      -0.716947       -19.5091
  18   2.0000      -0.659519       -17.9464
  19   2.0000      -0.650981       -17.7141
  20   2.0000      -0.533600       -14.5200
  21   2.0000      -0.503560       -13.7026
  22   2.0000      -0.485536       -13.2121
  23   2.0000      -0.474970       -12.9246
  24   2.0000      -0.428172       -11.6512
  25   2.0000      -0.383422       -10.4334
  26   0.0000       0.020410         0.5554
  27   0.0000       0.029813         0.8113
  28   0.0000       0.053768         1.4631
  29   0.0000       0.062783         1.7084
  30   0.0000       0.068269         1.8577

MULLIKEN ATOMIC CHARGES
-----------------------
   0 Cl:   -0.158184
   1 O :   -0.580920
   2 N :   -0.601430
   3 C :    0.773425
   4 C :    0.391078
   5 C :   -0.534448
   6 H :    0.301970
   7 H :    0.408509
Sum of atomic charges:    0.0000000

LOEWDIN ATOMIC CHARGES
----------------------
   0 Cl:    1.058560
   1 O :    0.580780
   2 N :    0.563295
   3 C :   -1.569647
   4 C :   -0.119273
   5 C :    0.557582
   6 H :   -0.606241
   7 H :   -0.465056

  Mayer bond orders larger than 0.100000
B(  0-Cl,  3-C ) :   0.9137 B(  1-O ,  3-C ) :   1.7196 B(  2-N ,  3-C ) :   1.1306
B(  2-N ,  4-C ) :   0.8837 B(  2-N ,  6-H ) :   0.9324 B(  4-C ,  5-C ) :   2.6088
B(  5-C ,  7-H ) :   0.9511

MP2 TOTAL ENERGY:     -704.807498523 Eh
FINAL SINGLE POINT ENERGY      -704.807498522650

DIPOLE MOMENT
-------------
                                X             Y             Z
Electronic contribution:      6.41486      -0.26943       0.00008
Nuclear contribution   :     -6.85311      -0.90802       0.00003
                        -----------------------------------------
Total Dipole Moment    :     -0.43825      -1.17745       0.00010
                        -----------------------------------------
Magnitude (a.u.)       :      1.25636
Magnitude (Debye)      :      3.19342

Rotational constants in cm-1:     0.310110     0.051837     0.044413
Rotational constants in MHz :  9296.854490  1554.024597  1331.462680

                             ****ORCA TERMINATED NORMALLY****
TOTAL RUN TIME: 0 days 0 hours 6 minutes 25 seconds 971 msec
