                         Program Version 5.0.4 -  RELEASE  -
|  1> !ri-mp2 aug-cc-pvqz aug-cc-pvqz/c tightscf
|  2> %pal nprocs 16 end
|  3> %maxcore 3800
|  4>
|  5> * xyz 0 1
|  6> C    -1.066927    0.993447    0.503517
|  7> C    -1.369945   -1.059353   -0.651102
|  8> C    -3.086115   -0.027909    0.398756
|  9> C    -0.518719   -0.048949   -0.236276
| 10> C     3.264554   -0.589277    0.915395
| 11> N    -2.356726    1.004528    0.828796
| 12> N    -2.664799   -1.059267   -0.329369
| 13> N     1.810425   -0.382266    0.877742
| 14> O     1.609131    1.384777   -0.978583
| 15> S     1.227894   -0.030720   -0.731013
| 16> H    -0.454317    1.827531    0.822442
| 17> H    -1.012893   -1.886063   -1.256520
| 18> H    -4.135818   -0.021604    0.667155
| 19> H     3.754433    0.313715    0.557523
| 20> H     3.609015   -1.442093    0.321297
| 21> H     3.556910   -0.741479    1.953119
| 22> H     1.303932   -1.185425    1.237919
| 23> *
| 24>
| 25>                          ****END OF INPUT****

CARTESIAN COORDINATES (ANGSTROEM)
---------------------------------
  C     -1.066927    0.993447    0.503517
  C     -1.369945   -1.059353   -0.651102
  C     -3.086115   -0.027909    0.398756
  C     -0.518719   -0.048949   -0.236276
  C      3.264554   -0.589277    0.915395
  N     -2.356726    1.004528    0.828796
  N     -2.664799   -1.059267   -0.329369
  N      1.810425   -0.382266    0.877742
  O      1.609131    1.384777   -0.978583
  S      1.227894   -0.030720   -0.731013
  H     -0.454317    1.827531    0.822442
  H     -1.012893   -1.886063   -1.256520
  H     -4.135818   -0.021604    0.667155
  H      3.754433    0.313715    0.557523
  H      3.609015   -1.442093    0.321297
  H      3.556910   -0.741479    1.953119
  H      1.303932   -1.185425    1.237919

 Total Charge           Charge          ....    0
 Multiplicity           Mult            ....    1
 Number of Electrons    NEL             ....   82
 Basis Dimension        Dim             .... 1126

ORBITAL ENERGIES
----------------

  NO   OCC          E(Eh)            E(eV)
   0   2.0000     -92.111529     -2506.4821
   1   2.0000     -20.527637      -558.5854
   2   2.0000     -15.598420      -424.4546
   3   2.0000     -15.589590      -424.2143
   4   2.0000     -15.588529      -424.1854
   5   2.0000     -11.333277      -308.3942
   6   2.0000     -11.323246      -308.1212
   7   2.0000     -11.318926      -308.0036
   8   2.0000     -11.281335      -306.9807
   9   2.0000     -11.269805      -306.6670
  10   2.0000      -9.094004      -247.4604
  11   2.0000      -6.776257      -184.3913
  12   2.0000      -6.775810      -184.3792
  13   2.0000      -6.774242      -184.3365
  14   2.0000      -1.370147       -37.2836
  15   2.0000      -1.333276       -36.2803
  16   2.0000      -1.221604       -33.2415
  17   2.0000      -1.215814       -33.0840
  18   2.0000      -1.107024       -30.1237
  19   2.0000      -0.972741       -26.4696
  20   2.0000      -0.919805       -25.0292
  21   2.0000      -0.910914       -24.7872
  22   2.0000      -0.851329       -23.1658
  23   2.0000      -0.756144       -20.5757
  24   2.0000      -0.730923       -19.8894
  25   2.0000      -0.705939       -19.2096
  26   2.0000      -0.642504       -17.4834
  27   2.0000      -0.638707       -17.3801
  28   2.0000      -0.618481       -16.8297
  29   2.0000      -0.609064       -16.5735
  30   2.0000      -0.601178       -16.3589
  31   2.0000      -0.588706       -16.0195
  32   2.0000      -0.567931       -15.4542
  33   2.0000      -0.554232       -15.0814
  34   2.0000      -0.509259       -13.8576
  35   2.0000      -0.456115       -12.4115
  36   2.0000      -0.445429       -12.1207
  37   2.0000      -0.438841       -11.9415
  38   2.0000      -0.432378       -11.7656
  39   2.0000      -0.404689       -11.0122
  40   2.0000      -0.376400       -10.2424
  41   0.0000       0.018670         0.5080
  42   0.0000       0.028574         0.7775
  43   0.0000       0.029575         0.8048
  44   0.0000       0.037617         1.0236
  45   0.0000       0.041308         1.1240

MULLIKEN ATOMIC CHARGES
-----------------------
   0 C :   -0.080238
   1 C :   -0.030879
   2 C :   -0.235483
   3 C :   -0.044912
   4 C :   -0.843114
   5 N :   -0.650046
   6 N :   -0.652291
   7 N :   -0.533127
   8 O :   -1.220779
   9 S :    1.427187
  10 H :    0.535978
  11 H :    0.507247
  12 H :    0.622720
  13 H :    0.301136
  14 H :    0.287483
  15 H :    0.368786
  16 H :    0.240332
Sum of atomic charges:   -0.0000000

LOEWDIN ATOMIC CHARGES
----------------------
   0 C :    0.006439
   1 C :   -0.009954
   2 C :   -0.178057
   3 C :   -0.350220
   4 C :    0.687482
   5 N :    0.604389
   6 N :    0.592068
   7 N :    0.632296
   8 O :    0.107740
   9 S :    0.534607
  10 H :   -0.345696
  11 H :   -0.351300
  12 H :   -0.377688
  13 H :   -0.330103
  14 H :   -0.297693
  15 H :   -0.307071
  16 H :   -0.617239

  Mayer bond orders larger than 0.100000
B(  0-C ,  3-C ) :   1.0987 B(  0-C ,  5-N ) :   1.0784 B(  0-C ,  8-O ) :   0.1372
B(  0-C , 10-H ) :   0.7527 B(  1-C ,  3-C ) :   1.1689 B(  1-C ,  6-N ) :   1.0480
B(  1-C , 11-H ) :   0.7988 B(  2-C ,  5-N ) :   1.4204 B(  2-C ,  6-N ) :   1.4252
B(  2-C , 12-H ) :   0.6627 B(  3-C ,  7-N ) :  -0.1971 B(  3-C ,  8-O ) :  -0.1972
B(  3-C ,  9-S ) :   0.5667 B(  4-C ,  7-N ) :   0.9313 B(  4-C , 13-H ) :   0.9120
B(  4-C , 14-H ) :   0.9320 B(  4-C , 15-H ) :   0.8736 B(  6-N , 11-H ) :  -0.1057
B(  7-N ,  9-S ) :   0.9293 B(  7-N , 16-H ) :   0.9343 B(  8-O ,  9-S ) :   1.2074

MP2 TOTAL ENERGY:     -831.247207976 Eh
FINAL SINGLE POINT ENERGY      -831.247207975714

DIPOLE MOMENT
-------------
                                X             Y             Z
Electronic contribution:     -6.14671       1.57348      -3.67173
Nuclear contribution   :      6.45620      -3.05201       4.23055
                        -----------------------------------------
Total Dipole Moment    :      0.30949      -1.47853       0.55881
                        -----------------------------------------
Magnitude (a.u.)       :      1.61062
Magnitude (Debye)      :      4.09387

Rotational constants in cm-1:     0.090381     0.022828     0.022234
Rotational constants in MHz :  2709.545894   684.370255   666.559081

                             ****ORCA TERMINATED NORMALLY****
TOTAL RUN TIME: 0 days 0 hours 50 minutes 37 seconds 962 msec
