                         Program Version 5.0.4 -  RELEASE  -
|  1> !ri-mp2 aug-cc-pvqz aug-cc-pvqz/c tightscf
|  2> %pal nprocs 16 end
|  3>
|  4> * xyz 0 1
|  5> S     -0.977841    0.897750    0.426091
|  6> S     -2.081995   -0.635586   -0.451951
|  7> O      1.307860   -0.949315    1.030107
|  8> N      0.582338    0.797816   -0.241341
|  9> C      1.521372   -0.149599    0.148699
| 10> C      2.812887   -0.107552   -0.640961
| 11> H     -1.741791   -1.618901    0.408674
| 12> H      0.761070    1.334091   -1.076406
| 13> H      2.715102   -0.758963   -1.511499
| 14> H      3.614677   -0.492310   -0.016893
| 15> H      3.063516    0.894181   -0.987999
| 16> *
| 17>
| 18>                          ****END OF INPUT****

CARTESIAN COORDINATES (ANGSTROEM)
---------------------------------
  S     -0.977841    0.897750    0.426091
  S     -2.081995   -0.635586   -0.451951
  O      1.307860   -0.949315    1.030107
  N      0.582338    0.797816   -0.241341
  C      1.521372   -0.149599    0.148699
  C      2.812887   -0.107552   -0.640961
  H     -1.741791   -1.618901    0.408674
  H      0.761070    1.334091   -1.076406
  H      2.715102   -0.758963   -1.511499
  H      3.614677   -0.492310   -0.016893
  H      3.063516    0.894181   -0.987999

 Total Charge           Charge          ....    0
 Multiplicity           Mult            ....    1
 Number of Electrons    NEL             ....   64
 Basis Dimension        Dim             ....  718

ORBITAL ENERGIES
----------------

  NO   OCC          E(Eh)            E(eV)
   0   2.0000     -92.019890     -2503.9885
   1   2.0000     -91.985474     -2503.0520
   2   2.0000     -20.536997      -558.8401
   3   2.0000     -15.617142      -424.9640
   4   2.0000     -11.368732      -309.3589
   5   2.0000     -11.249585      -306.1168
   6   2.0000      -9.015148      -245.3146
   7   2.0000      -8.986002      -244.5215
   8   2.0000      -6.696354      -182.2171
   9   2.0000      -6.694981      -182.1797
  10   2.0000      -6.693979      -182.1524
  11   2.0000      -6.667206      -181.4239
  12   2.0000      -6.666269      -181.3984
  13   2.0000      -6.665415      -181.3752
  14   2.0000      -1.402496       -38.1639
  15   2.0000      -1.245468       -33.8909
  16   2.0000      -1.051380       -28.6095
  17   2.0000      -1.004839       -27.3430
  18   2.0000      -0.885567       -24.0975
  19   2.0000      -0.795988       -21.6599
  20   2.0000      -0.699073       -19.0228
  21   2.0000      -0.657282       -17.8855
  22   2.0000      -0.635206       -17.2848
  23   2.0000      -0.603553       -16.4235
  24   2.0000      -0.577649       -15.7186
  25   2.0000      -0.556602       -15.1459
  26   2.0000      -0.543183       -14.7808
  27   2.0000      -0.487917       -13.2769
  28   2.0000      -0.446451       -12.1486
  29   2.0000      -0.416073       -11.3219
  30   2.0000      -0.390699       -10.6315
  31   2.0000      -0.378134       -10.2896
  32   0.0000       0.020169         0.5488
  33   0.0000       0.034461         0.9377
  34   0.0000       0.034977         0.9518
  35   0.0000       0.042394         1.1536
  36   0.0000       0.050280         1.3682

MULLIKEN ATOMIC CHARGES
-----------------------
   0 S :    0.204119
   1 S :   -0.179052
   2 O :   -0.756902
   3 N :   -0.577422
   4 C :    0.791943
   5 C :   -0.749554
   6 H :    0.136278
   7 H :    0.305138
   8 H :    0.298408
   9 H :    0.290808
  10 H :    0.236235
Sum of atomic charges:    0.0000000

LOEWDIN ATOMIC CHARGES
----------------------
   0 S :    0.596625
   1 S :    1.024954
   2 O :    0.665485
   3 N :    0.274198
   4 C :   -0.986176
   5 C :    0.878791
   6 H :   -0.894493
   7 H :   -0.647714
   8 H :   -0.289975
   9 H :   -0.314389
  10 H :   -0.307306

  Mayer bond orders larger than 0.100000
B(  0-S ,  1-S ) :   1.1307 B(  0-S ,  3-N ) :   0.9365 B(  1-S ,  6-H ) :   0.9710
B(  2-O ,  3-N ) :   0.1212 B(  2-O ,  4-C ) :   1.4123 B(  3-N ,  4-C ) :   1.1441
B(  3-N ,  7-H ) :   0.9139 B(  4-C ,  5-C ) :   0.8929 B(  5-C ,  8-H ) :   0.8715
B(  5-C ,  9-H ) :   0.9684 B(  5-C , 10-H ) :   0.9980

MP2 TOTAL ENERGY:    -1004.377887920 Eh
FINAL SINGLE POINT ENERGY     -1004.377887919852

DIPOLE MOMENT
-------------
                                X             Y             Z
Electronic contribution:     -7.64601       1.18981       2.00759
Nuclear contribution   :      8.32387      -0.64424      -3.09156
                        -----------------------------------------
Total Dipole Moment    :      0.67786       0.54557      -1.08397
                        -----------------------------------------
Magnitude (a.u.)       :      1.39001
Magnitude (Debye)      :      3.53313

Rotational constants in cm-1:     0.155759     0.042409     0.039510
Rotational constants in MHz :  4669.550005  1271.395852  1184.486894

                             ****ORCA TERMINATED NORMALLY****
TOTAL RUN TIME: 0 days 0 hours 11 minutes 49 seconds 544 msec
