                         Program Version 5.0.4 -  RELEASE  -
|  1> !ri-mp2 aug-cc-pvqz aug-cc-pvqz/c tightscf
|  2> %pal nprocs 16 end
|  3>
|  4> * xyz 0 1
|  5> H      2.546292    0.664510    0.165310
|  6> O      1.231997   -1.340449   -0.051260
|  7> C      0.759803   -0.212659   -0.016985
|  8> N     -0.589131    0.040718   -0.042504
|  9> H      1.276432    1.747193    0.451488
| 10> N      1.584512    0.906330   -0.005452
| 11> H     -2.218134   -1.068197   -0.768577
| 12> H     -2.090342   -1.011668    0.999406
| 13> H     -0.951852   -1.996650    0.058184
| 14> C     -1.517068   -1.071094    0.069328
| 15> H     -1.231220    1.809057    0.957610
| 16> H     -2.152797    1.337971   -0.470531
| 17> H     -0.559592    2.045476   -0.673917
| 18> C     -1.149808    1.378179   -0.047877
| 19> *
| 20>
| 21>                          ****END OF INPUT****

CARTESIAN COORDINATES (ANGSTROEM)
---------------------------------
  H      2.546292    0.664510    0.165310
  O      1.231997   -1.340449   -0.051260
  C      0.759803   -0.212659   -0.016985
  N     -0.589131    0.040718   -0.042504
  H      1.276432    1.747193    0.451488
  N      1.584512    0.906330   -0.005452
  H     -2.218134   -1.068197   -0.768577
  H     -2.090342   -1.011668    0.999406
  H     -0.951852   -1.996650    0.058184
  C     -1.517068   -1.071094    0.069328
  H     -1.231220    1.809057    0.957610
  H     -2.152797    1.337971   -0.470531
  H     -0.559592    2.045476   -0.673917
  C     -1.149808    1.378179   -0.047877

 Total Charge           Charge          ....    0
 Multiplicity           Mult            ....    1
 Number of Electrons    NEL             ....   48
 Basis Dimension        Dim             ....  848

ORBITAL ENERGIES
----------------

  NO   OCC          E(Eh)            E(eV)
   0   2.0000     -20.498538      -557.7936
   1   2.0000     -15.581334      -423.9897
   2   2.0000     -15.574411      -423.8013
   3   2.0000     -11.369276      -309.3737
   4   2.0000     -11.271114      -306.7026
   5   2.0000     -11.251586      -306.1712
   6   2.0000      -1.383250       -37.6401
   7   2.0000      -1.248464       -33.9724
   8   2.0000      -1.191308       -32.4171
   9   2.0000      -0.977333       -26.5946
  10   2.0000      -0.935228       -25.4489
  11   2.0000      -0.769418       -20.9369
  12   2.0000      -0.734710       -19.9925
  13   2.0000      -0.682804       -18.5800
  14   2.0000      -0.659266       -17.9396
  15   2.0000      -0.624140       -16.9837
  16   2.0000      -0.591515       -16.0959
  17   2.0000      -0.567254       -15.4358
  18   2.0000      -0.563029       -15.3208
  19   2.0000      -0.556945       -15.1553
  20   2.0000      -0.532000       -14.4765
  21   2.0000      -0.438390       -11.9292
  22   2.0000      -0.416526       -11.3343
  23   2.0000      -0.373974       -10.1764
  24   0.0000       0.019467         0.5297
  25   0.0000       0.029093         0.7917
  26   0.0000       0.034328         0.9341
  27   0.0000       0.038599         1.0503
  28   0.0000       0.050018         1.3611

MULLIKEN ATOMIC CHARGES
-----------------------
   0 H :    0.219205
   1 O :   -0.813275
   2 C :    1.221250
   3 N :   -0.398671
   4 H :    0.321925
   5 N :   -0.737950
   6 H :    0.309901
   7 H :    0.288187
   8 H :    0.327835
   9 C :   -0.862253
  10 H :    0.296844
  11 H :    0.336583
  12 H :    0.227649
  13 C :   -0.737230
Sum of atomic charges:   -0.0000000

LOEWDIN ATOMIC CHARGES
----------------------
   0 H :   -0.522635
   1 O :    0.694823
   2 C :   -1.010682
   3 N :    0.403831
   4 H :   -0.536157
   5 N :    1.242349
   6 H :   -0.281833
   7 H :   -0.272366
   8 H :   -0.365830
   9 C :    0.757168
  10 H :   -0.260486
  11 H :   -0.296337
  12 H :   -0.312292
  13 C :    0.760448

  Mayer bond orders larger than 0.100000
B(  0-H ,  5-N ) :   0.9808 B(  1-O ,  2-C ) :   1.2700 B(  1-O ,  3-N ) :   0.2209
B(  1-O ,  5-N ) :   0.1001 B(  2-C ,  3-N ) :   1.2522 B(  2-C ,  5-N ) :   1.1121
B(  3-N ,  9-C ) :   0.7995 B(  3-N , 13-C ) :   0.7447 B(  4-H ,  5-N ) :   0.8575
B(  6-H ,  9-C ) :   0.9424 B(  7-H ,  9-C ) :   0.9604 B(  8-H ,  9-C ) :   0.9097
B( 10-H , 13-C ) :   0.9580 B( 11-H , 13-C ) :   0.8986 B( 12-H , 13-C ) :   1.0015

MP2 TOTAL ENERGY:     -303.426410451 Eh
FINAL SINGLE POINT ENERGY      -303.426410451186

DIPOLE MOMENT
-------------
                                X             Y             Z
Electronic contribution:      4.67411      -2.11915      -0.33013
Nuclear contribution   :     -5.47980       3.59334       0.73448
                        -----------------------------------------
Total Dipole Moment    :     -0.80569       1.47418       0.40436
                        -----------------------------------------
Magnitude (a.u.)       :      1.72796
Magnitude (Debye)      :      4.39214

Rotational constants in cm-1:     0.169294     0.117604     0.071510
Rotational constants in MHz :  5075.318994  3525.668776  2143.801467

                             ****ORCA TERMINATED NORMALLY****
TOTAL RUN TIME: 0 days 0 hours 22 minutes 31 seconds 237 msec
