                         Program Version 5.0.4 -  RELEASE  -
|  1> !ri-mp2 aug-cc-pvqz aug-cc-pvqz/c tightscf
|  2> %pal nprocs 16 end
|  3>
|  4> * xyz 0 1
|  5> C      2.308280    0.333913    0.032715
|  6> C      1.874791   -0.990670    0.036977
|  7> C      1.359701    1.346306   -0.009499
|  8> C      0.525138   -1.293489   -0.004025
|  9> C     -0.000206    1.056554   -0.046565
| 10> C     -0.440752   -0.273922   -0.049701
| 11> C     -2.835641    0.363095    0.089889
| 12> N     -1.783597   -0.606016   -0.128315
| 13> H      3.363058    0.567419    0.063881
| 14> H      2.596525   -1.796291    0.072123
| 15> H      1.674892    2.381687   -0.010024
| 16> H      0.202937   -2.328068   -0.007472
| 17> H     -0.713687    1.866797   -0.075478
| 18> H     -2.839553    1.117185   -0.699380
| 19> H     -2.751251    0.880801    1.053410
| 20> H     -3.794605   -0.149894    0.057667
| 21> H     -2.001002   -1.548246    0.144734
| 22> *
| 23>
| 24>                          ****END OF INPUT****

CARTESIAN COORDINATES (ANGSTROEM)
---------------------------------
  C      2.308280    0.333913    0.032715
  C      1.874791   -0.990670    0.036977
  C      1.359701    1.346306   -0.009499
  C      0.525138   -1.293489   -0.004025
  C     -0.000206    1.056554   -0.046565
  C     -0.440752   -0.273922   -0.049701
  C     -2.835641    0.363095    0.089889
  N     -1.783597   -0.606016   -0.128315
  H      3.363058    0.567419    0.063881
  H      2.596525   -1.796291    0.072123
  H      1.674892    2.381687   -0.010024
  H      0.202937   -2.328068   -0.007472
  H     -0.713687    1.866797   -0.075478
  H     -2.839553    1.117185   -0.699380
  H     -2.751251    0.880801    1.053410
  H     -3.794605   -0.149894    0.057667
  H     -2.001002   -1.548246    0.144734

 Total Charge           Charge          ....    0
 Multiplicity           Mult            ....    1
 Number of Electrons    NEL             ....   58
 Basis Dimension        Dim             .... 1054

ORBITAL ENERGIES
----------------

  NO   OCC          E(Eh)            E(eV)
   0   2.0000     -15.562867      -423.4871
   1   2.0000     -11.274747      -306.8015
   2   2.0000     -11.256964      -306.3176
   3   2.0000     -11.230098      -305.5865
   4   2.0000     -11.229624      -305.5736
   5   2.0000     -11.218605      -305.2738
   6   2.0000     -11.216801      -305.2247
   7   2.0000     -11.212541      -305.1088
   8   2.0000      -1.241203       -33.7749
   9   2.0000      -1.130185       -30.7539
  10   2.0000      -1.010841       -27.5064
  11   2.0000      -1.001465       -27.2512
  12   2.0000      -0.919971       -25.0337
  13   2.0000      -0.826769       -22.4975
  14   2.0000      -0.799833       -21.7646
  15   2.0000      -0.713598       -19.4180
  16   2.0000      -0.672196       -18.2914
  17   2.0000      -0.641022       -17.4431
  18   2.0000      -0.612069       -16.6553
  19   2.0000      -0.607137       -16.5210
  20   2.0000      -0.580652       -15.8003
  21   2.0000      -0.578068       -15.7300
  22   2.0000      -0.541225       -14.7275
  23   2.0000      -0.511153       -13.9092
  24   2.0000      -0.502909       -13.6848
  25   2.0000      -0.483140       -13.1469
  26   2.0000      -0.424901       -11.5621
  27   2.0000      -0.334530        -9.1030
  28   2.0000      -0.284781        -7.7493
  29   0.0000       0.023175         0.6306
  30   0.0000       0.029164         0.7936
  31   0.0000       0.029869         0.8128
  32   0.0000       0.040557         1.1036
  33   0.0000       0.041786         1.1371

MULLIKEN ATOMIC CHARGES
-----------------------
   0 C :   -0.385202
   1 C :   -0.300350
   2 C :   -0.403228
   3 C :   -0.517864
   4 C :   -0.267558
   5 C :    0.780787
   6 C :   -0.803728
   7 N :   -0.586605
   8 H :    0.313835
   9 H :    0.249961
  10 H :    0.231066
  11 H :    0.240998
  12 H :    0.303430
  13 H :    0.208938
  14 H :    0.277356
  15 H :    0.421424
  16 H :    0.236739
Sum of atomic charges:    0.0000000

LOEWDIN ATOMIC CHARGES
----------------------
   0 C :    0.328212
   1 C :    0.325704
   2 C :    0.330235
   3 C :    0.337753
   4 C :    0.336099
   5 C :   -0.238558
   6 C :    0.768973
   7 N :    0.858785
   8 H :   -0.335465
   9 H :   -0.323583
  10 H :   -0.322526
  11 H :   -0.326130
  12 H :   -0.352752
  13 H :   -0.298164
  14 H :   -0.277595
  15 H :   -0.294333
  16 H :   -0.516654

  Mayer bond orders larger than 0.100000
B(  0-C ,  1-C ) :   1.1581 B(  0-C ,  2-C ) :   1.2783 B(  0-C ,  8-H ) :   1.0099
B(  1-C ,  3-C ) :   1.3882 B(  1-C ,  5-C ) :  -0.3391 B(  1-C ,  9-H ) :   1.1289
B(  2-C ,  3-C ) :   0.1678 B(  2-C ,  4-C ) :   1.1345 B(  2-C ,  5-C ) :  -0.2850
B(  2-C , 10-H ) :   1.1492 B(  3-C ,  5-C ) :   1.0142 B(  3-C ,  9-H ) :  -0.1418
B(  3-C , 11-H ) :   0.9888 B(  4-C ,  5-C ) :   1.1787 B(  4-C ,  7-N ) :  -0.1100
B(  4-C , 10-H ) :  -0.1433 B(  4-C , 12-H ) :   0.9598 B(  5-C ,  7-N ) :   0.7160
B(  6-C ,  7-N ) :   0.9027 B(  6-C , 13-H ) :   1.0066 B(  6-C , 14-H ) :   0.9308
B(  6-C , 15-H ) :   0.8245 B(  7-N , 16-H ) :   0.9739

MP2 TOTAL ENERGY:     -326.321641575 Eh
FINAL SINGLE POINT ENERGY      -326.321641575046

DIPOLE MOMENT
-------------
                                X             Y             Z
Electronic contribution:      3.74296      -1.15754      -0.39559
Nuclear contribution   :     -4.34383       1.00417       0.60861
                        -----------------------------------------
Total Dipole Moment    :     -0.60086      -0.15337       0.21302
                        -----------------------------------------
Magnitude (a.u.)       :      0.65569
Magnitude (Debye)      :      1.66664

Rotational constants in cm-1:     0.167234     0.050622     0.039232
Rotational constants in MHz :  5013.554097  1517.612521  1176.131616

                             ****ORCA TERMINATED NORMALLY****
TOTAL RUN TIME: 0 days 0 hours 46 minutes 24 seconds 854 msec
