                         Program Version 5.0.4 -  RELEASE  -
|  1> !ri-mp2 aug-cc-pvqz aug-cc-pvqz/c tightscf
|  2> %pal nprocs 16 end
|  3>
|  4> * xyz 0 1
|  5> F      2.523812   -0.000530    0.037332
|  6> O     -1.881341   -1.007854   -0.239265
|  7> O     -1.539739    1.170779    0.004238
|  8> N      1.215026   -0.004014   -0.555021
|  9> C     -1.136839   -0.128298    0.067470
| 10> C      0.302592   -0.347682    0.537573
| 11> H     -0.888066    1.766285    0.392635
| 12> H      1.117050    0.980700   -0.797020
| 13> H      0.422906   -1.402721    0.762868
| 14> H      0.502739    0.241088    1.440632
| 15> *
| 16>
| 17>                          ****END OF INPUT****

CARTESIAN COORDINATES (ANGSTROEM)
---------------------------------
  F      2.523812   -0.000530    0.037332
  O     -1.881341   -1.007854   -0.239265
  O     -1.539739    1.170779    0.004238
  N      1.215026   -0.004014   -0.555021
  C     -1.136839   -0.128298    0.067470
  C      0.302592   -0.347682    0.537573
  H     -0.888066    1.766285    0.392635
  H      1.117050    0.980700   -0.797020
  H      0.422906   -1.402721    0.762868
  H      0.502739    0.241088    1.440632

 Total Charge           Charge          ....    0
 Multiplicity           Mult            ....    1
 Number of Electrons    NEL             ....   48
 Basis Dimension        Dim             ....  664

ORBITAL ENERGIES
----------------

  NO   OCC          E(Eh)            E(eV)
   0   2.0000     -26.319157      -716.1807
   1   2.0000     -20.635744      -561.5271
   2   2.0000     -20.570167      -559.7427
   3   2.0000     -15.686146      -426.8417
   4   2.0000     -11.411328      -310.5180
   5   2.0000     -11.312306      -307.8235
   6   2.0000      -1.616681       -43.9921
   7   2.0000      -1.484456       -40.3941
   8   2.0000      -1.391372       -37.8611
   9   2.0000      -1.209738       -32.9186
  10   2.0000      -0.989531       -26.9265
  11   2.0000      -0.857961       -23.3463
  12   2.0000      -0.783587       -21.3225
  13   2.0000      -0.735813       -20.0225
  14   2.0000      -0.710209       -19.3258
  15   2.0000      -0.688714       -18.7409
  16   2.0000      -0.684000       -18.6126
  17   2.0000      -0.646396       -17.5893
  18   2.0000      -0.625795       -17.0287
  19   2.0000      -0.601893       -16.3783
  20   2.0000      -0.580200       -15.7880
  21   2.0000      -0.505082       -13.7440
  22   2.0000      -0.477382       -12.9902
  23   2.0000      -0.467681       -12.7262
  24   0.0000       0.013187         0.3588
  25   0.0000       0.030862         0.8398
  26   0.0000       0.038184         1.0390
  27   0.0000       0.046397         1.2625
  28   0.0000       0.064227         1.7477

MULLIKEN ATOMIC CHARGES
-----------------------
   0 F :   -0.459594
   1 O :   -0.695040
   2 O :   -0.743162
   3 N :   -0.094340
   4 C :    1.037714
   5 C :   -0.336247
   6 H :    0.382326
   7 H :    0.286205
   8 H :    0.371785
   9 H :    0.250354
Sum of atomic charges:   -0.0000000

LOEWDIN ATOMIC CHARGES
----------------------
   0 F :    0.525260
   1 O :    0.683913
   2 O :    1.244565
   3 N :    0.432948
   4 C :   -1.028787
   5 C :    0.238419
   6 H :   -0.815385
   7 H :   -0.633692
   8 H :   -0.340196
   9 H :   -0.307045

  Mayer bond orders larger than 0.100000
B(  0-F ,  3-N ) :   0.6575 B(  1-O ,  4-C ) :   1.5881 B(  2-O ,  4-C ) :   0.8120
B(  2-O ,  6-H ) :   0.8227 B(  3-N ,  5-C ) :   0.8612 B(  3-N ,  7-H ) :   0.8411
B(  4-C ,  5-C ) :   0.9609 B(  5-C ,  8-H ) :   0.8295 B(  5-C ,  9-H ) :   0.9552

MP2 TOTAL ENERGY:     -383.133029331 Eh
FINAL SINGLE POINT ENERGY      -383.133029331361

DIPOLE MOMENT
-------------
                                X             Y             Z
Electronic contribution:      1.89385      -0.32415      -0.89258
Nuclear contribution   :     -1.34137       1.53876       1.70040
                        -----------------------------------------
Total Dipole Moment    :      0.55248       1.21461       0.80783
                        -----------------------------------------
Magnitude (a.u.)       :      1.55984
Magnitude (Debye)      :      3.96479

Rotational constants in cm-1:     0.289746     0.063008     0.055947
Rotational constants in MHz :  8686.366056  1888.927629  1677.243755

                             ****ORCA TERMINATED NORMALLY****
TOTAL RUN TIME: 0 days 0 hours 8 minutes 23 seconds 109 msec
