                         Program Version 5.0.4 -  RELEASE  -
|  1> !ri-mp2 aug-cc-pvqz aug-cc-pvqz/c tightscf
|  2> %pal nprocs 16 end
|  3>
|  4> * xyz 0 1
|  5> C      0.000000    0.000000    0.096002
|  6> C      0.000000    2.447119    0.009890
|  7> C      0.000000   -2.447119    0.009890
|  8> N      0.094200    1.156237   -0.651588
|  9> N     -0.094200   -1.156237   -0.651588
| 10> O      0.000000    0.000000    1.316825
| 11> H     -1.012864    2.672349    0.355132
| 12> H      0.320580    3.222188   -0.683998
| 13> H      0.658299    2.453848    0.874307
| 14> H      1.012864   -2.672349    0.355132
| 15> H     -0.320580   -3.222188   -0.683998
| 16> H     -0.658299   -2.453848    0.874307
| 17> H     -0.241505    1.113406   -1.598970
| 18> H      0.241505   -1.113406   -1.598970
| 19> *
| 20>
| 21>                          ****END OF INPUT****

CARTESIAN COORDINATES (ANGSTROEM)
---------------------------------
  C      0.000000    0.000000    0.096002
  C      0.000000    2.447119    0.009890
  C      0.000000   -2.447119    0.009890
  N      0.094200    1.156237   -0.651588
  N     -0.094200   -1.156237   -0.651588
  O      0.000000    0.000000    1.316825
  H     -1.012864    2.672349    0.355132
  H      0.320580    3.222188   -0.683998
  H      0.658299    2.453848    0.874307
  H      1.012864   -2.672349    0.355132
  H     -0.320580   -3.222188   -0.683998
  H     -0.658299   -2.453848    0.874307
  H     -0.241505    1.113406   -1.598970
  H      0.241505   -1.113406   -1.598970

 Total Charge           Charge          ....    0
 Multiplicity           Mult            ....    1
 Number of Electrons    NEL             ....   48
 Basis Dimension        Dim             ....  848

ORBITAL ENERGIES
----------------

  NO   OCC          E(Eh)            E(eV)
   0   2.0000     -20.503493      -557.9284
   1   2.0000     -15.575552      -423.8323
   2   2.0000     -15.575526      -423.8316
   3   2.0000     -11.366016      -309.2850
   4   2.0000     -11.253334      -306.2188
   5   2.0000     -11.253334      -306.2188
   6   2.0000      -1.385468       -37.7005
   7   2.0000      -1.237845       -33.6835
   8   2.0000      -1.201329       -32.6898
   9   2.0000      -0.969231       -26.3741
  10   2.0000      -0.906225       -24.6596
  11   2.0000      -0.789435       -21.4816
  12   2.0000      -0.751469       -20.4485
  13   2.0000      -0.662484       -18.0271
  14   2.0000      -0.639742       -17.4083
  15   2.0000      -0.613365       -16.6905
  16   2.0000      -0.595199       -16.1962
  17   2.0000      -0.581802       -15.8316
  18   2.0000      -0.543600       -14.7921
  19   2.0000      -0.542558       -14.7638
  20   2.0000      -0.531718       -14.4688
  21   2.0000      -0.438797       -11.9403
  22   2.0000      -0.401827       -10.9343
  23   2.0000      -0.388057       -10.5596
  24   0.0000       0.018849         0.5129
  25   0.0000       0.029348         0.7986
  26   0.0000       0.037696         1.0257
  27   0.0000       0.039333         1.0703
  28   0.0000       0.048035         1.3071

MULLIKEN ATOMIC CHARGES
-----------------------
   0 C :    1.123483
   1 C :   -0.847887
   2 C :   -0.847887
   3 N :   -0.501987
   4 N :   -0.501987
   5 O :   -0.796129
   6 H :    0.275931
   7 H :    0.350887
   8 H :    0.303203
   9 H :    0.275931
  10 H :    0.350887
  11 H :    0.303203
  12 H :    0.256176
  13 H :    0.256176
Sum of atomic charges:    0.0000000

LOEWDIN ATOMIC CHARGES
----------------------
   0 C :   -1.029378
   1 C :    0.764021
   2 C :    0.764021
   3 N :    0.811940
   4 N :    0.811940
   5 O :    0.702279
   6 H :   -0.279850
   7 H :   -0.298616
   8 H :   -0.320753
   9 H :   -0.279850
  10 H :   -0.298616
  11 H :   -0.320753
  12 H :   -0.513193
  13 H :   -0.513193

  Mayer bond orders larger than 0.100000
B(  0-C ,  3-N ) :   1.1635 B(  0-C ,  4-N ) :   1.1635 B(  0-C ,  5-O ) :   1.3787
B(  1-C ,  3-N ) :   0.8302 B(  1-C ,  6-H ) :   0.9601 B(  1-C ,  7-H ) :   0.9074
B(  1-C ,  8-H ) :   0.9346 B(  2-C ,  4-N ) :   0.8302 B(  2-C ,  9-H ) :   0.9601
B(  2-C , 10-H ) :   0.9074 B(  2-C , 11-H ) :   0.9346 B(  3-N ,  5-O ) :   0.1140
B(  3-N , 12-H ) :   0.9575 B(  4-N ,  5-O ) :   0.1140 B(  4-N , 13-H ) :   0.9575

MP2 TOTAL ENERGY:     -303.425766960 Eh
FINAL SINGLE POINT ENERGY      -303.425766960308

DIPOLE MOMENT
-------------
                                X             Y             Z
Electronic contribution:     -0.00000      -0.00000       0.56701
Nuclear contribution   :      0.00000       0.00000      -2.14237
                        -----------------------------------------
Total Dipole Moment    :     -0.00000      -0.00000      -1.57536
                        -----------------------------------------
Magnitude (a.u.)       :      1.57536
Magnitude (Debye)      :      4.00425

Rotational constants in cm-1:     0.330003     0.071800     0.060446
Rotational constants in MHz :  9893.232964  2152.507947  1812.113694

                             ****ORCA TERMINATED NORMALLY****
TOTAL RUN TIME: 0 days 0 hours 21 minutes 34 seconds 787 msec
