                         Program Version 5.0.4 -  RELEASE  -
|  1> !ri-mp2 aug-cc-pvqz aug-cc-pvqz/c tightscf
|  2> %pal nprocs 16 end
|  3>
|  4> * xyz 0 1
|  5> S     -1.804112   -0.039089   -0.085409
|  6> N     -0.228364   -0.684420    0.016954
|  7> N      0.819790    1.392841   -0.011749
|  8> N      2.070170   -0.650194    0.057789
|  9> C      0.910802    0.124627   -0.000028
| 10> H     -1.789467    0.778881    0.993822
| 11> H     -0.146667   -1.513718    0.584188
| 12> H      1.724397    1.840201   -0.118314
| 13> H      2.927975   -0.134408   -0.049798
| 14> H      2.053559   -1.500893   -0.484146
| 15> *
| 16>
| 17>                          ****END OF INPUT****

CARTESIAN COORDINATES (ANGSTROEM)
---------------------------------
  S     -1.804112   -0.039089   -0.085409
  N     -0.228364   -0.684420    0.016954
  N      0.819790    1.392841   -0.011749
  N      2.070170   -0.650194    0.057789
  C      0.910802    0.124627   -0.000028
  H     -1.789467    0.778881    0.993822
  H     -0.146667   -1.513718    0.584188
  H      1.724397    1.840201   -0.118314
  H      2.927975   -0.134408   -0.049798
  H      2.053559   -1.500893   -0.484146

 Total Charge           Charge          ....    0
 Multiplicity           Mult            ....    1
 Number of Electrons    NEL             ....   48
 Basis Dimension        Dim             ....  634

ORBITAL ENERGIES
----------------

  NO   OCC          E(Eh)            E(eV)
   0   2.0000     -91.981512     -2502.9442
   1   2.0000     -15.598391      -424.4538
   2   2.0000     -15.585837      -424.1122
   3   2.0000     -15.520476      -422.3336
   4   2.0000     -11.353415      -308.9421
   5   2.0000      -8.979829      -244.3536
   6   2.0000      -6.661519      -181.2691
   7   2.0000      -6.660155      -181.2320
   8   2.0000      -6.659266      -181.2078
   9   2.0000      -1.308567       -35.6079
  10   2.0000      -1.190785       -32.4029
  11   2.0000      -1.148368       -31.2487
  12   2.0000      -0.947423       -25.7807
  13   2.0000      -0.803495       -21.8642
  14   2.0000      -0.730518       -19.8784
  15   2.0000      -0.709486       -19.3061
  16   2.0000      -0.643142       -17.5008
  17   2.0000      -0.624734       -16.9999
  18   2.0000      -0.558842       -15.2069
  19   2.0000      -0.507316       -13.8048
  20   2.0000      -0.440115       -11.9761
  21   2.0000      -0.422815       -11.5054
  22   2.0000      -0.379372       -10.3232
  23   2.0000      -0.363400        -9.8886
  24   0.0000       0.018222         0.4958
  25   0.0000       0.032621         0.8877
  26   0.0000       0.037043         1.0080
  27   0.0000       0.048123         1.3095
  28   0.0000       0.052625         1.4320

MULLIKEN ATOMIC CHARGES
-----------------------
   0 S :    0.108709
   1 N :   -0.592087
   2 N :   -0.754257
   3 N :   -0.725274
   4 C :    0.686509
   5 H :    0.088777
   6 H :    0.311626
   7 H :    0.287810
   8 H :    0.271387
   9 H :    0.316800
Sum of atomic charges:   -0.0000000

LOEWDIN ATOMIC CHARGES
----------------------
   0 S :    1.418482
   1 N :    0.315621
   2 N :    0.915286
   3 N :    1.252167
   4 C :   -0.785873
   5 H :   -0.754683
   6 H :   -0.645361
   7 H :   -0.694981
   8 H :   -0.515415
   9 H :   -0.505245

  Mayer bond orders larger than 0.100000
B(  0-S ,  1-N ) :   0.9068 B(  0-S ,  5-H ) :   0.9726 B(  1-N ,  4-C ) :   1.1141
B(  1-N ,  6-H ) :   0.8844 B(  2-N ,  4-C ) :   1.7421 B(  2-N ,  7-H ) :   0.8578
B(  3-N ,  4-C ) :   1.0753 B(  3-N ,  8-H ) :   0.9261 B(  3-N ,  9-H ) :   0.8634

MP2 TOTAL ENERGY:     -602.789706500 Eh
FINAL SINGLE POINT ENERGY      -602.789706499958

DIPOLE MOMENT
-------------
                                X             Y             Z
Electronic contribution:     -3.71950      -0.31416      -0.79823
Nuclear contribution   :      4.78879      -0.52268       0.91872
                        -----------------------------------------
Total Dipole Moment    :      1.06929      -0.83684       0.12049
                        -----------------------------------------
Magnitude (a.u.)       :      1.36315
Magnitude (Debye)      :      3.46486

Rotational constants in cm-1:     0.335016     0.082132     0.066912
Rotational constants in MHz : 10043.535216  2462.247166  2005.980480

                             ****ORCA TERMINATED NORMALLY****
TOTAL RUN TIME: 0 days 0 hours 7 minutes 32 seconds 359 msec
