                         Program Version 5.0.4 -  RELEASE  -
|  1> !ri-mp2 aug-cc-pvqz aug-cc-pvqz/c tightscf
|  2> %pal nprocs 16 end
|  3> %maxcore 3800
|  4>
|  5> * xyz 0 1
|  6> C      4.970457   -0.129620    0.573340
|  7> C      3.980470   -0.194879   -0.308575
|  8> C     -3.651956   -0.553136    0.088042
|  9> C      2.695911    0.573157   -0.232484
| 10> C     -2.411683    0.337221    0.003428
| 11> C      1.456682   -0.330273   -0.147562
| 12> C     -1.096612   -0.441957   -0.031602
| 13> C      0.142340    0.449970   -0.118069
| 14> C     -4.960299    0.234816    0.126740
| 15> H      5.870978   -0.718575    0.461701
| 16> H      4.915733    0.519817    1.439288
| 17> H      4.082499   -0.862497   -1.160575
| 18> H     -3.662992   -1.236357   -0.766511
| 19> H     -3.581017   -1.184624    0.978831
| 20> H      2.603275    1.205727   -1.122753
| 21> H      2.721293    1.246627    0.628130
| 22> H     -2.482102    0.968002   -0.889247
| 23> H     -2.402836    1.023095    0.857279
| 24> H      1.452629   -1.017103   -0.999926
| 25> H      1.532776   -0.955399    0.746703
| 26> H     -1.106759   -1.128904   -0.884359
| 27> H     -1.026517   -1.070974    0.862031
| 28> H      0.074720    1.076852   -1.013503
| 29> H      0.150888    1.138809    0.733091
| 30> H     -5.824377   -0.428184    0.188857
| 31> H     -5.077618    0.848983   -0.768541
| 32> H     -4.992428    0.902909    0.989943
| 33> *
| 34>
| 35>                          ****END OF INPUT****

CARTESIAN COORDINATES (ANGSTROEM)
---------------------------------
  C      4.970457   -0.129620    0.573340
  C      3.980470   -0.194879   -0.308575
  C     -3.651956   -0.553136    0.088042
  C      2.695911    0.573157   -0.232484
  C     -2.411683    0.337221    0.003428
  C      1.456682   -0.330273   -0.147562
  C     -1.096612   -0.441957   -0.031602
  C      0.142340    0.449970   -0.118069
  C     -4.960299    0.234816    0.126740
  H      5.870978   -0.718575    0.461701
  H      4.915733    0.519817    1.439288
  H      4.082499   -0.862497   -1.160575
  H     -3.662992   -1.236357   -0.766511
  H     -3.581017   -1.184624    0.978831
  H      2.603275    1.205727   -1.122753
  H      2.721293    1.246627    0.628130
  H     -2.482102    0.968002   -0.889247
  H     -2.402836    1.023095    0.857279
  H      1.452629   -1.017103   -0.999926
  H      1.532776   -0.955399    0.746703
  H     -1.106759   -1.128904   -0.884359
  H     -1.026517   -1.070974    0.862031
  H      0.074720    1.076852   -1.013503
  H      0.150888    1.138809    0.733091
  H     -5.824377   -0.428184    0.188857
  H     -5.077618    0.848983   -0.768541
  H     -4.992428    0.902909    0.989943

 Total Charge           Charge          ....    0
 Multiplicity           Mult            ....    1
 Number of Electrons    NEL             ....   72
 Basis Dimension        Dim             .... 1548

ORBITAL ENERGIES
----------------

  NO   OCC          E(Eh)            E(eV)
   0   2.0000     -11.228439      -305.5414
   1   2.0000     -11.221413      -305.3502
   2   2.0000     -11.216894      -305.2272
   3   2.0000     -11.214797      -305.1701
   4   2.0000     -11.214424      -305.1600
   5   2.0000     -11.214330      -305.1574
   6   2.0000     -11.213148      -305.1253
   7   2.0000     -11.212288      -305.1019
   8   2.0000     -11.208318      -304.9938
   9   2.0000      -1.096884       -29.8477
  10   2.0000      -1.073364       -29.2077
  11   2.0000      -1.033650       -28.1271
  12   2.0000      -0.980314       -26.6757
  13   2.0000      -0.915534       -24.9130
  14   2.0000      -0.844661       -22.9844
  15   2.0000      -0.792965       -21.5777
  16   2.0000      -0.786723       -21.4078
  17   2.0000      -0.753881       -20.5141
  18   2.0000      -0.659269       -17.9396
  19   2.0000      -0.640079       -17.4174
  20   2.0000      -0.614950       -16.7336
  21   2.0000      -0.596656       -16.2358
  22   2.0000      -0.586737       -15.9659
  23   2.0000      -0.567681       -15.4474
  24   2.0000      -0.562305       -15.3011
  25   2.0000      -0.534287       -14.5387
  26   2.0000      -0.519022       -14.1233
  27   2.0000      -0.513651       -13.9772
  28   2.0000      -0.488390       -13.2898
  29   2.0000      -0.483666       -13.1612
  30   2.0000      -0.474989       -12.9251
  31   2.0000      -0.464754       -12.6466
  32   2.0000      -0.459350       -12.4995
  33   2.0000      -0.458837       -12.4856
  34   2.0000      -0.438611       -11.9352
  35   2.0000      -0.357692        -9.7333
  36   0.0000       0.026212         0.7133
  37   0.0000       0.027387         0.7452
  38   0.0000       0.031047         0.8448
  39   0.0000       0.031937         0.8690
  40   0.0000       0.037356         1.0165

MULLIKEN ATOMIC CHARGES
-----------------------
   0 C :   -0.893557
   1 C :   -0.663046
   2 C :   -0.525193
   3 C :   -0.344498
   4 C :   -0.290479
   5 C :   -0.330657
   6 C :   -0.371681
   7 C :   -0.372707
   8 C :   -0.914224
   9 H :    0.365665
  10 H :    0.302176
  11 H :    0.405350
  12 H :    0.224944
  13 H :    0.221884
  14 H :    0.289852
  15 H :    0.260879
  16 H :    0.223874
  17 H :    0.231935
  18 H :    0.221773
  19 H :    0.262661
  20 H :    0.253558
  21 H :    0.244574
  22 H :    0.229328
  23 H :    0.251004
  24 H :    0.266424
  25 H :    0.224959
  26 H :    0.225204
Sum of atomic charges:    0.0000000

LOEWDIN ATOMIC CHARGES
----------------------
   0 C :    0.798044
   1 C :    0.359535
   2 C :    0.508712
   3 C :    0.477376
   4 C :    0.513092
   5 C :    0.517416
   6 C :    0.525865
   7 C :    0.525378
   8 C :    0.926000
   9 H :   -0.360221
  10 H :   -0.355670
  11 H :   -0.323216
  12 H :   -0.273426
  13 H :   -0.273464
  14 H :   -0.277619
  15 H :   -0.299817
  16 H :   -0.267922
  17 H :   -0.268152
  18 H :   -0.269573
  19 H :   -0.265312
  20 H :   -0.265208
  21 H :   -0.265117
  22 H :   -0.265677
  23 H :   -0.264678
  24 H :   -0.284998
  25 H :   -0.285607
  26 H :   -0.285740

  Mayer bond orders larger than 0.100000
B(  0-C ,  1-C ) :   1.9257 B(  0-C ,  3-C ) :  -0.1796 B(  0-C ,  9-H ) :   0.9401
B(  0-C , 10-H ) :   0.9344 B(  1-C ,  3-C ) :   1.0478 B(  1-C ,  5-C ) :  -0.2573
B(  1-C , 11-H ) :   0.8208 B(  2-C ,  4-C ) :   1.0050 B(  2-C ,  6-C ) :  -0.1043
B(  2-C ,  8-C ) :   1.0573 B(  2-C , 12-H ) :   0.8798 B(  2-C , 13-H ) :   0.8860
B(  3-C ,  5-C ) :   1.0874 B(  3-C , 14-H ) :   0.8298 B(  3-C , 15-H ) :   0.8805
B(  4-C ,  6-C ) :   1.1068 B(  4-C ,  7-C ) :  -0.1281 B(  4-C ,  8-C ) :  -0.1400
B(  4-C , 16-H ) :   0.8626 B(  4-C , 17-H ) :   0.8580 B(  5-C ,  6-C ) :  -0.1049
B(  5-C ,  7-C ) :   1.1322 B(  5-C , 18-H ) :   0.8434 B(  5-C , 19-H ) :   0.8370
B(  6-C ,  7-C ) :   1.1572 B(  6-C , 20-H ) :   0.8306 B(  6-C , 21-H ) :   0.8340
B(  7-C , 22-H ) :   0.8486 B(  7-C , 23-H ) :   0.8287 B(  8-C , 24-H ) :   1.0261
B(  8-C , 25-H ) :   0.9569 B(  8-C , 26-H ) :   0.9568

MP2 TOTAL ENERGY:     -353.085993168 Eh
FINAL SINGLE POINT ENERGY      -353.085993168148

DIPOLE MOMENT
-------------
                                X             Y             Z
Electronic contribution:      7.05009      -0.34720      -0.35318
Nuclear contribution   :     -7.23204       0.35155       0.30039
                        -----------------------------------------
Total Dipole Moment    :     -0.18195       0.00435      -0.05279
                        -----------------------------------------
Magnitude (a.u.)       :      0.18950
Magnitude (Debye)      :      0.48168

Rotational constants in cm-1:     0.302485     0.012201     0.012083
Rotational constants in MHz :  9068.281737   365.775592   362.244573

                             ****ORCA TERMINATED NORMALLY****
TOTAL RUN TIME: 0 days 2 hours 17 minutes 19 seconds 406 msec
