                         Program Version 5.0.4 -  RELEASE  -
|  1> !ri-mp2 aug-cc-pvqz aug-cc-pvqz/c tightscf
|  2> %pal nprocs 16 end
|  3>
|  4> * xyz 0 1
|  5> F      1.116105    1.093260    0.040175
|  6> F      1.116118   -1.093252    0.040168
|  7> N      0.345864    0.000000   -0.426963
|  8> C     -0.813920   -0.000009    0.420336
|  9> C     -2.001377    0.000000   -0.157052
| 10> H     -0.622645   -0.000022    1.485320
| 11> H     -2.091523    0.000012   -1.234028
| 12> H     -2.905105   -0.000005    0.434659
| 13> *
| 14>
| 15>                          ****END OF INPUT****

CARTESIAN COORDINATES (ANGSTROEM)
---------------------------------
  F      1.116105    1.093260    0.040175
  F      1.116118   -1.093252    0.040168
  N      0.345864    0.000000   -0.426963
  C     -0.813920   -0.000009    0.420336
  C     -2.001377    0.000000   -0.157052
  H     -0.622645   -0.000022    1.485320
  H     -2.091523    0.000012   -1.234028
  H     -2.905105   -0.000005    0.434659

 Total Charge           Charge          ....    0
 Multiplicity           Mult            ....    1
 Number of Electrons    NEL             ....   40
 Basis Dimension        Dim             ....  538

ORBITAL ENERGIES
----------------

  NO   OCC          E(Eh)            E(eV)
   0   2.0000     -26.331308      -716.5113
   1   2.0000     -26.331288      -716.5108
   2   2.0000     -15.776547      -429.3017
   3   2.0000     -11.297333      -307.4161
   4   2.0000     -11.272824      -306.7491
   5   2.0000      -1.675146       -45.5830
   6   2.0000      -1.590855       -43.2894
   7   2.0000      -1.192113       -32.4390
   8   2.0000      -1.026931       -27.9442
   9   2.0000      -0.844844       -22.9894
  10   2.0000      -0.765105       -20.8196
  11   2.0000      -0.753468       -20.5029
  12   2.0000      -0.731130       -19.8950
  13   2.0000      -0.680750       -18.5242
  14   2.0000      -0.675294       -18.3757
  15   2.0000      -0.630109       -17.1461
  16   2.0000      -0.612099       -16.6561
  17   2.0000      -0.582728       -15.8568
  18   2.0000      -0.493221       -13.4212
  19   2.0000      -0.426229       -11.5983
  20   0.0000       0.023054         0.6273
  21   0.0000       0.033551         0.9130
  22   0.0000       0.040629         1.1056
  23   0.0000       0.063558         1.7295
  24   0.0000       0.079000         2.1497

MULLIKEN ATOMIC CHARGES
-----------------------
   0 F :   -0.417957
   1 F :   -0.417958
   2 N :    0.442021
   3 C :   -0.234124
   4 C :   -0.750238
   5 H :    0.565516
   6 H :    0.430376
   7 H :    0.382364
Sum of atomic charges:    0.0000000

LOEWDIN ATOMIC CHARGES
----------------------
   0 F :    0.454634
   1 F :    0.454635
   2 N :   -0.577473
   3 C :   -0.006075
   4 C :    0.759333
   5 H :   -0.373103
   6 H :   -0.360755
   7 H :   -0.351196

  Mayer bond orders larger than 0.100000
B(  0-F ,  2-N ) :   0.7268 B(  1-F ,  2-N ) :   0.7268 B(  2-N ,  3-C ) :   0.9059
B(  3-C ,  4-C ) :   1.7983 B(  3-C ,  5-H ) :   0.6359 B(  4-C ,  6-H ) :   0.8396
B(  4-C ,  7-H ) :   0.8824

MP2 TOTAL ENERGY:     -331.900615405 Eh
FINAL SINGLE POINT ENERGY      -331.900615405307

DIPOLE MOMENT
-------------
                                X             Y             Z
Electronic contribution:      6.18053       0.00001      -0.34268
Nuclear contribution   :     -7.43328      -0.00002       0.57410
                        -----------------------------------------
Total Dipole Moment    :     -1.25275      -0.00001       0.23141
                        -----------------------------------------
Magnitude (a.u.)       :      1.27394
Magnitude (Debye)      :      3.23811

Rotational constants in cm-1:     0.309938     0.133162     0.103401
Rotational constants in MHz :  9291.693344  3992.089490  3099.896804

                             ****ORCA TERMINATED NORMALLY****
TOTAL RUN TIME: 0 days 0 hours 4 minutes 47 seconds 244 msec
