                         Program Version 5.0.4 -  RELEASE  -
|  1> !ri-mp2 aug-cc-pvqz aug-cc-pvqz/c tightscf
|  2> %pal nprocs 16 end
|  3>
|  4> * xyz 0 1
|  5> C      0.000000    0.771893    0.000000
|  6> S      1.640420    0.979773    0.000000
|  7> N     -0.700922   -0.369480    0.000000
|  8> C     -0.070945   -1.678921    0.000000
|  9> C     -2.154440   -0.362728    0.000000
| 10> H     -0.648724    1.645722    0.000000
| 11> H     -0.374521   -2.239525    0.886803
| 12> H     -0.374521   -2.239525   -0.886803
| 13> H      1.006974   -1.550438    0.000000
| 14> H     -2.539090   -0.874548   -0.885289
| 15> H     -2.539090   -0.874548    0.885289
| 16> H     -2.518989    0.661390    0.000000
| 17> *
| 18>
| 19>                          ****END OF INPUT****

CARTESIAN COORDINATES (ANGSTROEM)
---------------------------------
  C      0.000000    0.771893    0.000000
  S      1.640420    0.979773    0.000000
  N     -0.700922   -0.369480    0.000000
  C     -0.070945   -1.678921    0.000000
  C     -2.154440   -0.362728    0.000000
  H     -0.648724    1.645722    0.000000
  H     -0.374521   -2.239525    0.886803
  H     -0.374521   -2.239525   -0.886803
  H      1.006974   -1.550438    0.000000
  H     -2.539090   -0.874548   -0.885289
  H     -2.539090   -0.874548    0.885289
  H     -2.518989    0.661390    0.000000

 Total Charge           Charge          ....    0
 Multiplicity           Mult            ....    1
 Number of Electrons    NEL             ....   48
 Basis Dimension        Dim             ....  726

ORBITAL ENERGIES
----------------

  NO   OCC          E(Eh)            E(eV)
   0   2.0000     -91.894612     -2500.5795
   1   2.0000     -15.622254      -425.1032
   2   2.0000     -11.338448      -308.5349
   3   2.0000     -11.286307      -307.1160
   4   2.0000     -11.268274      -306.6253
   5   2.0000      -8.898760      -242.1476
   6   2.0000      -6.580376      -179.0611
   7   2.0000      -6.578969      -179.0228
   8   2.0000      -6.578158      -179.0008
   9   2.0000      -1.300321       -35.3835
  10   2.0000      -1.035881       -28.1878
  11   2.0000      -0.998073       -27.1590
  12   2.0000      -0.912495       -24.8303
  13   2.0000      -0.772171       -21.0118
  14   2.0000      -0.699723       -19.0404
  15   2.0000      -0.669450       -18.2166
  16   2.0000      -0.634733       -17.2720
  17   2.0000      -0.579778       -15.7766
  18   2.0000      -0.578352       -15.7378
  19   2.0000      -0.555870       -15.1260
  20   2.0000      -0.499700       -13.5975
  21   2.0000      -0.476443       -12.9647
  22   2.0000      -0.324735        -8.8365
  23   2.0000      -0.321128        -8.7383
  24   0.0000       0.017819         0.4849
  25   0.0000       0.030245         0.8230
  26   0.0000       0.033467         0.9107
  27   0.0000       0.039815         1.0834
  28   0.0000       0.052680         1.4335

MULLIKEN ATOMIC CHARGES
-----------------------
   0 C :   -0.358269
   1 S :   -0.188494
   2 N :   -0.134007
   3 C :   -0.789000
   4 C :   -0.754626
   5 H :    0.400551
   6 H :    0.281364
   7 H :    0.281364
   8 H :    0.369654
   9 H :    0.290961
  10 H :    0.290961
  11 H :    0.309542
Sum of atomic charges:    0.0000000

LOEWDIN ATOMIC CHARGES
----------------------
   0 C :   -0.578631
   1 S :    1.032393
   2 N :    0.331458
   3 C :    0.728814
   4 C :    0.780835
   5 H :   -0.474122
   6 H :   -0.275526
   7 H :   -0.275526
   8 H :   -0.408847
   9 H :   -0.272792
  10 H :   -0.272792
  11 H :   -0.315266

  Mayer bond orders larger than 0.100000
B(  0-C ,  1-S ) :   1.4775 B(  0-C ,  2-N ) :   1.2673 B(  0-C ,  5-H ) :   0.8229
B(  2-N ,  3-C ) :   0.7085 B(  2-N ,  4-C ) :   0.7697 B(  3-C ,  6-H ) :   0.9639
B(  3-C ,  7-H ) :   0.9639 B(  3-C ,  8-H ) :   0.8559 B(  4-C ,  9-H ) :   0.9495
B(  4-C , 10-H ) :   0.9495 B(  4-C , 11-H ) :   0.9136

MP2 TOTAL ENERGY:     -570.701528300 Eh
FINAL SINGLE POINT ENERGY      -570.701528299808

DIPOLE MOMENT
-------------
                                X             Y             Z
Electronic contribution:      6.18777       4.64676       0.00000
Nuclear contribution   :     -8.13213      -5.56508       0.00000
                        -----------------------------------------
Total Dipole Moment    :     -1.94436      -0.91832       0.00000
                        -----------------------------------------
Magnitude (a.u.)       :      2.15032
Magnitude (Debye)      :      5.46567

Rotational constants in cm-1:     0.299153     0.079689     0.064449
Rotational constants in MHz :  8968.379548  2389.011624  1932.146693

                             ****ORCA TERMINATED NORMALLY****
TOTAL RUN TIME: 0 days 0 hours 12 minutes 42 seconds 668 msec
