                         Program Version 5.0.4 -  RELEASE  -
|  1> !ri-mp2 aug-cc-pvqz aug-cc-pvqz/c tightscf
|  2> %pal nprocs 16 end
|  3>
|  4> * xyz 0 1
|  5> Cl     0.728531    1.497292    0.772640
|  6> Cl     2.223389   -0.562465   -0.591632
|  7> O     -2.668641   -0.240390    0.519523
|  8> O     -1.881708    0.532517   -1.435981
|  9> N      0.638389    0.232441   -0.474123
| 10> C     -0.389595   -0.778712   -0.100354
| 11> C     -1.770143   -0.126666   -0.269201
| 12> C     -0.253722   -1.474534    1.243293
| 13> H     -2.779254    0.895548   -1.477125
| 14> H     -0.305243   -1.508256   -0.910817
| 15> H      0.726260   -1.938756    1.327217
| 16> H     -0.395120   -0.777206    2.064971
| 17> H     -1.014466   -2.248024    1.326727
| 18> *
| 19>
| 20>                          ****END OF INPUT****

CARTESIAN COORDINATES (ANGSTROEM)
---------------------------------
  Cl     0.728531    1.497292    0.772640
  Cl     2.223389   -0.562465   -0.591632
  O     -2.668641   -0.240390    0.519523
  O     -1.881708    0.532517   -1.435981
  N      0.638389    0.232441   -0.474123
  C     -0.389595   -0.778712   -0.100354
  C     -1.770143   -0.126666   -0.269201
  C     -0.253722   -1.474534    1.243293
  H     -2.779254    0.895548   -1.477125
  H     -0.305243   -1.508256   -0.910817
  H      0.726260   -1.938756    1.327217
  H     -0.395120   -0.777206    2.064971
  H     -1.014466   -2.248024    1.326727

 Total Charge           Charge          ....    0
 Multiplicity           Mult            ....    1
 Number of Electrons    NEL             ....   80
 Basis Dimension        Dim             ....  878

ORBITAL ENERGIES
----------------

  NO   OCC          E(Eh)            E(eV)
   0   2.0000    -104.878922     -2853.9006
   1   2.0000    -104.876233     -2853.8274
   2   2.0000     -20.624774      -561.2286
   3   2.0000     -20.566981      -559.6560
   4   2.0000     -15.704534      -427.3421
   5   2.0000     -11.405021      -310.3464
   6   2.0000     -11.318307      -307.9868
   7   2.0000     -11.235732      -305.7398
   8   2.0000     -10.601500      -288.4815
   9   2.0000     -10.598971      -288.4127
  10   2.0000      -8.068534      -219.5560
  11   2.0000      -8.066294      -219.4950
  12   2.0000      -8.066111      -219.4900
  13   2.0000      -8.065999      -219.4870
  14   2.0000      -8.063777      -219.4265
  15   2.0000      -8.063583      -219.4213
  16   2.0000      -1.483824       -40.3769
  17   2.0000      -1.381718       -37.5985
  18   2.0000      -1.302327       -35.4381
  19   2.0000      -1.109416       -30.1887
  20   2.0000      -1.094877       -29.7931
  21   2.0000      -0.977904       -26.6101
  22   2.0000      -0.910582       -24.7782
  23   2.0000      -0.803634       -21.8680
  24   2.0000      -0.725956       -19.7543
  25   2.0000      -0.720074       -19.5942
  26   2.0000      -0.689604       -18.7651
  27   2.0000      -0.634297       -17.2601
  28   2.0000      -0.625175       -17.0119
  29   2.0000      -0.616102       -16.7650
  30   2.0000      -0.596674       -16.2363
  31   2.0000      -0.552785       -15.0420
  32   2.0000      -0.548801       -14.9336
  33   2.0000      -0.530678       -14.4405
  34   2.0000      -0.501094       -13.6355
  35   2.0000      -0.494174       -13.4471
  36   2.0000      -0.482737       -13.1360
  37   2.0000      -0.465315       -12.6619
  38   2.0000      -0.458526       -12.4771
  39   2.0000      -0.411303       -11.1921
  40   0.0000       0.024779         0.6743
  41   0.0000       0.030543         0.8311
  42   0.0000       0.036731         0.9995
  43   0.0000       0.043038         1.1711
  44   0.0000       0.050527         1.3749

MULLIKEN ATOMIC CHARGES
-----------------------
   0 Cl:   -0.110875
   1 Cl:   -0.120894
   2 O :   -0.816171
   3 O :   -0.708541
   4 N :   -0.255406
   5 C :    0.238443
   6 C :    1.104782
   7 C :   -0.889223
   8 H :    0.331342
   9 H :    0.408878
  10 H :    0.288972
  11 H :    0.257698
  12 H :    0.270994
Sum of atomic charges:   -0.0000000

LOEWDIN ATOMIC CHARGES
----------------------
   0 Cl:    0.874184
   1 Cl:    0.869056
   2 O :    0.727345
   3 O :    1.252532
   4 N :   -0.827593
   5 C :   -0.461630
   6 C :   -1.102960
   7 C :    0.805191
   8 H :   -0.801494
   9 H :   -0.382632
  10 H :   -0.333066
  11 H :   -0.330146
  12 H :   -0.288787

  Mayer bond orders larger than 0.100000
B(  0-Cl,  4-N ) :   0.9154 B(  0-Cl,  5-C ) :  -0.1595 B(  1-Cl,  4-N ) :   0.9525
B(  1-Cl,  5-C ) :  -0.1860 B(  2-O ,  5-C ) :   0.1641 B(  2-O ,  6-C ) :   1.3317
B(  3-O ,  6-C ) :   0.8427 B(  3-O ,  8-H ) :   0.9464 B(  4-N ,  5-C ) :   0.8463
B(  5-C ,  6-C ) :   0.9899 B(  5-C ,  7-C ) :   0.8327 B(  5-C ,  9-H ) :   0.7485
B(  7-C , 10-H ) :   0.9553 B(  7-C , 11-H ) :   0.9420 B(  7-C , 12-H ) :   0.9767

MP2 TOTAL ENERGY:    -1241.493449893 Eh
FINAL SINGLE POINT ENERGY     -1241.493449893228

DIPOLE MOMENT
-------------
                                X             Y             Z
Electronic contribution:      7.60037       6.14225      -2.19920
Nuclear contribution   :     -7.66425      -6.56977       1.95414
                        -----------------------------------------
Total Dipole Moment    :     -0.06388      -0.42752      -0.24506
                        -----------------------------------------
Magnitude (a.u.)       :      0.49690
Magnitude (Debye)      :      1.26303

Rotational constants in cm-1:     0.068196     0.032287     0.029848
Rotational constants in MHz :  2044.468826   967.929450   894.806501

                             ****ORCA TERMINATED NORMALLY****
TOTAL RUN TIME: 0 days 0 hours 28 minutes 48 seconds 453 msec
