                         Program Version 5.0.4 -  RELEASE  -
|  1> !ri-mp2 aug-cc-pvqz aug-cc-pvqz/c tightscf
|  2> %pal nprocs 16 end
|  3>
|  4> * xyz 0 1
|  5> C     3.276469   -0.292227    0.099087
|  6> C     2.790514    0.999064    0.229996
|  7> C     1.181024   -1.031756   -0.375895
|  8> C     0.688197    0.275288   -0.221938
|  9> C    -3.203955    0.336431   -0.890716
| 10> N     2.463709   -1.307293   -0.206599
| 11> N     1.497661    1.284923    0.078596
| 12> N    -0.655790    0.607184   -0.433652
| 13> O    -2.260256   -0.137191    1.534977
| 14> S    -1.909653   -0.449316    0.121673
| 15> H     4.326381   -0.516346    0.234552
| 16> H     3.449330    1.825368    0.467782
| 17> H     0.524349   -1.850733   -0.640400
| 18> H    -4.132247   -0.170891   -0.639919
| 19> H    -2.965474    0.215129   -1.944190
| 20> H    -3.270616    1.387654   -0.614934
| 21> H    -0.827771    1.581914   -0.201099
| 22> *
| 23>
| 24>                          ****END OF INPUT****

CARTESIAN COORDINATES (ANGSTROEM)
---------------------------------
  C      3.276469   -0.292227    0.099087
  C      2.790514    0.999064    0.229996
  C      1.181024   -1.031756   -0.375895
  C      0.688197    0.275288   -0.221938
  C     -3.203955    0.336431   -0.890716
  N      2.463709   -1.307293   -0.206599
  N      1.497661    1.284923    0.078596
  N     -0.655790    0.607184   -0.433652
  O     -2.260256   -0.137191    1.534977
  S     -1.909653   -0.449316    0.121673
  H      4.326381   -0.516346    0.234552
  H      3.449330    1.825368    0.467782
  H      0.524349   -1.850733   -0.640400
  H     -4.132247   -0.170891   -0.639919
  H     -2.965474    0.215129   -1.944190
  H     -3.270616    1.387654   -0.614934
  H     -0.827771    1.581914   -0.201099

 Total Charge           Charge          ....    0
 Multiplicity           Mult            ....    1
 Number of Electrons    NEL             ....   82
 Basis Dimension        Dim             .... 1126

ORBITAL ENERGIES
----------------

  NO   OCC          E(Eh)            E(eV)
   0   2.0000     -92.110856     -2506.4638
   1   2.0000     -20.526231      -558.5471
   2   2.0000     -15.611043      -424.7981
   3   2.0000     -15.597091      -424.4184
   4   2.0000     -15.589325      -424.2071
   5   2.0000     -11.337511      -308.5094
   6   2.0000     -11.289511      -307.2032
   7   2.0000     -11.284662      -307.0713
   8   2.0000     -11.275614      -306.8251
   9   2.0000     -11.275020      -306.8089
  10   2.0000      -9.093538      -247.4478
  11   2.0000      -6.775884      -184.3812
  12   2.0000      -6.775078      -184.3592
  13   2.0000      -6.773806      -184.3246
  14   2.0000      -1.370193       -37.2848
  15   2.0000      -1.327773       -36.1305
  16   2.0000      -1.253875       -34.1197
  17   2.0000      -1.207482       -32.8572
  18   2.0000      -1.059862       -28.8403
  19   2.0000      -1.022989       -27.8370
  20   2.0000      -0.916951       -24.9515
  21   2.0000      -0.898494       -24.4493
  22   2.0000      -0.848632       -23.0924
  23   2.0000      -0.742269       -20.1982
  24   2.0000      -0.727585       -19.7986
  25   2.0000      -0.698402       -19.0045
  26   2.0000      -0.659974       -17.9588
  27   2.0000      -0.641277       -17.4500
  28   2.0000      -0.630960       -17.1693
  29   2.0000      -0.617697       -16.8084
  30   2.0000      -0.599171       -16.3043
  31   2.0000      -0.586606       -15.9624
  32   2.0000      -0.569756       -15.5038
  33   2.0000      -0.550979       -14.9929
  34   2.0000      -0.505363       -13.7516
  35   2.0000      -0.494431       -13.4542
  36   2.0000      -0.459533       -12.5045
  37   2.0000      -0.433582       -11.7984
  38   2.0000      -0.420686       -11.4474
  39   2.0000      -0.396572       -10.7913
  40   2.0000      -0.336696        -9.1620
  41   0.0000       0.021472         0.5843
  42   0.0000       0.026398         0.7183
  43   0.0000       0.031952         0.8695
  44   0.0000       0.037727         1.0266
  45   0.0000       0.040853         1.1117

MULLIKEN ATOMIC CHARGES
-----------------------
   0 C :   -0.212207
   1 C :   -0.376429
   2 C :   -0.088070
   3 C :    0.965289
   4 C :   -1.080874
   5 N :   -0.746155
   6 N :   -0.707089
   7 N :   -0.789185
   8 O :   -1.186512
   9 S :    1.365742
  10 H :    0.515778
  11 H :    0.480595
  12 H :    0.490920
  13 H :    0.411293
  14 H :    0.353755
  15 H :    0.307478
  16 H :    0.295673
Sum of atomic charges:    0.0000000

LOEWDIN ATOMIC CHARGES
----------------------
   0 C :    0.074058
   1 C :    0.078043
   2 C :    0.046284
   3 C :   -0.604574
   4 C :    0.743543
   5 N :    0.590678
   6 N :    0.599113
   7 N :    0.585380
   8 O :    0.093913
   9 S :    0.564987
  10 H :   -0.359669
  11 H :   -0.349495
  12 H :   -0.378856
  13 H :   -0.361070
  14 H :   -0.348614
  15 H :   -0.347884
  16 H :   -0.625838

  Mayer bond orders larger than 0.100000
B(  0-C ,  1-C ) :   1.2813 B(  0-C ,  5-N ) :   1.2289 B(  0-C , 10-H ) :   0.8122
B(  1-C ,  2-C ) :   0.1098 B(  1-C ,  5-N ) :   0.1596 B(  1-C ,  6-N ) :   1.1675
B(  1-C , 11-H ) :   0.8732 B(  2-C ,  3-C ) :   1.2122 B(  2-C ,  5-N ) :   1.0472
B(  2-C ,  6-N ) :   0.1132 B(  2-C , 12-H ) :   0.8033 B(  3-C ,  6-N ) :   0.8887
B(  3-C ,  7-N ) :   0.8989 B(  4-C ,  9-S ) :   0.9871 B(  4-C , 13-H ) :   0.8222
B(  4-C , 14-H ) :   0.8795 B(  4-C , 15-H ) :   0.8759 B(  5-N , 10-H ) :  -0.1135
B(  5-N , 12-H ) :  -0.1321 B(  6-N , 11-H ) :  -0.1123 B(  7-N ,  9-S ) :   0.8679
B(  7-N , 16-H ) :   0.8972 B(  8-O ,  9-S ) :   1.1446

MP2 TOTAL ENERGY:     -831.267661574 Eh
FINAL SINGLE POINT ENERGY      -831.267661574198

DIPOLE MOMENT
-------------
                                X             Y             Z
Electronic contribution:      2.60609      -1.97177       1.93091
Nuclear contribution   :     -2.79546       2.43677      -3.25369
                        -----------------------------------------
Total Dipole Moment    :     -0.18938       0.46500      -1.32278
                        -----------------------------------------
Magnitude (a.u.)       :      1.41486
Magnitude (Debye)      :      3.59630

Rotational constants in cm-1:     0.106876     0.020626     0.019674
Rotational constants in MHz :  3204.054903   618.358821   589.812714

                             ****ORCA TERMINATED NORMALLY****
TOTAL RUN TIME: 0 days 0 hours 56 minutes 37 seconds 906 msec
