                         Program Version 5.0.4 -  RELEASE  -
|  1> !ri-mp2 aug-cc-pvqz aug-cc-pvqz/c tightscf
|  2> %pal nprocs 16 end
|  3>
|  4> * xyz 0 1
|  5> C     0.000000     0.000000    1.353978
|  6> C     0.000000     1.120429    0.272438
|  7> C     0.000000    -1.120429    0.272438
|  8> C     1.240122     0.664758   -0.520057
|  9> C     1.240122    -0.664758   -0.520057
| 10> C    -1.240122     0.664758   -0.520057
| 11> C    -1.240122    -0.664758   -0.520057
| 12> H    -0.896605     0.000000    1.972745
| 13> H     0.896605     0.000000    1.972745
| 14> H     0.000000     2.152954    0.608976
| 15> H     0.000000    -2.152954    0.608976
| 16> H     1.927551     1.330663   -1.018798
| 17> H     1.927551    -1.330663   -1.018798
| 18> H    -1.927551     1.330663   -1.018798
| 19> H    -1.927551    -1.330663   -1.018798
| 20> *
| 21>
| 22>                          ****END OF INPUT****

CARTESIAN COORDINATES (ANGSTROEM)
---------------------------------
  C      0.000000    0.000000    1.353978
  C      0.000000    1.120429    0.272438
  C      0.000000   -1.120429    0.272438
  C      1.240122    0.664758   -0.520057
  C      1.240122   -0.664758   -0.520057
  C     -1.240122    0.664758   -0.520057
  C     -1.240122   -0.664758   -0.520057
  H     -0.896605    0.000000    1.972745
  H      0.896605    0.000000    1.972745
  H      0.000000    2.152954    0.608976
  H      0.000000   -2.152954    0.608976
  H      1.927551    1.330663   -1.018798
  H      1.927551   -1.330663   -1.018798
  H     -1.927551    1.330663   -1.018798
  H     -1.927551   -1.330663   -1.018798

 Total Charge           Charge          ....    0
 Multiplicity           Mult            ....    1
 Number of Electrons    NEL             ....   50
 Basis Dimension        Dim             ....  928

ORBITAL ENERGIES
----------------

  NO   OCC          E(Eh)            E(eV)
   0   2.0000     -11.235271      -305.7273
   1   2.0000     -11.235268      -305.7272
   2   2.0000     -11.222947      -305.3919
   3   2.0000     -11.219912      -305.3093
   4   2.0000     -11.219886      -305.3086
   5   2.0000     -11.218125      -305.2607
   6   2.0000     -11.218110      -305.2603
   7   2.0000      -1.184431       -32.2300
   8   2.0000      -1.016520       -27.6609
   9   2.0000      -0.957463       -26.0539
  10   2.0000      -0.943711       -25.6797
  11   2.0000      -0.773575       -21.0501
  12   2.0000      -0.760223       -20.6867
  13   2.0000      -0.703320       -19.1383
  14   2.0000      -0.687945       -18.7199
  15   2.0000      -0.649991       -17.6872
  16   2.0000      -0.579836       -15.7781
  17   2.0000      -0.529379       -14.4051
  18   2.0000      -0.521877       -14.2010
  19   2.0000      -0.513742       -13.9796
  20   2.0000      -0.490694       -13.3525
  21   2.0000      -0.460454       -12.5296
  22   2.0000      -0.459733       -12.5100
  23   2.0000      -0.361341        -9.8326
  24   2.0000      -0.320208        -8.7133
  25   0.0000       0.025723         0.6999
  26   0.0000       0.028853         0.7851
  27   0.0000       0.032059         0.8724
  28   0.0000       0.033795         0.9196
  29   0.0000       0.043911         1.1949

MULLIKEN ATOMIC CHARGES
-----------------------
   0 C :   -0.584023
   1 C :   -0.126470
   2 C :   -0.126470
   3 C :   -0.535508
   4 C :   -0.535508
   5 C :   -0.535503
   6 C :   -0.535503
   7 H :    0.311068
   8 H :    0.311069
   9 H :    0.376347
  10 H :    0.376347
  11 H :    0.401040
  12 H :    0.401040
  13 H :    0.401037
  14 H :    0.401037
Sum of atomic charges:    0.0000000

LOEWDIN ATOMIC CHARGES
----------------------
   0 C :    0.486099
   1 C :    0.085541
   2 C :    0.085541
   3 C :    0.386792
   4 C :    0.386792
   5 C :    0.386792
   6 C :    0.386792
   7 H :   -0.256416
   8 H :   -0.256416
   9 H :   -0.261248
  10 H :   -0.261248
  11 H :   -0.292255
  12 H :   -0.292255
  13 H :   -0.292255
  14 H :   -0.292255

  Mayer bond orders larger than 0.100000
B(  0-C ,  1-C ) :   0.9809 B(  0-C ,  2-C ) :   0.9809 B(  0-C ,  7-H ) :   0.8718
B(  0-C ,  8-H ) :   0.8718 B(  1-C ,  3-C ) :   0.8718 B(  1-C ,  4-C ) :  -0.1244
B(  1-C ,  5-C ) :   0.8718 B(  1-C ,  6-C ) :  -0.1244 B(  1-C ,  9-H ) :   0.9044
B(  2-C ,  3-C ) :  -0.1244 B(  2-C ,  4-C ) :   0.8718 B(  2-C ,  5-C ) :  -0.1244
B(  2-C ,  6-C ) :   0.8718 B(  2-C , 10-H ) :   0.9044 B(  3-C ,  4-C ) :   1.6348
B(  3-C ,  5-C ) :   0.1164 B(  3-C , 11-H ) :   0.9179 B(  4-C ,  6-C ) :   0.1164
B(  4-C , 12-H ) :   0.9179 B(  5-C ,  6-C ) :   1.6348 B(  5-C , 13-H ) :   0.9179
B(  6-C , 14-H ) :   0.9179

MP2 TOTAL ENERGY:     -270.974858872 Eh
FINAL SINGLE POINT ENERGY      -270.974858871597

DIPOLE MOMENT
-------------
                                X             Y             Z
Electronic contribution:      0.00000      -0.00000      -1.08866
Nuclear contribution   :      0.00000       0.00000       1.10907
                        -----------------------------------------
Total Dipole Moment    :      0.00000      -0.00000       0.02041
                        -----------------------------------------
Magnitude (a.u.)       :      0.02041
Magnitude (Debye)      :      0.05187

Rotational constants in cm-1:     0.143551     0.120369     0.106452
Rotational constants in MHz :  4303.562731  3608.559784  3191.346092

                             ****ORCA TERMINATED NORMALLY****
TOTAL RUN TIME: 0 days 0 hours 41 minutes 16 seconds 689 msec
