                         Program Version 5.0.4 -  RELEASE  -
|  1> !ri-mp2 aug-cc-pvqz aug-cc-pvqz/c tightscf
|  2> %pal nprocs 16 end
|  3>
|  4> * xyz 0 1
|  5> C     -0.691463   -0.825035    0.000000
|  6> C      1.451045    0.342396    0.000000
|  7> C     -0.673160    1.625303    0.000000
|  8> N      0.000000    0.344183    0.000000
|  9> O     -0.204681   -1.939050    0.000000
| 10> H     -1.782485   -0.660464    0.000000
| 11> H      1.835600    0.852868    0.886378
| 12> H      1.835600    0.852868   -0.886378
| 13> H      1.793661   -0.687964    0.000000
| 14> H     -0.406192    2.208353    0.885441
| 15> H     -1.751076    1.473118    0.000000
| 16> H     -0.406192    2.208353   -0.885441
| 17> *
| 18>
| 19>                          ****END OF INPUT****

CARTESIAN COORDINATES (ANGSTROEM)
---------------------------------
  C     -0.691463   -0.825035    0.000000
  C      1.451045    0.342396    0.000000
  C     -0.673160    1.625303    0.000000
  N      0.000000    0.344183    0.000000
  O     -0.204681   -1.939050    0.000000
  H     -1.782485   -0.660464    0.000000
  H      1.835600    0.852868    0.886378
  H      1.835600    0.852868   -0.886378
  H      1.793661   -0.687964    0.000000
  H     -0.406192    2.208353    0.885441
  H     -1.751076    1.473118    0.000000
  H     -0.406192    2.208353   -0.885441

 Total Charge           Charge          ....    0
 Multiplicity           Mult            ....    1
 Number of Electrons    NEL             ....   40
 Basis Dimension        Dim             ....  722

ORBITAL ENERGIES
----------------

  NO   OCC          E(Eh)            E(eV)
   0   2.0000     -20.517075      -558.2980
   1   2.0000     -15.592610      -424.2965
   2   2.0000     -11.344011      -308.6862
   3   2.0000     -11.275483      -306.8215
   4   2.0000     -11.259216      -306.3788
   5   2.0000      -1.378612       -37.5139
   6   2.0000      -1.254534       -34.1376
   7   2.0000      -0.987159       -26.8620
   8   2.0000      -0.950383       -25.8612
   9   2.0000      -0.782251       -21.2861
  10   2.0000      -0.704662       -19.1748
  11   2.0000      -0.660043       -17.9607
  12   2.0000      -0.655254       -17.8304
  13   2.0000      -0.584660       -15.9094
  14   2.0000      -0.569228       -15.4895
  15   2.0000      -0.568973       -15.4825
  16   2.0000      -0.541871       -14.7450
  17   2.0000      -0.532081       -14.4787
  18   2.0000      -0.428405       -11.6575
  19   2.0000      -0.378007       -10.2861
  20   0.0000       0.020424         0.5558
  21   0.0000       0.031741         0.8637
  22   0.0000       0.035256         0.9594
  23   0.0000       0.040093         1.0910
  24   0.0000       0.054508         1.4832

MULLIKEN ATOMIC CHARGES
-----------------------
   0 C :    0.389251
   1 C :   -0.772980
   2 C :   -0.741613
   3 N :   -0.306829
   4 O :   -0.809596
   5 H :    0.473319
   6 H :    0.286240
   7 H :    0.286240
   8 H :    0.341861
   9 H :    0.280266
  10 H :    0.293576
  11 H :    0.280266
Sum of atomic charges:   -0.0000000

LOEWDIN ATOMIC CHARGES
----------------------
   0 C :   -0.444177
   1 C :    0.761426
   2 C :    0.765487
   3 N :    0.395912
   4 O :    0.678295
   5 H :   -0.374516
   6 H :   -0.278641
   7 H :   -0.278641
   8 H :   -0.350334
   9 H :   -0.276966
  10 H :   -0.320879
  11 H :   -0.276966

  Mayer bond orders larger than 0.100000
B(  0-C ,  3-N ) :   1.2726 B(  0-C ,  4-O ) :   1.5226 B(  0-C ,  5-H ) :   0.7803
B(  1-C ,  3-N ) :   0.7684 B(  1-C ,  6-H ) :   0.9516 B(  1-C ,  7-H ) :   0.9516
B(  1-C ,  8-H ) :   0.8898 B(  2-C ,  3-N ) :   0.7478 B(  2-C ,  9-H ) :   0.9536
B(  2-C , 10-H ) :   0.9186 B(  2-C , 11-H ) :   0.9536 B(  3-N ,  4-O ) :   0.1668

MP2 TOTAL ENERGY:     -248.126167144 Eh
FINAL SINGLE POINT ENERGY      -248.126167144373

DIPOLE MOMENT
-------------
                                X             Y             Z
Electronic contribution:     -1.32636      -4.68979       0.00000
Nuclear contribution   :      1.14664       6.39111       0.00000
                        -----------------------------------------
Total Dipole Moment    :     -0.17972       1.70132       0.00000
                        -----------------------------------------
Magnitude (a.u.)       :      1.71079
Magnitude (Debye)      :      4.34848

Rotational constants in cm-1:     0.297743     0.139889     0.098700
Rotational constants in MHz :  8926.106128  4193.773100  2958.959845

                             ****ORCA TERMINATED NORMALLY****
TOTAL RUN TIME: 0 days 0 hours 13 minutes 19 seconds 63 msec
