                         Program Version 5.0.4 -  RELEASE  -
|  1> !ri-mp2 aug-cc-pvqz aug-cc-pvqz/c tightscf
|  2> %pal nprocs 16 end
|  3>
|  4> * xyz 0 1
|  5> S      2.138126   -0.471424   -0.497762
|  6> O     -1.262728    1.239322   -1.123753
|  7> O     -0.184106    2.173393    0.574489
|  8> O     -2.195916   -1.611940    0.020091
|  9> N     -1.071021   -1.335428   -0.264211
| 10> C     -0.489680   -0.243773    0.615987
| 11> C     -0.694454    1.099412   -0.085165
| 12> C      0.973673   -0.594469    0.910781
| 13> H      2.200865    0.872262   -0.543734
| 14> H      0.192088    1.925376    1.427496
| 15> H     -1.071763   -0.233746    1.544268
| 16> H      1.349553   -0.008418    1.748575
| 17> H      1.021152   -1.637918    1.220832
| 18> *
| 19>
| 20>                          ****END OF INPUT****

CARTESIAN COORDINATES (ANGSTROEM)
---------------------------------
  S      2.138126   -0.471424   -0.497762
  O     -1.262728    1.239322   -1.123753
  O     -0.184106    2.173393    0.574489
  O     -2.195916   -1.611940    0.020091
  N     -1.071021   -1.335428   -0.264211
  C     -0.489680   -0.243773    0.615987
  C     -0.694454    1.099412   -0.085165
  C      0.973673   -0.594469    0.910781
  H      2.200865    0.872262   -0.543734
  H      0.192088    1.925376    1.427496
  H     -1.071763   -0.233746    1.544268
  H      1.349553   -0.008418    1.748575
  H      1.021152   -1.637918    1.220832

 Total Charge           Charge          ....    0
 Multiplicity           Mult            ....    1
 Number of Electrons    NEL             ....   70
 Basis Dimension        Dim             ....  874

ORBITAL ENERGIES
----------------

  NO   OCC          E(Eh)            E(eV)
   0   2.0000     -91.978851     -2502.8718
   1   2.0000     -20.652054      -561.9710
   2   2.0000     -20.637462      -561.5739
   3   2.0000     -20.570007      -559.7383
   4   2.0000     -15.721505      -427.8039
   5   2.0000     -11.413930      -310.5888
   6   2.0000     -11.322143      -308.0912
   7   2.0000     -11.311327      -307.7968
   8   2.0000      -8.980867      -244.3818
   9   2.0000      -6.662336      -181.2914
  10   2.0000      -6.661438      -181.2670
  11   2.0000      -6.660444      -181.2399
  12   2.0000      -1.548184       -42.1282
  13   2.0000      -1.486245       -40.4428
  14   2.0000      -1.393249       -37.9122
  15   2.0000      -1.153975       -31.4013
  16   2.0000      -1.036411       -28.2022
  17   2.0000      -0.933627       -25.4053
  18   2.0000      -0.897009       -24.4089
  19   2.0000      -0.841674       -22.9031
  20   2.0000      -0.765864       -20.8402
  21   2.0000      -0.725578       -19.7440
  22   2.0000      -0.701009       -19.0754
  23   2.0000      -0.667439       -18.1619
  24   2.0000      -0.664206       -18.0740
  25   2.0000      -0.635834       -17.3019
  26   2.0000      -0.624480       -16.9930
  27   2.0000      -0.598013       -16.2728
  28   2.0000      -0.578046       -15.7294
  29   2.0000      -0.553159       -15.0522
  30   2.0000      -0.507773       -13.8172
  31   2.0000      -0.486757       -13.2453
  32   2.0000      -0.472960       -12.8699
  33   2.0000      -0.420118       -11.4320
  34   2.0000      -0.384158       -10.4535
  35   0.0000       0.010851         0.2953
  36   0.0000       0.028422         0.7734
  37   0.0000       0.031259         0.8506
  38   0.0000       0.039259         1.0683
  39   0.0000       0.049041         1.3345

MULLIKEN ATOMIC CHARGES
-----------------------
   0 S :   -0.140899
   1 O :   -0.799651
   2 O :   -0.825330
   3 O :   -0.472694
   4 N :    0.036667
   5 C :    0.150589
   6 C :    1.218117
   7 C :   -0.533109
   8 H :    0.046483
   9 H :    0.384580
  10 H :    0.416402
  11 H :    0.227523
  12 H :    0.291322
Sum of atomic charges:   -0.0000000

LOEWDIN ATOMIC CHARGES
----------------------
   0 S :    1.617852
   1 O :    0.689077
   2 O :    1.255569
   3 O :    0.466472
   4 N :   -0.001883
   5 C :   -0.288147
   6 C :   -1.101700
   7 C :    0.067742
   8 H :   -0.769586
   9 H :   -0.824508
  10 H :   -0.357011
  11 H :   -0.366272
  12 H :   -0.387606

  Mayer bond orders larger than 0.100000
B(  0-S ,  5-C ) :  -0.1073 B(  0-S ,  7-C ) :   0.8929 B(  0-S ,  8-H ) :   1.0315
B(  1-O ,  5-C ) :   0.1266 B(  1-O ,  6-C ) :   1.3764 B(  2-O ,  6-C ) :   0.7281
B(  2-O ,  9-H ) :   0.8123 B(  3-O ,  4-N ) :   1.7283 B(  4-N ,  5-C ) :   0.6742
B(  5-C ,  6-C ) :   0.9964 B(  5-C ,  7-C ) :   0.9325 B(  5-C , 10-H ) :   0.7406
B(  7-C , 11-H ) :   0.9433 B(  7-C , 12-H ) :   0.8877

MP2 TOTAL ENERGY:     -794.878929832 Eh
FINAL SINGLE POINT ENERGY      -794.878929831570

DIPOLE MOMENT
-------------
                                X             Y             Z
Electronic contribution:     -2.44685      -0.86585      -3.19156
Nuclear contribution   :      3.46542       0.92677       5.25610
                        -----------------------------------------
Total Dipole Moment    :      1.01857       0.06091       2.06453
                        -----------------------------------------
Magnitude (a.u.)       :      2.30293
Magnitude (Debye)      :      5.85359

Rotational constants in cm-1:     0.065166     0.047766     0.034034
Rotational constants in MHz :  1953.641677  1431.995274  1020.298805

                             ****ORCA TERMINATED NORMALLY****
TOTAL RUN TIME: 0 days 0 hours 38 minutes 19 seconds 319 msec
