                         Program Version 5.0.4 -  RELEASE  -
|  1> !ri-mp2 aug-cc-pvqz aug-cc-pvqz/c tightscf
|  2> %pal nprocs 16 end
|  3> %maxcore 3800
|  4>
|  5> * xyz 0 1
|  6> C      2.855440    0.252651    0.039517
|  7> C      1.955251    1.308154   -0.006830
|  8> C      2.360141   -1.050018    0.041527
|  9> C      0.583533    1.082280   -0.050241
| 10> C      0.997959   -1.289253   -0.005941
| 11> C      0.080290   -0.226157   -0.056360
| 12> C     -3.683656   -0.105023    0.019100
| 13> C     -2.294319    0.511126    0.087695
| 14> N     -1.276349   -0.497538   -0.143162
| 15> H      3.919858    0.436494    0.075585
| 16> H      2.318186    2.327791   -0.005576
| 17> H      3.043134   -1.888633    0.080058
| 18> H     -0.090520    1.925367   -0.082058
| 19> H      0.628256   -2.307784   -0.011219
| 20> H     -3.861554   -0.559934   -0.955872
| 21> H     -3.812010   -0.873971    0.784186
| 22> H     -4.445779    0.655703    0.185234
| 23> H     -2.153505    1.006369    1.058333
| 24> H     -2.204125    1.287273   -0.676443
| 25> H     -1.535324   -1.428467    0.139104
| 26> *
| 27>
| 28>                          ****END OF INPUT****

CARTESIAN COORDINATES (ANGSTROEM)
---------------------------------
  C      2.855440    0.252651    0.039517
  C      1.955251    1.308154   -0.006830
  C      2.360141   -1.050018    0.041527
  C      0.583533    1.082280   -0.050241
  C      0.997959   -1.289253   -0.005941
  C      0.080290   -0.226157   -0.056360
  C     -3.683656   -0.105023    0.019100
  C     -2.294319    0.511126    0.087695
  N     -1.276349   -0.497538   -0.143162
  H      3.919858    0.436494    0.075585
  H      2.318186    2.327791   -0.005576
  H      3.043134   -1.888633    0.080058
  H     -0.090520    1.925367   -0.082058
  H      0.628256   -2.307784   -0.011219
  H     -3.861554   -0.559934   -0.955872
  H     -3.812010   -0.873971    0.784186
  H     -4.445779    0.655703    0.185234
  H     -2.153505    1.006369    1.058333
  H     -2.204125    1.287273   -0.676443
  H     -1.535324   -1.428467    0.139104

 Total Charge           Charge          ....    0
 Multiplicity           Mult            ....    1
 Number of Electrons    NEL             ....   66
 Basis Dimension        Dim             .... 1226

ORBITAL ENERGIES
----------------

  NO   OCC          E(Eh)            E(eV)
   0   2.0000     -15.559710      -423.4012
   1   2.0000     -11.273876      -306.7778
   2   2.0000     -11.260771      -306.4211
   3   2.0000     -11.229375      -305.5668
   4   2.0000     -11.228904      -305.5540
   5   2.0000     -11.223931      -305.4187
   6   2.0000     -11.217885      -305.2542
   7   2.0000     -11.216114      -305.2060
   8   2.0000     -11.211980      -305.0935
   9   2.0000      -1.241781       -33.7906
  10   2.0000      -1.131302       -30.7843
  11   2.0000      -1.033100       -28.1121
  12   2.0000      -1.008233       -27.4354
  13   2.0000      -0.967725       -26.3331
  14   2.0000      -0.862301       -23.4644
  15   2.0000      -0.820443       -22.3254
  16   2.0000      -0.796959       -21.6864
  17   2.0000      -0.711279       -19.3549
  18   2.0000      -0.666336       -18.1319
  19   2.0000      -0.648494       -17.6464
  20   2.0000      -0.636146       -17.3104
  21   2.0000      -0.605507       -16.4767
  22   2.0000      -0.584434       -15.9033
  23   2.0000      -0.578277       -15.7357
  24   2.0000      -0.540929       -14.7194
  25   2.0000      -0.539504       -14.6806
  26   2.0000      -0.514414       -13.9979
  27   2.0000      -0.502465       -13.6728
  28   2.0000      -0.495492       -13.4830
  29   2.0000      -0.480849       -13.0846
  30   2.0000      -0.421834       -11.4787
  31   2.0000      -0.333769        -9.0823
  32   2.0000      -0.284197        -7.7334
  33   0.0000       0.023286         0.6336
  34   0.0000       0.027932         0.7601
  35   0.0000       0.028852         0.7851
  36   0.0000       0.037228         1.0130
  37   0.0000       0.038914         1.0589

MULLIKEN ATOMIC CHARGES
-----------------------
   0 C :   -0.403720
   1 C :   -0.336447
   2 C :   -0.276757
   3 C :   -0.358463
   4 C :   -0.675695
   5 C :    1.070458
   6 C :   -0.865900
   7 C :   -0.183270
   8 N :   -0.631246
   9 H :    0.320664
  10 H :    0.237189
  11 H :    0.248494
  12 H :    0.206603
  13 H :    0.199015
  14 H :    0.243601
  15 H :    0.220367
  16 H :    0.252441
  17 H :    0.272193
  18 H :    0.216026
  19 H :    0.244445
Sum of atomic charges:   -0.0000000

LOEWDIN ATOMIC CHARGES
----------------------
   0 C :    0.328346
   1 C :    0.331090
   2 C :    0.326133
   3 C :    0.341555
   4 C :    0.340696
   5 C :   -0.224586
   6 C :    0.930544
   7 C :    0.345649
   8 N :    0.873221
   9 H :   -0.335444
  10 H :   -0.322539
  11 H :   -0.323644
  12 H :   -0.351781
  13 H :   -0.325280
  14 H :   -0.280085
  15 H :   -0.282082
  16 H :   -0.282837
  17 H :   -0.268441
  18 H :   -0.294435
  19 H :   -0.526079

  Mayer bond orders larger than 0.100000
B(  0-C ,  1-C ) :   1.2379 B(  0-C ,  2-C ) :   1.1371 B(  0-C ,  4-C ) :   0.1274
B(  0-C ,  9-H ) :   1.0006 B(  0-C , 11-H ) :  -0.1078 B(  1-C ,  3-C ) :   1.1604
B(  1-C ,  4-C ) :   0.1687 B(  1-C ,  5-C ) :  -0.3653 B(  1-C , 10-H ) :   1.1390
B(  2-C ,  3-C ) :   0.1026 B(  2-C ,  4-C ) :   1.3941 B(  2-C ,  5-C ) :  -0.3848
B(  2-C , 11-H ) :   1.1457 B(  3-C ,  5-C ) :   1.0926 B(  3-C , 10-H ) :  -0.1461
B(  3-C , 12-H ) :   1.0465 B(  4-C ,  5-C ) :   0.9374 B(  4-C , 11-H ) :  -0.1610
B(  4-C , 13-H ) :   1.0355 B(  5-C ,  8-N ) :   0.7457 B(  6-C ,  7-C ) :   0.8738
B(  6-C , 14-H ) :   0.9593 B(  6-C , 15-H ) :   0.9755 B(  6-C , 16-H ) :   1.0164
B(  7-C ,  8-N ) :   0.8120 B(  7-C , 17-H ) :   0.8741 B(  7-C , 18-H ) :   0.9353
B(  8-N , 19-H ) :   0.9772

MP2 TOTAL ENERGY:     -365.560747542 Eh
FINAL SINGLE POINT ENERGY      -365.560747542137

DIPOLE MOMENT
-------------
                                X             Y             Z
Electronic contribution:      7.72972      -0.68648      -0.39584
Nuclear contribution   :     -8.38832       0.59048       0.60399
                        -----------------------------------------
Total Dipole Moment    :     -0.65860      -0.09600       0.20815
                        -----------------------------------------
Magnitude (a.u.)       :      0.69735
Magnitude (Debye)      :      1.77252

Rotational constants in cm-1:     0.161687     0.029510     0.025231
Rotational constants in MHz :  4847.259331   884.691224   756.414568

                             ****ORCA TERMINATED NORMALLY****
TOTAL RUN TIME: 0 days 1 hours 8 minutes 4 seconds 963 msec
