                         Program Version 5.0.4 -  RELEASE  -
|  1> !ri-mp2 aug-cc-pvqz aug-cc-pvqz/c tightscf
|  2> %pal nprocs 16 end
|  3> %maxcore 3800
|  4>
|  5> * xyz 0 1
|  6> C      0.000000    0.000000    0.713923
|  7> C      0.000000    1.240542    1.396864
|  8> C      0.000000   -1.240542    1.396864
|  9> C      0.000000    2.423616    0.705779
| 10> C      0.000000    2.423616   -0.705779
| 11> C      0.000000    1.240542   -1.396864
| 12> C      0.000000   -2.423616    0.705779
| 13> C      0.000000   -2.423616   -0.705779
| 14> C      0.000000   -1.240542   -1.396864
| 15> C      0.000000    0.000000   -0.713923
| 16> H      0.000000   -3.364265    1.240162
| 17> H      0.000000   -3.364265   -1.240162
| 18> H      0.000000    3.364265   -1.240162
| 19> H      0.000000    3.364265    1.240162
| 20> H      0.000000    1.239118   -2.479712
| 21> H      0.000000   -1.239118    2.479712
| 22> H      0.000000   -1.239118   -2.479712
| 23> H      0.000000    1.239118    2.479712
| 24> *
| 25>
| 26>                          ****END OF INPUT****

CARTESIAN COORDINATES (ANGSTROEM)
---------------------------------
  C      0.000000    0.000000    0.713923
  C      0.000000    1.240542    1.396864
  C      0.000000   -1.240542    1.396864
  C      0.000000    2.423616    0.705779
  C      0.000000    2.423616   -0.705779
  C      0.000000    1.240542   -1.396864
  C      0.000000   -2.423616    0.705779
  C      0.000000   -2.423616   -0.705779
  C      0.000000   -1.240542   -1.396864
  C      0.000000    0.000000   -0.713923
  H      0.000000   -3.364265    1.240162
  H      0.000000   -3.364265   -1.240162
  H      0.000000    3.364265   -1.240162
  H      0.000000    3.364265    1.240162
  H      0.000000    1.239118   -2.479712
  H      0.000000   -1.239118    2.479712
  H      0.000000   -1.239118   -2.479712
  H      0.000000    1.239118    2.479712

 Total Charge           Charge          ....    0
 Multiplicity           Mult            ....    1
 Number of Electrons    NEL             ....   68
 Basis Dimension        Dim             .... 1168

ORBITAL ENERGIES
----------------

  NO   OCC          E(Eh)            E(eV)
   0   2.0000     -11.243266      -305.9448
   1   2.0000     -11.242233      -305.9167
   2   2.0000     -11.235866      -305.7435
   3   2.0000     -11.235821      -305.7422
   4   2.0000     -11.235579      -305.7357
   5   2.0000     -11.235490      -305.7332
   6   2.0000     -11.234469      -305.7055
   7   2.0000     -11.234432      -305.7044
   8   2.0000     -11.233679      -305.6839
   9   2.0000     -11.233663      -305.6835
  10   2.0000      -1.178285       -32.0628
  11   2.0000      -1.111624       -30.2488
  12   2.0000      -1.051876       -28.6230
  13   2.0000      -1.009741       -27.4764
  14   2.0000      -0.982783       -26.7429
  15   2.0000      -0.855477       -23.2787
  16   2.0000      -0.837732       -22.7959
  17   2.0000      -0.812747       -22.1160
  18   2.0000      -0.707666       -19.2566
  19   2.0000      -0.701347       -19.0846
  20   2.0000      -0.679675       -18.4949
  21   2.0000      -0.624309       -16.9883
  22   2.0000      -0.612713       -16.6728
  23   2.0000      -0.586211       -15.9516
  24   2.0000      -0.584516       -15.9055
  25   2.0000      -0.565691       -15.3932
  26   2.0000      -0.535590       -14.5741
  27   2.0000      -0.525343       -14.2953
  28   2.0000      -0.490171       -13.3382
  29   2.0000      -0.477456       -12.9923
  30   2.0000      -0.450560       -12.2604
  31   2.0000      -0.387315       -10.5394
  32   2.0000      -0.320560        -8.7229
  33   2.0000      -0.290502        -7.9050
  34   0.0000       0.025818         0.7025
  35   0.0000       0.026563         0.7228
  36   0.0000       0.027058         0.7363
  37   0.0000       0.037607         1.0234
  38   0.0000       0.039293         1.0692

MULLIKEN ATOMIC CHARGES
-----------------------
   0 C :    0.900151
   1 C :   -0.481622
   2 C :   -0.481035
   3 C :   -0.431835
   4 C :   -0.432050
   5 C :   -0.481822
   6 C :   -0.431700
   7 C :   -0.431407
   8 C :   -0.481346
   9 C :    0.900000
  10 H :    0.265526
  11 H :    0.265657
  12 H :    0.265427
  13 H :    0.265495
  14 H :    0.197569
  15 H :    0.197697
  16 H :    0.197682
  17 H :    0.197614
Sum of atomic charges:    0.0000000

LOEWDIN ATOMIC CHARGES
----------------------
   0 C :   -0.113925
   1 C :    0.353320
   2 C :    0.353320
   3 C :    0.350343
   4 C :    0.350343
   5 C :    0.353320
   6 C :    0.350343
   7 C :    0.350343
   8 C :    0.353320
   9 C :   -0.113925
  10 H :   -0.324942
  11 H :   -0.324942
  12 H :   -0.324942
  13 H :   -0.324942
  14 H :   -0.321758
  15 H :   -0.321758
  16 H :   -0.321758
  17 H :   -0.321758

  Mayer bond orders larger than 0.100000
B(  0-C ,  1-C ) :   0.6092 B(  0-C ,  2-C ) :   0.6094 B(  0-C ,  3-C ) :  -0.3134
B(  0-C ,  5-C ) :  -0.2675 B(  0-C ,  6-C ) :  -0.3134 B(  0-C ,  8-C ) :  -0.2674
B(  0-C ,  9-C ) :   1.0884 B(  0-C , 15-H ) :  -0.1859 B(  0-C , 17-H ) :  -0.1859
B(  1-C ,  3-C ) :   1.3456 B(  1-C ,  5-C ) :   0.1813 B(  1-C ,  9-C ) :  -0.2675
B(  1-C , 13-H ) :  -0.1741 B(  1-C , 17-H ) :   1.1092 B(  2-C ,  6-C ) :   1.3451
B(  2-C ,  8-C ) :   0.1811 B(  2-C ,  9-C ) :  -0.2674 B(  2-C , 10-H ) :  -0.1741
B(  2-C , 15-H ) :   1.1092 B(  3-C ,  4-C ) :   1.1341 B(  3-C , 13-H ) :   1.1293
B(  4-C ,  5-C ) :   1.3459 B(  4-C ,  9-C ) :  -0.3133 B(  4-C , 12-H ) :   1.1294
B(  5-C ,  9-C ) :   0.6091 B(  5-C , 12-H ) :  -0.1741 B(  5-C , 14-H ) :   1.1093
B(  6-C ,  7-C ) :   1.1340 B(  6-C , 10-H ) :   1.1294 B(  7-C ,  8-C ) :   1.3453
B(  7-C ,  9-C ) :  -0.3134 B(  7-C , 11-H ) :   1.1291 B(  8-C ,  9-C ) :   0.6097
B(  8-C , 11-H ) :  -0.1741 B(  8-C , 16-H ) :   1.1092 B(  9-C , 14-H ) :  -0.1859
B(  9-C , 16-H ) :  -0.1859

MP2 TOTAL ENERGY:     -385.176500221 Eh
FINAL SINGLE POINT ENERGY      -385.176500220885

DIPOLE MOMENT
-------------
                                X             Y             Z
Electronic contribution:      0.00000      -0.00000      -0.00000
Nuclear contribution   :      0.00000      -0.00000       0.00000
                        -----------------------------------------
Total Dipole Moment    :      0.00000      -0.00000      -0.00000
                        -----------------------------------------
Magnitude (a.u.)       :      0.00000
Magnitude (Debye)      :      0.00000

Rotational constants in cm-1:     0.104762     0.041321     0.029633
Rotational constants in MHz :  3140.675301  1238.767848   888.370382

                             ****ORCA TERMINATED NORMALLY****
TOTAL RUN TIME: 0 days 1 hours 32 minutes 58 seconds 485 msec
