                         Program Version 5.0.4 -  RELEASE  -
|  1> !ri-mp2 aug-cc-pvqz aug-cc-pvqz/c tightscf
|  2> %pal nprocs 16 end
|  3>
|  4> * xyz 0 1
|  5> C    -2.434690    1.007305     0.195988
|  6> C    -1.066080    1.206618     0.141234
|  7> C    -2.925749   -0.286900     0.055755
|  8> C    -0.831663   -1.149867    -0.199198
|  9> C    -0.234965    0.103590    -0.047113
| 10> C     1.234805    0.320466    -0.099690
| 11> N    -2.146220   -1.349895    -0.145302
| 12> N     2.025184   -0.770786     0.116502
| 13> O     1.753325    1.403823    -0.352026
| 14> O     3.394425   -0.509645     0.206692
| 15> H    -3.113977    1.834745     0.344733
| 16> H    -0.627372    2.189562     0.238840
| 17> H    -3.991491   -0.478121     0.101031
| 18> H    -0.227759   -2.027390    -0.401000
| 19> H     1.753487   -1.488411     0.769860
| 20> H     3.422406    0.453688     0.028951
| 21> *
| 22>
| 23>                          ****END OF INPUT****

CARTESIAN COORDINATES (ANGSTROEM)
---------------------------------
  C     -2.434690    1.007305    0.195988
  C     -1.066080    1.206618    0.141234
  C     -2.925749   -0.286900    0.055755
  C     -0.831663   -1.149867   -0.199198
  C     -0.234965    0.103590   -0.047113
  C      1.234805    0.320466   -0.099690
  N     -2.146220   -1.349895   -0.145302
  N      2.025184   -0.770786    0.116502
  O      1.753325    1.403823   -0.352026
  O      3.394425   -0.509645    0.206692
  H     -3.113977    1.834745    0.344733
  H     -0.627372    2.189562    0.238840
  H     -3.991491   -0.478121    0.101031
  H     -0.227759   -2.027390   -0.401000
  H      1.753487   -1.488411    0.769860
  H      3.422406    0.453688    0.028951

 Total Charge           Charge          ....    0
 Multiplicity           Mult            ....    1
 Number of Electrons    NEL             ....   72
 Basis Dimension        Dim             .... 1076

ORBITAL ENERGIES
----------------

  NO   OCC          E(Eh)            E(eV)
   0   2.0000     -20.609555      -560.8145
   1   2.0000     -20.548808      -559.1615
   2   2.0000     -15.650360      -425.8679
   3   2.0000     -15.584058      -424.0638
   4   2.0000     -11.380498      -309.6791
   5   2.0000     -11.303402      -307.5812
   6   2.0000     -11.298701      -307.4533
   7   2.0000     -11.280619      -306.9612
   8   2.0000     -11.271140      -306.7033
   9   2.0000     -11.258655      -306.3636
  10   2.0000      -1.462353       -39.7927
  11   2.0000      -1.383105       -37.6362
  12   2.0000      -1.284739       -34.9595
  13   2.0000      -1.170149       -31.8414
  14   2.0000      -1.114217       -30.3194
  15   2.0000      -1.061200       -28.8767
  16   2.0000      -0.910735       -24.7824
  17   2.0000      -0.884681       -24.0734
  18   2.0000      -0.842976       -22.9385
  19   2.0000      -0.771243       -20.9866
  20   2.0000      -0.725497       -19.7418
  21   2.0000      -0.712913       -19.3993
  22   2.0000      -0.688084       -18.7237
  23   2.0000      -0.652992       -17.7688
  24   2.0000      -0.645334       -17.5604
  25   2.0000      -0.612673       -16.6717
  26   2.0000      -0.596516       -16.2320
  27   2.0000      -0.593740       -16.1565
  28   2.0000      -0.572549       -15.5799
  29   2.0000      -0.551597       -15.0097
  30   2.0000      -0.535243       -14.5647
  31   2.0000      -0.474406       -12.9092
  32   2.0000      -0.437448       -11.9036
  33   2.0000      -0.410905       -11.1813
  34   2.0000      -0.403747       -10.9865
  35   2.0000      -0.370709       -10.0875
  36   0.0000       0.020225         0.5504
  37   0.0000       0.027514         0.7487
  38   0.0000       0.030788         0.8378
  39   0.0000       0.042244         1.1495
  40   0.0000       0.043590         1.1861

MULLIKEN ATOMIC CHARGES
-----------------------
   0 C :   -0.321864
   1 C :   -0.196374
   2 C :   -0.401921
   3 C :   -0.007800
   4 C :   -0.271540
   5 C :    1.255777
   6 N :   -0.678551
   7 N :   -0.213316
   8 O :   -0.846910
   9 O :   -0.718639
  10 H :    0.302594
  11 H :    0.355260
  12 H :    0.506142
  13 H :    0.469577
  14 H :    0.382727
  15 H :    0.384837
Sum of atomic charges:    0.0000000

LOEWDIN ATOMIC CHARGES
----------------------
   0 C :    0.358583
   1 C :    0.323862
   2 C :    0.090441
   3 C :    0.073039
   4 C :   -0.133049
   5 C :   -0.854315
   6 N :    0.611134
   7 N :    0.524011
   8 O :    0.763761
   9 O :    1.134011
  10 H :   -0.323573
  11 H :   -0.317580
  12 H :   -0.344623
  13 H :   -0.356669
  14 H :   -0.543849
  15 H :   -1.005185

  Mayer bond orders larger than 0.100000
B(  0-C ,  1-C ) :   1.2320 B(  0-C ,  2-C ) :   1.2173 B(  0-C ,  4-C ) :  -0.2090
B(  0-C , 10-H ) :   1.0283 B(  1-C ,  4-C ) :   1.1041 B(  1-C ,  5-C ) :  -0.2967
B(  1-C , 10-H ) :  -0.1163 B(  1-C , 11-H ) :   0.8995 B(  2-C ,  6-N ) :   1.3791
B(  2-C , 12-H ) :   0.8125 B(  3-C ,  4-C ) :   1.2275 B(  3-C ,  5-C ) :  -0.1905
B(  3-C ,  6-N ) :   1.1895 B(  3-C , 13-H ) :   0.8011 B(  4-C ,  5-C ) :   1.0990
B(  4-C ,  8-O ) :   0.3333 B(  5-C ,  7-N ) :   1.0928 B(  5-C ,  8-O ) :   1.0096
B(  6-N , 13-H ) :  -0.1069 B(  7-N ,  8-O ) :   0.1188 B(  7-N ,  9-O ) :   0.6603
B(  7-N , 14-H ) :   0.7942 B(  9-O , 15-H ) :   0.8229

MP2 TOTAL ENERGY:     -491.424643587 Eh
FINAL SINGLE POINT ENERGY      -491.424643586907

DIPOLE MOMENT
-------------
                                X             Y             Z
Electronic contribution:      1.66362      -0.37617      -0.46282
Nuclear contribution   :     -2.64740       0.47551       1.05724
                        -----------------------------------------
Total Dipole Moment    :     -0.98378       0.09934       0.59443
                        -----------------------------------------
Magnitude (a.u.)       :      1.15370
Magnitude (Debye)      :      2.93248

Rotational constants in cm-1:     0.122282     0.027318     0.022656
Rotational constants in MHz :  3665.915906   818.967546   679.221419

                             ****ORCA TERMINATED NORMALLY****
TOTAL RUN TIME: 0 days 0 hours 52 minutes 20 seconds 166 msec
