                         Program Version 5.0.4 -  RELEASE  -
|  1> !ri-mp2 aug-cc-pvqz aug-cc-pvqz/c tightscf
|  2> %pal nprocs 16 end
|  3>
|  4> * xyz 0 1
|  5> F     -1.941746   -0.828965   -0.048656
|  6> F     -1.207342    1.234561    0.002398
|  7> N     -0.837230   -0.049645   -0.459202
|  8> C      0.253975   -0.468738    0.449582
|  9> C      1.490150    0.334470    0.186438
| 10> C      2.628245   -0.194799   -0.239489
| 11> H      0.410259   -1.522526    0.224676
| 12> H     -0.096603   -0.362385    1.478991
| 13> H      1.421730    1.396780    0.385841
| 14> H      2.723117   -1.253412   -0.447875
| 15> H      3.509677    0.413089   -0.390093
| 16> *
| 17>
| 18>                          ****END OF INPUT****

CARTESIAN COORDINATES (ANGSTROEM)
---------------------------------
  F     -1.941746   -0.828965   -0.048656
  F     -1.207342    1.234561    0.002398
  N     -0.837230   -0.049645   -0.459202
  C      0.253975   -0.468738    0.449582
  C      1.490150    0.334470    0.186438
  C      2.628245   -0.194799   -0.239489
  H      0.410259   -1.522526    0.224676
  H     -0.096603   -0.362385    1.478991
  H      1.421730    1.396780    0.385841
  H      2.723117   -1.253412   -0.447875
  H      3.509677    0.413089   -0.390093

 Total Charge           Charge          ....    0
 Multiplicity           Mult            ....    1
 Number of Electrons    NEL             ....   48
 Basis Dimension        Dim             ....  710

ORBITAL ENERGIES
----------------

  NO   OCC          E(Eh)            E(eV)
   0   2.0000     -26.329234      -716.4549
   1   2.0000     -26.329150      -716.4526
   2   2.0000     -15.770085      -429.1258
   3   2.0000     -11.296041      -307.3809
   4   2.0000     -11.257362      -306.3284
   5   2.0000     -11.249645      -306.1184
   6   2.0000      -1.673314       -45.5332
   7   2.0000      -1.590467       -43.2788
   8   2.0000      -1.179373       -32.0924
   9   2.0000      -1.067011       -29.0349
  10   2.0000      -0.931553       -25.3488
  11   2.0000      -0.804374       -21.8881
  12   2.0000      -0.760232       -20.6870
  13   2.0000      -0.753183       -20.4951
  14   2.0000      -0.737430       -20.0665
  15   2.0000      -0.676062       -18.3966
  16   2.0000      -0.662965       -18.0402
  17   2.0000      -0.635487       -17.2925
  18   2.0000      -0.630504       -17.1569
  19   2.0000      -0.613021       -16.6811
  20   2.0000      -0.560867       -15.2620
  21   2.0000      -0.523709       -14.2508
  22   2.0000      -0.485094       -13.2001
  23   2.0000      -0.397229       -10.8092
  24   0.0000       0.023824         0.6483
  25   0.0000       0.032553         0.8858
  26   0.0000       0.034227         0.9314
  27   0.0000       0.047337         1.2881
  28   0.0000       0.052067         1.4168

MULLIKEN ATOMIC CHARGES
-----------------------
   0 F :   -0.440488
   1 F :   -0.438139
   2 N :    0.440664
   3 C :   -0.200911
   4 C :   -0.450338
   5 C :   -0.859748
   6 H :    0.390577
   7 H :    0.308650
   8 H :    0.511091
   9 H :    0.371826
  10 H :    0.366816
Sum of atomic charges:    0.0000000

LOEWDIN ATOMIC CHARGES
----------------------
   0 F :    0.475335
   1 F :    0.476092
   2 N :   -0.508096
   3 C :    0.156309
   4 C :    0.325004
   5 C :    0.801969
   6 H :   -0.358653
   7 H :   -0.327665
   8 H :   -0.342791
   9 H :   -0.349055
  10 H :   -0.348449

  Mayer bond orders larger than 0.100000
B(  0-F ,  2-N ) :   0.6942 B(  1-F ,  2-N ) :   0.6854 B(  2-N ,  3-C ) :   0.9233
B(  3-C ,  4-C ) :   0.9064 B(  3-C ,  6-H ) :   0.8437 B(  3-C ,  7-H ) :   0.8362
B(  4-C ,  5-C ) :   1.8056 B(  4-C ,  8-H ) :   0.7066 B(  5-C ,  9-H ) :   0.8712
B(  5-C , 10-H ) :   0.9372

MP2 TOTAL ENERGY:     -371.140677335 Eh
FINAL SINGLE POINT ENERGY      -371.140677334568

DIPOLE MOMENT
-------------
                                X             Y             Z
Electronic contribution:     -9.59876       1.33251      -0.90762
Nuclear contribution   :     10.72487      -1.67490       1.25380
                        -----------------------------------------
Total Dipole Moment    :      1.12611      -0.34239       0.34618
                        -----------------------------------------
Magnitude (a.u.)       :      1.22687
Magnitude (Debye)      :      3.11844

Rotational constants in cm-1:     0.272346     0.067527     0.057530
Rotational constants in MHz :  8164.721990  2024.419994  1724.716649

                             ****ORCA TERMINATED NORMALLY****
TOTAL RUN TIME: 0 days 0 hours 10 minutes 37 seconds 18 msec
