                         Program Version 5.0.4 -  RELEASE  -
|  1> !ri-mp2 aug-cc-pvqz aug-cc-pvqz/c tightscf
|  2> %pal nprocs 16 end
|  3>
|  4> * xyz 0 1
|  5> C     -0.187905    0.651224    0.062869
|  6> C      0.516351    1.963676    0.319752
|  7> C     -2.243533   -0.480238   -0.361032
|  8> C      0.408532   -1.679218    0.623345
|  9> C      2.013376   -0.300958   -0.547808
| 10> N     -1.463119    0.665717    0.054242
| 11> N      0.620090   -0.477546   -0.174016
| 12> H     -0.225648    2.696922    0.619317
| 13> H      1.012868    2.331307   -0.580297
| 14> H      1.278208    1.872960    1.096432
| 15> H     -3.133483   -0.114305   -0.874912
| 16> H     -2.599264   -1.057251    0.498552
| 17> H     -1.707657   -1.161888   -1.031043
| 18> H      1.084452   -1.699902    1.489156
| 19> H      0.600243   -2.572869    0.025300
| 20> H     -0.607803   -1.727617    0.994091
| 21> H      2.367240   -1.220180   -1.017111
| 22> H      2.668083   -0.091653    0.309584
| 23> H      2.123038    0.500365   -1.273403
| 24> *
| 25>
| 26>                          ****END OF INPUT****

CARTESIAN COORDINATES (ANGSTROEM)
---------------------------------
  C     -0.187905    0.651224    0.062869
  C      0.516351    1.963676    0.319752
  C     -2.243533   -0.480238   -0.361032
  C      0.408532   -1.679218    0.623345
  C      2.013376   -0.300958   -0.547808
  N     -1.463119    0.665717    0.054242
  N      0.620090   -0.477546   -0.174016
  H     -0.225648    2.696922    0.619317
  H      1.012868    2.331307   -0.580297
  H      1.278208    1.872960    1.096432
  H     -3.133483   -0.114305   -0.874912
  H     -2.599264   -1.057251    0.498552
  H     -1.707657   -1.161888   -1.031043
  H      1.084452   -1.699902    1.489156
  H      0.600243   -2.572869    0.025300
  H     -0.607803   -1.727617    0.994091
  H      2.367240   -1.220180   -1.017111
  H      2.668083   -0.091653    0.309584
  H      2.123038    0.500365   -1.273403

 Total Charge           Charge          ....    0
 Multiplicity           Mult            ....    1
 Number of Electrons    NEL             ....   56
 Basis Dimension        Dim             .... 1112

ORBITAL ENERGIES
----------------

  NO   OCC          E(Eh)            E(eV)
   0   2.0000     -15.564443      -423.5300
   1   2.0000     -15.520214      -422.3265
   2   2.0000     -11.301300      -307.5240
   3   2.0000     -11.256489      -306.3046
   4   2.0000     -11.254684      -306.2555
   5   2.0000     -11.229195      -305.5619
   6   2.0000     -11.218360      -305.2671
   7   2.0000      -1.269778       -34.5524
   8   2.0000      -1.174630       -31.9633
   9   2.0000      -1.009161       -27.4607
  10   2.0000      -0.962420       -26.1888
  11   2.0000      -0.913311       -24.8525
  12   2.0000      -0.885468       -24.0948
  13   2.0000      -0.724362       -19.7109
  14   2.0000      -0.658703       -17.9242
  15   2.0000      -0.653513       -17.7830
  16   2.0000      -0.639705       -17.4073
  17   2.0000      -0.586736       -15.9659
  18   2.0000      -0.573514       -15.6061
  19   2.0000      -0.570448       -15.5227
  20   2.0000      -0.554134       -15.0788
  21   2.0000      -0.550918       -14.9912
  22   2.0000      -0.538398       -14.6505
  23   2.0000      -0.530211       -14.4278
  24   2.0000      -0.509395       -13.8614
  25   2.0000      -0.423978       -11.5370
  26   2.0000      -0.385181       -10.4813
  27   2.0000      -0.334977        -9.1152
  28   0.0000       0.023576         0.6415
  29   0.0000       0.030329         0.8253
  30   0.0000       0.032568         0.8862
  31   0.0000       0.035201         0.9579
  32   0.0000       0.047668         1.2971

MULLIKEN ATOMIC CHARGES
-----------------------
   0 C :    0.837372
   1 C :   -0.765156
   2 C :   -0.792812
   3 C :   -0.944600
   4 C :   -0.893133
   5 N :   -0.634644
   6 N :   -0.222587
   7 H :    0.349458
   8 H :    0.235173
   9 H :    0.178477
  10 H :    0.385915
  11 H :    0.220333
  12 H :    0.217009
  13 H :    0.269866
  14 H :    0.319018
  15 H :    0.373959
  16 H :    0.317364
  17 H :    0.290926
  18 H :    0.258063
Sum of atomic charges:    0.0000000

LOEWDIN ATOMIC CHARGES
----------------------
   0 C :   -0.470519
   1 C :    0.879508
   2 C :    0.649703
   3 C :    0.756556
   4 C :    0.743006
   5 N :    0.621483
   6 N :    0.452677
   7 H :   -0.323170
   8 H :   -0.295090
   9 H :   -0.287327
  10 H :   -0.322247
  11 H :   -0.315361
  12 H :   -0.326343
  13 H :   -0.264448
  14 H :   -0.271762
  15 H :   -0.362193
  16 H :   -0.288962
  17 H :   -0.268700
  18 H :   -0.306810

  Mayer bond orders larger than 0.100000
B(  0-C ,  1-C ) :   0.7277 B(  0-C ,  5-N ) :   1.3927 B(  0-C ,  6-N ) :   0.8892
B(  1-C ,  7-H ) :   0.9125 B(  1-C ,  8-H ) :   0.9928 B(  1-C ,  9-H ) :   1.0554
B(  2-C ,  5-N ) :   0.9205 B(  2-C , 10-H ) :   0.8807 B(  2-C , 11-H ) :   0.9792
B(  2-C , 12-H ) :   0.9660 B(  3-C ,  6-N ) :   0.8074 B(  3-C , 13-H ) :   0.9646
B(  3-C , 14-H ) :   0.9409 B(  3-C , 15-H ) :   0.8579 B(  4-C ,  6-N ) :   0.8233
B(  4-C , 16-H ) :   0.9146 B(  4-C , 17-H ) :   0.9600 B(  4-C , 18-H ) :   0.9978
B(  5-N ,  6-N ) :   0.1124

MP2 TOTAL ENERGY:     -306.689378055 Eh
FINAL SINGLE POINT ENERGY      -306.689378054547

DIPOLE MOMENT
-------------
                                X             Y             Z
Electronic contribution:     -2.03102       1.83195      -0.25376
Nuclear contribution   :      2.99806      -2.35513       0.26771
                        -----------------------------------------
Total Dipole Moment    :      0.96705      -0.52319       0.01395
                        -----------------------------------------
Magnitude (a.u.)       :      1.09959
Magnitude (Debye)      :      2.79493

Rotational constants in cm-1:     0.110230     0.078878     0.052122
Rotational constants in MHz :  3304.615563  2364.714579  1562.564508

                             ****ORCA TERMINATED NORMALLY****
TOTAL RUN TIME: 0 days 1 hours 0 minutes 51 seconds 849 msec
