                         Program Version 5.0.4 -  RELEASE  -
|  1> !ri-mp2 aug-cc-pvqz aug-cc-pvqz/c tightscf
|  2> %pal nprocs 16 end
|  3>
|  4> * xyz 0 1
|  5> Cl   -0.701864    1.462003   -0.034783
|  6> O    -2.283438   -0.979375   -0.549331
|  7> N    -0.344081   -0.165493    0.372382
|  8> N     2.914608   -0.191919   -0.838450
|  9> C     0.978044   -0.423781    0.908893
| 10> C    -1.224862   -1.151741   -0.010019
| 11> C     2.060093   -0.287664   -0.076810
| 12> H     1.172647    0.247397    1.745782
| 13> H     0.982654   -1.443332    1.297214
| 14> H    -0.829457   -2.142106    0.273049
| 15> *
| 16>
| 17>                          ****END OF INPUT****

CARTESIAN COORDINATES (ANGSTROEM)
---------------------------------
  Cl    -0.701864    1.462003   -0.034783
  O     -2.283438   -0.979375   -0.549331
  N     -0.344081   -0.165493    0.372382
  N      2.914608   -0.191919   -0.838450
  C      0.978044   -0.423781    0.908893
  C     -1.224862   -1.151741   -0.010019
  C      2.060093   -0.287664   -0.076810
  H      1.172647    0.247397    1.745782
  H      0.982654   -1.443332    1.297214
  H     -0.829457   -2.142106    0.273049

 Total Charge           Charge          ....    0
 Multiplicity           Mult            ....    1
 Number of Electrons    NEL             ....   60
 Basis Dimension        Dim             ....  702

ORBITAL ENERGIES
----------------

  NO   OCC          E(Eh)            E(eV)
   0   2.0000    -104.899018     -2854.4474
   1   2.0000     -20.565196      -559.6074
   2   2.0000     -15.679166      -426.6518
   3   2.0000     -15.598270      -424.4505
   4   2.0000     -11.391279      -309.9725
   5   2.0000     -11.364902      -309.2547
   6   2.0000     -11.297297      -307.4151
   7   2.0000     -10.620807      -289.0069
   8   2.0000      -8.088090      -220.0881
   9   2.0000      -8.085536      -220.0186
  10   2.0000      -8.085318      -220.0127
  11   2.0000      -1.430816       -38.9345
  12   2.0000      -1.324797       -36.0496
  13   2.0000      -1.247004       -33.9327
  14   2.0000      -1.118393       -30.4330
  15   2.0000      -1.040805       -28.3217
  16   2.0000      -0.846848       -23.0439
  17   2.0000      -0.778647       -21.1881
  18   2.0000      -0.741302       -20.1719
  19   2.0000      -0.711158       -19.3516
  20   2.0000      -0.653878       -17.7929
  21   2.0000      -0.624348       -16.9894
  22   2.0000      -0.615842       -16.7579
  23   2.0000      -0.581879       -15.8337
  24   2.0000      -0.528517       -14.3817
  25   2.0000      -0.502523       -13.6743
  26   2.0000      -0.495531       -13.4841
  27   2.0000      -0.490697       -13.3526
  28   2.0000      -0.471011       -12.8169
  29   2.0000      -0.421318       -11.4647
  30   0.0000       0.013758         0.3744
  31   0.0000       0.028707         0.7812
  32   0.0000       0.039833         1.0839
  33   0.0000       0.044982         1.2240
  34   0.0000       0.057421         1.5625

MULLIKEN ATOMIC CHARGES
-----------------------
   0 Cl:   -0.029256
   1 O :   -0.718368
   2 N :   -0.301035
   3 N :   -0.618384
   4 C :   -0.312131
   5 C :    0.441469
   6 C :    0.380161
   7 H :    0.382357
   8 H :    0.341382
   9 H :    0.433804
Sum of atomic charges:   -0.0000000

LOEWDIN ATOMIC CHARGES
----------------------
   0 Cl:    1.083776
   1 O :    0.644810
   2 N :   -0.317938
   3 N :    0.412013
   4 C :    0.124502
   5 C :   -0.600279
   6 C :   -0.284307
   7 H :   -0.335850
   8 H :   -0.347056
   9 H :   -0.379671

  Mayer bond orders larger than 0.100000
B(  0-Cl,  2-N ) :   0.8221 B(  1-O ,  2-N ) :   0.1560 B(  1-O ,  5-C ) :   1.5968
B(  2-N ,  4-C ) :   0.9098 B(  2-N ,  5-C ) :   1.2430 B(  3-N ,  6-C ) :   2.5413
B(  4-C ,  6-C ) :   1.1008 B(  4-C ,  7-H ) :   0.8303 B(  4-C ,  8-H ) :   0.8634
B(  5-C ,  9-H ) :   0.7766

MP2 TOTAL ENERGY:     -760.086600737 Eh
FINAL SINGLE POINT ENERGY      -760.086600736664

DIPOLE MOMENT
-------------
                                X             Y             Z
Electronic contribution:     -1.88265       4.73137      -1.55528
Nuclear contribution   :      2.19531      -5.17886       3.18917
                        -----------------------------------------
Total Dipole Moment    :      0.31267      -0.44749       1.63389
                        -----------------------------------------
Magnitude (a.u.)       :      1.72267
Magnitude (Debye)      :      4.37869

Rotational constants in cm-1:     0.113143     0.050112     0.039876
Rotational constants in MHz :  3391.947746  1502.310993  1195.439011

                             ****ORCA TERMINATED NORMALLY****
TOTAL RUN TIME: 0 days 0 hours 11 minutes 38 seconds 590 msec
