                         Program Version 5.0.4 -  RELEASE  -
|  1> !ri-mp2 aug-cc-pvqz aug-cc-pvqz/c tightscf
|  2> %pal nprocs 16 end
|  3>
|  4> * xyz 0 1
|  5> Cl     1.560711    1.893407   -0.220108
|  6> S     -2.790812    0.329751   -0.047708
|  7> O      1.341983   -2.035398   -1.015709
|  8> O      1.598920   -1.268082    1.083308
|  9> N      0.161310    1.041443    0.439465
| 10> C     -0.069935   -0.213443   -0.269978
| 11> C      1.035385   -1.265596   -0.146657
| 12> C     -1.382089   -0.820778    0.246351
| 13> H     -3.701568   -0.633058   -0.277035
| 14> H      2.276249   -1.960533    1.095104
| 15> H      0.436799    0.846291    1.397865
| 16> H     -0.173273    0.009303   -1.329322
| 17> H     -1.303752   -1.040723    1.310335
| 18> H     -1.570111   -1.748572   -0.287123
| 19> *
| 20>
| 21>                          ****END OF INPUT****

CARTESIAN COORDINATES (ANGSTROEM)
---------------------------------
  Cl     1.560711    1.893407   -0.220108
  S     -2.790812    0.329751   -0.047708
  O      1.341983   -2.035398   -1.015709
  O      1.598920   -1.268082    1.083308
  N      0.161310    1.041443    0.439465
  C     -0.069935   -0.213443   -0.269978
  C      1.035385   -1.265596   -0.146657
  C     -1.382089   -0.820778    0.246351
  H     -3.701568   -0.633058   -0.277035
  H      2.276249   -1.960533    1.095104
  H      0.436799    0.846291    1.397865
  H     -0.173273    0.009303   -1.329322
  H     -1.303752   -1.040723    1.310335
  H     -1.570111   -1.748572   -0.287123

 Total Charge           Charge          ....    0
 Multiplicity           Mult            ....    1
 Number of Electrons    NEL             ....   80
 Basis Dimension        Dim             ....  924

ORBITAL ENERGIES
----------------

  NO   OCC          E(Eh)            E(eV)
   0   2.0000    -104.861762     -2853.4336
   1   2.0000     -91.965333     -2502.5039
   2   2.0000     -20.632760      -561.4460
   3   2.0000     -20.569408      -559.7220
   4   2.0000     -15.638621      -425.5485
   5   2.0000     -11.405226      -310.3520
   6   2.0000     -11.311211      -307.7937
   7   2.0000     -11.290548      -307.2314
   8   2.0000     -10.584493      -288.0187
   9   2.0000      -8.967084      -244.0068
  10   2.0000      -8.051627      -219.0959
  11   2.0000      -8.049492      -219.0378
  12   2.0000      -8.049325      -219.0333
  13   2.0000      -6.648521      -180.9155
  14   2.0000      -6.647663      -180.8921
  15   2.0000      -6.646654      -180.8646
  16   2.0000      -1.487090       -40.4658
  17   2.0000      -1.385246       -37.6945
  18   2.0000      -1.273970       -34.6665
  19   2.0000      -1.109873       -30.2012
  20   2.0000      -1.025783       -27.9130
  21   2.0000      -0.967725       -26.3331
  22   2.0000      -0.878083       -23.8938
  23   2.0000      -0.836805       -22.7706
  24   2.0000      -0.733263       -19.9531
  25   2.0000      -0.723550       -19.6888
  26   2.0000      -0.666451       -18.1351
  27   2.0000      -0.658548       -17.9200
  28   2.0000      -0.640956       -17.4413
  29   2.0000      -0.626618       -17.0511
  30   2.0000      -0.589630       -16.0447
  31   2.0000      -0.554971       -15.1015
  32   2.0000      -0.546187       -14.8625
  33   2.0000      -0.529285       -14.4026
  34   2.0000      -0.503329       -13.6963
  35   2.0000      -0.478781       -13.0283
  36   2.0000      -0.467020       -12.7083
  37   2.0000      -0.461595       -12.5606
  38   2.0000      -0.409656       -11.1473
  39   2.0000      -0.371358       -10.1052
  40   0.0000       0.020385         0.5547
  41   0.0000       0.028794         0.7835
  42   0.0000       0.036474         0.9925
  43   0.0000       0.040355         1.0981
  44   0.0000       0.048315         1.3147

MULLIKEN ATOMIC CHARGES
-----------------------
   0 Cl:   -0.168305
   1 S :   -0.130919
   2 O :   -0.833919
   3 O :   -0.715521
   4 N :   -0.484817
   5 C :    0.367112
   6 C :    1.049014
   7 C :   -0.477285
   8 H :   -0.015741
   9 H :    0.313318
  10 H :    0.276516
  11 H :    0.350119
  12 H :    0.227641
  13 H :    0.242787
Sum of atomic charges:   -0.0000000

LOEWDIN ATOMIC CHARGES
----------------------
   0 Cl:    0.978271
   1 S :    1.598215
   2 O :    0.720101
   3 O :    1.254374
   4 N :    0.234045
   5 C :   -0.385284
   6 C :   -1.074281
   7 C :    0.088048
   8 H :   -0.780770
   9 H :   -0.794963
  10 H :   -0.726339
  11 H :   -0.393338
  12 H :   -0.356456
  13 H :   -0.361622

  Mayer bond orders larger than 0.100000
B(  0-Cl,  4-N ) :   0.9991 B(  0-Cl,  5-C ) :  -0.2172 B(  1-S ,  7-C ) :   0.8461
B(  1-S ,  8-H ) :   1.0871 B(  2-O ,  3-O ) :   0.1124 B(  2-O ,  6-C ) :   1.2941
B(  3-O ,  6-C ) :   0.9025 B(  3-O ,  9-H ) :   0.9171 B(  4-N ,  5-C ) :   0.7578
B(  4-N , 10-H ) :   0.8662 B(  5-C ,  6-C ) :   0.9734 B(  5-C ,  7-C ) :   0.7513
B(  5-C , 11-H ) :   0.8311 B(  7-C , 12-H ) :   0.9325 B(  7-C , 13-H ) :   0.9642

MP2 TOTAL ENERGY:    -1180.131020322 Eh
FINAL SINGLE POINT ENERGY     -1180.131020322222

DIPOLE MOMENT
-------------
                                X             Y             Z
Electronic contribution:      5.84446       6.22528      -1.27903
Nuclear contribution   :     -5.92400      -7.04136       2.15313
                        -----------------------------------------
Total Dipole Moment    :     -0.07954      -0.81608       0.87410
                        -----------------------------------------
Magnitude (a.u.)       :      1.19848
Magnitude (Debye)      :      3.04631

Rotational constants in cm-1:     0.052205     0.032816     0.022788
Rotational constants in MHz :  1565.053755   983.801118   683.159502

                             ****ORCA TERMINATED NORMALLY****
TOTAL RUN TIME: 0 days 0 hours 26 minutes 6 seconds 730 msec
