                         Program Version 5.0.4 -  RELEASE  -
|  1> !ri-mp2 aug-cc-pvqz aug-cc-pvqz/c tightscf
|  2> %pal nprocs 16 end
|  3>
|  4> * xyz 0 1
|  5> C     -1.074952   -0.423350    0.000000
|  6> N      0.000000    0.548631    0.000000
|  7> C      1.187443    0.128587    0.000000
|  8> H     -0.726044   -1.464229    0.000000
|  9> H     -1.702940   -0.256326    0.876539
| 10> H     -1.702940   -0.256326   -0.876539
| 11> H      1.449451   -0.937256    0.000000
| 12> H      2.007530    0.842294    0.000000
| 13> *
| 14>
| 15>                          ****END OF INPUT****

CARTESIAN COORDINATES (ANGSTROEM)
---------------------------------
  C     -1.074952   -0.423350    0.000000
  N      0.000000    0.548631    0.000000
  C      1.187443    0.128587    0.000000
  H     -0.726044   -1.464229    0.000000
  H     -1.702940   -0.256326    0.876539
  H     -1.702940   -0.256326   -0.876539
  H      1.449451   -0.937256    0.000000
  H      2.007530    0.842294    0.000000

 Total Charge           Charge          ....    0
 Multiplicity           Mult            ....    1
 Number of Electrons    NEL             ....   24
 Basis Dimension        Dim             ....  470

ORBITAL ENERGIES
----------------

  NO   OCC          E(Eh)            E(eV)
   0   2.0000     -15.563515      -423.5048
   1   2.0000     -11.270635      -306.6896
   2   2.0000     -11.247574      -306.0621
   3   2.0000      -1.229696       -33.4617
   4   2.0000      -0.960399       -26.1338
   5   2.0000      -0.795018       -21.6335
   6   2.0000      -0.657189       -17.8830
   7   2.0000      -0.631339       -17.1796
   8   2.0000      -0.590862       -16.0782
   9   2.0000      -0.532954       -14.5024
  10   2.0000      -0.421139       -11.4598
  11   2.0000      -0.408238       -11.1087
  12   0.0000       0.026456         0.7199
  13   0.0000       0.036674         0.9980
  14   0.0000       0.040137         1.0922
  15   0.0000       0.043157         1.1744
  16   0.0000       0.057395         1.5618

MULLIKEN ATOMIC CHARGES
-----------------------
   0 C :   -0.587308
   1 N :   -0.444070
   2 C :   -0.678394
   3 H :    0.245673
   4 H :    0.267660
   5 H :    0.267660
   6 H :    0.423666
   7 H :    0.505113
Sum of atomic charges:   -0.0000000

LOEWDIN ATOMIC CHARGES
----------------------
   0 C :    0.644411
   1 N :    0.569160
   2 C :    0.505381
   3 H :   -0.337637
   4 H :   -0.325603
   5 H :   -0.325603
   6 H :   -0.350541
   7 H :   -0.379568

  Mayer bond orders larger than 0.100000
B(  0-C ,  1-N ) :   0.8775 B(  0-C ,  3-H ) :   0.9275 B(  0-C ,  4-H ) :   0.9275
B(  0-C ,  5-H ) :   0.9275 B(  1-N ,  2-C ) :   1.8668 B(  2-C ,  6-H ) :   0.7880
B(  2-C ,  7-H ) :   0.7609

MP2 TOTAL ENERGY:     -133.704040486 Eh
FINAL SINGLE POINT ENERGY      -133.704040485701

DIPOLE MOMENT
-------------
                                X             Y             Z
Electronic contribution:      0.94155       1.52141       0.00000
Nuclear contribution   :     -0.70636      -2.16491       0.00000
                        -----------------------------------------
Total Dipole Moment    :      0.23519      -0.64350       0.00000
                        -----------------------------------------
Magnitude (a.u.)       :      0.68513
Magnitude (Debye)      :      1.74146

Rotational constants in cm-1:     1.803826     0.355063     0.313773
Rotational constants in MHz : 54077.333074 10644.513031  9406.686089

                             ****ORCA TERMINATED NORMALLY****
TOTAL RUN TIME: 0 days 0 hours 2 minutes 24 seconds 765 msec
