                         Program Version 5.0.4 -  RELEASE  -
|  1> !ri-mp2 aug-cc-pvqz aug-cc-pvqz/c tightscf
|  2> %pal nprocs 16 end
|  3>
|  4> * xyz 0 1
|  5> C     -0.776157    0.482170    0.010862
|  6> N      0.561163    0.638019   -0.078048
|  7> O     -1.303837   -0.617381    0.001319
|  8> O      1.345896   -0.512290    0.011708
|  9> H     -1.318051    1.436615    0.052353
| 10> H      1.043410    1.455182    0.258679
| 11> H      0.666967   -1.213576    0.065911
| 12> *
| 13>
| 14>                          ****END OF INPUT****

CARTESIAN COORDINATES (ANGSTROEM)
---------------------------------
  C     -0.776157    0.482170    0.010862
  N      0.561163    0.638019   -0.078048
  O     -1.303837   -0.617381    0.001319
  O      1.345896   -0.512290    0.011708
  H     -1.318051    1.436615    0.052353
  H      1.043410    1.455182    0.258679
  H      0.666967   -1.213576    0.065911

 Total Charge           Charge          ....    0
 Multiplicity           Mult            ....    1
 Number of Electrons    NEL             ....   32
 Basis Dimension        Dim             ....  458

ORBITAL ENERGIES
----------------

  NO   OCC          E(Eh)            E(eV)
   0   2.0000     -20.618462      -561.0569
   1   2.0000     -20.549521      -559.1809
   2   2.0000     -15.657849      -426.0717
   3   2.0000     -11.373043      -309.4762
   4   2.0000      -1.465578       -39.8804
   5   2.0000      -1.384362       -37.6704
   6   2.0000      -1.168257       -31.7899
   7   2.0000      -0.874356       -23.7924
   8   2.0000      -0.778758       -21.1911
   9   2.0000      -0.713552       -19.4167
  10   2.0000      -0.655595       -17.8396
  11   2.0000      -0.624398       -16.9907
  12   2.0000      -0.598613       -16.2891
  13   2.0000      -0.539937       -14.6924
  14   2.0000      -0.465959       -12.6794
  15   2.0000      -0.406100       -11.0505
  16   0.0000       0.019184         0.5220
  17   0.0000       0.036660         0.9976
  18   0.0000       0.043706         1.1893
  19   0.0000       0.062450         1.6993
  20   0.0000       0.083117         2.2617

MULLIKEN ATOMIC CHARGES
-----------------------
   0 C :    0.247037
   1 N :   -0.195539
   2 O :   -0.733140
   3 O :   -0.582545
   4 H :    0.556928
   5 H :    0.332078
   6 H :    0.375181
Sum of atomic charges:   -0.0000000

LOEWDIN ATOMIC CHARGES
----------------------
   0 C :   -0.445318
   1 N :    0.503960
   2 O :    0.690860
   3 O :    1.121517
   4 H :   -0.360136
   5 H :   -0.537816
   6 H :   -0.973067

  Mayer bond orders larger than 0.100000
B(  0-C ,  1-N ) :   1.2498 B(  0-C ,  2-O ) :   1.6746 B(  0-C ,  4-H ) :   0.6610
B(  1-N ,  3-O ) :   0.8000 B(  1-N ,  5-H ) :   0.8663 B(  3-O ,  6-H ) :   0.8500

MP2 TOTAL ENERGY:     -244.752558240 Eh
FINAL SINGLE POINT ENERGY      -244.752558240095

DIPOLE MOMENT
-------------
                                X             Y             Z
Electronic contribution:     -0.10631      -0.42546      -0.08977
Nuclear contribution   :      0.39017       1.63848       0.37088
                        -----------------------------------------
Total Dipole Moment    :      0.28386       1.21302       0.28111
                        -----------------------------------------
Magnitude (a.u.)       :      1.27712
Magnitude (Debye)      :      3.24617

Rotational constants in cm-1:     0.685906     0.236417     0.176386
Rotational constants in MHz : 20562.957632  7087.599186  5287.905916

                             ****ORCA TERMINATED NORMALLY****
TOTAL RUN TIME: 0 days 0 hours 3 minutes 20 seconds 107 msec
