                         Program Version 5.0.4 -  RELEASE  -
|  1> !ri-mp2 aug-cc-pvqz aug-cc-pvqz/c tightscf
|  2> %pal nprocs 16 end
|  3>
|  4> * xyz 0 1
|  5> C      2.188329   -0.578455    0.000000
|  6> C     -1.460704    0.073620    0.000000
|  7> C      0.000000    0.510660    0.000000
|  8> N     -2.360917    1.087263    0.000000
|  9> N      0.840666   -0.658435    0.000000
| 10> O      2.817916    0.462897    0.000000
| 11> O     -1.784599   -1.100738    0.000000
| 12> H      2.671946   -1.568981    0.000000
| 13> H      0.198935    1.134237    0.876265
| 14> H      0.198935    1.134237   -0.876265
| 15> H     -3.341011    0.863104    0.000000
| 16> H     -2.082734    2.051773    0.000000
| 17> H      0.363396   -1.548392    0.000000
| 18> *
| 19>
| 20>                          ****END OF INPUT****

CARTESIAN COORDINATES (ANGSTROEM)
---------------------------------
  C      2.188329   -0.578455    0.000000
  C     -1.460704    0.073620    0.000000
  C      0.000000    0.510660    0.000000
  N     -2.360917    1.087263    0.000000
  N      0.840666   -0.658435    0.000000
  O      2.817916    0.462897    0.000000
  O     -1.784599   -1.100738    0.000000
  H      2.671946   -1.568981    0.000000
  H      0.198935    1.134237    0.876265
  H      0.198935    1.134237   -0.876265
  H     -3.341011    0.863104    0.000000
  H     -2.082734    2.051773    0.000000
  H      0.363396   -1.548392    0.000000

 Total Charge           Charge          ....    0
 Multiplicity           Mult            ....    1
 Number of Electrons    NEL             ....   54
 Basis Dimension        Dim             ....  836

ORBITAL ENERGIES
----------------

  NO   OCC          E(Eh)            E(eV)
   0   2.0000     -20.541982      -558.9757
   1   2.0000     -20.524631      -558.5036
   2   2.0000     -15.604012      -424.6068
   3   2.0000     -15.591918      -424.2777
   4   2.0000     -11.376182      -309.5616
   5   2.0000     -11.350047      -308.8505
   6   2.0000     -11.293350      -307.3077
   7   2.0000      -1.408807       -38.3356
   8   2.0000      -1.383975       -37.6599
   9   2.0000      -1.244079       -33.8531
  10   2.0000      -1.235320       -33.6148
  11   2.0000      -1.011544       -27.5255
  12   2.0000      -0.845237       -23.0001
  13   2.0000      -0.806634       -21.9496
  14   2.0000      -0.770341       -20.9621
  15   2.0000      -0.724526       -19.7154
  16   2.0000      -0.679211       -18.4823
  17   2.0000      -0.667697       -18.1690
  18   2.0000      -0.644945       -17.5499
  19   2.0000      -0.610036       -16.5999
  20   2.0000      -0.583304       -15.8725
  21   2.0000      -0.580063       -15.7843
  22   2.0000      -0.532071       -14.4784
  23   2.0000      -0.454603       -12.3704
  24   2.0000      -0.440778       -11.9942
  25   2.0000      -0.435392       -11.8476
  26   2.0000      -0.401737       -10.9318
  27   0.0000       0.015700         0.4272
  28   0.0000       0.031058         0.8451
  29   0.0000       0.035860         0.9758
  30   0.0000       0.037890         1.0310
  31   0.0000       0.047931         1.3043

MULLIKEN ATOMIC CHARGES
-----------------------
   0 C :    0.238766
   1 C :    0.816017
   2 C :   -0.231617
   3 N :   -0.687997
   4 N :   -0.538603
   5 O :   -0.768241
   6 O :   -0.807743
   7 H :    0.506757
   8 H :    0.300659
   9 H :    0.300659
  10 H :    0.224567
  11 H :    0.330767
  12 H :    0.316010
Sum of atomic charges:    0.0000000

LOEWDIN ATOMIC CHARGES
----------------------
   0 C :   -0.434763
   1 C :   -0.804811
   2 C :    0.307779
   3 N :    1.247124
   4 N :    0.786681
   5 O :    0.658883
   6 O :    0.727929
   7 H :   -0.357916
   8 H :   -0.284314
   9 H :   -0.284314
  10 H :   -0.491245
  11 H :   -0.486460
  12 H :   -0.584574

  Mayer bond orders larger than 0.100000
B(  0-C ,  4-N ) :   1.1716 B(  0-C ,  5-O ) :   1.5994 B(  0-C ,  7-H ) :   0.7631
B(  1-C ,  2-C ) :   1.1383 B(  1-C ,  3-N ) :   1.1988 B(  1-C ,  6-O ) :   1.2563
B(  2-C ,  4-N ) :   0.8317 B(  2-C ,  6-O ) :   0.1477 B(  2-C ,  8-H ) :   0.8801
B(  2-C ,  9-H ) :   0.8801 B(  3-N ,  6-O ) :   0.1093 B(  3-N , 10-H ) :   1.0000
B(  3-N , 11-H ) :   0.8722 B(  4-N ,  5-O ) :   0.1018 B(  4-N , 12-H ) :   0.9360

MP2 TOTAL ENERGY:     -377.390997200 Eh
FINAL SINGLE POINT ENERGY      -377.390997200296

DIPOLE MOMENT
-------------
                                X             Y             Z
Electronic contribution:      0.73086      -1.50010      -0.00000
Nuclear contribution   :     -1.97001       2.04479       0.00000
                        -----------------------------------------
Total Dipole Moment    :     -1.23916       0.54469      -0.00000
                        -----------------------------------------
Magnitude (a.u.)       :      1.35359
Magnitude (Debye)      :      3.44054

Rotational constants in cm-1:     0.257646     0.044968     0.038557
Rotational constants in MHz :  7724.034224  1348.105259  1155.906457

                             ****ORCA TERMINATED NORMALLY****
TOTAL RUN TIME: 0 days 0 hours 18 minutes 57 seconds 578 msec
