                         Program Version 5.0.4 -  RELEASE  -
|  1> !ri-mp2 aug-cc-pvqz aug-cc-pvqz/c tightscf
|  2> %pal nprocs 16 end
|  3>
|  4> * xyz 0 1
|  5> O      0.398686   -0.658181    0.432310
|  6> O      2.110858    0.540150   -0.435213
|  7> N     -0.324934    0.558558    0.529684
|  8> N     -2.184383   -0.564932   -0.359925
|  9> C      1.635791   -0.499882   -0.069258
| 10> C     -1.596806    0.501735   -0.024181
| 11> H      0.269573    1.312628    0.194878
| 12> H     -3.129950   -0.371180   -0.673543
| 13> H      2.131567   -1.475260   -0.070979
| 14> H     -2.016233    1.511565   -0.054807
| 15> *
| 16>
| 17>                          ****END OF INPUT****

CARTESIAN COORDINATES (ANGSTROEM)
---------------------------------
  O      0.398686   -0.658181    0.432310
  O      2.110858    0.540150   -0.435213
  N     -0.324934    0.558558    0.529684
  N     -2.184383   -0.564932   -0.359925
  C      1.635791   -0.499882   -0.069258
  C     -1.596806    0.501735   -0.024181
  H      0.269573    1.312628    0.194878
  H     -3.129950   -0.371180   -0.673543
  H      2.131567   -1.475260   -0.070979
  H     -2.016233    1.511565   -0.054807

 Total Charge           Charge          ....    0
 Multiplicity           Mult            ....    1
 Number of Electrons    NEL             ....   46
 Basis Dimension        Dim             ....  664

ORBITAL ENERGIES
----------------

  NO   OCC          E(Eh)            E(eV)
   0   2.0000     -20.657615      -562.1223
   1   2.0000     -20.576984      -559.9282
   2   2.0000     -15.652775      -425.9336
   3   2.0000     -15.549729      -423.1296
   4   2.0000     -11.405187      -310.3509
   5   2.0000     -11.331906      -308.3568
   6   2.0000      -1.513909       -41.1956
   7   2.0000      -1.405772       -38.2530
   8   2.0000      -1.252005       -34.0688
   9   2.0000      -1.152145       -31.3515
  10   2.0000      -0.898371       -24.4459
  11   2.0000      -0.835253       -22.7284
  12   2.0000      -0.768852       -20.9215
  13   2.0000      -0.720428       -19.6038
  14   2.0000      -0.698658       -19.0114
  15   2.0000      -0.672623       -18.3030
  16   2.0000      -0.643126       -17.5003
  17   2.0000      -0.589652       -16.0452
  18   2.0000      -0.557879       -15.1807
  19   2.0000      -0.493426       -13.4268
  20   2.0000      -0.487775       -13.2730
  21   2.0000      -0.444013       -12.0822
  22   2.0000      -0.396496       -10.7892
  23   0.0000       0.023268         0.6331
  24   0.0000       0.031723         0.8632
  25   0.0000       0.037178         1.0117
  26   0.0000       0.053326         1.4511
  27   0.0000       0.057693         1.5699

MULLIKEN ATOMIC CHARGES
-----------------------
   0 O :   -0.435508
   1 O :   -0.716692
   2 N :   -0.274684
   3 N :   -0.681144
   4 C :    0.310329
   5 C :   -0.007443
   6 H :    0.369546
   7 H :    0.269123
   8 H :    0.604755
   9 H :    0.561719
Sum of atomic charges:   -0.0000000

LOEWDIN ATOMIC CHARGES
----------------------
   0 O :    0.688727
   1 O :    0.702721
   2 N :    0.518989
   3 N :    0.949125
   4 C :   -0.638497
   5 C :   -0.102885
   6 H :   -0.694131
   7 H :   -0.694133
   8 H :   -0.393238
   9 H :   -0.336678

  Mayer bond orders larger than 0.100000
B(  0-O ,  2-N ) :   0.7188 B(  0-O ,  4-C ) :   1.1122 B(  1-O ,  4-C ) :   1.7519
B(  2-N ,  5-C ) :   1.1689 B(  2-N ,  6-H ) :   0.7928 B(  3-N ,  5-C ) :   1.8549
B(  3-N ,  7-H ) :   0.8658 B(  4-C ,  8-H ) :   0.6183 B(  5-C ,  9-H ) :   0.6333

MP2 TOTAL ENERGY:     -338.050703958 Eh
FINAL SINGLE POINT ENERGY      -338.050703957848

DIPOLE MOMENT
-------------
                                X             Y             Z
Electronic contribution:      2.39377      -0.49378       0.53000
Nuclear contribution   :     -2.66848       0.95730      -0.59202
                        -----------------------------------------
Total Dipole Moment    :     -0.27472       0.46352      -0.06203
                        -----------------------------------------
Magnitude (a.u.)       :      0.54237
Magnitude (Debye)      :      1.37859

Rotational constants in cm-1:     0.374450     0.071466     0.065771
Rotational constants in MHz : 11225.721442  2142.492886  1971.757787

                             ****ORCA TERMINATED NORMALLY****
TOTAL RUN TIME: 0 days 0 hours 9 minutes 27 seconds 715 msec
