                         Program Version 5.0.4 -  RELEASE  -
|  1> !ri-mp2 aug-cc-pvqz aug-cc-pvqz/c tightscf
|  2> %pal nprocs 16 end
|  3>
|  4> * xyz 0 1
|  5> O      0.003809    1.878896   -0.058549
|  6> O     -1.325094   -1.341270   -0.193926
|  7> N     -1.242362    0.008952    0.182819
|  8> C     -0.039394    0.667675    0.014547
|  9> C      1.144130   -0.169619    0.016092
| 10> C      2.171402   -0.787529    0.007182
| 11> H     -1.418256   -1.824659    0.635941
| 12> H     -2.054044    0.531652   -0.119875
| 13> H      3.082283   -1.333824   -0.002916
| 14> *
| 15>
| 16>                          ****END OF INPUT****

CARTESIAN COORDINATES (ANGSTROEM)
---------------------------------
  O      0.003809    1.878896   -0.058549
  O     -1.325094   -1.341270   -0.193926
  N     -1.242362    0.008952    0.182819
  C     -0.039394    0.667675    0.014547
  C      1.144130   -0.169619    0.016092
  C      2.171402   -0.787529    0.007182
  H     -1.418256   -1.824659    0.635941
  H     -2.054044    0.531652   -0.119875
  H      3.082283   -1.333824   -0.002916

 Total Charge           Charge          ....    0
 Multiplicity           Mult            ....    1
 Number of Electrons    NEL             ....   44
 Basis Dimension        Dim             ....  618

ORBITAL ENERGIES
----------------

  NO   OCC          E(Eh)            E(eV)
   0   2.0000     -20.632331      -561.4343
   1   2.0000     -20.551476      -559.2341
   2   2.0000     -15.652854      -425.9358
   3   2.0000     -11.394587      -310.0625
   4   2.0000     -11.267345      -306.6000
   5   2.0000     -11.259132      -306.3766
   6   2.0000      -1.460782       -39.7499
   7   2.0000      -1.402459       -38.1628
   8   2.0000      -1.163024       -31.6475
   9   2.0000      -1.065426       -28.9917
  10   2.0000      -0.907255       -24.6877
  11   2.0000      -0.775380       -21.0992
  12   2.0000      -0.744187       -20.2504
  13   2.0000      -0.719883       -19.5890
  14   2.0000      -0.695158       -18.9162
  15   2.0000      -0.639320       -17.3968
  16   2.0000      -0.586772       -15.9669
  17   2.0000      -0.542716       -14.7681
  18   2.0000      -0.474734       -12.9182
  19   2.0000      -0.433034       -11.7835
  20   2.0000      -0.427460       -11.6318
  21   2.0000      -0.423993       -11.5374
  22   0.0000       0.020670         0.5625
  23   0.0000       0.028118         0.7651
  24   0.0000       0.039175         1.0660
  25   0.0000       0.059451         1.6177
  26   0.0000       0.067783         1.8445

MULLIKEN ATOMIC CHARGES
-----------------------
   0 O :   -0.728791
   1 O :   -0.566756
   2 N :   -0.180988
   3 C :    1.048350
   4 C :   -0.139281
   5 C :   -0.579288
   6 H :    0.351890
   7 H :    0.317084
   8 H :    0.477781
Sum of atomic charges:   -0.0000000

LOEWDIN ATOMIC CHARGES
----------------------
   0 O :    0.659360
   1 O :    1.111091
   2 N :    0.476605
   3 C :   -0.995711
   4 C :   -0.003813
   5 C :    0.566897
   6 H :   -0.810729
   7 H :   -0.560964
   8 H :   -0.442737

  Mayer bond orders larger than 0.100000
B(  0-O ,  2-N ) :   0.1467 B(  0-O ,  3-C ) :   1.3686 B(  1-O ,  2-N ) :   0.8153
B(  1-O ,  6-H ) :   0.9040 B(  2-N ,  3-C ) :   1.1575 B(  2-N ,  7-H ) :   0.8684
B(  3-C ,  4-C ) :   1.0159 B(  3-C ,  5-C ) :  -0.1129 B(  4-C ,  5-C ) :   2.7046
B(  5-C ,  8-H ) :   0.8817

MP2 TOTAL ENERGY:     -320.755142327 Eh
FINAL SINGLE POINT ENERGY      -320.755142326946

DIPOLE MOMENT
-------------
                                X             Y             Z
Electronic contribution:      0.25622       1.18072      -0.12224
Nuclear contribution   :     -0.40621      -2.54360       0.49569
                        -----------------------------------------
Total Dipole Moment    :     -0.14999      -1.36288       0.37344
                        -----------------------------------------
Magnitude (a.u.)       :      1.42106
Magnitude (Debye)      :      3.61204

Rotational constants in cm-1:     0.160361     0.120699     0.069739
Rotational constants in MHz :  4807.499044  3618.464480  2090.720300

                             ****ORCA TERMINATED NORMALLY****
TOTAL RUN TIME: 0 days 0 hours 7 minutes 34 seconds 249 msec
