                         Program Version 5.0.4 -  RELEASE  -
|  1> !ri-mp2 aug-cc-pvqz aug-cc-pvqz/c tightscf
|  2> %pal nprocs 16 end
|  3>
|  4> * xyz 0 1
|  5> F    -2.192510   -0.268440    1.108615
|  6> F    -2.196021   -0.431782   -1.071868
|  7> N    -1.580972    0.316470   -0.035136
|  8> N     1.505260   -1.737413    0.024215
|  9> N     0.347175    2.296354    0.002544
| 10> C    -0.202650   -0.061410   -0.009063
| 11> C     0.727919    0.992051   -0.013556
| 12> C     0.228543   -1.384447    0.013005
| 13> C     2.079236    0.604782   -0.004927
| 14> C     2.400219   -0.735610    0.013200
| 15> H     1.025447    3.014652   -0.169637
| 16> H    -0.622485    2.526037   -0.124140
| 17> H    -0.507894   -2.178420    0.017074
| 18> H     2.859819    1.353746   -0.007846
| 19> H     3.442048   -1.034086    0.020506
| 20> *
| 21>
| 22>                          ****END OF INPUT****

CARTESIAN COORDINATES (ANGSTROEM)
---------------------------------
  F     -2.192510   -0.268440    1.108615
  F     -2.196021   -0.431782   -1.071868
  N     -1.580972    0.316470   -0.035136
  N      1.505260   -1.737413    0.024215
  N      0.347175    2.296354    0.002544
  C     -0.202650   -0.061410   -0.009063
  C      0.727919    0.992051   -0.013556
  C      0.228543   -1.384447    0.013005
  C      2.079236    0.604782   -0.004927
  C      2.400219   -0.735610    0.013200
  H      1.025447    3.014652   -0.169637
  H     -0.622485    2.526037   -0.124140
  H     -0.507894   -2.178420    0.017074
  H      2.859819    1.353746   -0.007846
  H      3.442048   -1.034086    0.020506

 Total Charge           Charge          ....    0
 Multiplicity           Mult            ....    1
 Number of Electrons    NEL             ....   74
 Basis Dimension        Dim             .... 1030

ORBITAL ENERGIES
----------------

  NO   OCC          E(Eh)            E(eV)
   0   2.0000     -26.332748      -716.5505
   1   2.0000     -26.330387      -716.4863
   2   2.0000     -15.777280      -429.3216
   3   2.0000     -15.600429      -424.5092
   4   2.0000     -15.563903      -423.5153
   5   2.0000     -11.333096      -308.3892
   6   2.0000     -11.299095      -307.4640
   7   2.0000     -11.293630      -307.3153
   8   2.0000     -11.280194      -306.9497
   9   2.0000     -11.246529      -306.0336
  10   2.0000      -1.672691       -45.5162
  11   2.0000      -1.589610       -43.2555
  12   2.0000      -1.290962       -35.1289
  13   2.0000      -1.253742       -34.1161
  14   2.0000      -1.178109       -32.0580
  15   2.0000      -1.068467       -29.0745
  16   2.0000      -1.015550       -27.6345
  17   2.0000      -0.884472       -24.0677
  18   2.0000      -0.869667       -23.6648
  19   2.0000      -0.778557       -21.1856
  20   2.0000      -0.764895       -20.8139
  21   2.0000      -0.753235       -20.4966
  22   2.0000      -0.745489       -20.2858
  23   2.0000      -0.722561       -19.6619
  24   2.0000      -0.676138       -18.3986
  25   2.0000      -0.666452       -18.1351
  26   2.0000      -0.650042       -17.6885
  27   2.0000      -0.637326       -17.3425
  28   2.0000      -0.629597       -17.1322
  29   2.0000      -0.616201       -16.7677
  30   2.0000      -0.582272       -15.8444
  31   2.0000      -0.542043       -14.7497
  32   2.0000      -0.507754       -13.8167
  33   2.0000      -0.506404       -13.7800
  34   2.0000      -0.428553       -11.6615
  35   2.0000      -0.375626       -10.2213
  36   2.0000      -0.350311        -9.5324
  37   0.0000       0.015475         0.4211
  38   0.0000       0.027775         0.7558
  39   0.0000       0.036019         0.9801
  40   0.0000       0.042751         1.1633
  41   0.0000       0.053215         1.4480

MULLIKEN ATOMIC CHARGES
-----------------------
   0 F :   -0.481407
   1 F :   -0.488724
   2 N :    0.432201
   3 N :   -0.726271
   4 N :   -0.779364
   5 C :    0.395198
   6 C :    0.658692
   7 C :   -0.066421
   8 C :   -0.518133
   9 C :   -0.260085
  10 H :    0.270610
  11 H :    0.305756
  12 H :    0.554437
  13 H :    0.242806
  14 H :    0.460704
Sum of atomic charges:   -0.0000000

LOEWDIN ATOMIC CHARGES
----------------------
   0 F :    0.472864
   1 F :    0.478496
   2 N :   -0.539223
   3 N :    0.598999
   4 N :    1.283325
   5 C :   -0.445969
   6 C :   -0.282221
   7 C :    0.033602
   8 C :    0.342183
   9 C :    0.079719
  10 H :   -0.478013
  11 H :   -0.519499
  12 H :   -0.350667
  13 H :   -0.328167
  14 H :   -0.345428

  Mayer bond orders larger than 0.100000
B(  0-F ,  2-N ) :   0.6625 B(  0-F ,  5-C ) :  -0.1079 B(  1-F ,  2-N ) :   0.6524
B(  1-F ,  5-C ) :  -0.1153 B(  1-F ,  7-C ) :   0.1044 B(  2-N ,  5-C ) :   0.5974
B(  3-N ,  7-C ) :   1.3090 B(  3-N ,  9-C ) :   1.1967 B(  3-N , 12-H ) :  -0.1130
B(  4-N ,  6-C ) :   0.7635 B(  4-N , 10-H ) :   0.9695 B(  4-N , 11-H ) :   0.9470
B(  5-C ,  6-C ) :   1.1454 B(  5-C ,  7-C ) :   1.2110 B(  5-C ,  8-C ) :  -0.1241
B(  5-C , 12-H ) :  -0.1034 B(  6-C ,  7-C ) :  -0.1610 B(  6-C ,  8-C ) :   1.0139
B(  6-C ,  9-C ) :  -0.2332 B(  6-C , 13-H ) :  -0.1179 B(  7-C , 12-H ) :   0.7321
B(  8-C ,  9-C ) :   1.3548 B(  8-C , 13-H ) :   1.0368 B(  8-C , 14-H ) :  -0.1392
B(  9-C , 14-H ) :   0.8877

MP2 TOTAL ENERGY:     -556.605183560 Eh
FINAL SINGLE POINT ENERGY      -556.605183560275

DIPOLE MOMENT
-------------
                                X             Y             Z
Electronic contribution:     -9.15971      -2.66915       0.08934
Nuclear contribution   :     10.08733       4.19349      -0.28768
                        -----------------------------------------
Total Dipole Moment    :      0.92762       1.52435      -0.19835
                        -----------------------------------------
Magnitude (a.u.)       :      1.79540
Magnitude (Debye)      :      4.56355

Rotational constants in cm-1:     0.071235     0.037765     0.028450
Rotational constants in MHz :  2135.570665  1132.153149   852.897602

                             ****ORCA TERMINATED NORMALLY****
TOTAL RUN TIME: 0 days 0 hours 43 minutes 12 seconds 345 msec
