                         Program Version 5.0.4 -  RELEASE  -
|  1> !ri-mp2 aug-cc-pvqz aug-cc-pvqz/c tightscf
|  2> %pal nprocs 16 end
|  3>
|  4> * xyz 0 1
|  5> C     -2.176225   -0.108634    0.025106
|  6> C      1.750470   -0.864926    0.195527
|  7> N     -0.860662   -0.714324    0.273353
|  8> O      0.496434    1.481896    0.368384
|  9> S      0.435590    0.228882   -0.434302
| 10> H     -2.186081    0.887800    0.460796
| 11> H     -2.927918   -0.708978    0.535442
| 12> H     -2.441606   -0.034928   -1.035315
| 13> H      1.646109   -0.917873    1.276493
| 14> H      2.694683   -0.403665   -0.084828
| 15> H      1.666868   -1.848965   -0.264591
| 16> H     -0.813806   -1.649042   -0.123504
| 17> *
| 18>
| 19>                          ****END OF INPUT****

CARTESIAN COORDINATES (ANGSTROEM)
---------------------------------
  C     -2.176225   -0.108634    0.025106
  C      1.750470   -0.864926    0.195527
  N     -0.860662   -0.714324    0.273353
  O      0.496434    1.481896    0.368384
  S      0.435590    0.228882   -0.434302
  H     -2.186081    0.887800    0.460796
  H     -2.927918   -0.708978    0.535442
  H     -2.441606   -0.034928   -1.035315
  H      1.646109   -0.917873    1.276493
  H      2.694683   -0.403665   -0.084828
  H      1.666868   -1.848965   -0.264591
  H     -0.813806   -1.649042   -0.123504

 Total Charge           Charge          ....    0
 Multiplicity           Mult            ....    1
 Number of Electrons    NEL             ....   50
 Basis Dimension        Dim             ....  726

ORBITAL ENERGIES
----------------

  NO   OCC          E(Eh)            E(eV)
   0   2.0000     -92.089589     -2505.8851
   1   2.0000     -20.511659      -558.1506
   2   2.0000     -15.586552      -424.1316
   3   2.0000     -11.261566      -306.4428
   4   2.0000     -11.259299      -306.3811
   5   2.0000      -9.072959      -246.8878
   6   2.0000      -6.755212      -183.8187
   7   2.0000      -6.754734      -183.8057
   8   2.0000      -6.753154      -183.7627
   9   2.0000      -1.351184       -36.7676
  10   2.0000      -1.208484       -32.8845
  11   2.0000      -1.028210       -27.9790
  12   2.0000      -0.922214       -25.0947
  13   2.0000      -0.827950       -22.5297
  14   2.0000      -0.684095       -18.6152
  15   2.0000      -0.638104       -17.3637
  16   2.0000      -0.633622       -17.2417
  17   2.0000      -0.603531       -16.4229
  18   2.0000      -0.584917       -15.9164
  19   2.0000      -0.557719       -15.1763
  20   2.0000      -0.539984       -14.6937
  21   2.0000      -0.531963       -14.4755
  22   2.0000      -0.444932       -12.1072
  23   2.0000      -0.429948       -11.6995
  24   2.0000      -0.362120        -9.8538
  25   0.0000       0.020221         0.5502
  26   0.0000       0.030316         0.8249
  27   0.0000       0.037577         1.0225
  28   0.0000       0.038456         1.0464
  29   0.0000       0.051141         1.3916

MULLIKEN ATOMIC CHARGES
-----------------------
   0 C :   -0.774488
   1 C :   -1.005949
   2 N :   -0.526930
   3 O :   -1.133609
   4 S :    1.267798
   5 H :    0.312263
   6 H :    0.349965
   7 H :    0.266284
   8 H :    0.323799
   9 H :    0.397582
  10 H :    0.315136
  11 H :    0.208150
Sum of atomic charges:   -0.0000000

LOEWDIN ATOMIC CHARGES
----------------------
   0 C :    0.672886
   1 C :    0.730167
   2 N :    0.626904
   3 O :    0.087903
   4 S :    0.530807
   5 H :   -0.338636
   6 H :   -0.309552
   7 H :   -0.299333
   8 H :   -0.354118
   9 H :   -0.365366
  10 H :   -0.354751
  11 H :   -0.626910

  Mayer bond orders larger than 0.100000
B(  0-C ,  2-N ) :   0.8872 B(  0-C ,  5-H ) :   0.8980 B(  0-C ,  6-H ) :   0.8940
B(  0-C ,  7-H ) :   0.9495 B(  1-C ,  4-S ) :   0.9818 B(  1-C ,  8-H ) :   0.8580
B(  1-C ,  9-H ) :   0.8425 B(  1-C , 10-H ) :   0.9017 B(  2-N ,  4-S ) :   0.9062
B(  2-N , 11-H ) :   0.9405 B(  3-O ,  4-S ) :   1.2743

MP2 TOTAL ENERGY:     -607.788395260 Eh
FINAL SINGLE POINT ENERGY      -607.788395259522

DIPOLE MOMENT
-------------
                                X             Y             Z
Electronic contribution:      2.25655       3.03558      -1.41782
Nuclear contribution   :     -2.39177      -4.70158       0.79171
                        -----------------------------------------
Total Dipole Moment    :     -0.13521      -1.66600      -0.62610
                        -----------------------------------------
Magnitude (a.u.)       :      1.78490
Magnitude (Debye)      :      4.53685

Rotational constants in cm-1:     0.227174     0.105204     0.080892
Rotational constants in MHz :  6810.492601  3153.929331  2425.094146

                             ****ORCA TERMINATED NORMALLY****
TOTAL RUN TIME: 0 days 0 hours 13 minutes 31 seconds 491 msec
