                         Program Version 5.0.4 -  RELEASE  -
|  1> !ri-mp2 aug-cc-pvqz aug-cc-pvqz/c tightscf
|  2> %pal nprocs 16 end
|  3>
|  4> * xyz 0 1
|  5> C      0.691531   -0.351810   -0.035843
|  6> C      1.785942    0.685648    0.044153
|  7> C     -1.753536   -0.709923    0.070079
|  8> N     -0.596467    0.122694   -0.200791
|  9> O      0.907289   -1.549850   -0.004258
| 10> O     -0.805591    1.479569    0.133264
| 11> H      2.738393    0.164728    0.040895
| 12> H      1.688929    1.273709    0.956539
| 13> H      1.741301    1.381719   -0.792856
| 14> H     -2.070590   -0.610444    1.110769
| 15> H     -1.471281   -1.739112   -0.127674
| 16> H     -2.574605   -0.421529   -0.584996
| 17> H     -1.034080    1.910829   -0.699522
| 18> *
| 19>
| 20>                          ****END OF INPUT****

CARTESIAN COORDINATES (ANGSTROEM)
---------------------------------
  C      0.691531   -0.351810   -0.035843
  C      1.785942    0.685648    0.044153
  C     -1.753536   -0.709923    0.070079
  N     -0.596467    0.122694   -0.200791
  O      0.907289   -1.549850   -0.004258
  O     -0.805591    1.479569    0.133264
  H      2.738393    0.164728    0.040895
  H      1.688929    1.273709    0.956539
  H      1.741301    1.381719   -0.792856
  H     -2.070590   -0.610444    1.110769
  H     -1.471281   -1.739112   -0.127674
  H     -2.574605   -0.421529   -0.584996
  H     -1.034080    1.910829   -0.699522

 Total Charge           Charge          ....    0
 Multiplicity           Mult            ....    1
 Number of Electrons    NEL             ....   48
 Basis Dimension        Dim             ....  802

ORBITAL ENERGIES
----------------

  NO   OCC          E(Eh)            E(eV)
   0   2.0000     -20.620124      -561.1021
   1   2.0000     -20.523974      -558.4857
   2   2.0000     -15.637571      -425.5199
   3   2.0000     -11.355370      -308.9953
   4   2.0000     -11.260784      -306.4215
   5   2.0000     -11.233889      -305.6897
   6   2.0000      -1.448026       -39.4028
   7   2.0000      -1.377759       -37.4907
   8   2.0000      -1.164770       -31.6950
   9   2.0000      -1.022715       -27.8295
  10   2.0000      -0.934648       -25.4331
  11   2.0000      -0.776468       -21.1288
  12   2.0000      -0.724078       -19.7032
  13   2.0000      -0.687105       -18.6971
  14   2.0000      -0.668169       -18.1818
  15   2.0000      -0.605300       -16.4711
  16   2.0000      -0.588407       -16.0114
  17   2.0000      -0.586366       -15.9558
  18   2.0000      -0.572013       -15.5653
  19   2.0000      -0.550928       -14.9915
  20   2.0000      -0.526084       -14.3155
  21   2.0000      -0.512103       -13.9350
  22   2.0000      -0.429256       -11.6807
  23   2.0000      -0.393129       -10.6976
  24   0.0000       0.020183         0.5492
  25   0.0000       0.031963         0.8698
  26   0.0000       0.036534         0.9942
  27   0.0000       0.040060         1.0901
  28   0.0000       0.050980         1.3872

MULLIKEN ATOMIC CHARGES
-----------------------
   0 C :    0.881547
   1 C :   -0.751815
   2 C :   -0.820317
   3 N :   -0.020308
   4 O :   -0.808198
   5 O :   -0.655655
   6 H :    0.326735
   7 H :    0.266002
   8 H :    0.256638
   9 H :    0.322820
  10 H :    0.376313
  11 H :    0.300422
  12 H :    0.325816
Sum of atomic charges:    0.0000000

LOEWDIN ATOMIC CHARGES
----------------------
   0 C :   -0.873928
   1 C :    0.872122
   2 C :    0.736626
   3 N :    0.094898
   4 O :    0.705237
   5 O :    1.126525
   6 H :   -0.325097
   7 H :   -0.301739
   8 H :   -0.302085
   9 H :   -0.284955
  10 H :   -0.352633
  11 H :   -0.298867
  12 H :   -0.796104

  Mayer bond orders larger than 0.100000
B(  0-C ,  1-C ) :   0.8342 B(  0-C ,  3-N ) :   1.1351 B(  0-C ,  4-O ) :   1.3465
B(  1-C ,  6-H ) :   0.9623 B(  1-C ,  7-H ) :   0.9262 B(  1-C ,  8-H ) :   0.9542
B(  2-C ,  3-N ) :   0.7752 B(  2-C ,  9-H ) :   0.9045 B(  2-C , 10-H ) :   0.8622
B(  2-C , 11-H ) :   0.9629 B(  3-N ,  4-O ) :   0.1176 B(  3-N ,  5-O ) :   0.7042
B(  5-O , 12-H ) :   0.9245

MP2 TOTAL ENERGY:     -323.227957887 Eh
FINAL SINGLE POINT ENERGY      -323.227957887216

DIPOLE MOMENT
-------------
                                X             Y             Z
Electronic contribution:      0.42707      -0.80533      -0.30346
Nuclear contribution   :     -0.99546       1.98268      -0.09712
                        -----------------------------------------
Total Dipole Moment    :     -0.56839       1.17735      -0.40058
                        -----------------------------------------
Magnitude (a.u.)       :      1.36736
Magnitude (Debye)      :      3.47556

Rotational constants in cm-1:     0.167261     0.117604     0.071745
Rotational constants in MHz :  5014.345080  3525.686908  2150.847916

                             ****ORCA TERMINATED NORMALLY****
TOTAL RUN TIME: 0 days 0 hours 18 minutes 13 seconds 235 msec
