                         Program Version 5.0.4 -  RELEASE  -
|  1> !ri-mp2 aug-cc-pvqz aug-cc-pvqz/c tightscf
|  2> %pal nprocs 16 end
|  3>
|  4> * xyz 0 1
|  5> C      0.000000    0.400135    0.000000
|  6> C     -0.559646    1.800763    0.000000
|  7> C      1.512118    0.333612    0.000000
|  8> C     -0.421806   -1.955288    0.000000
|  9> N     -0.823365   -0.565462    0.000000
| 10> H     -0.214550    2.354611    0.877083
| 11> H     -0.214550    2.354611   -0.877083
| 12> H     -1.645869    1.770131    0.000000
| 13> H      1.903128    0.856799    0.875493
| 14> H      1.903128    0.856799   -0.875493
| 15> H      1.909280   -0.676287    0.000000
| 16> H     -0.857799   -2.442000   -0.874888
| 17> H     -0.857799   -2.442000    0.874888
| 18> H      0.654591   -2.149764    0.000000
| 19> *
| 20>
| 21>                          ****END OF INPUT****

CARTESIAN COORDINATES (ANGSTROEM)
---------------------------------
  C      0.000000    0.400135    0.000000
  C     -0.559646    1.800763    0.000000
  C      1.512118    0.333612    0.000000
  C     -0.421806   -1.955288    0.000000
  N     -0.823365   -0.565462    0.000000
  H     -0.214550    2.354611    0.877083
  H     -0.214550    2.354611   -0.877083
  H     -1.645869    1.770131    0.000000
  H      1.903128    0.856799    0.875493
  H      1.903128    0.856799   -0.875493
  H      1.909280   -0.676287    0.000000
  H     -0.857799   -2.442000   -0.874888
  H     -0.857799   -2.442000    0.874888
  H      0.654591   -2.149764    0.000000

 Total Charge           Charge          ....    0
 Multiplicity           Mult            ....    1
 Number of Electrons    NEL             ....   40
 Basis Dimension        Dim             ....  814

ORBITAL ENERGIES
----------------

  NO   OCC          E(Eh)            E(eV)
   0   2.0000     -15.538448      -422.8227
   1   2.0000     -11.275999      -306.8355
   2   2.0000     -11.236702      -305.7662
   3   2.0000     -11.227491      -305.5156
   4   2.0000     -11.215453      -305.1880
   5   2.0000      -1.220216       -33.2038
   6   2.0000      -1.029106       -28.0034
   7   2.0000      -0.954779       -25.9808
   8   2.0000      -0.910762       -24.7831
   9   2.0000      -0.708066       -19.2674
  10   2.0000      -0.644021       -17.5247
  11   2.0000      -0.620943       -16.8967
  12   2.0000      -0.610118       -16.6022
  13   2.0000      -0.567350       -15.4384
  14   2.0000      -0.544891       -14.8272
  15   2.0000      -0.543377       -14.7860
  16   2.0000      -0.524983       -14.2855
  17   2.0000      -0.511487       -13.9183
  18   2.0000      -0.388435       -10.5698
  19   2.0000      -0.382358       -10.4045
  20   0.0000       0.025219         0.6862
  21   0.0000       0.032795         0.8924
  22   0.0000       0.036396         0.9904
  23   0.0000       0.037629         1.0239
  24   0.0000       0.051434         1.3996

MULLIKEN ATOMIC CHARGES
-----------------------
   0 C :    0.470131
   1 C :   -0.830732
   2 C :   -0.813511
   3 C :   -0.756217
   4 N :   -0.541110
   5 H :    0.242175
   6 H :    0.242175
   7 H :    0.282313
   8 H :    0.269976
   9 H :    0.269976
  10 H :    0.286214
  11 H :    0.304569
  12 H :    0.304569
  13 H :    0.269472
Sum of atomic charges:   -0.0000000

LOEWDIN ATOMIC CHARGES
----------------------
   0 C :   -0.287898
   1 C :    0.870282
   2 C :    0.916047
   3 C :    0.675902
   4 N :    0.626666
   5 H :   -0.291600
   6 H :   -0.291600
   7 H :   -0.323410
   8 H :   -0.281991
   9 H :   -0.281991
  10 H :   -0.340442
  11 H :   -0.318208
  12 H :   -0.318208
  13 H :   -0.353550

  Mayer bond orders larger than 0.100000
B(  0-C ,  1-C ) :   0.8054 B(  0-C ,  2-C ) :   0.8001 B(  0-C ,  4-N ) :   1.5793
B(  1-C ,  5-H ) :   0.9818 B(  1-C ,  6-H ) :   0.9818 B(  1-C ,  7-H ) :   0.9628
B(  2-C ,  8-H ) :   0.9393 B(  2-C ,  9-H ) :   0.9393 B(  2-C , 10-H ) :   0.9565
B(  3-C ,  4-N ) :   0.8955 B(  3-C , 11-H ) :   0.9295 B(  3-C , 12-H ) :   0.9295
B(  3-C , 13-H ) :   0.9236

MP2 TOTAL ENERGY:     -212.188687005 Eh
FINAL SINGLE POINT ENERGY      -212.188687005419

DIPOLE MOMENT
-------------
                                X             Y             Z
Electronic contribution:     -1.92534      -0.33927       0.00000
Nuclear contribution   :      2.71953       0.50655       0.00000
                        -----------------------------------------
Total Dipole Moment    :      0.79419       0.16728       0.00000
                        -----------------------------------------
Magnitude (a.u.)       :      0.81162
Magnitude (Debye)      :      2.06297

Rotational constants in cm-1:     0.275005     0.127689     0.091597
Rotational constants in MHz :  8244.455337  3828.030930  2746.005976

                             ****ORCA TERMINATED NORMALLY****
TOTAL RUN TIME: 0 days 0 hours 17 minutes 6 seconds 106 msec
