                         Program Version 5.0.4 -  RELEASE  -
|  1> !ri-mp2 aug-cc-pvqz aug-cc-pvqz/c tightscf
|  2> %pal nprocs 16 end
|  3> %maxcore 3800
|  4>
|  5> * xyz 0 1
|  6> C     3.364850    0.398763    0.150943
|  7> C     2.326412    1.312586    0.065958
|  8> C     1.891085   -1.300109   -0.147133
|  9> C     0.842900   -0.369826   -0.242482
| 10> C    -2.122614    1.334764   -0.896648
| 11> N     3.141045   -0.913697    0.037962
| 12> N     1.065571    0.934122   -0.143705
| 13> N    -0.461515   -0.797266   -0.495355
| 14> O    -2.884414   -1.071196   -0.072187
| 15> O    -1.587626    0.402262    1.509475
| 16> S    -1.856311   -0.074094    0.169128
| 17> H     4.385597    0.718852    0.312895
| 18> H     2.507994    2.376178    0.160123
| 19> H     1.700423   -2.365075   -0.225096
| 20> H    -3.002391    1.842073   -0.507181
| 21> H    -1.240827    1.965017   -0.832434
| 22> H    -2.293340    0.973464   -1.906154
| 23> H    -0.611669   -1.792707   -0.582644
| 24> *
| 25>
| 26>                          ****END OF INPUT****

CARTESIAN COORDINATES (ANGSTROEM)
---------------------------------
  C      3.364850    0.398763    0.150943
  C      2.326412    1.312586    0.065958
  C      1.891085   -1.300109   -0.147133
  C      0.842900   -0.369826   -0.242482
  C     -2.122614    1.334764   -0.896648
  N      3.141045   -0.913697    0.037962
  N      1.065571    0.934122   -0.143705
  N     -0.461515   -0.797266   -0.495355
  O     -2.884414   -1.071196   -0.072187
  O     -1.587626    0.402262    1.509475
  S     -1.856311   -0.074094    0.169128
  H      4.385597    0.718852    0.312895
  H      2.507994    2.376178    0.160123
  H      1.700423   -2.365075   -0.225096
  H     -3.002391    1.842073   -0.507181
  H     -1.240827    1.965017   -0.832434
  H     -2.293340    0.973464   -1.906154
  H     -0.611669   -1.792707   -0.582644

 Total Charge           Charge          ....    0
 Multiplicity           Mult            ....    1
 Number of Electrons    NEL             ....   90
 Basis Dimension        Dim             .... 1206

ORBITAL ENERGIES
----------------

  NO   OCC          E(Eh)            E(eV)
   0   2.0000     -92.206689     -2509.0716
   1   2.0000     -20.555822      -559.3523
   2   2.0000     -20.554306      -559.3111
   3   2.0000     -15.623869      -425.1471
   4   2.0000     -15.606225      -424.6670
   5   2.0000     -15.598765      -424.4640
   6   2.0000     -11.349804      -308.8439
   7   2.0000     -11.298658      -307.4521
   8   2.0000     -11.295864      -307.3761
   9   2.0000     -11.284180      -307.0582
  10   2.0000     -11.278165      -306.8945
  11   2.0000      -9.171953      -249.5815
  12   2.0000      -6.858091      -186.6181
  13   2.0000      -6.856714      -186.5807
  14   2.0000      -6.856351      -186.5708
  15   2.0000      -1.467352       -39.9287
  16   2.0000      -1.349072       -36.7101
  17   2.0000      -1.340058       -36.4648
  18   2.0000      -1.265669       -34.4406
  19   2.0000      -1.220663       -33.2159
  20   2.0000      -1.064677       -28.9713
  21   2.0000      -1.039727       -28.2924
  22   2.0000      -0.927256       -25.2319
  23   2.0000      -0.910699       -24.7814
  24   2.0000      -0.838388       -22.8137
  25   2.0000      -0.768704       -20.9175
  26   2.0000      -0.739402       -20.1202
  27   2.0000      -0.717201       -19.5160
  28   2.0000      -0.696246       -18.9458
  29   2.0000      -0.680263       -18.5109
  30   2.0000      -0.659817       -17.9545
  31   2.0000      -0.640215       -17.4211
  32   2.0000      -0.622050       -16.9268
  33   2.0000      -0.607198       -16.5227
  34   2.0000      -0.599175       -16.3044
  35   2.0000      -0.582070       -15.8389
  36   2.0000      -0.538422       -14.6512
  37   2.0000      -0.515274       -14.0213
  38   2.0000      -0.512909       -13.9570
  39   2.0000      -0.498960       -13.5774
  40   2.0000      -0.478304       -13.0153
  41   2.0000      -0.476391       -12.9632
  42   2.0000      -0.446109       -12.1392
  43   2.0000      -0.427418       -11.6306
  44   2.0000      -0.347873        -9.4661
  45   0.0000       0.020531         0.5587
  46   0.0000       0.026079         0.7096
  47   0.0000       0.027838         0.7575
  48   0.0000       0.038361         1.0439
  49   0.0000       0.041405         1.1267

MULLIKEN ATOMIC CHARGES
-----------------------
   0 C :   -0.013504
   1 C :   -0.552402
   2 C :    0.130638
   3 C :    0.661769
   4 C :   -1.079229
   5 N :   -0.831995
   6 N :   -0.579319
   7 N :   -0.709401
   8 O :   -1.356348
   9 O :   -1.263949
  10 S :    2.725684
  11 H :    0.536670
  12 H :    0.426319
  13 H :    0.543413
  14 H :    0.422156
  15 H :    0.379981
  16 H :    0.325879
  17 H :    0.233639
Sum of atomic charges:    0.0000000

LOEWDIN ATOMIC CHARGES
----------------------
   0 C :    0.082169
   1 C :    0.088931
   2 C :    0.084496
   3 C :   -0.576409
   4 C :    0.834377
   5 N :    0.595772
   6 N :    0.577915
   7 N :    0.681349
   8 O :    0.314262
   9 O :    0.314646
  10 S :   -0.327022
  11 H :   -0.356735
  12 H :   -0.344300
  13 H :   -0.345451
  14 H :   -0.328602
  15 H :   -0.362118
  16 H :   -0.324320
  17 H :   -0.608960

  Mayer bond orders larger than 0.100000
B(  0-C ,  1-C ) :   1.2707 B(  0-C ,  5-N ) :   1.1350 B(  0-C , 11-H ) :   0.7894
B(  1-C ,  5-N ) :   0.2377 B(  1-C ,  6-N ) :   1.2915 B(  1-C , 11-H ) :  -0.1129
B(  1-C , 12-H ) :   0.9290 B(  2-C ,  3-C ) :   1.1949 B(  2-C ,  5-N ) :   0.9973
B(  2-C , 13-H ) :   0.7333 B(  3-C ,  5-N ) :   0.1106 B(  3-C ,  6-N ) :   1.0611
B(  3-C ,  7-N ) :   1.1113 B(  4-C , 10-S ) :   0.9659 B(  4-C , 14-H ) :   0.8411
B(  4-C , 15-H ) :   0.8458 B(  4-C , 16-H ) :   0.8861 B(  5-N , 11-H ) :  -0.1297
B(  5-N , 13-H ) :  -0.1399 B(  7-N , 10-S ) :   0.7080 B(  7-N , 17-H ) :   1.0543
B(  8-O , 10-S ) :   0.8845 B(  9-O , 10-S ) :   0.9161

MP2 TOTAL ENERGY:     -906.437026288 Eh
FINAL SINGLE POINT ENERGY      -906.437026288207

DIPOLE MOMENT
-------------
                                X             Y             Z
Electronic contribution:     -0.60735      -2.89554       2.26362
Nuclear contribution   :      1.41959       3.61592      -3.48084
                        -----------------------------------------
Total Dipole Moment    :      0.81224       0.72037      -1.21723
                        -----------------------------------------
Magnitude (a.u.)       :      1.63105
Magnitude (Debye)      :      4.14579

Rotational constants in cm-1:     0.084179     0.019839     0.018013
Rotational constants in MHz :  2523.609215   594.762952   540.008661

                             ****ORCA TERMINATED NORMALLY****
TOTAL RUN TIME: 0 days 1 hours 5 minutes 47 seconds 290 msec
