                         Program Version 5.0.4 -  RELEASE  -
|  1> !ri-mp2 aug-cc-pvqz aug-cc-pvqz/c tightscf
|  2> %pal nprocs 16 end
|  3> %maxcore 3800
|  4>
|  5> * xyz 0 1
|  6> C      2.998166   -0.117026    0.186742
|  7> C      2.250260   -1.206555   -0.245165
|  8> C      2.377431    1.120060    0.328290
|  9> C      0.896545   -1.067455   -0.525584
| 10> C      1.027004    1.269555    0.042344
| 11> C      0.267676    0.172124   -0.374549
| 12> C     -2.052493    0.014676    0.007335
| 13> C     -3.450793    0.232807   -0.503277
| 14> C     -1.944865   -0.582860    1.389174
| 15> N     -1.078820    0.350050   -0.736188
| 16> H      4.051545   -0.228318    0.403476
| 17> H      2.721570   -2.173091   -0.366506
| 18> H      2.949124    1.977574    0.658099
| 19> H      0.319634   -1.913528   -0.874264
| 20> H      0.548756    2.235247    0.134308
| 21> H     -4.006387    0.889434    0.170715
| 22> H     -3.995891   -0.713622   -0.539447
| 23> H     -3.427654    0.672409   -1.496672
| 24> H     -2.429938   -1.561221    1.412890
| 25> H     -2.478210    0.046473    2.105055
| 26> H     -0.914394   -0.693657    1.713800
| 27> *
| 28>
| 29>                          ****END OF INPUT****

CARTESIAN COORDINATES (ANGSTROEM)
---------------------------------
  C      2.998166   -0.117026    0.186742
  C      2.250260   -1.206555   -0.245165
  C      2.377431    1.120060    0.328290
  C      0.896545   -1.067455   -0.525584
  C      1.027004    1.269555    0.042344
  C      0.267676    0.172124   -0.374549
  C     -2.052493    0.014676    0.007335
  C     -3.450793    0.232807   -0.503277
  C     -1.944865   -0.582860    1.389174
  N     -1.078820    0.350050   -0.736188
  H      4.051545   -0.228318    0.403476
  H      2.721570   -2.173091   -0.366506
  H      2.949124    1.977574    0.658099
  H      0.319634   -1.913528   -0.874264
  H      0.548756    2.235247    0.134308
  H     -4.006387    0.889434    0.170715
  H     -3.995891   -0.713622   -0.539447
  H     -3.427654    0.672409   -1.496672
  H     -2.429938   -1.561221    1.412890
  H     -2.478210    0.046473    2.105055
  H     -0.914394   -0.693657    1.713800

 Total Charge           Charge          ....    0
 Multiplicity           Mult            ....    1
 Number of Electrons    NEL             ....   72
 Basis Dimension        Dim             .... 1306

ORBITAL ENERGIES
----------------

  NO   OCC          E(Eh)            E(eV)
   0   2.0000     -15.550240      -423.1435
   1   2.0000     -11.294268      -307.3327
   2   2.0000     -11.264823      -306.5314
   3   2.0000     -11.231082      -305.6133
   4   2.0000     -11.230825      -305.6063
   5   2.0000     -11.230460      -305.5964
   6   2.0000     -11.225651      -305.4655
   7   2.0000     -11.222659      -305.3841
   8   2.0000     -11.221690      -305.3577
   9   2.0000     -11.221114      -305.3420
  10   2.0000      -1.249399       -33.9979
  11   2.0000      -1.140174       -31.0257
  12   2.0000      -1.045447       -28.4481
  13   2.0000      -1.010737       -27.5036
  14   2.0000      -0.981291       -26.7023
  15   2.0000      -0.956786       -26.0355
  16   2.0000      -0.832659       -22.6578
  17   2.0000      -0.824243       -22.4288
  18   2.0000      -0.742312       -20.1993
  19   2.0000      -0.682661       -18.5761
  20   2.0000      -0.654877       -17.8201
  21   2.0000      -0.633825       -17.2473
  22   2.0000      -0.621431       -16.9100
  23   2.0000      -0.606764       -16.5109
  24   2.0000      -0.603685       -16.4271
  25   2.0000      -0.581447       -15.8220
  26   2.0000      -0.555045       -15.1036
  27   2.0000      -0.551428       -15.0051
  28   2.0000      -0.525422       -14.2975
  29   2.0000      -0.514334       -13.9957
  30   2.0000      -0.498175       -13.5560
  31   2.0000      -0.494092       -13.4449
  32   2.0000      -0.422867       -11.5068
  33   2.0000      -0.411596       -11.2001
  34   2.0000      -0.334769        -9.1095
  35   2.0000      -0.305739        -8.3196
  36   0.0000       0.022940         0.6242
  37   0.0000       0.028124         0.7653
  38   0.0000       0.029585         0.8051
  39   0.0000       0.033424         0.9095
  40   0.0000       0.039484         1.0744

MULLIKEN ATOMIC CHARGES
-----------------------
   0 C :   -0.321772
   1 C :   -0.356667
   2 C :   -0.360508
   3 C :   -0.382951
   4 C :   -0.588828
   5 C :    1.127474
   6 C :    0.488299
   7 C :   -0.792417
   8 C :   -0.928819
   9 N :   -0.976141
  10 H :    0.344699
  11 H :    0.226679
  12 H :    0.238341
  13 H :    0.286253
  14 H :    0.294123
  15 H :    0.245612
  16 H :    0.237939
  17 H :    0.290963
  18 H :    0.319624
  19 H :    0.302278
  20 H :    0.305819
Sum of atomic charges:    0.0000000

LOEWDIN ATOMIC CHARGES
----------------------
   0 C :    0.330475
   1 C :    0.332201
   2 C :    0.330705
   3 C :    0.316183
   4 C :    0.322288
   5 C :   -0.388025
   6 C :   -0.285482
   7 C :    0.893355
   8 C :    0.924269
   9 N :    0.607540
  10 H :   -0.330916
  11 H :   -0.323483
  12 H :   -0.323968
  13 H :   -0.319217
  14 H :   -0.322335
  15 H :   -0.288228
  16 H :   -0.287319
  17 H :   -0.315604
  18 H :   -0.276849
  19 H :   -0.278785
  20 H :   -0.316803

  Mayer bond orders larger than 0.100000
B(  0-C ,  1-C ) :   1.1846 B(  0-C ,  2-C ) :   1.1477 B(  0-C , 10-H ) :   0.9750
B(  0-C , 12-H ) :  -0.1003 B(  1-C ,  3-C ) :   1.3272 B(  1-C ,  4-C ) :   0.1610
B(  1-C ,  5-C ) :  -0.3235 B(  1-C , 11-H ) :   1.1564 B(  2-C ,  3-C ) :   0.1456
B(  2-C ,  4-C ) :   1.4089 B(  2-C ,  5-C ) :  -0.2984 B(  2-C , 12-H ) :   1.1418
B(  3-C ,  5-C ) :   1.0011 B(  3-C , 11-H ) :  -0.1356 B(  3-C , 13-H ) :   0.9547
B(  4-C ,  5-C ) :   1.0313 B(  4-C , 12-H ) :  -0.1288 B(  4-C , 14-H ) :   0.9384
B(  5-C ,  9-N ) :   0.3666 B(  6-C ,  7-C ) :   0.6105 B(  6-C ,  8-C ) :   0.7663
B(  6-C ,  9-N ) :   1.6055 B(  7-C , 15-H ) :   0.9986 B(  7-C , 16-H ) :   0.9942
B(  7-C , 17-H ) :   0.9902 B(  8-C , 18-H ) :   0.9086 B(  8-C , 19-H ) :   0.9332
B(  8-C , 20-H ) :   0.9510

MP2 TOTAL ENERGY:     -403.589505142 Eh
FINAL SINGLE POINT ENERGY      -403.589505142425

DIPOLE MOMENT
-------------
                                X             Y             Z
Electronic contribution:      6.18196       1.17134      -2.66045
Nuclear contribution   :     -6.76967      -1.48247       3.36762
                        -----------------------------------------
Total Dipole Moment    :     -0.58771      -0.31113       0.70717
                        -----------------------------------------
Magnitude (a.u.)       :      0.97072
Magnitude (Debye)      :      2.46738

Rotational constants in cm-1:     0.112778     0.025545     0.024085
Rotational constants in MHz :  3380.990729   765.826538   722.046256

                             ****ORCA TERMINATED NORMALLY****
TOTAL RUN TIME: 0 days 1 hours 28 minutes 54 seconds 612 msec
