                         Program Version 5.0.4 -  RELEASE  -
|  1> !ri-mp2 aug-cc-pvqz aug-cc-pvqz/c tightscf
|  2> %pal nprocs 16 end
|  3> %maxcore 3800
|  4>
|  5> * xyz 0 1
|  6> C      2.934750    0.367685    0.004894
|  7> C      2.687481   -1.021705    0.002229
|  8> C      1.883651    1.248979    0.004210
|  9> C      1.403115   -1.502176   -0.001292
| 10> C     -0.563413    1.664514   -0.000104
| 11> C     -1.844909    1.189940   -0.005795
| 12> C     -1.040095   -1.082969   -0.003076
| 13> C      0.547644    0.786363    0.000560
| 14> C      0.294326   -0.618925   -0.002537
| 15> C     -2.104204   -0.206518   -0.005473
| 16> N     -3.423722   -0.650874   -0.067870
| 17> H      3.952870    0.732442    0.007200
| 18> H      3.520954   -1.711733    0.002509
| 19> H      2.064878    2.316734    0.006029
| 20> H      1.220915   -2.569562   -0.003920
| 21> H     -0.385911    2.732646    0.001922
| 22> H     -2.680007    1.879584   -0.016198
| 23> H     -1.221281   -2.151525   -0.006138
| 24> H     -4.116285   -0.020662    0.301917
| 25> H     -3.580151   -1.602931    0.220075
| 26> *
| 27>
| 28>                          ****END OF INPUT****

CARTESIAN COORDINATES (ANGSTROEM)
---------------------------------
  C      2.934750    0.367685    0.004894
  C      2.687481   -1.021705    0.002229
  C      1.883651    1.248979    0.004210
  C      1.403115   -1.502176   -0.001292
  C     -0.563413    1.664514   -0.000104
  C     -1.844909    1.189940   -0.005795
  C     -1.040095   -1.082969   -0.003076
  C      0.547644    0.786363    0.000560
  C      0.294326   -0.618925   -0.002537
  C     -2.104204   -0.206518   -0.005473
  N     -3.423722   -0.650874   -0.067870
  H      3.952870    0.732442    0.007200
  H      3.520954   -1.711733    0.002509
  H      2.064878    2.316734    0.006029
  H      1.220915   -2.569562   -0.003920
  H     -0.385911    2.732646    0.001922
  H     -2.680007    1.879584   -0.016198
  H     -1.221281   -2.151525   -0.006138
  H     -4.116285   -0.020662    0.301917
  H     -3.580151   -1.602931    0.220075

 Total Charge           Charge          ....    0
 Multiplicity           Mult            ....    1
 Number of Electrons    NEL             ....   76
 Basis Dimension        Dim             .... 1294

ORBITAL ENERGIES
----------------

  NO   OCC          E(Eh)            E(eV)
   0   2.0000     -15.565874      -423.5690
   1   2.0000     -11.279892      -306.9415
   2   2.0000     -11.241060      -305.8848
   3   2.0000     -11.239175      -305.8335
   4   2.0000     -11.232053      -305.6397
   5   2.0000     -11.230681      -305.6024
   6   2.0000     -11.230600      -305.6002
   7   2.0000     -11.230022      -305.5844
   8   2.0000     -11.225686      -305.4664
   9   2.0000     -11.223732      -305.4133
  10   2.0000     -11.217352      -305.2397
  11   2.0000      -1.228055       -33.4171
  12   2.0000      -1.163958       -31.6729
  13   2.0000      -1.093120       -29.7453
  14   2.0000      -1.044144       -28.4126
  15   2.0000      -0.996450       -27.1148
  16   2.0000      -0.970757       -26.4156
  17   2.0000      -0.854386       -23.2490
  18   2.0000      -0.829310       -22.5667
  19   2.0000      -0.810899       -22.0657
  20   2.0000      -0.715905       -19.4808
  21   2.0000      -0.706855       -19.2345
  22   2.0000      -0.692718       -18.8498
  23   2.0000      -0.654243       -17.8028
  24   2.0000      -0.623550       -16.9677
  25   2.0000      -0.608780       -16.5658
  26   2.0000      -0.585917       -15.9436
  27   2.0000      -0.575834       -15.6692
  28   2.0000      -0.572715       -15.5844
  29   2.0000      -0.545801       -14.8520
  30   2.0000      -0.525001       -14.2860
  31   2.0000      -0.498166       -13.5558
  32   2.0000      -0.490505       -13.3473
  33   2.0000      -0.472961       -12.8699
  34   2.0000      -0.416516       -11.3340
  35   2.0000      -0.377638       -10.2761
  36   2.0000      -0.305181        -8.3044
  37   2.0000      -0.272547        -7.4164
  38   0.0000       0.021945         0.5972
  39   0.0000       0.026777         0.7286
  40   0.0000       0.028112         0.7650
  41   0.0000       0.037484         1.0200
  42   0.0000       0.038386         1.0445

MULLIKEN ATOMIC CHARGES
-----------------------
   0 C :   -0.444187
   1 C :   -0.352947
   2 C :   -0.480130
   3 C :   -0.626611
   4 C :   -0.553475
   5 C :   -0.395338
   6 C :   -0.453075
   7 C :    0.732410
   8 C :    0.902884
   9 C :    0.520872
  10 N :   -0.864345
  11 H :    0.260903
  12 H :    0.264856
  13 H :    0.191190
  14 H :    0.183062
  15 H :    0.147153
  16 H :    0.235679
  17 H :    0.192724
  18 H :    0.267533
  19 H :    0.270842
Sum of atomic charges:   -0.0000000

LOEWDIN ATOMIC CHARGES
----------------------
   0 C :    0.346612
   1 C :    0.345304
   2 C :    0.347350
   3 C :    0.353789
   4 C :    0.360392
   5 C :    0.359290
   6 C :    0.353368
   7 C :   -0.112650
   8 C :   -0.115374
   9 C :   -0.227244
  10 N :    1.271667
  11 H :   -0.329724
  12 H :   -0.324934
  13 H :   -0.321482
  14 H :   -0.324617
  15 H :   -0.317515
  16 H :   -0.323340
  17 H :   -0.325452
  18 H :   -0.509110
  19 H :   -0.506329

  Mayer bond orders larger than 0.100000
B(  0-C ,  1-C ) :   1.1279 B(  0-C ,  2-C ) :   1.3645 B(  0-C ,  7-C ) :  -0.3016
B(  0-C , 11-H ) :   1.1274 B(  1-C ,  3-C ) :   1.3524 B(  1-C ,  8-C ) :  -0.3731
B(  1-C , 12-H ) :   1.1309 B(  2-C ,  3-C ) :   0.1600 B(  2-C ,  4-C ) :  -0.1301
B(  2-C ,  7-C ) :   0.5872 B(  2-C ,  8-C ) :  -0.3045 B(  2-C , 11-H ) :  -0.1730
B(  2-C , 13-H ) :   1.1191 B(  3-C ,  6-C ) :  -0.3054 B(  3-C ,  7-C ) :  -0.2185
B(  3-C ,  8-C ) :   0.6654 B(  3-C , 12-H ) :  -0.1748 B(  3-C , 14-H ) :   1.1345
B(  4-C ,  5-C ) :   1.3304 B(  4-C ,  6-C ) :   0.1802 B(  4-C ,  7-C ) :   0.7955
B(  4-C ,  8-C ) :  -0.2733 B(  4-C ,  9-C ) :  -0.1412 B(  4-C , 15-H ) :   1.1810
B(  4-C , 16-H ) :  -0.1564 B(  5-C ,  6-C ) :   0.1101 B(  5-C ,  7-C ) :  -0.2868
B(  5-C ,  9-C ) :   1.1394 B(  5-C , 15-H ) :  -0.2001 B(  5-C , 16-H ) :   1.0217
B(  6-C ,  7-C ) :  -0.2301 B(  6-C ,  8-C ) :   0.5771 B(  6-C ,  9-C ) :   1.4910
B(  6-C , 17-H ) :   1.0305 B(  7-C ,  8-C ) :   1.1227 B(  7-C ,  9-C ) :   0.1097
B(  7-C , 13-H ) :  -0.1734 B(  7-C , 15-H ) :  -0.1472 B(  8-C ,  9-C ) :  -0.4273
B(  8-C , 14-H ) :  -0.1705 B(  8-C , 17-H ) :  -0.2385 B(  9-C , 10-N ) :   0.7163
B(  9-C , 16-H ) :  -0.1113 B( 10-N , 18-H ) :   0.9551 B( 10-N , 19-H ) :   0.9414

MP2 TOTAL ENERGY:     -440.463582561 Eh
FINAL SINGLE POINT ENERGY      -440.463582561083

DIPOLE MOMENT
-------------
                                X             Y             Z
Electronic contribution:      0.69769       0.37775      -0.14415
Nuclear contribution   :     -1.24016      -0.39756       0.51137
                        -----------------------------------------
Total Dipole Moment    :     -0.54247      -0.01981       0.36722
                        -----------------------------------------
Magnitude (a.u.)       :      0.65538
Magnitude (Debye)      :      1.66583

Rotational constants in cm-1:     0.095269     0.027667     0.021452
Rotational constants in MHz :  2856.082446   829.447786   643.101097

                             ****ORCA TERMINATED NORMALLY****
TOTAL RUN TIME: 0 days 1 hours 18 minutes 29 seconds 385 msec
