                         Program Version 5.0.4 -  RELEASE  -
|  1> !ri-mp2 aug-cc-pvqz aug-cc-pvqz/c tightscf
|  2> %pal nprocs 16 end
|  3>
|  4> * xyz 0 1
|  5> S     0.865517   -1.220324    0.000033
|  6> N    -0.472803   -0.109850    0.001005
|  7> N    -1.693397   -0.595410   -0.000089
|  8> N    -2.596092    0.285481   -0.000471
|  9> C    -0.129116    1.320148    0.000374
| 10> C     1.958652    0.149745   -0.000464
| 11> C     1.366917    1.340992   -0.000208
| 12> H    -3.475838   -0.230299   -0.001183
| 13> H    -0.574130    1.802666   -0.877164
| 14> H    -0.573436    1.803341    0.877870
| 15> H     3.018570   -0.049442   -0.000901
| 16> H     1.913895    2.272063   -0.000472
| 17> *
| 18>
| 19>                          ****END OF INPUT****

CARTESIAN COORDINATES (ANGSTROEM)
---------------------------------
  S      0.865517   -1.220324    0.000033
  N     -0.472803   -0.109850    0.001005
  N     -1.693397   -0.595410   -0.000089
  N     -2.596092    0.285481   -0.000471
  C     -0.129116    1.320148    0.000374
  C      1.958652    0.149745   -0.000464
  C      1.366917    1.340992   -0.000208
  H     -3.475838   -0.230299   -0.001183
  H     -0.574130    1.802666   -0.877164
  H     -0.573436    1.803341    0.877870
  H      3.018570   -0.049442   -0.000901
  H      1.913895    2.272063   -0.000472

 Total Charge           Charge          ....    0
 Multiplicity           Mult            ....    1
 Number of Electrons    NEL             ....   60
 Basis Dimension        Dim             ....  794

ORBITAL ENERGIES
----------------

  NO   OCC          E(Eh)            E(eV)
   0   2.0000     -92.005147     -2503.5873
   1   2.0000     -15.676146      -426.5696
   2   2.0000     -15.630350      -425.3234
   3   2.0000     -15.582004      -424.0079
   4   2.0000     -11.284958      -307.0793
   5   2.0000     -11.280424      -306.9559
   6   2.0000     -11.254615      -306.2537
   7   2.0000      -9.003323      -244.9929
   8   2.0000      -6.684773      -181.9019
   9   2.0000      -6.683782      -181.8750
  10   2.0000      -6.682333      -181.8355
  11   2.0000      -1.415653       -38.5219
  12   2.0000      -1.231875       -33.5210
  13   2.0000      -1.101782       -29.9810
  14   2.0000      -1.019002       -27.7285
  15   2.0000      -0.941619       -25.6228
  16   2.0000      -0.792687       -21.5701
  17   2.0000      -0.782401       -21.2902
  18   2.0000      -0.710465       -19.3327
  19   2.0000      -0.666329       -18.1317
  20   2.0000      -0.663517       -18.0552
  21   2.0000      -0.624808       -17.0019
  22   2.0000      -0.574071       -15.6213
  23   2.0000      -0.554832       -15.0977
  24   2.0000      -0.537527       -14.6268
  25   2.0000      -0.496951       -13.5227
  26   2.0000      -0.476941       -12.9782
  27   2.0000      -0.411934       -11.2093
  28   2.0000      -0.391190       -10.6448
  29   2.0000      -0.300827        -8.1859
  30   0.0000       0.022679         0.6171
  31   0.0000       0.030387         0.8269
  32   0.0000       0.034325         0.9340
  33   0.0000       0.041955         1.1416
  34   0.0000       0.048875         1.3300

MULLIKEN ATOMIC CHARGES
-----------------------
   0 S :    0.176549
   1 N :    0.095116
   2 N :   -0.241048
   3 N :   -0.547093
   4 C :   -0.277151
   5 C :   -0.635507
   6 C :   -0.341877
   7 H :    0.305464
   8 H :    0.286601
   9 H :    0.286746
  10 H :    0.465184
  11 H :    0.427014
Sum of atomic charges:   -0.0000000

LOEWDIN ATOMIC CHARGES
----------------------
   0 S :    1.173816
   1 N :   -0.290102
   2 N :    0.092871
   3 N :    0.707375
   4 C :    0.194420
   5 C :   -0.072853
   6 C :    0.255577
   7 H :   -0.732025
   8 H :   -0.299650
   9 H :   -0.299528
  10 H :   -0.409512
  11 H :   -0.320388

  Mayer bond orders larger than 0.100000
B(  0-S ,  1-N ) :   0.7418 B(  0-S ,  5-C ) :   1.0423 B(  1-N ,  2-N ) :   0.7775
B(  1-N ,  3-N ) :  -0.1255 B(  1-N ,  4-C ) :   0.7598 B(  1-N ,  5-C ) :  -0.1436
B(  2-N ,  3-N ) :   1.7501 B(  3-N ,  7-H ) :   0.8662 B(  4-C ,  5-C ) :  -0.1238
B(  4-C ,  6-C ) :   0.9020 B(  4-C ,  8-H ) :   0.9132 B(  4-C ,  9-H ) :   0.9131
B(  5-C ,  6-C ) :   1.7600 B(  5-C , 10-H ) :   0.7688 B(  6-C , 11-H ) :   0.8215

MP2 TOTAL ENERGY:     -678.766583874 Eh
FINAL SINGLE POINT ENERGY      -678.766583874151

DIPOLE MOMENT
-------------
                                X             Y             Z
Electronic contribution:      0.50764      -5.02638       0.00128
Nuclear contribution   :      0.24894       5.51270      -0.00181
                        -----------------------------------------
Total Dipole Moment    :      0.75658       0.48632      -0.00053
                        -----------------------------------------
Magnitude (a.u.)       :      0.89941
Magnitude (Debye)      :      2.28611

Rotational constants in cm-1:     0.153454     0.065399     0.046246
Rotational constants in MHz :  4600.434907  1960.602614  1386.434811

                             ****ORCA TERMINATED NORMALLY****
TOTAL RUN TIME: 0 days 0 hours 20 minutes 23 seconds 429 msec
