                         Program Version 5.0.4 -  RELEASE  -
|  1> !ri-mp2 aug-cc-pvqz aug-cc-pvqz/c tightscf
|  2> %pal nprocs 16 end
|  3>
|  4> * xyz 0 1
|  5> F      2.662788   -0.389952   -0.184145
|  6> F      1.350478    1.307291    0.242723
|  7> N      1.365233    0.093381   -0.468109
|  8> C      0.486442   -0.814523    0.318269
|  9> C     -0.906899   -0.447656    0.149345
| 10> C     -3.460800    0.209456   -0.144708
| 11> C     -2.062686   -0.155069    0.017364
| 12> H      0.689215   -1.805176   -0.090461
| 13> H      0.800414   -0.789621    1.363966
| 14> H     -3.548554    1.185872   -0.623577
| 15> H     -3.988577   -0.517719   -0.763260
| 16> H     -3.964868    0.263674    0.821272
| 17> *
| 18>
| 19>                          ****END OF INPUT****

CARTESIAN COORDINATES (ANGSTROEM)
---------------------------------
  F      2.662788   -0.389952   -0.184145
  F      1.350478    1.307291    0.242723
  N      1.365233    0.093381   -0.468109
  C      0.486442   -0.814523    0.318269
  C     -0.906899   -0.447656    0.149345
  C     -3.460800    0.209456   -0.144708
  C     -2.062686   -0.155069    0.017364
  H      0.689215   -1.805176   -0.090461
  H      0.800414   -0.789621    1.363966
  H     -3.548554    1.185872   -0.623577
  H     -3.988577   -0.517719   -0.763260
  H     -3.964868    0.263674    0.821272

 Total Charge           Charge          ....    0
 Multiplicity           Mult            ....    1
 Number of Electrons    NEL             ....   54
 Basis Dimension        Dim             ....  790

ORBITAL ENERGIES
----------------

  NO   OCC          E(Eh)            E(eV)
   0   2.0000     -26.331637      -716.5203
   1   2.0000     -26.330709      -716.4950
   2   2.0000     -15.774011      -429.2327
   3   2.0000     -11.316086      -307.9264
   4   2.0000     -11.258155      -306.3500
   5   2.0000     -11.248838      -306.0964
   6   2.0000     -11.236927      -305.7723
   7   2.0000      -1.676687       -45.6250
   8   2.0000      -1.592613       -43.3372
   9   2.0000      -1.180401       -32.1204
  10   2.0000      -1.074291       -29.2330
  11   2.0000      -0.996078       -27.1047
  12   2.0000      -0.928167       -25.2567
  13   2.0000      -0.769385       -20.9360
  14   2.0000      -0.762968       -20.7614
  15   2.0000      -0.755582       -20.5604
  16   2.0000      -0.685530       -18.6542
  17   2.0000      -0.665215       -18.1014
  18   2.0000      -0.649860       -17.6836
  19   2.0000      -0.632353       -17.2072
  20   2.0000      -0.622595       -16.9417
  21   2.0000      -0.606786       -16.5115
  22   2.0000      -0.601117       -16.3572
  23   2.0000      -0.594405       -16.1746
  24   2.0000      -0.488542       -13.2939
  25   2.0000      -0.398691       -10.8489
  26   2.0000      -0.391711       -10.6590
  27   0.0000       0.021507         0.5852
  28   0.0000       0.029708         0.8084
  29   0.0000       0.035607         0.9689
  30   0.0000       0.042884         1.1669
  31   0.0000       0.049179         1.3382

MULLIKEN ATOMIC CHARGES
-----------------------
   0 F :   -0.448440
   1 F :   -0.415790
   2 N :    0.440833
   3 C :   -0.076541
   4 C :   -0.137701
   5 C :   -0.578841
   6 C :   -0.041826
   7 H :    0.328202
   8 H :    0.285948
   9 H :    0.218604
  10 H :    0.210302
  11 H :    0.215250
Sum of atomic charges:   -0.0000000

LOEWDIN ATOMIC CHARGES
----------------------
   0 F :    0.473974
   1 F :    0.479887
   2 N :   -0.532740
   3 C :    0.108622
   4 C :    0.118934
   5 C :    0.844109
   6 C :    0.163087
   7 H :   -0.358546
   8 H :   -0.349287
   9 H :   -0.315510
  10 H :   -0.316273
  11 H :   -0.316258

  Mayer bond orders larger than 0.100000
B(  0-F ,  2-N ) :   0.7134 B(  1-F ,  2-N ) :   0.7189 B(  2-N ,  3-C ) :   0.9701
B(  3-C ,  4-C ) :   0.7236 B(  3-C ,  7-H ) :   0.8931 B(  3-C ,  8-H ) :   0.9127
B(  4-C ,  6-C ) :   2.9500 B(  5-C ,  6-C ) :   0.6761 B(  5-C ,  9-H ) :   1.0110
B(  5-C , 10-H ) :   1.0259 B(  5-C , 11-H ) :   1.0210 B(  6-C , 10-H ) :  -0.1057
B(  6-C , 11-H ) :  -0.1004

MP2 TOTAL ENERGY:     -409.142649009 Eh
FINAL SINGLE POINT ENERGY      -409.142649008850

DIPOLE MOMENT
-------------
                                X             Y             Z
Electronic contribution:     12.29755       1.89335      -0.39147
Nuclear contribution   :    -13.47987      -2.47865       0.62473
                        -----------------------------------------
Total Dipole Moment    :     -1.18232      -0.58530       0.23325
                        -----------------------------------------
Magnitude (a.u.)       :      1.33972
Magnitude (Debye)      :      3.40531

Rotational constants in cm-1:     0.270611     0.036876     0.033759
Rotational constants in MHz :  8112.714727  1105.524213  1012.056936

                             ****ORCA TERMINATED NORMALLY****
TOTAL RUN TIME: 0 days 0 hours 13 minutes 52 seconds 168 msec
