                         Program Version 5.0.4 -  RELEASE  -
|  1> !ri-mp2 aug-cc-pvqz aug-cc-pvqz/c tightscf
|  2> %pal nprocs 16 end
|  3>
|  4> * xyz 0 1
|  5> C     -1.936874   -0.817158    0.000000
|  6> C     -0.619074   -0.628886    0.000000
|  7> C      1.363850    0.795633    0.000000
|  8> C     -2.590379   -2.163352    0.000000
|  9> C      1.836552    2.234079    0.000000
| 10> N      0.000000    0.623665    0.000000
| 11> O      2.140869   -0.141131    0.000000
| 12> H     -2.595791    0.047327    0.000000
| 13> H      0.088707   -1.445676    0.000000
| 14> H     -3.229378   -2.296210    0.877032
| 15> H     -3.229378   -2.296210   -0.877032
| 16> H     -1.850635   -2.963831    0.000000
| 17> H      2.460883    2.395108   -0.878171
| 18> H      2.460883    2.395108    0.878171
| 19> H      1.027080    2.963093    0.000000
| 20> H     -0.583780    1.442786    0.000000
| 21> *
| 22>
| 23>                          ****END OF INPUT****

CARTESIAN COORDINATES (ANGSTROEM)
---------------------------------
  C     -1.936874   -0.817158    0.000000
  C     -0.619074   -0.628886    0.000000
  C      1.363850    0.795633    0.000000
  C     -2.590379   -2.163352    0.000000
  C      1.836552    2.234079    0.000000
  N      0.000000    0.623665    0.000000
  O      2.140869   -0.141131    0.000000
  H     -2.595791    0.047327    0.000000
  H      0.088707   -1.445676    0.000000
  H     -3.229378   -2.296210    0.877032
  H     -3.229378   -2.296210   -0.877032
  H     -1.850635   -2.963831    0.000000
  H      2.460883    2.395108   -0.878171
  H      2.460883    2.395108    0.878171
  H      1.027080    2.963093    0.000000
  H     -0.583780    1.442786    0.000000

 Total Charge           Charge          ....    0
 Multiplicity           Mult            ....    1
 Number of Electrons    NEL             ....   54
 Basis Dimension        Dim             ....  974

ORBITAL ENERGIES
----------------

  NO   OCC          E(Eh)            E(eV)
   0   2.0000     -20.519473      -558.3632
   1   2.0000     -15.599321      -424.4791
   2   2.0000     -11.357257      -309.0467
   3   2.0000     -11.267796      -306.6123
   4   2.0000     -11.241704      -305.9023
   5   2.0000     -11.226108      -305.4779
   6   2.0000     -11.221904      -305.3635
   7   2.0000      -1.387079       -37.7443
   8   2.0000      -1.249759       -34.0077
   9   2.0000      -1.068139       -29.0655
  10   2.0000      -1.011001       -27.5107
  11   2.0000      -0.929880       -25.3033
  12   2.0000      -0.803357       -21.8605
  13   2.0000      -0.796046       -21.6615
  14   2.0000      -0.687683       -18.7128
  15   2.0000      -0.677105       -18.4250
  16   2.0000      -0.624802       -17.0017
  17   2.0000      -0.600074       -16.3288
  18   2.0000      -0.580252       -15.7895
  19   2.0000      -0.572107       -15.5678
  20   2.0000      -0.570574       -15.5261
  21   2.0000      -0.542243       -14.7552
  22   2.0000      -0.539193       -14.6722
  23   2.0000      -0.510508       -13.8916
  24   2.0000      -0.460854       -12.5405
  25   2.0000      -0.429515       -11.6877
  26   2.0000      -0.323247        -8.7960
  27   0.0000       0.018634         0.5071
  28   0.0000       0.027237         0.7412
  29   0.0000       0.033708         0.9172
  30   0.0000       0.039425         1.0728
  31   0.0000       0.046961         1.2779

MULLIKEN ATOMIC CHARGES
-----------------------
   0 C :   -0.471604
   1 C :   -0.183578
   2 C :    0.957392
   3 C :   -0.666842
   4 C :   -0.767900
   5 N :   -0.596733
   6 O :   -0.818361
   7 H :    0.361139
   8 H :    0.417057
   9 H :    0.236304
  10 H :    0.236304
  11 H :    0.230737
  12 H :    0.285111
  13 H :    0.285111
  14 H :    0.220089
  15 H :    0.275773
Sum of atomic charges:    0.0000000

LOEWDIN ATOMIC CHARGES
----------------------
   0 C :    0.376895
   1 C :    0.221964
   2 C :   -0.826806
   3 C :    0.875960
   4 C :    0.895411
   5 N :    0.800621
   6 O :    0.702080
   7 H :   -0.330159
   8 H :   -0.365943
   9 H :   -0.298292
  10 H :   -0.298292
  11 H :   -0.317195
  12 H :   -0.297142
  13 H :   -0.297142
  14 H :   -0.312216
  15 H :   -0.529744

  Mayer bond orders larger than 0.100000
B(  0-C ,  1-C ) :   1.5807 B(  0-C ,  3-C ) :   0.8838 B(  0-C ,  7-H ) :   0.8464
B(  1-C ,  3-C ) :  -0.1581 B(  1-C ,  5-N ) :   1.0398 B(  1-C ,  8-H ) :   0.7999
B(  2-C ,  4-C ) :   0.9035 B(  2-C ,  5-N ) :   1.0619 B(  2-C ,  6-O ) :   1.1597
B(  3-C ,  9-H ) :   0.9843 B(  3-C , 10-H ) :   0.9843 B(  3-C , 11-H ) :   0.9635
B(  4-C , 12-H ) :   0.9317 B(  4-C , 13-H ) :   0.9317 B(  4-C , 14-H ) :   1.0101
B(  5-N ,  6-O ) :   0.1824 B(  5-N , 15-H ) :   0.9313

MP2 TOTAL ENERGY:     -325.397186981 Eh
FINAL SINGLE POINT ENERGY      -325.397186980914

DIPOLE MOMENT
-------------
                                X             Y             Z
Electronic contribution:      4.50741       0.87865      -0.00000
Nuclear contribution   :     -5.54242       0.24853       0.00000
                        -----------------------------------------
Total Dipole Moment    :     -1.03501       1.12718      -0.00000
                        -----------------------------------------
Magnitude (a.u.)       :      1.53029
Magnitude (Debye)      :      3.88968

Rotational constants in cm-1:     0.287257     0.037885     0.033888
Rotational constants in MHz :  8611.751046  1135.754726  1015.947452

                             ****ORCA TERMINATED NORMALLY****
TOTAL RUN TIME: 0 days 0 hours 30 minutes 51 seconds 263 msec
