                         Program Version 5.0.4 -  RELEASE  -
|  1> !ri-mp2 aug-cc-pvqz aug-cc-pvqz/c tightscf
|  2> %pal nprocs 16 end
|  3>
|  4> * xyz 0 1
|  5> O     -0.689613    0.644791   -0.033712
|  6> N      0.397947   -0.341322   -0.020979
|  7> N      2.699526   -0.326539   -0.051220
|  8> C      1.495578    0.309910    0.018594
|  9> C     -1.853711    0.076390   -0.000732
| 10> C     -2.964471   -0.373779    0.028776
| 11> H      3.498737    0.148468    0.328845
| 12> H      2.698373   -1.329150    0.048330
| 13> H      1.518689    1.394723    0.066269
| 14> H     -3.945580   -0.772460    0.051811
| 15> *
| 16>
| 17>                          ****END OF INPUT****

CARTESIAN COORDINATES (ANGSTROEM)
---------------------------------
  O     -0.689613    0.644791   -0.033712
  N      0.397947   -0.341322   -0.020979
  N      2.699526   -0.326539   -0.051220
  C      1.495578    0.309910    0.018594
  C     -1.853711    0.076390   -0.000732
  C     -2.964471   -0.373779    0.028776
  H      3.498737    0.148468    0.328845
  H      2.698373   -1.329150    0.048330
  H      1.518689    1.394723    0.066269
  H     -3.945580   -0.772460    0.051811

 Total Charge           Charge          ....    0
 Multiplicity           Mult            ....    1
 Number of Electrons    NEL             ....   44
 Basis Dimension        Dim             ....  664

ORBITAL ENERGIES
----------------

  NO   OCC          E(Eh)            E(eV)
   0   2.0000     -20.633797      -561.4742
   1   2.0000     -15.622911      -425.1210
   2   2.0000     -15.605815      -424.6558
   3   2.0000     -11.341890      -308.6285
   4   2.0000     -11.277361      -306.8726
   5   2.0000     -11.203921      -304.8742
   6   2.0000      -1.458214       -39.6800
   7   2.0000      -1.283014       -34.9126
   8   2.0000      -1.155883       -31.4532
   9   2.0000      -0.997963       -27.1560
  10   2.0000      -0.853192       -23.2165
  11   2.0000      -0.789275       -21.4773
  12   2.0000      -0.722410       -19.6578
  13   2.0000      -0.694620       -18.9016
  14   2.0000      -0.675383       -18.3781
  15   2.0000      -0.646010       -17.5788
  16   2.0000      -0.637880       -17.3576
  17   2.0000      -0.549234       -14.9454
  18   2.0000      -0.481826       -13.1112
  19   2.0000      -0.408363       -11.1121
  20   2.0000      -0.375840       -10.2271
  21   2.0000      -0.344756        -9.3813
  22   0.0000       0.014848         0.4040
  23   0.0000       0.031249         0.8503
  24   0.0000       0.034746         0.9455
  25   0.0000       0.046417         1.2631
  26   0.0000       0.058506         1.5920

MULLIKEN ATOMIC CHARGES
-----------------------
   0 O :   -0.790992
   1 N :   -0.300229
   2 N :   -0.694803
   3 C :    0.092900
   4 C :    0.725881
   5 C :   -0.590792
   6 H :    0.261787
   7 H :    0.352758
   8 H :    0.594157
   9 H :    0.349333
Sum of atomic charges:    0.0000000

LOEWDIN ATOMIC CHARGES
----------------------
   0 O :    0.466853
   1 N :    0.290961
   2 N :    1.232460
   3 C :   -0.126314
   4 C :   -0.480472
   5 C :    0.471645
   6 H :   -0.499558
   7 H :   -0.506375
   8 H :   -0.343808
   9 H :   -0.505392

  Mayer bond orders larger than 0.100000
B(  0-O ,  1-N ) :   0.7743 B(  0-O ,  4-C ) :   0.8206 B(  1-N ,  3-C ) :   1.7541
B(  1-N ,  4-C ) :  -0.1687 B(  2-N ,  3-C ) :   1.1720 B(  2-N ,  6-H ) :   0.9541
B(  2-N ,  7-H ) :   0.8161 B(  3-C ,  8-H ) :   0.6325 B(  4-C ,  5-C ) :   2.4503
B(  4-C ,  9-H ) :  -0.1132 B(  5-C ,  9-H ) :   1.0377

MP2 TOTAL ENERGY:     -300.849736658 Eh
FINAL SINGLE POINT ENERGY      -300.849736657880

DIPOLE MOMENT
-------------
                                X             Y             Z
Electronic contribution:     -1.94011       0.73771      -0.13986
Nuclear contribution   :      3.71271      -0.54270       0.48582
                        -----------------------------------------
Total Dipole Moment    :      1.77259       0.19501       0.34596
                        -----------------------------------------
Magnitude (a.u.)       :      1.81653
Magnitude (Debye)      :      4.61726

Rotational constants in cm-1:     0.979345     0.052138     0.049557
Rotational constants in MHz : 29360.025071  1563.062803  1485.680774

                             ****ORCA TERMINATED NORMALLY****
TOTAL RUN TIME: 0 days 0 hours 8 minutes 10 seconds 87 msec
