                         Program Version 5.0.4 -  RELEASE  -
|  1> !ri-mp2 aug-cc-pvqz aug-cc-pvqz/c tightscf
|  2> %pal nprocs 16 end
|  3> %maxcore 3800
|  4>
|  5> * xyz 0 1
|  6> C     0.000000     5.113451    0.369764
|  7> C     0.000000    -5.113451    0.369764
|  8> C     0.000000     3.841175   -0.476207
|  9> C     0.000000    -3.841175   -0.476207
| 10> C     0.000000     2.559853    0.358568
| 11> C     0.000000    -2.559853    0.358568
| 12> C     0.000000     1.280240   -0.478345
| 13> C     0.000000    -1.280240   -0.478345
| 14> C     0.000000     0.000000    0.358018
| 15> H     0.880614     5.158370    1.014023
| 16> H     0.000000     6.008632   -0.253795
| 17> H    -0.880614     5.158370    1.014023
| 18> H     0.000000    -6.008632   -0.253795
| 19> H    -0.880614    -5.158370    1.014023
| 20> H     0.880614    -5.158370    1.014023
| 21> H    -0.873886     3.841226   -1.134700
| 22> H     0.873886     3.841226   -1.134700
| 23> H    -0.873886    -3.841226   -1.134700
| 24> H     0.873886    -3.841226   -1.134700
| 25> H     0.874404     2.560551    1.018190
| 26> H    -0.874404     2.560551    1.018190
| 27> H    -0.874404    -2.560551    1.018190
| 28> H     0.874404    -2.560551    1.018190
| 29> H     0.874440     1.280475   -1.137677
| 30> H    -0.874440     1.280475   -1.137677
| 31> H    -0.874440    -1.280475   -1.137677
| 32> H     0.874440    -1.280475   -1.137677
| 33> H     0.874372     0.000000    1.017387
| 34> H    -0.874372     0.000000    1.017387
| 35> *
| 36>
| 37>                          ****END OF INPUT****

CARTESIAN COORDINATES (ANGSTROEM)
---------------------------------
  C      0.000000    5.113451    0.369764
  C      0.000000   -5.113451    0.369764
  C      0.000000    3.841175   -0.476207
  C      0.000000   -3.841175   -0.476207
  C      0.000000    2.559853    0.358568
  C      0.000000   -2.559853    0.358568
  C      0.000000    1.280240   -0.478345
  C      0.000000   -1.280240   -0.478345
  C      0.000000    0.000000    0.358018
  H      0.880614    5.158370    1.014023
  H      0.000000    6.008632   -0.253795
  H     -0.880614    5.158370    1.014023
  H      0.000000   -6.008632   -0.253795
  H     -0.880614   -5.158370    1.014023
  H      0.880614   -5.158370    1.014023
  H     -0.873886    3.841226   -1.134700
  H      0.873886    3.841226   -1.134700
  H     -0.873886   -3.841226   -1.134700
  H      0.873886   -3.841226   -1.134700
  H      0.874404    2.560551    1.018190
  H     -0.874404    2.560551    1.018190
  H     -0.874404   -2.560551    1.018190
  H      0.874404   -2.560551    1.018190
  H      0.874440    1.280475   -1.137677
  H     -0.874440    1.280475   -1.137677
  H     -0.874440   -1.280475   -1.137677
  H      0.874440   -1.280475   -1.137677
  H      0.874372    0.000000    1.017387
  H     -0.874372    0.000000    1.017387

 Total Charge           Charge          ....    0
 Multiplicity           Mult            ....    1
 Number of Electrons    NEL             ....   74
 Basis Dimension        Dim             .... 1640

ORBITAL ENERGIES
----------------

  NO   OCC          E(Eh)            E(eV)
   0   2.0000     -11.212980      -305.1207
   1   2.0000     -11.212980      -305.1207
   2   2.0000     -11.211102      -305.0696
   3   2.0000     -11.210882      -305.0636
   4   2.0000     -11.210587      -305.0556
   5   2.0000     -11.210273      -305.0470
   6   2.0000     -11.210038      -305.0406
   7   2.0000     -11.207250      -304.9648
   8   2.0000     -11.207250      -304.9648
   9   2.0000      -1.091226       -29.6938
  10   2.0000      -1.067127       -29.0380
  11   2.0000      -1.027664       -27.9642
  12   2.0000      -0.974999       -26.5311
  13   2.0000      -0.912738       -24.8369
  14   2.0000      -0.847964       -23.0743
  15   2.0000      -0.797582       -21.7033
  16   2.0000      -0.784743       -21.3540
  17   2.0000      -0.780791       -21.2464
  18   2.0000      -0.656676       -17.8691
  19   2.0000      -0.635373       -17.2894
  20   2.0000      -0.602382       -16.3917
  21   2.0000      -0.592109       -16.1121
  22   2.0000      -0.585814       -15.9408
  23   2.0000      -0.562245       -15.2995
  24   2.0000      -0.552893       -15.0450
  25   2.0000      -0.551003       -14.9936
  26   2.0000      -0.521485       -14.1903
  27   2.0000      -0.514595       -14.0028
  28   2.0000      -0.487634       -13.2692
  29   2.0000      -0.487183       -13.2569
  30   2.0000      -0.479032       -13.0351
  31   2.0000      -0.466164       -12.6850
  32   2.0000      -0.463392       -12.6095
  33   2.0000      -0.457413       -12.4469
  34   2.0000      -0.456616       -12.4252
  35   2.0000      -0.454262       -12.3611
  36   2.0000      -0.425479       -11.5779
  37   0.0000       0.026486         0.7207
  38   0.0000       0.026706         0.7267
  39   0.0000       0.031615         0.8603
  40   0.0000       0.032795         0.8924
  41   0.0000       0.036572         0.9952

MULLIKEN ATOMIC CHARGES
-----------------------
   0 C :   -0.917026
   1 C :   -0.917019
   2 C :   -0.537852
   3 C :   -0.537862
   4 C :   -0.305451
   5 C :   -0.305306
   6 C :   -0.366440
   7 C :   -0.366690
   8 C :   -0.462964
   9 H :    0.225313
  10 H :    0.266042
  11 H :    0.225315
  12 H :    0.266019
  13 H :    0.225275
  14 H :    0.225273
  15 H :    0.222998
  16 H :    0.223058
  17 H :    0.223098
  18 H :    0.223052
  19 H :    0.230518
  20 H :    0.230528
  21 H :    0.230672
  22 H :    0.230599
  23 H :    0.247338
  24 H :    0.247093
  25 H :    0.246974
  26 H :    0.247302
  27 H :    0.240149
  28 H :    0.239993
Sum of atomic charges:   -0.0000000

LOEWDIN ATOMIC CHARGES
----------------------
   0 C :    0.925634
   1 C :    0.925634
   2 C :    0.508457
   3 C :    0.508457
   4 C :    0.512706
   5 C :    0.512707
   6 C :    0.525539
   7 C :    0.525539
   8 C :    0.527925
   9 H :   -0.285836
  10 H :   -0.285115
  11 H :   -0.285836
  12 H :   -0.285115
  13 H :   -0.285836
  14 H :   -0.285836
  15 H :   -0.273614
  16 H :   -0.273614
  17 H :   -0.273614
  18 H :   -0.273614
  19 H :   -0.268215
  20 H :   -0.268215
  21 H :   -0.268215
  22 H :   -0.268215
  23 H :   -0.265469
  24 H :   -0.265469
  25 H :   -0.265469
  26 H :   -0.265469
  27 H :   -0.264916
  28 H :   -0.264916

  Mayer bond orders larger than 0.100000
B(  0-C ,  2-C ) :   1.0601 B(  0-C ,  4-C ) :  -0.1455 B(  0-C ,  9-H ) :   0.9571
B(  0-C , 10-H ) :   1.0293 B(  0-C , 11-H ) :   0.9571 B(  1-C ,  3-C ) :   1.0601
B(  1-C ,  5-C ) :  -0.1456 B(  1-C , 12-H ) :   1.0293 B(  1-C , 13-H ) :   0.9571
B(  1-C , 14-H ) :   0.9571 B(  2-C ,  4-C ) :   1.0206 B(  2-C ,  6-C ) :  -0.1261
B(  2-C , 10-H ) :  -0.1006 B(  2-C , 15-H ) :   0.8826 B(  2-C , 16-H ) :   0.8826
B(  3-C ,  5-C ) :   1.0205 B(  3-C ,  7-C ) :  -0.1260 B(  3-C , 12-H ) :  -0.1005
B(  3-C , 17-H ) :   0.8825 B(  3-C , 18-H ) :   0.8826 B(  4-C ,  6-C ) :   1.1227
B(  4-C ,  8-C ) :  -0.1571 B(  4-C , 19-H ) :   0.8560 B(  4-C , 20-H ) :   0.8559
B(  5-C ,  7-C ) :   1.1226 B(  5-C ,  8-C ) :  -0.1570 B(  5-C , 21-H ) :   0.8559
B(  5-C , 22-H ) :   0.8559 B(  6-C ,  7-C ) :  -0.1617 B(  6-C ,  8-C ) :   1.2247
B(  6-C , 23-H ) :   0.8354 B(  6-C , 24-H ) :   0.8358 B(  7-C ,  8-C ) :   1.2248
B(  7-C , 25-H ) :   0.8358 B(  7-C , 26-H ) :   0.8356 B(  8-C , 27-H ) :   0.8354
B(  8-C , 28-H ) :   0.8355

MP2 TOTAL ENERGY:     -354.313367339 Eh
FINAL SINGLE POINT ENERGY      -354.313367339063

DIPOLE MOMENT
-------------
                                X             Y             Z
Electronic contribution:      0.00000      -0.00000      -0.64704
Nuclear contribution   :      0.00000       0.00000       0.61387
                        -----------------------------------------
Total Dipole Moment    :      0.00000      -0.00000      -0.03317
                        -----------------------------------------
Magnitude (a.u.)       :      0.03317
Magnitude (Debye)      :      0.08430

Rotational constants in cm-1:     0.313808     0.011500     0.011301
Rotational constants in MHz :  9407.724290   344.767444   338.783015

                             ****ORCA TERMINATED NORMALLY****
TOTAL RUN TIME: 0 days 3 hours 10 minutes 14 seconds 133 msec
