                         Program Version 5.0.4 -  RELEASE  -
|  1> !ri-mp2 aug-cc-pvqz aug-cc-pvqz/c tightscf
|  2> %pal nprocs 16 end
|  3>
|  4> * xyz 0 1
|  5> Cl    -1.403966    1.580358   -0.186597
|  6> Cl    -2.213265   -1.174993   -0.243708
|  7> O      2.873057    0.758059   -0.738556
|  8> O      2.277698   -1.354913   -0.264765
|  9> N     -0.804970   -0.095332   -0.210337
| 10> C     -0.056679   -0.361932    1.040612
| 11> C      1.277873    0.375527    1.029972
| 12> C      2.216236   -0.012637   -0.091722
| 13> H      2.900728   -1.522198   -0.987239
| 14> H      0.107577   -1.437333    1.044710
| 15> H     -0.639389   -0.090423    1.923058
| 16> H      1.143470    1.452829    0.989941
| 17> H      1.784708    0.142322    1.970482
| 18> *
| 19>
| 20>                          ****END OF INPUT****

CARTESIAN COORDINATES (ANGSTROEM)
---------------------------------
  Cl    -1.403966    1.580358   -0.186597
  Cl    -2.213265   -1.174993   -0.243708
  O      2.873057    0.758059   -0.738556
  O      2.277698   -1.354913   -0.264765
  N     -0.804970   -0.095332   -0.210337
  C     -0.056679   -0.361932    1.040612
  C      1.277873    0.375527    1.029972
  C      2.216236   -0.012637   -0.091722
  H      2.900728   -1.522198   -0.987239
  H      0.107577   -1.437333    1.044710
  H     -0.639389   -0.090423    1.923058
  H      1.143470    1.452829    0.989941
  H      1.784708    0.142322    1.970482

 Total Charge           Charge          ....    0
 Multiplicity           Mult            ....    1
 Number of Electrons    NEL             ....   80
 Basis Dimension        Dim             ....  878

ORBITAL ENERGIES
----------------

  NO   OCC          E(Eh)            E(eV)
   0   2.0000    -104.875414     -2853.8051
   1   2.0000    -104.874198     -2853.7720
   2   2.0000     -20.619808      -561.0935
   3   2.0000     -20.556889      -559.3814
   4   2.0000     -15.702167      -427.2777
   5   2.0000     -11.396795      -310.1226
   6   2.0000     -11.301404      -307.5269
   7   2.0000     -11.267450      -306.6029
   8   2.0000     -10.598063      -288.3879
   9   2.0000     -10.596983      -288.3586
  10   2.0000      -8.065093      -219.4623
  11   2.0000      -8.063999      -219.4326
  12   2.0000      -8.062851      -219.4013
  13   2.0000      -8.062681      -219.3967
  14   2.0000      -8.061787      -219.3724
  15   2.0000      -8.061614      -219.3677
  16   2.0000      -1.474488       -40.1229
  17   2.0000      -1.372175       -37.3388
  18   2.0000      -1.300317       -35.3834
  19   2.0000      -1.107648       -30.1406
  20   2.0000      -1.098315       -29.8867
  21   2.0000      -0.997289       -27.1376
  22   2.0000      -0.881081       -23.9754
  23   2.0000      -0.823377       -22.4052
  24   2.0000      -0.717664       -19.5286
  25   2.0000      -0.699935       -19.0462
  26   2.0000      -0.680742       -18.5239
  27   2.0000      -0.664185       -18.0734
  28   2.0000      -0.637232       -17.3400
  29   2.0000      -0.620082       -16.8733
  30   2.0000      -0.590676       -16.0731
  31   2.0000      -0.571051       -15.5391
  32   2.0000      -0.547959       -14.9107
  33   2.0000      -0.532684       -14.4951
  34   2.0000      -0.494921       -13.4675
  35   2.0000      -0.481914       -13.1136
  36   2.0000      -0.478825       -13.0295
  37   2.0000      -0.461277       -12.5520
  38   2.0000      -0.455407       -12.3923
  39   2.0000      -0.413786       -11.2597
  40   0.0000       0.022338         0.6078
  41   0.0000       0.030584         0.8322
  42   0.0000       0.037652         1.0246
  43   0.0000       0.040101         1.0912
  44   0.0000       0.049278         1.3409

MULLIKEN ATOMIC CHARGES
-----------------------
   0 Cl:   -0.113126
   1 Cl:   -0.095766
   2 O :   -0.799869
   3 O :   -0.681420
   4 N :   -0.304273
   5 C :   -0.111287
   6 C :   -0.571388
   7 C :    1.139944
   8 H :    0.309811
   9 H :    0.300772
  10 H :    0.289246
  11 H :    0.325285
  12 H :    0.312071
Sum of atomic charges:   -0.0000000

LOEWDIN ATOMIC CHARGES
----------------------
   0 Cl:    0.854978
   1 Cl:    0.838130
   2 O :    0.711485
   3 O :    1.257551
   4 N :   -0.827761
   5 C :   -0.021803
   6 C :    0.392395
   7 C :   -1.025650
   8 H :   -0.805237
   9 H :   -0.392834
  10 H :   -0.337082
  11 H :   -0.361382
  12 H :   -0.282790

  Mayer bond orders larger than 0.100000
B(  0-Cl,  4-N ) :   0.9255 B(  0-Cl,  5-C ) :  -0.1055 B(  1-Cl,  4-N ) :   1.0220
B(  1-Cl,  5-C ) :  -0.1755 B(  2-O ,  3-O ) :   0.1008 B(  2-O ,  7-C ) :   1.3368
B(  3-O ,  7-C ) :   0.8721 B(  3-O ,  8-H ) :   0.9377 B(  4-N ,  5-C ) :   0.8606
B(  5-C ,  6-C ) :   0.9840 B(  5-C ,  9-H ) :   0.8438 B(  5-C , 10-H ) :   0.8959
B(  6-C ,  7-C ) :   1.0320 B(  6-C , 11-H ) :   0.8842 B(  6-C , 12-H ) :   0.8664

MP2 TOTAL ENERGY:    -1241.497159092 Eh
FINAL SINGLE POINT ENERGY     -1241.497159092337

DIPOLE MOMENT
-------------
                                X             Y             Z
Electronic contribution:     -9.96689       1.29929      -4.28739
Nuclear contribution   :     10.03190      -1.94456       5.26819
                        -----------------------------------------
Total Dipole Moment    :      0.06501      -0.64527       0.98080
                        -----------------------------------------
Magnitude (a.u.)       :      1.17583
Magnitude (Debye)      :      2.98872

Rotational constants in cm-1:     0.071385     0.027669     0.022625
Rotational constants in MHz :  2140.079889   829.489333   678.277441

                             ****ORCA TERMINATED NORMALLY****
TOTAL RUN TIME: 0 days 0 hours 24 minutes 17 seconds 821 msec
