                         Program Version 5.0.4 -  RELEASE  -
|  1> !ri-mp2 aug-cc-pvqz aug-cc-pvqz/c tightscf
|  2> %pal nprocs 16 end
|  3>
|  4> * xyz 0 1
|  5> Cl   -3.060401   -0.655123   -0.000036
|  6> O    -1.695936    1.586291    0.000019
|  7> O     4.467584   -0.178785   -0.000057
|  8> N     2.105957   -0.328874    0.000063
|  9> C    -0.315239   -0.391161    0.000014
| 10> C     0.924008    0.501299    0.000045
| 11> C    -1.585387    0.409377    0.000004
| 12> C     3.297525   -0.188848   -0.000003
| 13> H    -0.325259   -1.048562    0.871003
| 14> H    -0.325232   -1.048540   -0.870992
| 15> H     0.918478    1.146124    0.879487
| 16> H     0.918511    1.146144   -0.879383
| 17> *
| 18>
| 19>                          ****END OF INPUT****

CARTESIAN COORDINATES (ANGSTROEM)
---------------------------------
  Cl    -3.060401   -0.655123   -0.000036
  O     -1.695936    1.586291    0.000019
  O      4.467584   -0.178785   -0.000057
  N      2.105957   -0.328874    0.000063
  C     -0.315239   -0.391161    0.000014
  C      0.924008    0.501299    0.000045
  C     -1.585387    0.409377    0.000004
  C      3.297525   -0.188848   -0.000003
  H     -0.325259   -1.048562    0.871003
  H     -0.325232   -1.048540   -0.870992
  H      0.918478    1.146124    0.879487
  H      0.918511    1.146144   -0.879383

 Total Charge           Charge          ....    0
 Multiplicity           Mult            ....    1
 Number of Electrons    NEL             ....   68
 Basis Dimension        Dim             ....  828

ORBITAL ENERGIES
----------------

  NO   OCC          E(Eh)            E(eV)
   0   2.0000    -104.855253     -2853.2565
   1   2.0000     -20.614220      -560.9414
   2   2.0000     -20.607771      -560.7659
   3   2.0000     -15.599458      -424.4828
   4   2.0000     -11.423889      -310.8598
   5   2.0000     -11.409269      -310.4620
   6   2.0000     -11.319208      -308.0113
   7   2.0000     -11.285599      -307.0968
   8   2.0000     -10.580874      -287.9202
   9   2.0000      -8.047711      -218.9894
  10   2.0000      -8.046144      -218.9467
  11   2.0000      -8.046055      -218.9443
  12   2.0000      -1.468279       -39.9539
  13   2.0000      -1.466204       -39.8974
  14   2.0000      -1.289557       -35.0906
  15   2.0000      -1.144521       -31.1440
  16   2.0000      -1.094038       -29.7703
  17   2.0000      -0.957094       -26.0438
  18   2.0000      -0.786509       -21.4020
  19   2.0000      -0.763348       -20.7718
  20   2.0000      -0.725719       -19.7478
  21   2.0000      -0.705669       -19.2022
  22   2.0000      -0.685759       -18.6605
  23   2.0000      -0.669684       -18.2230
  24   2.0000      -0.655950       -17.8493
  25   2.0000      -0.648479       -17.6460
  26   2.0000      -0.605652       -16.4806
  27   2.0000      -0.580763       -15.8034
  28   2.0000      -0.551079       -14.9956
  29   2.0000      -0.482898       -13.1403
  30   2.0000      -0.477121       -12.9831
  31   2.0000      -0.468976       -12.7615
  32   2.0000      -0.451230       -12.2786
  33   2.0000      -0.436600       -11.8805
  34   0.0000       0.021349         0.5809
  35   0.0000       0.032111         0.8738
  36   0.0000       0.032629         0.8879
  37   0.0000       0.044966         1.2236
  38   0.0000       0.051246         1.3945

MULLIKEN ATOMIC CHARGES
-----------------------
   0 Cl:   -0.235981
   1 O :   -0.647979
   2 O :   -0.641587
   3 N :   -0.967308
   4 C :   -0.390823
   5 C :    0.022694
   6 C :    0.582479
   7 C :    1.144596
   8 H :    0.300368
   9 H :    0.300368
  10 H :    0.266587
  11 H :    0.266586
Sum of atomic charges:   -0.0000000

LOEWDIN ATOMIC CHARGES
----------------------
   0 Cl:    1.037824
   1 O :    0.626138
   2 O :    0.590133
   3 N :    0.505910
   4 C :    0.313660
   5 C :    0.226689
   6 C :   -1.340059
   7 C :   -0.717552
   8 H :   -0.319818
   9 H :   -0.319818
  10 H :   -0.301554
  11 H :   -0.301553

  Mayer bond orders larger than 0.100000
B(  0-Cl,  4-C ) :  -0.1725 B(  0-Cl,  6-C ) :   1.0132 B(  1-O ,  4-C ) :   0.1556
B(  1-O ,  6-C ) :   1.5136 B(  2-O ,  3-N ) :   0.3306 B(  2-O ,  7-C ) :   1.5580
B(  3-N ,  5-C ) :   0.7775 B(  3-N ,  7-C ) :   2.3092 B(  4-C ,  5-C ) :   1.0816
B(  4-C ,  6-C ) :   0.8886 B(  4-C ,  8-H ) :   0.8553 B(  4-C ,  9-H ) :   0.8554
B(  5-C , 10-H ) :   0.8667 B(  5-C , 11-H ) :   0.8667

MP2 TOTAL ENERGY:     -819.263917760 Eh
FINAL SINGLE POINT ENERGY      -819.263917760177

DIPOLE MOMENT
-------------
                                X             Y             Z
Electronic contribution:     -5.49897      -1.33460      -0.00015
Nuclear contribution   :      5.37573       1.10240       0.00016
                        -----------------------------------------
Total Dipole Moment    :     -0.12323      -0.23221       0.00001
                        -----------------------------------------
Magnitude (a.u.)       :      0.26288
Magnitude (Debye)      :      0.66819

Rotational constants in cm-1:     0.231746     0.018000     0.016806
Rotational constants in MHz :  6947.576555   539.628661   503.819360

                             ****ORCA TERMINATED NORMALLY****
TOTAL RUN TIME: 0 days 0 hours 23 minutes 15 seconds 824 msec
