                         Program Version 5.0.4 -  RELEASE  -
|  1> !ri-mp2 aug-cc-pvqz aug-cc-pvqz/c tightscf
|  2> %pal nprocs 16 end
|  3>
|  4> * xyz 0 1
|  5> C      0.484528    0.165592    0.000016
|  6> C      1.812482   -0.565934   -0.000009
|  7> C     -1.975116   -0.101915   -0.000016
|  8> N     -0.623641   -0.629072    0.000038
|  9> O      0.425955    1.384169    0.000000
| 10> H      2.378559   -0.258444   -0.878404
| 11> H      2.378838   -0.257978    0.878038
| 12> H      1.716856   -1.651294    0.000288
| 13> H     -2.523186   -0.423664   -0.887098
| 14> H     -1.906742    0.982265   -0.000850
| 15> H     -2.522801   -0.422285    0.887811
| 16> H     -0.495040   -1.624899    0.000005
| 17> *
| 18>
| 19>                          ****END OF INPUT****

CARTESIAN COORDINATES (ANGSTROEM)
---------------------------------
  C      0.484528    0.165592    0.000016
  C      1.812482   -0.565934   -0.000009
  C     -1.975116   -0.101915   -0.000016
  N     -0.623641   -0.629072    0.000038
  O      0.425955    1.384169    0.000000
  H      2.378559   -0.258444   -0.878404
  H      2.378838   -0.257978    0.878038
  H      1.716856   -1.651294    0.000288
  H     -2.523186   -0.423664   -0.887098
  H     -1.906742    0.982265   -0.000850
  H     -2.522801   -0.422285    0.887811
  H     -0.495040   -1.624899    0.000005

 Total Charge           Charge          ....    0
 Multiplicity           Mult            ....    1
 Number of Electrons    NEL             ....   40
 Basis Dimension        Dim             ....  722

ORBITAL ENERGIES
----------------

  NO   OCC          E(Eh)            E(eV)
   0   2.0000     -20.507867      -558.0474
   1   2.0000     -15.584413      -424.0734
   2   2.0000     -11.346595      -308.7565
   3   2.0000     -11.256839      -306.3142
   4   2.0000     -11.234906      -305.7173
   5   2.0000      -1.374743       -37.4087
   6   2.0000      -1.227853       -33.4116
   7   2.0000      -1.015992       -27.6465
   8   2.0000      -0.931990       -25.3607
   9   2.0000      -0.787872       -21.4391
  10   2.0000      -0.690143       -18.7797
  11   2.0000      -0.651367       -17.7246
  12   2.0000      -0.631842       -17.1933
  13   2.0000      -0.586609       -15.9624
  14   2.0000      -0.581114       -15.8129
  15   2.0000      -0.554288       -15.0829
  16   2.0000      -0.544942       -14.8286
  17   2.0000      -0.505272       -13.7491
  18   2.0000      -0.420297       -11.4369
  19   2.0000      -0.391470       -10.6524
  20   0.0000       0.019870         0.5407
  21   0.0000       0.031180         0.8484
  22   0.0000       0.037246         1.0135
  23   0.0000       0.039513         1.0752
  24   0.0000       0.051201         1.3933

MULLIKEN ATOMIC CHARGES
-----------------------
   0 C :    0.873009
   1 C :   -0.752064
   2 C :   -0.723196
   3 N :   -0.447284
   4 O :   -0.823694
   5 H :    0.284333
   6 H :    0.284334
   7 H :    0.223891
   8 H :    0.267520
   9 H :    0.302357
  10 H :    0.267582
  11 H :    0.243211
Sum of atomic charges:   -0.0000000

LOEWDIN ATOMIC CHARGES
----------------------
   0 C :   -0.838642
   1 C :    0.888404
   2 C :    0.787264
   3 N :    0.821603
   4 O :    0.695562
   5 H :   -0.299186
   6 H :   -0.299205
   7 H :   -0.314809
   8 H :   -0.285766
   9 H :   -0.356495
  10 H :   -0.285743
  11 H :   -0.512989

  Mayer bond orders larger than 0.100000
B(  0-C ,  1-C ) :   0.8973 B(  0-C ,  3-N ) :   1.1549 B(  0-C ,  4-O ) :   1.3116
B(  1-C ,  4-O ) :   0.1025 B(  1-C ,  5-H ) :   0.9306 B(  1-C ,  6-H ) :   0.9307
B(  1-C ,  7-H ) :   1.0079 B(  2-C ,  3-N ) :   0.8144 B(  2-C ,  8-H ) :   0.9574
B(  2-C ,  9-H ) :   0.9362 B(  2-C , 10-H ) :   0.9573 B(  3-N ,  4-O ) :   0.1473
B(  3-N , 11-H ) :   0.9950

MP2 TOTAL ENERGY:     -248.141565458 Eh
FINAL SINGLE POINT ENERGY      -248.141565457682

DIPOLE MOMENT
-------------
                                X             Y             Z
Electronic contribution:      0.76203       2.14319       0.00014
Nuclear contribution   :     -0.99739      -3.73911      -0.00022
                        -----------------------------------------
Total Dipole Moment    :     -0.23535      -1.59592      -0.00008
                        -----------------------------------------
Magnitude (a.u.)       :      1.61318
Magnitude (Debye)      :      4.10037

Rotational constants in cm-1:     0.335584     0.127864     0.095897
Rotational constants in MHz : 10060.564563  3833.257774  2874.918376

                             ****ORCA TERMINATED NORMALLY****
TOTAL RUN TIME: 0 days 0 hours 11 minutes 59 seconds 948 msec
