                         Program Version 5.0.4 -  RELEASE  -
|  1> !ri-mp2 aug-cc-pvqz aug-cc-pvqz/c tightscf
|  2> %pal nprocs 16 end
|  3> %maxcore 3800
|  4>
|  5> * xyz 0 1
|  6> C     -2.745482   -0.250488    0.015139
|  7> C     -2.350376    1.101274   -0.020876
|  8> C      1.894620   -1.629753   -0.016536
|  9> C     -1.798435   -1.240778    0.025645
| 10> C     -1.018277    1.430836   -0.033362
| 11> C      0.565283   -1.959620    0.002317
| 12> C      2.304363   -0.285408   -0.011578
| 13> C     -0.414684   -0.938347    0.010052
| 14> C     -0.013885    0.433355   -0.006243
| 15> C      1.383991    0.743412   -0.000677
| 16> N      1.805666    2.071855   -0.042792
| 17> H     -3.797274   -0.503107    0.026539
| 18> H     -3.099801    1.880731   -0.046991
| 19> H      2.647310   -2.406938   -0.024601
| 20> H     -2.097908   -2.281072    0.043095
| 21> H     -0.742879    2.474995   -0.088131
| 22> H      0.249676   -2.994190    0.010295
| 23> H      3.361776   -0.050767   -0.011365
| 24> H      2.778199    2.210429    0.179331
| 25> H      1.218530    2.740032    0.428091
| 26> *
| 27>
| 28>                          ****END OF INPUT****

CARTESIAN COORDINATES (ANGSTROEM)
---------------------------------
  C     -2.745482   -0.250488    0.015139
  C     -2.350376    1.101274   -0.020876
  C      1.894620   -1.629753   -0.016536
  C     -1.798435   -1.240778    0.025645
  C     -1.018277    1.430836   -0.033362
  C      0.565283   -1.959620    0.002317
  C      2.304363   -0.285408   -0.011578
  C     -0.414684   -0.938347    0.010052
  C     -0.013885    0.433355   -0.006243
  C      1.383991    0.743412   -0.000677
  N      1.805666    2.071855   -0.042792
  H     -3.797274   -0.503107    0.026539
  H     -3.099801    1.880731   -0.046991
  H      2.647310   -2.406938   -0.024601
  H     -2.097908   -2.281072    0.043095
  H     -0.742879    2.474995   -0.088131
  H      0.249676   -2.994190    0.010295
  H      3.361776   -0.050767   -0.011365
  H      2.778199    2.210429    0.179331
  H      1.218530    2.740032    0.428091

 Total Charge           Charge          ....    0
 Multiplicity           Mult            ....    1
 Number of Electrons    NEL             ....   76
 Basis Dimension        Dim             .... 1294

ORBITAL ENERGIES
----------------

  NO   OCC          E(Eh)            E(eV)
   0   2.0000     -15.565776      -423.5663
   1   2.0000     -11.281484      -306.9848
   2   2.0000     -11.242444      -305.9225
   3   2.0000     -11.239139      -305.8325
   4   2.0000     -11.236793      -305.7687
   5   2.0000     -11.234020      -305.6932
   6   2.0000     -11.232695      -305.6572
   7   2.0000     -11.231921      -305.6361
   8   2.0000     -11.231495      -305.6245
   9   2.0000     -11.219291      -305.2924
  10   2.0000     -11.218358      -305.2670
  11   2.0000      -1.231161       -33.5016
  12   2.0000      -1.160426       -31.5768
  13   2.0000      -1.102050       -29.9883
  14   2.0000      -1.033772       -28.1304
  15   2.0000      -1.008010       -27.4293
  16   2.0000      -0.968991       -26.3676
  17   2.0000      -0.851964       -23.1831
  18   2.0000      -0.842260       -22.9191
  19   2.0000      -0.801795       -21.8179
  20   2.0000      -0.719722       -19.5846
  21   2.0000      -0.713160       -19.4061
  22   2.0000      -0.683895       -18.6097
  23   2.0000      -0.657229       -17.8841
  24   2.0000      -0.637209       -17.3393
  25   2.0000      -0.602408       -16.3924
  26   2.0000      -0.594992       -16.1906
  27   2.0000      -0.577580       -15.7167
  28   2.0000      -0.561331       -15.2746
  29   2.0000      -0.549366       -14.9490
  30   2.0000      -0.529768       -14.4157
  31   2.0000      -0.489522       -13.3206
  32   2.0000      -0.486142       -13.2286
  33   2.0000      -0.478509       -13.0209
  34   2.0000      -0.434665       -11.8278
  35   2.0000      -0.359410        -9.7801
  36   2.0000      -0.320912        -8.7325
  37   2.0000      -0.269357        -7.3296
  38   0.0000       0.022678         0.6171
  39   0.0000       0.026426         0.7191
  40   0.0000       0.028072         0.7639
  41   0.0000       0.037174         1.0115
  42   0.0000       0.037861         1.0302

MULLIKEN ATOMIC CHARGES
-----------------------
   0 C :   -0.427713
   1 C :   -0.458002
   2 C :   -0.388875
   3 C :   -0.486600
   4 C :   -0.428285
   5 C :   -0.624375
   6 C :   -0.635622
   7 C :    0.792676
   8 C :    0.802095
   9 C :    0.675340
  10 N :   -0.902304
  11 H :    0.262461
  12 H :    0.249294
  13 H :    0.235540
  14 H :    0.171220
  15 H :    0.221094
  16 H :    0.175287
  17 H :    0.223118
  18 H :    0.260955
  19 H :    0.282696
Sum of atomic charges:   -0.0000000

LOEWDIN ATOMIC CHARGES
----------------------
   0 C :    0.353635
   1 C :    0.357970
   2 C :    0.345139
   3 C :    0.353962
   4 C :    0.357278
   5 C :    0.348729
   6 C :    0.345282
   7 C :   -0.116452
   8 C :   -0.083923
   9 C :   -0.209655
  10 N :    1.281966
  11 H :   -0.323201
  12 H :   -0.324495
  13 H :   -0.322081
  14 H :   -0.323033
  15 H :   -0.343954
  16 H :   -0.329645
  17 H :   -0.328860
  18 H :   -0.504798
  19 H :   -0.533864

  Mayer bond orders larger than 0.100000
B(  0-C ,  1-C ) :   1.1800 B(  0-C ,  3-C ) :   1.3093 B(  0-C ,  7-C ) :  -0.2775
B(  0-C , 11-H ) :   1.1380 B(  1-C ,  4-C ) :   1.3824 B(  1-C ,  8-C ) :  -0.3775
B(  1-C , 12-H ) :   1.1314 B(  2-C ,  5-C ) :   1.4467 B(  2-C ,  6-C ) :   1.2121
B(  2-C ,  7-C ) :  -0.3916 B(  2-C ,  9-C ) :  -0.2075 B(  2-C , 13-H ) :   1.1809
B(  3-C ,  4-C ) :   0.1742 B(  3-C ,  5-C ) :  -0.1494 B(  3-C ,  7-C ) :   0.7175
B(  3-C ,  8-C ) :  -0.4264 B(  3-C , 11-H ) :  -0.1857 B(  3-C , 14-H ) :   1.1498
B(  4-C ,  7-C ) :  -0.1717 B(  4-C ,  8-C ) :   0.6724 B(  4-C ,  9-C ) :  -0.2529
B(  4-C , 12-H ) :  -0.1585 B(  4-C , 15-H ) :   1.0168 B(  5-C ,  6-C ) :   0.2616
B(  5-C ,  7-C ) :   0.5972 B(  5-C ,  8-C ) :  -0.1818 B(  5-C ,  9-C ) :   0.1097
B(  5-C , 13-H ) :  -0.1928 B(  5-C , 16-H ) :   1.1285 B(  6-C ,  8-C ) :  -0.1545
B(  6-C ,  9-C ) :   1.1513 B(  6-C , 13-H ) :  -0.1757 B(  6-C , 17-H ) :   1.0539
B(  7-C ,  8-C ) :   0.9114 B(  7-C ,  9-C ) :  -0.4131 B(  7-C , 14-H ) :  -0.1943
B(  7-C , 16-H ) :  -0.1732 B(  8-C ,  9-C ) :   0.8879 B(  8-C , 10-N ) :   0.1111
B(  8-C , 15-H ) :  -0.1715 B(  9-C , 10-N ) :   0.5039 B(  9-C , 17-H ) :  -0.1568
B(  9-C , 18-H ) :  -0.1242 B( 10-N , 18-H ) :   0.9675 B( 10-N , 19-H ) :   0.9334

MP2 TOTAL ENERGY:     -440.463119171 Eh
FINAL SINGLE POINT ENERGY      -440.463119170644

DIPOLE MOMENT
-------------
                                X             Y             Z
Electronic contribution:     -0.35884      -0.70436      -0.15267
Nuclear contribution   :      0.52655       1.07883       0.51437
                        -----------------------------------------
Total Dipole Moment    :      0.16770       0.37448       0.36170
                        -----------------------------------------
Magnitude (a.u.)       :      0.54697
Magnitude (Debye)      :      1.39030

Rotational constants in cm-1:     0.064866     0.037716     0.023868
Rotational constants in MHz :  1944.618954  1130.693935   715.547049

                             ****ORCA TERMINATED NORMALLY****
TOTAL RUN TIME: 0 days 1 hours 41 minutes 39 seconds 638 msec
