                         Program Version 5.0.4 -  RELEASE  -
|  1> !ri-mp2 aug-cc-pvqz aug-cc-pvqz/c tightscf
|  2> %pal nprocs 16 end
|  3> %maxcore 3800
|  4>
|  5> * xyz 0 1
|  6> C     -2.727109   -0.326483        0.000000
|  7> C     -2.375260    1.038390        0.000000
|  8> C      1.957686   -1.557474        0.000000
|  9> C     -1.750278   -1.286970        0.000000
| 10> C     -1.055155    1.409855        0.000000
| 11> C      0.638110   -1.927342        0.000000
| 12> C      2.326734   -0.200714        0.000000
| 13> C     -0.376443   -0.941789        0.000000
| 14> C     -0.019952    0.443553        0.000000
| 15> C      1.365002    0.779883        0.000000
| 16> O      1.794772    2.076411        0.000000
| 17> H     -3.770509   -0.611247        0.000000
| 18> H     -3.148862    1.793966        0.000000
| 19> H      2.733146   -2.311550        0.000000
| 20> H     -2.017573   -2.335991        0.000000
| 21> H     -0.825143    2.468776        0.000000
| 22> H      0.356325   -2.971639        0.000000
| 23> H      3.367436    0.091086        0.000000
| 24> H      1.046996    2.679866        0.000001
| 25> *
| 26>
| 27>                          ****END OF INPUT****

CARTESIAN COORDINATES (ANGSTROEM)
---------------------------------
  C     -2.727109   -0.326483    0.000000
  C     -2.375260    1.038390    0.000000
  C      1.957686   -1.557474    0.000000
  C     -1.750278   -1.286970    0.000000
  C     -1.055155    1.409855    0.000000
  C      0.638110   -1.927342    0.000000
  C      2.326734   -0.200714    0.000000
  C     -0.376443   -0.941789    0.000000
  C     -0.019952    0.443553    0.000000
  C      1.365002    0.779883    0.000000
  O      1.794772    2.076411    0.000000
  H     -3.770509   -0.611247    0.000000
  H     -3.148862    1.793966    0.000000
  H      2.733146   -2.311550    0.000000
  H     -2.017573   -2.335991    0.000000
  H     -0.825143    2.468776    0.000000
  H      0.356325   -2.971639    0.000000
  H      3.367436    0.091086    0.000000
  H      1.046996    2.679866    0.000001

 Total Charge           Charge          ....    0
 Multiplicity           Mult            ....    1
 Number of Electrons    NEL             ....   76
 Basis Dimension        Dim             .... 1248

ORBITAL ENERGIES
----------------

  NO   OCC          E(Eh)            E(eV)
   0   2.0000     -20.590138      -560.2861
   1   2.0000     -11.305716      -307.6442
   2   2.0000     -11.251039      -306.1563
   3   2.0000     -11.249957      -306.1269
   4   2.0000     -11.248823      -306.0960
   5   2.0000     -11.242375      -305.9206
   6   2.0000     -11.241289      -305.8910
   7   2.0000     -11.239985      -305.8555
   8   2.0000     -11.238832      -305.8242
   9   2.0000     -11.227108      -305.5051
  10   2.0000     -11.224729      -305.4404
  11   2.0000      -1.408376       -38.3239
  12   2.0000      -1.179706       -32.1014
  13   2.0000      -1.114870       -30.3372
  14   2.0000      -1.049644       -28.5623
  15   2.0000      -1.017107       -27.6769
  16   2.0000      -0.985266       -26.8104
  17   2.0000      -0.862502       -23.4699
  18   2.0000      -0.853880       -23.2352
  19   2.0000      -0.813802       -22.1447
  20   2.0000      -0.749874       -20.4051
  21   2.0000      -0.717994       -19.5376
  22   2.0000      -0.685779       -18.6610
  23   2.0000      -0.666087       -18.1251
  24   2.0000      -0.633587       -17.2408
  25   2.0000      -0.611142       -16.6300
  26   2.0000      -0.599253       -16.3065
  27   2.0000      -0.596992       -16.2450
  28   2.0000      -0.573377       -15.6024
  29   2.0000      -0.559387       -15.2217
  30   2.0000      -0.538279       -14.6473
  31   2.0000      -0.523548       -14.2465
  32   2.0000      -0.493454       -13.4276
  33   2.0000      -0.492291       -13.3959
  34   2.0000      -0.448852       -12.2139
  35   2.0000      -0.379264       -10.3203
  36   2.0000      -0.327769        -8.9190
  37   2.0000      -0.283037        -7.7018
  38   0.0000       0.022782         0.6199
  39   0.0000       0.026222         0.7135
  40   0.0000       0.028491         0.7753
  41   0.0000       0.037927         1.0320
  42   0.0000       0.038871         1.0577

MULLIKEN ATOMIC CHARGES
-----------------------
   0 C :   -0.419372
   1 C :   -0.511181
   2 C :   -0.435973
   3 C :   -0.484893
   4 C :   -0.341387
   5 C :   -0.555247
   6 C :   -0.729853
   7 C :    0.774526
   8 C :    0.353398
   9 C :    1.215831
  10 O :   -0.893278
  11 H :    0.258335
  12 H :    0.250178
  13 H :    0.242413
  14 H :    0.185378
  15 H :    0.240947
  16 H :    0.209848
  17 H :    0.319158
  18 H :    0.321172
Sum of atomic charges:    0.0000000

LOEWDIN ATOMIC CHARGES
----------------------
   0 C :    0.357023
   1 C :    0.360519
   2 C :    0.342822
   3 C :    0.357130
   4 C :    0.361823
   5 C :    0.350290
   6 C :    0.327707
   7 C :   -0.117171
   8 C :   -0.090479
   9 C :   -0.402624
  10 O :    1.298754
  11 H :   -0.322447
  12 H :   -0.322078
  13 H :   -0.321535
  14 H :   -0.321106
  15 H :   -0.333505
  16 H :   -0.327625
  17 H :   -0.331697
  18 H :   -0.865799

  Mayer bond orders larger than 0.100000
B(  0-C ,  1-C ) :   1.1708 B(  0-C ,  3-C ) :   1.3003 B(  0-C ,  7-C ) :  -0.3122
B(  0-C , 11-H ) :   1.1531 B(  1-C ,  4-C ) :   1.4192 B(  1-C ,  8-C ) :  -0.3582
B(  1-C , 12-H ) :   1.1240 B(  1-C , 15-H ) :  -0.1008 B(  2-C ,  5-C ) :   1.4202
B(  2-C ,  6-C ) :   1.2582 B(  2-C ,  7-C ) :  -0.3786 B(  2-C ,  8-C ) :   0.1355
B(  2-C ,  9-C ) :  -0.2901 B(  2-C , 13-H ) :   1.1795 B(  3-C ,  4-C ) :   0.1512
B(  3-C ,  5-C ) :  -0.1561 B(  3-C ,  7-C ) :   0.6997 B(  3-C ,  8-C ) :  -0.2941
B(  3-C , 11-H ) :  -0.1887 B(  3-C , 14-H ) :   1.1308 B(  4-C ,  7-C ) :  -0.2342
B(  4-C ,  8-C ) :   0.6018 B(  4-C ,  9-C ) :  -0.2093 B(  4-C , 12-H ) :  -0.1650
B(  4-C , 15-H ) :   0.9745 B(  5-C ,  6-C ) :   0.2131 B(  5-C ,  7-C ) :   0.5502
B(  5-C ,  8-C ) :  -0.1432 B(  5-C , 13-H ) :  -0.2032 B(  5-C , 16-H ) :   1.1090
B(  6-C ,  8-C ) :  -0.2252 B(  6-C ,  9-C ) :   1.2505 B(  6-C , 10-O ) :   0.3329
B(  6-C , 13-H ) :  -0.1445 B(  6-C , 17-H ) :   0.9334 B(  7-C ,  8-C ) :   0.8836
B(  7-C ,  9-C ) :  -0.3146 B(  7-C , 14-H ) :  -0.1931 B(  7-C , 16-H ) :  -0.1744
B(  8-C ,  9-C ) :   1.0536 B(  8-C , 10-O ) :   0.5754 B(  8-C , 15-H ) :  -0.1429
B(  8-C , 18-H ) :   0.1631 B(  9-C , 10-O ) :  -0.4509 B( 10-O , 18-H ) :   0.9131

MP2 TOTAL ENERGY:     -460.328182814 Eh
FINAL SINGLE POINT ENERGY      -460.328182814142

DIPOLE MOMENT
-------------
                                X             Y             Z
Electronic contribution:      1.59393       1.18003      -0.00000
Nuclear contribution   :     -2.20763      -1.15238       0.00000
                        -----------------------------------------
Total Dipole Moment    :     -0.61369       0.02765       0.00000
                        -----------------------------------------
Magnitude (a.u.)       :      0.61432
Magnitude (Debye)      :      1.56147

Rotational constants in cm-1:     0.065288     0.037610     0.023863
Rotational constants in MHz :  1957.289786  1127.512574   715.400401

                             ****ORCA TERMINATED NORMALLY****
TOTAL RUN TIME: 0 days 2 hours 4 minutes 13 seconds 768 msec
