                         Program Version 5.0.4 -  RELEASE  -
|  1> !ri-mp2 aug-cc-pvqz aug-cc-pvqz/c tightscf
|  2> %pal nprocs 16 end
|  3> %maxcore 3800
|  4>
|  5> * xyz 0 1
|  6> C    -3.674067   -0.853951   -0.083418
|  7> C    -2.544884   -1.650937    0.067775
|  8> C    -3.509148    0.522321   -0.154373
|  9> C    -1.279010   -1.090719    0.146626
| 10> C    -2.248330    1.098967   -0.065846
| 11> C    -1.102333    0.302544    0.091353
| 12> C     0.314133    2.318038    0.012392
| 13> C     1.235426    0.205711    0.866884
| 14> C     2.316851   -0.367967   -0.044102
| 15> N     0.170829    0.879498    0.166684
| 16> F     3.284492   -0.950410    0.698778
| 17> F     1.843375   -1.300588   -0.890331
| 18> F     2.908950    0.584737   -0.794752
| 19> H    -4.657463   -1.297035   -0.151204
| 20> H    -2.643137   -2.727701    0.109315
| 21> H    -4.370757    1.166188   -0.272823
| 22> H    -0.425739   -1.747886    0.213334
| 23> H    -2.166729    2.173555   -0.110469
| 24> H    -0.155118    2.650083   -0.912697
| 25> H     1.369780    2.566254   -0.050624
| 26> H    -0.127388    2.879150    0.846120
| 27> H     1.743693    0.891876    1.548447
| 28> H     0.853873   -0.618659    1.466816
| 29> *
| 30>
| 31>                          ****END OF INPUT****

CARTESIAN COORDINATES (ANGSTROEM)
---------------------------------
  C     -3.674067   -0.853951   -0.083418
  C     -2.544884   -1.650937    0.067775
  C     -3.509148    0.522321   -0.154373
  C     -1.279010   -1.090719    0.146626
  C     -2.248330    1.098967   -0.065846
  C     -1.102333    0.302544    0.091353
  C      0.314133    2.318038    0.012392
  C      1.235426    0.205711    0.866884
  C      2.316851   -0.367967   -0.044102
  N      0.170829    0.879498    0.166684
  F      3.284492   -0.950410    0.698778
  F      1.843375   -1.300588   -0.890331
  F      2.908950    0.584737   -0.794752
  H     -4.657463   -1.297035   -0.151204
  H     -2.643137   -2.727701    0.109315
  H     -4.370757    1.166188   -0.272823
  H     -0.425739   -1.747886    0.213334
  H     -2.166729    2.173555   -0.110469
  H     -0.155118    2.650083   -0.912697
  H      1.369780    2.566254   -0.050624
  H     -0.127388    2.879150    0.846120
  H      1.743693    0.891876    1.548447
  H      0.853873   -0.618659    1.466816

 Total Charge           Charge          ....    0
 Multiplicity           Mult            ....    1
 Number of Electrons    NEL             ....   98
 Basis Dimension        Dim             .... 1500

ORBITAL ENERGIES
----------------

  NO   OCC          E(Eh)            E(eV)
   0   2.0000     -26.334423      -716.5961
   1   2.0000     -26.333356      -716.5670
   2   2.0000     -26.333257      -716.5644
   3   2.0000     -15.586031      -424.1175
   4   2.0000     -11.502870      -313.0090
   5   2.0000     -11.299007      -307.4616
   6   2.0000     -11.287215      -307.1407
   7   2.0000     -11.266192      -306.5687
   8   2.0000     -11.237361      -305.7841
   9   2.0000     -11.237244      -305.7810
  10   2.0000     -11.227879      -305.5261
  11   2.0000     -11.227683      -305.5208
  12   2.0000     -11.222382      -305.3765
  13   2.0000      -1.722600       -46.8743
  14   2.0000      -1.629678       -44.3458
  15   2.0000      -1.629128       -44.3308
  16   2.0000      -1.277400       -34.7598
  17   2.0000      -1.146303       -31.1925
  18   2.0000      -1.060077       -28.8462
  19   2.0000      -1.021265       -27.7900
  20   2.0000      -1.008805       -27.4510
  21   2.0000      -0.944693       -25.7064
  22   2.0000      -0.904904       -24.6237
  23   2.0000      -0.831625       -22.6297
  24   2.0000      -0.822597       -22.3840
  25   2.0000      -0.819366       -22.2961
  26   2.0000      -0.808860       -22.0102
  27   2.0000      -0.773164       -21.0388
  28   2.0000      -0.728302       -19.8181
  29   2.0000      -0.710063       -19.3218
  30   2.0000      -0.704005       -19.1569
  31   2.0000      -0.670772       -18.2526
  32   2.0000      -0.665192       -18.1008
  33   2.0000      -0.659840       -17.9552
  34   2.0000      -0.653116       -17.7722
  35   2.0000      -0.647416       -17.6171
  36   2.0000      -0.634001       -17.2521
  37   2.0000      -0.625695       -17.0260
  38   2.0000      -0.597348       -16.2547
  39   2.0000      -0.593087       -16.1387
  40   2.0000      -0.570292       -15.5184
  41   2.0000      -0.564313       -15.3557
  42   2.0000      -0.547216       -14.8905
  43   2.0000      -0.514203       -13.9922
  44   2.0000      -0.512698       -13.9512
  45   2.0000      -0.490915       -13.3585
  46   2.0000      -0.425013       -11.5652
  47   2.0000      -0.342149        -9.3103
  48   2.0000      -0.297714        -8.1012
  49   0.0000       0.022220         0.6046
  50   0.0000       0.026794         0.7291
  51   0.0000       0.028430         0.7736
  52   0.0000       0.035690         0.9712
  53   0.0000       0.039582         1.0771

MULLIKEN ATOMIC CHARGES
-----------------------
   0 C :   -0.422039
   1 C :   -0.390790
   2 C :   -0.482746
   3 C :   -0.343817
   4 C :   -0.378698
   5 C :    0.789175
   6 C :   -0.901128
   7 C :   -0.639921
   8 C :    2.030026
   9 N :   -0.070591
  10 F :   -0.696383
  11 F :   -0.687063
  12 F :   -0.673056
  13 H :    0.326356
  14 H :    0.223127
  15 H :    0.217423
  16 H :    0.279147
  17 H :    0.200554
  18 H :    0.274274
  19 H :    0.332916
  20 H :    0.279312
  21 H :    0.327054
  22 H :    0.406869
Sum of atomic charges:    0.0000000

LOEWDIN ATOMIC CHARGES
----------------------
   0 C :    0.338682
   1 C :    0.344687
   2 C :    0.342356
   3 C :    0.342653
   4 C :    0.344752
   5 C :   -0.217359
   6 C :    0.761701
   7 C :    0.246833
   8 C :   -2.074117
   9 N :    0.459968
  10 F :    0.761043
  11 F :    0.779153
  12 F :    0.769068
  13 H :   -0.330682
  14 H :   -0.318622
  15 H :   -0.319735
  16 H :   -0.366001
  17 H :   -0.364193
  18 H :   -0.289406
  19 H :   -0.308612
  20 H :   -0.258221
  21 H :   -0.302597
  22 H :   -0.341350

  Mayer bond orders larger than 0.100000
B(  0-C ,  1-C ) :   1.2142 B(  0-C ,  2-C ) :   1.2296 B(  0-C , 13-H ) :   1.0140
B(  0-C , 15-H ) :  -0.1096 B(  1-C ,  3-C ) :   1.1931 B(  1-C ,  4-C ) :   0.1288
B(  1-C ,  5-C ) :  -0.3660 B(  1-C , 14-H ) :   1.1762 B(  2-C ,  3-C ) :   0.1342
B(  2-C ,  4-C ) :   1.2121 B(  2-C ,  5-C ) :  -0.4274 B(  2-C , 15-H ) :   1.1955
B(  3-C ,  5-C ) :   1.1330 B(  3-C ,  9-N ) :  -0.1045 B(  3-C , 14-H ) :  -0.1536
B(  3-C , 16-H ) :   0.9846 B(  4-C ,  5-C ) :   1.0776 B(  4-C ,  9-N ) :  -0.1222
B(  4-C , 15-H ) :  -0.1581 B(  4-C , 17-H ) :   1.0384 B(  5-C ,  9-N ) :   0.7921
B(  6-C ,  9-N ) :   0.8401 B(  6-C , 18-H ) :   0.9930 B(  6-C , 19-H ) :   0.8960
B(  6-C , 20-H ) :   0.9973 B(  7-C ,  8-C ) :   1.1576 B(  7-C ,  9-N ) :   0.6958
B(  7-C , 11-F ) :   0.1073 B(  7-C , 21-H ) :   0.8533 B(  7-C , 22-H ) :   0.8190
B(  8-C ,  9-N ) :  -0.1279 B(  8-C , 10-F ) :   0.3378 B(  8-C , 11-F ) :   0.3699
B(  8-C , 12-F ) :   0.3684

MP2 TOTAL ENERGY:     -702.308783782 Eh
FINAL SINGLE POINT ENERGY      -702.308783782394

DIPOLE MOMENT
-------------
                                X             Y             Z
Electronic contribution:     17.59776      -6.73735      -2.95595
Nuclear contribution   :    -18.01310       7.38089       3.56200
                        -----------------------------------------
Total Dipole Moment    :     -0.41534       0.64354       0.60605
                        -----------------------------------------
Magnitude (a.u.)       :      0.97671
Magnitude (Debye)      :      2.48259

Rotational constants in cm-1:     0.055820     0.015222     0.012929
Rotational constants in MHz :  1673.444677   456.334065   387.604077

                             ****ORCA TERMINATED NORMALLY****
TOTAL RUN TIME: 0 days 2 hours 13 minutes 48 seconds 113 msec
