                         Program Version 5.0.4 -  RELEASE  -
|  1> !ri-mp2 aug-cc-pvqz aug-cc-pvqz/c tightscf
|  2> %pal nprocs 16 end
|  3>
|  4> * xyz 0 1
|  5> C     -1.505345    0.854261    0.000000
|  6> C      2.618558   -2.127663    0.000000
|  7> C      0.000000    0.771586    0.000000
|  8> C      2.068350   -0.702640    0.000000
|  9> C      0.540531   -0.653982    0.000000
| 10> O     -2.272406   -0.073756    0.000000
| 11> O     -1.931154    2.143966    0.000000
| 12> H      3.709158   -2.132876    0.000000
| 13> H      2.283560   -2.679277    0.880542
| 14> H      2.283560   -2.679277   -0.880542
| 15> H      0.357515    1.331075   -0.869047
| 16> H      0.357515    1.331075    0.869047
| 17> H      2.448656   -0.165278   -0.874152
| 18> H      2.448656   -0.165278    0.874152
| 19> H      0.153343   -1.186524   -0.871351
| 20> H      0.153343   -1.186524    0.871351
| 21> H     -2.899395    2.121831    0.000000
| 22> *
| 23>
| 24>                          ****END OF INPUT****

CARTESIAN COORDINATES (ANGSTROEM)
---------------------------------
  C     -1.505345    0.854261    0.000000
  C      2.618558   -2.127663    0.000000
  C      0.000000    0.771586    0.000000
  C      2.068350   -0.702640    0.000000
  C      0.540531   -0.653982    0.000000
  O     -2.272406   -0.073756    0.000000
  O     -1.931154    2.143966    0.000000
  H      3.709158   -2.132876    0.000000
  H      2.283560   -2.679277    0.880542
  H      2.283560   -2.679277   -0.880542
  H      0.357515    1.331075   -0.869047
  H      0.357515    1.331075    0.869047
  H      2.448656   -0.165278   -0.874152
  H      2.448656   -0.165278    0.874152
  H      0.153343   -1.186524   -0.871351
  H      0.153343   -1.186524    0.871351
  H     -2.899395    2.121831    0.000000

 Total Charge           Charge          ....    0
 Multiplicity           Mult            ....    1
 Number of Electrons    NEL             ....   56
 Basis Dimension        Dim             .... 1020

ORBITAL ENERGIES
----------------

  NO   OCC          E(Eh)            E(eV)
   0   2.0000     -20.608116      -560.7753
   1   2.0000     -20.547066      -559.1141
   2   2.0000     -11.384032      -309.7753
   3   2.0000     -11.245623      -306.0090
   4   2.0000     -11.225181      -305.4527
   5   2.0000     -11.224269      -305.4279
   6   2.0000     -11.214157      -305.1527
   7   2.0000      -1.462434       -39.7949
   8   2.0000      -1.360314       -37.0160
   9   2.0000      -1.092491       -29.7282
  10   2.0000      -1.019130       -27.7319
  11   2.0000      -0.912626       -24.8338
  12   2.0000      -0.819562       -22.3014
  13   2.0000      -0.786648       -21.4058
  14   2.0000      -0.703005       -19.1297
  15   2.0000      -0.683829       -18.6079
  16   2.0000      -0.668641       -18.1947
  17   2.0000      -0.627150       -17.0656
  18   2.0000      -0.593185       -16.1414
  19   2.0000      -0.587116       -15.9762
  20   2.0000      -0.572840       -15.5878
  21   2.0000      -0.539161       -14.6713
  22   2.0000      -0.508867       -13.8470
  23   2.0000      -0.485427       -13.2091
  24   2.0000      -0.484484       -13.1835
  25   2.0000      -0.479578       -13.0500
  26   2.0000      -0.472510       -12.8577
  27   2.0000      -0.450444       -12.2572
  28   0.0000       0.024558         0.6683
  29   0.0000       0.028691         0.7807
  30   0.0000       0.034691         0.9440
  31   0.0000       0.035704         0.9715
  32   0.0000       0.043310         1.1785

MULLIKEN ATOMIC CHARGES
-----------------------
   0 C :    1.176607
   1 C :   -0.890350
   2 C :   -0.633659
   3 C :   -0.431517
   4 C :   -0.107500
   5 O :   -0.817087
   6 O :   -0.734630
   7 H :    0.257018
   8 H :    0.228707
   9 H :    0.228707
  10 H :    0.232355
  11 H :    0.232352
  12 H :    0.232710
  13 H :    0.232709
  14 H :    0.230566
  15 H :    0.230562
  16 H :    0.332449
Sum of atomic charges:   -0.0000000

LOEWDIN ATOMIC CHARGES
----------------------
   0 C :   -1.004174
   1 C :    0.929769
   2 C :    0.456594
   3 C :    0.507461
   4 C :    0.480827
   5 O :    0.716291
   6 O :    1.250236
   7 H :   -0.283661
   8 H :   -0.283699
   9 H :   -0.283699
  10 H :   -0.285086
  11 H :   -0.285086
  12 H :   -0.272946
  13 H :   -0.272946
  14 H :   -0.274888
  15 H :   -0.274888
  16 H :   -0.820107

  Mayer bond orders larger than 0.100000
B(  0-C ,  2-C ) :   1.2992 B(  0-C ,  4-C ) :  -0.2557 B(  0-C ,  5-O ) :   1.3259
B(  0-C ,  6-O ) :   0.7367 B(  1-C ,  3-C ) :   1.0109 B(  1-C ,  7-H ) :   1.0181
B(  1-C ,  8-H ) :   0.9521 B(  1-C ,  9-H ) :   0.9521 B(  2-C ,  4-C ) :   0.9400
B(  2-C ,  5-O ) :   0.1864 B(  2-C ,  6-O ) :   0.1107 B(  2-C , 10-H ) :   0.8914
B(  2-C , 11-H ) :   0.8914 B(  3-C ,  4-C ) :   0.9564 B(  3-C , 12-H ) :   0.8779
B(  3-C , 13-H ) :   0.8779 B(  4-C , 14-H ) :   0.8779 B(  4-C , 15-H ) :   0.8779
B(  6-O , 16-H ) :   0.9283

MP2 TOTAL ENERGY:     -346.496275612 Eh
FINAL SINGLE POINT ENERGY      -346.496275612412

DIPOLE MOMENT
-------------
                                X             Y             Z
Electronic contribution:    -11.00385       6.00338       0.00000
Nuclear contribution   :     11.56380      -5.53846       0.00000
                        -----------------------------------------
Total Dipole Moment    :      0.55995       0.46492       0.00000
                        -----------------------------------------
Magnitude (a.u.)       :      0.72780
Magnitude (Debye)      :      1.84992

Rotational constants in cm-1:     0.267057     0.034777     0.031478
Rotational constants in MHz :  8006.176225  1042.593307   943.676572

                             ****ORCA TERMINATED NORMALLY****
TOTAL RUN TIME: 0 days 0 hours 44 minutes 51 seconds 365 msec
