                         Program Version 5.0.4 -  RELEASE  -
|  1> !ri-mp2 aug-cc-pvqz aug-cc-pvqz/c tightscf
|  2> %pal nprocs 16 end
|  3>
|  4> * xyz 0 1
|  5> C     -1.071395   -1.776836    0.000000
|  6> C      1.414442    2.421868    0.000000
|  7> C      1.409577    0.893657    0.000000
|  8> C      0.000000    0.338803    0.000000
|  9> O     -2.169335   -1.290400    0.000000
| 10> O      0.086608   -1.109139    0.000000
| 11> H     -0.866386   -2.854791    0.000000
| 12> H      0.909790    2.821701    0.881287
| 13> H      2.434143    2.805918    0.000000
| 14> H      0.909790    2.821701   -0.881287
| 15> H      1.940343    0.515991    0.876316
| 16> H      1.940343    0.515991   -0.876316
| 17> H     -0.560976    0.652422    0.881239
| 18> H     -0.560976    0.652422   -0.881239
| 19> *
| 20>
| 21>                          ****END OF INPUT****

CARTESIAN COORDINATES (ANGSTROEM)
---------------------------------
  C     -1.071395   -1.776836    0.000000
  C      1.414442    2.421868    0.000000
  C      1.409577    0.893657    0.000000
  C      0.000000    0.338803    0.000000
  O     -2.169335   -1.290400    0.000000
  O      0.086608   -1.109139    0.000000
  H     -0.866386   -2.854791    0.000000
  H      0.909790    2.821701    0.881287
  H      2.434143    2.805918    0.000000
  H      0.909790    2.821701   -0.881287
  H      1.940343    0.515991    0.876316
  H      1.940343    0.515991   -0.876316
  H     -0.560976    0.652422    0.881239
  H     -0.560976    0.652422   -0.881239

 Total Charge           Charge          ....    0
 Multiplicity           Mult            ....    1
 Number of Electrons    NEL             ....   48
 Basis Dimension        Dim             ....  848

ORBITAL ENERGIES
----------------

  NO   OCC          E(Eh)            E(eV)
   0   2.0000     -20.606625      -560.7348
   1   2.0000     -20.551412      -559.2323
   2   2.0000     -11.380192      -309.6708
   3   2.0000     -11.291279      -307.2513
   4   2.0000     -11.232512      -305.6522
   5   2.0000     -11.224638      -305.4379
   6   2.0000      -1.462857       -39.8064
   7   2.0000      -1.366666       -37.1889
   8   2.0000      -1.076437       -29.2913
   9   2.0000      -0.960613       -26.1396
  10   2.0000      -0.845113       -22.9967
  11   2.0000      -0.806328       -21.9413
  12   2.0000      -0.724296       -19.7091
  13   2.0000      -0.689077       -18.7507
  14   2.0000      -0.680074       -18.5058
  15   2.0000      -0.615379       -16.7453
  16   2.0000      -0.602454       -16.3936
  17   2.0000      -0.546663       -14.8754
  18   2.0000      -0.545239       -14.8367
  19   2.0000      -0.524463       -14.2714
  20   2.0000      -0.495963       -13.4958
  21   2.0000      -0.492913       -13.4128
  22   2.0000      -0.464266       -12.6333
  23   2.0000      -0.459601       -12.5064
  24   0.0000       0.024027         0.6538
  25   0.0000       0.030269         0.8237
  26   0.0000       0.034976         0.9517
  27   0.0000       0.035808         0.9744
  28   0.0000       0.047458         1.2914

MULLIKEN ATOMIC CHARGES
-----------------------
   0 C :    0.259924
   1 C :   -0.858506
   2 C :   -0.466542
   3 C :    0.098763
   4 O :   -0.706441
   5 O :   -0.681553
   6 H :    0.566460
   7 H :    0.230936
   8 H :    0.274649
   9 H :    0.230936
  10 H :    0.268102
  11 H :    0.268102
  12 H :    0.257585
  13 H :    0.257585
Sum of atomic charges:    0.0000000

LOEWDIN ATOMIC CHARGES
----------------------
   0 C :   -0.663015
   1 C :    0.923410
   2 C :    0.489046
   3 C :    0.150393
   4 O :    0.671422
   5 O :    0.844394
   6 H :   -0.401302
   7 H :   -0.283250
   8 H :   -0.283534
   9 H :   -0.283250
  10 H :   -0.280038
  11 H :   -0.280038
  12 H :   -0.302118
  13 H :   -0.302118

  Mayer bond orders larger than 0.100000
B(  0-C ,  4-O ) :   1.7109 B(  0-C ,  5-O ) :   1.1213 B(  0-C ,  6-H ) :   0.6576
B(  1-C ,  2-C ) :   1.0102 B(  1-C ,  7-H ) :   0.9381 B(  1-C ,  8-H ) :   0.9885
B(  1-C ,  9-H ) :   0.9381 B(  2-C ,  3-C ) :   1.0001 B(  2-C , 10-H ) :   0.8583
B(  2-C , 11-H ) :   0.8583 B(  3-C ,  5-O ) :   0.6413 B(  3-C , 12-H ) :   0.8852
B(  3-C , 13-H ) :   0.8852

MP2 TOTAL ENERGY:     -307.235760482 Eh
FINAL SINGLE POINT ENERGY      -307.235760481704

DIPOLE MOMENT
-------------
                                X             Y             Z
Electronic contribution:     -5.32653      -7.84455       0.00000
Nuclear contribution   :      6.25489       8.07643       0.00000
                        -----------------------------------------
Total Dipole Moment    :      0.92836       0.23188       0.00000
                        -----------------------------------------
Magnitude (a.u.)       :      0.95688
Magnitude (Debye)      :      2.43220

Rotational constants in cm-1:     0.410370     0.052657     0.047910
Rotational constants in MHz : 12302.594971  1578.624922  1436.311880

                             ****ORCA TERMINATED NORMALLY****
TOTAL RUN TIME: 0 days 0 hours 25 minutes 48 seconds 687 msec
