                         Program Version 5.0.4 -  RELEASE  -
|  1> !ri-mp2 aug-cc-pvqz aug-cc-pvqz/c tightscf
|  2> %pal nprocs 16 end
|  3> %maxcore 3800
|  4>
|  5> * xyz 0 1
|  6> C     -0.060027   -2.648826    0.000000
|  7> C     -0.034335   -1.937551    1.193561
|  8> C     -0.034335   -1.937551   -1.193561
|  9> C      0.022378   -0.551433    1.203052
| 10> C      0.022378   -0.551433   -1.203052
| 11> C      0.066946    0.180520    0.000000
| 12> C     -0.034335    2.290729    1.239444
| 13> C     -0.034335    2.290729   -1.239444
| 14> N      0.163911    1.564753    0.000000
| 15> H     -0.106296   -3.728607    0.000000
| 16> H     -0.063515   -2.465030    2.138258
| 17> H     -0.063515   -2.465030   -2.138258
| 18> H      0.033546   -0.040931    2.153087
| 19> H      0.033546   -0.040931   -2.153087
| 20> H     -1.037990    2.148981    1.661823
| 21> H      0.110493    3.352219    1.055557
| 22> H      0.693922    1.986879    1.992824
| 23> H      0.110493    3.352219   -1.055557
| 24> H     -1.037990    2.148981   -1.661823
| 25> H      0.693922    1.986879   -1.992824
| 26> *
| 27>
| 28>                          ****END OF INPUT****

CARTESIAN COORDINATES (ANGSTROEM)
---------------------------------
  C     -0.060027   -2.648826    0.000000
  C     -0.034335   -1.937551    1.193561
  C     -0.034335   -1.937551   -1.193561
  C      0.022378   -0.551433    1.203052
  C      0.022378   -0.551433   -1.203052
  C      0.066946    0.180520    0.000000
  C     -0.034335    2.290729    1.239444
  C     -0.034335    2.290729   -1.239444
  N      0.163911    1.564753    0.000000
  H     -0.106296   -3.728607    0.000000
  H     -0.063515   -2.465030    2.138258
  H     -0.063515   -2.465030   -2.138258
  H      0.033546   -0.040931    2.153087
  H      0.033546   -0.040931   -2.153087
  H     -1.037990    2.148981    1.661823
  H      0.110493    3.352219    1.055557
  H      0.693922    1.986879    1.992824
  H      0.110493    3.352219   -1.055557
  H     -1.037990    2.148981   -1.661823
  H      0.693922    1.986879   -1.992824

 Total Charge           Charge          ....    0
 Multiplicity           Mult            ....    1
 Number of Electrons    NEL             ....   66
 Basis Dimension        Dim             .... 1226

ORBITAL ENERGIES
----------------

  NO   OCC          E(Eh)            E(eV)
   0   2.0000     -15.565626      -423.5622
   1   2.0000     -11.274317      -306.7898
   2   2.0000     -11.254767      -306.2578
   3   2.0000     -11.254748      -306.2573
   4   2.0000     -11.227863      -305.5257
   5   2.0000     -11.227828      -305.5247
   6   2.0000     -11.215914      -305.2005
   7   2.0000     -11.215899      -305.2001
   8   2.0000     -11.211114      -305.0699
   9   2.0000      -1.255501       -34.1639
  10   2.0000      -1.131701       -30.7952
  11   2.0000      -1.011135       -27.5144
  12   2.0000      -1.005420       -27.3589
  13   2.0000      -0.967996       -26.3405
  14   2.0000      -0.891268       -24.2526
  15   2.0000      -0.816512       -22.2184
  16   2.0000      -0.783296       -21.3146
  17   2.0000      -0.709867       -19.3165
  18   2.0000      -0.648384       -17.6434
  19   2.0000      -0.646746       -17.5989
  20   2.0000      -0.638015       -17.3613
  21   2.0000      -0.617119       -16.7927
  22   2.0000      -0.582268       -15.8443
  23   2.0000      -0.574783       -15.6406
  24   2.0000      -0.559337       -15.2203
  25   2.0000      -0.546208       -14.8631
  26   2.0000      -0.529715       -14.4143
  27   2.0000      -0.505543       -13.7565
  28   2.0000      -0.498439       -13.5632
  29   2.0000      -0.476286       -12.9604
  30   2.0000      -0.406758       -11.0685
  31   2.0000      -0.332513        -9.0481
  32   2.0000      -0.279454        -7.6043
  33   0.0000       0.023654         0.6437
  34   0.0000       0.028811         0.7840
  35   0.0000       0.029096         0.7918
  36   0.0000       0.038768         1.0549
  37   0.0000       0.039634         1.0785

MULLIKEN ATOMIC CHARGES
-----------------------
   0 C :   -0.390065
   1 C :   -0.406843
   2 C :   -0.406873
   3 C :   -0.353766
   4 C :   -0.353700
   5 C :    0.838673
   6 C :   -0.878115
   7 C :   -0.878083
   8 N :   -0.203217
   9 H :    0.331296
  10 H :    0.208219
  11 H :    0.208189
  12 H :    0.256187
  13 H :    0.256232
  14 H :    0.314089
  15 H :    0.340563
  16 H :    0.231285
  17 H :    0.340580
  18 H :    0.314063
  19 H :    0.231286
Sum of atomic charges:   -0.0000000

LOEWDIN ATOMIC CHARGES
----------------------
   0 C :    0.332234
   1 C :    0.335455
   2 C :    0.335455
   3 C :    0.341563
   4 C :    0.341563
   5 C :   -0.228837
   6 C :    0.759843
   7 C :    0.759843
   8 N :    0.466289
   9 H :   -0.334293
  10 H :   -0.321628
  11 H :   -0.321628
  12 H :   -0.366782
  13 H :   -0.366782
  14 H :   -0.258071
  15 H :   -0.309923
  16 H :   -0.298153
  17 H :   -0.309923
  18 H :   -0.258071
  19 H :   -0.298153

  Mayer bond orders larger than 0.100000
B(  0-C ,  1-C ) :   1.2290 B(  0-C ,  2-C ) :   1.2289 B(  0-C ,  9-H ) :   1.0027
B(  1-C ,  3-C ) :   1.2171 B(  1-C ,  4-C ) :   0.1424 B(  1-C ,  5-C ) :  -0.3791
B(  1-C , 10-H ) :   1.1869 B(  2-C ,  3-C ) :   0.1423 B(  2-C ,  4-C ) :   1.2170
B(  2-C ,  5-C ) :  -0.3791 B(  2-C , 11-H ) :   1.1870 B(  3-C ,  5-C ) :   1.1151
B(  3-C ,  8-N ) :  -0.1365 B(  3-C , 10-H ) :  -0.1490 B(  3-C , 12-H ) :   0.9858
B(  4-C ,  5-C ) :   1.1152 B(  4-C ,  8-N ) :  -0.1364 B(  4-C , 11-H ) :  -0.1490
B(  4-C , 13-H ) :   0.9857 B(  5-C ,  8-N ) :   0.7791 B(  6-C ,  8-N ) :   0.8649
B(  6-C , 14-H ) :   0.9229 B(  6-C , 15-H ) :   0.8881 B(  6-C , 16-H ) :   1.0207
B(  7-C ,  8-N ) :   0.8649 B(  7-C , 17-H ) :   0.8880 B(  7-C , 18-H ) :   0.9229
B(  7-C , 19-H ) :   1.0207

MP2 TOTAL ENERGY:     -365.547726725 Eh
FINAL SINGLE POINT ENERGY      -365.547726725206

DIPOLE MOMENT
-------------
                                X             Y             Z
Electronic contribution:      0.56012      -5.69981       0.00000
Nuclear contribution   :     -0.64688       6.38755       0.00000
                        -----------------------------------------
Total Dipole Moment    :     -0.08675       0.68774       0.00000
                        -----------------------------------------
Magnitude (a.u.)       :      0.69319
Magnitude (Debye)      :      1.76194

Rotational constants in cm-1:     0.117111     0.040907     0.030723
Rotational constants in MHz :  3510.897982  1226.352844   921.040776

                             ****ORCA TERMINATED NORMALLY****
TOTAL RUN TIME: 0 days 1 hours 21 minutes 35 seconds 806 msec
