                         Program Version 5.0.4 -  RELEASE  -
|  1> !ri-mp2 aug-cc-pvqz aug-cc-pvqz/c tightscf
|  2> %pal nprocs 16 end
|  3>
|  4> * xyz 0 1
|  5> C      2.348792   -0.536780    0.248659
|  6> C     -2.054949   -0.747002    0.633612
|  7> N      0.953152   -0.827439   -0.095931
|  8> N     -1.433378   -0.277244   -0.614256
|  9> O      0.101328    1.411281    0.730744
| 10> S      0.030842    0.587441   -0.500901
| 11> H      2.820782   -1.466819    0.562554
| 12> H      2.364292    0.153252    1.088342
| 13> H      2.932278   -0.107281   -0.573544
| 14> H     -2.298120    0.067754    1.317861
| 15> H     -1.373670   -1.430882    1.131354
| 16> H     -2.964289   -1.286453    0.373636
| 17> H      0.877511   -1.467415   -0.879936
| 18> H     -2.064357    0.284026   -1.174130
| 19> *
| 20>
| 21>                          ****END OF INPUT****

CARTESIAN COORDINATES (ANGSTROEM)
---------------------------------
  C      2.348792   -0.536780    0.248659
  C     -2.054949   -0.747002    0.633612
  N      0.953152   -0.827439   -0.095931
  N     -1.433378   -0.277244   -0.614256
  O      0.101328    1.411281    0.730744
  S      0.030842    0.587441   -0.500901
  H      2.820782   -1.466819    0.562554
  H      2.364292    0.153252    1.088342
  H      2.932278   -0.107281   -0.573544
  H     -2.298120    0.067754    1.317861
  H     -1.373670   -1.430882    1.131354
  H     -2.964289   -1.286453    0.373636
  H      0.877511   -1.467415   -0.879936
  H     -2.064357    0.284026   -1.174130

 Total Charge           Charge          ....    0
 Multiplicity           Mult            ....    1
 Number of Electrons    NEL             ....   58
 Basis Dimension        Dim             ....  852

ORBITAL ENERGIES
----------------

  NO   OCC          E(Eh)            E(eV)
   0   2.0000     -92.108766     -2506.4070
   1   2.0000     -20.515775      -558.2626
   2   2.0000     -15.587682      -424.1624
   3   2.0000     -15.580678      -423.9718
   4   2.0000     -11.256505      -306.3051
   5   2.0000     -11.256148      -306.2953
   6   2.0000      -9.088191      -247.3022
   7   2.0000      -6.770494      -184.2345
   8   2.0000      -6.770059      -184.2227
   9   2.0000      -6.768403      -184.1776
  10   2.0000      -1.367620       -37.2148
  11   2.0000      -1.226205       -33.3667
  12   2.0000      -1.190794       -32.4031
  13   2.0000      -0.965370       -26.2691
  14   2.0000      -0.915997       -24.9255
  15   2.0000      -0.824937       -22.4477
  16   2.0000      -0.694088       -18.8871
  17   2.0000      -0.681935       -18.5564
  18   2.0000      -0.639587       -17.4041
  19   2.0000      -0.614679       -16.7263
  20   2.0000      -0.601827       -16.3765
  21   2.0000      -0.578840       -15.7510
  22   2.0000      -0.546615       -14.8742
  23   2.0000      -0.545207       -14.8358
  24   2.0000      -0.534881       -14.5549
  25   2.0000      -0.461513       -12.5584
  26   2.0000      -0.442224       -12.0335
  27   2.0000      -0.416342       -11.3292
  28   2.0000      -0.367126        -9.9900
  29   0.0000       0.022888         0.6228
  30   0.0000       0.029503         0.8028
  31   0.0000       0.034980         0.9519
  32   0.0000       0.040710         1.1078
  33   0.0000       0.047045         1.2802

MULLIKEN ATOMIC CHARGES
-----------------------
   0 C :   -0.837552
   1 C :   -0.861137
   2 N :   -0.480723
   3 N :   -0.562633
   4 O :   -1.156012
   5 S :    1.469776
   6 H :    0.356803
   7 H :    0.320417
   8 H :    0.283512
   9 H :    0.298119
  10 H :    0.316793
  11 H :    0.387175
  12 H :    0.231185
  13 H :    0.234275
Sum of atomic charges:    0.0000000

LOEWDIN ATOMIC CHARGES
----------------------
   0 C :    0.678627
   1 C :    0.696161
   2 N :    0.618848
   3 N :    0.602818
   4 O :    0.116566
   5 S :    0.426600
   6 H :   -0.308987
   7 H :   -0.347399
   8 H :   -0.295992
   9 H :   -0.304668
  10 H :   -0.331517
  11 H :   -0.305961
  12 H :   -0.616613
  13 H :   -0.628484

  Mayer bond orders larger than 0.100000
B(  0-C ,  2-N ) :   0.9393 B(  0-C ,  6-H ) :   0.8952 B(  0-C ,  7-H ) :   0.9019
B(  0-C ,  8-H ) :   0.9360 B(  1-C ,  3-N ) :   0.9966 B(  1-C ,  9-H ) :   0.9060
B(  1-C , 10-H ) :   0.8935 B(  1-C , 11-H ) :   0.8668 B(  2-N ,  5-S ) :   0.8977
B(  2-N , 12-H ) :   0.9648 B(  3-N ,  5-S ) :   0.9241 B(  3-N , 13-H ) :   0.9397
B(  4-O ,  5-S ) :   1.2763

MP2 TOTAL ENERGY:     -663.071015201 Eh
FINAL SINGLE POINT ENERGY      -663.071015200898

DIPOLE MOMENT
-------------
                                X             Y             Z
Electronic contribution:     -0.48602       4.33543      -2.72369
Nuclear contribution   :      0.29433      -5.29356       1.88224
                        -----------------------------------------
Total Dipole Moment    :     -0.19169      -0.95814      -0.84146
                        -----------------------------------------
Magnitude (a.u.)       :      1.28951
Magnitude (Debye)      :      3.27766

Rotational constants in cm-1:     0.158416     0.071186     0.061536
Rotational constants in MHz :  4749.199398  2134.108071  1844.798801

                             ****ORCA TERMINATED NORMALLY****
TOTAL RUN TIME: 0 days 0 hours 19 minutes 16 seconds 66 msec
