                         Program Version 5.0.4 -  RELEASE  -
|  1> !ri-mp2 aug-cc-pvqz aug-cc-pvqz/c tightscf
|  2> %pal nprocs 16 end
|  3> %maxcore 3800
|  4>
|  5> * xyz 0 1
|  6> C    -1.325488   -1.023014   -0.620671
|  7> C    -1.153772    0.908207    0.754322
|  8> C    -3.123935    0.272789   -0.162363
|  9> C    -0.530909   -0.169977    0.137241
| 10> C     1.986994    1.737827   -1.056432
| 11> N    -2.628272   -0.802402   -0.775809
| 12> N    -2.457181    1.136617    0.601107
| 13> N     1.994174    0.281587   -0.935689
| 14> O     1.635439    0.218540    1.535945
| 15> O     1.440056   -1.889346    0.122330
| 16> S     1.229691   -0.470095    0.327322
| 17> H    -0.905378   -1.902771   -1.092500
| 18> H    -0.596738    1.583105    1.391696
| 19> H    -4.183013    0.459324   -0.293879
| 20> H     1.020179    2.141933   -1.369626
| 21> H     2.740545    2.019831   -1.789059
| 22> H     2.264660    2.168978   -0.098408
| 23> H     1.902340   -0.248049   -1.791428
| 24> *
| 25>
| 26>                          ****END OF INPUT****

CARTESIAN COORDINATES (ANGSTROEM)
---------------------------------
  C     -1.325488   -1.023014   -0.620671
  C     -1.153772    0.908207    0.754322
  C     -3.123935    0.272789   -0.162363
  C     -0.530909   -0.169977    0.137241
  C      1.986994    1.737827   -1.056432
  N     -2.628272   -0.802402   -0.775809
  N     -2.457181    1.136617    0.601107
  N      1.994174    0.281587   -0.935689
  O      1.635439    0.218540    1.535945
  O      1.440056   -1.889346    0.122330
  S      1.229691   -0.470095    0.327322
  H     -0.905378   -1.902771   -1.092500
  H     -0.596738    1.583105    1.391696
  H     -4.183013    0.459324   -0.293879
  H      1.020179    2.141933   -1.369626
  H      2.740545    2.019831   -1.789059
  H      2.264660    2.168978   -0.098408
  H      1.902340   -0.248049   -1.791428

 Total Charge           Charge          ....    0
 Multiplicity           Mult            ....    1
 Number of Electrons    NEL             ....   90
 Basis Dimension        Dim             .... 1206

ORBITAL ENERGIES
----------------

  NO   OCC          E(Eh)            E(eV)
   0   2.0000     -92.211913     -2509.2137
   1   2.0000     -20.560310      -559.4745
   2   2.0000     -20.560280      -559.4737
   3   2.0000     -15.613938      -424.8769
   4   2.0000     -15.596363      -424.3986
   5   2.0000     -15.596148      -424.3928
   6   2.0000     -11.341684      -308.6229
   7   2.0000     -11.330129      -308.3085
   8   2.0000     -11.329749      -308.2981
   9   2.0000     -11.292001      -307.2710
  10   2.0000     -11.287502      -307.1486
  11   2.0000      -9.176171      -249.6963
  12   2.0000      -6.862116      -186.7277
  13   2.0000      -6.861653      -186.7151
  14   2.0000      -6.861083      -186.6996
  15   2.0000      -1.473828       -40.1049
  16   2.0000      -1.357402       -36.9368
  17   2.0000      -1.342006       -36.5178
  18   2.0000      -1.248539       -33.9745
  19   2.0000      -1.223891       -33.3038
  20   2.0000      -1.116118       -30.3711
  21   2.0000      -0.982642       -26.7391
  22   2.0000      -0.936071       -25.4718
  23   2.0000      -0.926896       -25.2221
  24   2.0000      -0.851607       -23.1734
  25   2.0000      -0.772601       -21.0235
  26   2.0000      -0.747275       -20.3344
  27   2.0000      -0.738486       -20.0952
  28   2.0000      -0.701729       -19.0950
  29   2.0000      -0.685915       -18.6647
  30   2.0000      -0.641464       -17.4551
  31   2.0000      -0.628390       -17.0994
  32   2.0000      -0.622725       -16.9452
  33   2.0000      -0.614108       -16.7107
  34   2.0000      -0.604930       -16.4610
  35   2.0000      -0.580470       -15.7954
  36   2.0000      -0.539890       -14.6912
  37   2.0000      -0.518863       -14.1190
  38   2.0000      -0.516466       -14.0537
  39   2.0000      -0.492469       -13.4008
  40   2.0000      -0.478153       -13.0112
  41   2.0000      -0.450432       -12.2569
  42   2.0000      -0.447145       -12.1674
  43   2.0000      -0.439193       -11.9510
  44   2.0000      -0.404625       -11.0104
  45   0.0000       0.017294         0.4706
  46   0.0000       0.027027         0.7354
  47   0.0000       0.029764         0.8099
  48   0.0000       0.037993         1.0338
  49   0.0000       0.040714         1.1079

MULLIKEN ATOMIC CHARGES
-----------------------
   0 C :   -0.146491
   1 C :    0.057557
   2 C :   -0.306230
   3 C :   -0.218798
   4 C :   -0.917911
   5 N :   -0.636138
   6 N :   -0.679142
   7 N :   -0.615363
   8 O :   -1.289909
   9 O :   -1.359696
  10 S :    3.175872
  11 H :    0.503429
  12 H :    0.500828
  13 H :    0.628948
  14 H :    0.327485
  15 H :    0.410617
  16 H :    0.304553
  17 H :    0.260389
Sum of atomic charges:    0.0000000

LOEWDIN ATOMIC CHARGES
----------------------
   0 C :    0.019076
   1 C :    0.014755
   2 C :   -0.170453
   3 C :   -0.245742
   4 C :    0.739889
   5 N :    0.604987
   6 N :    0.605947
   7 N :    0.684855
   8 O :    0.337555
   9 O :    0.329484
  10 S :   -0.357638
  11 H :   -0.354266
  12 H :   -0.354740
  13 H :   -0.374296
  14 H :   -0.288626
  15 H :   -0.294988
  16 H :   -0.327924
  17 H :   -0.567877

  Mayer bond orders larger than 0.100000
B(  0-C ,  3-C ) :   1.1398 B(  0-C ,  5-N ) :   1.0825 B(  0-C ,  9-O ) :   0.1282
B(  0-C , 11-H ) :   0.7559 B(  1-C ,  3-C ) :   1.0848 B(  1-C ,  6-N ) :   1.0194
B(  1-C , 12-H ) :   0.7800 B(  2-C ,  5-N ) :   1.4366 B(  2-C ,  6-N ) :   1.4609
B(  2-C , 13-H ) :   0.6534 B(  3-C ,  7-N ) :  -0.1170 B(  3-C ,  8-O ) :  -0.2061
B(  3-C ,  9-O ) :  -0.2009 B(  3-C , 10-S ) :   0.8038 B(  4-C ,  7-N ) :   0.9291
B(  4-C , 14-H ) :   0.8813 B(  4-C , 15-H ) :   0.8582 B(  4-C , 16-H ) :   0.9241
B(  5-N , 11-H ) :  -0.1050 B(  6-N , 12-H ) :  -0.1122 B(  7-N , 10-S ) :   0.8046
B(  7-N , 17-H ) :   0.9711 B(  8-O , 10-S ) :   0.9568 B(  9-O , 10-S ) :   0.8001

MP2 TOTAL ENERGY:     -906.424231034 Eh
FINAL SINGLE POINT ENERGY      -906.424231033952

DIPOLE MOMENT
-------------
                                X             Y             Z
Electronic contribution:     -2.48533      -4.97445       3.47199
Nuclear contribution   :      2.18126       6.06475      -4.91267
                        -----------------------------------------
Total Dipole Moment    :     -0.30407       1.09030      -1.44068
                        -----------------------------------------
Magnitude (a.u.)       :      1.83215
Magnitude (Debye)      :      4.65696

Rotational constants in cm-1:     0.060968     0.023842     0.021725
Rotational constants in MHz :  1827.762266   714.767878   651.306795

                             ****ORCA TERMINATED NORMALLY****
TOTAL RUN TIME: 0 days 1 hours 2 minutes 20 seconds 277 msec
