                         Program Version 5.0.4 -  RELEASE  -
|  1> !ri-mp2 aug-cc-pvqz aug-cc-pvqz/c tightscf
|  2> %pal nprocs 16 end
|  3>
|  4> * xyz 0 1
|  5> C     -1.389634    0.299814   -0.198766
|  6> C      1.952053   -0.334792   -0.368307
|  7> N     -0.126016    0.752446    0.062428
|  8> N      0.873407   -0.070871    0.575294
|  9> O     -1.831251   -0.798313    0.032910
| 10> H     -1.989676    1.107143   -0.659469
| 11> H      2.420897    0.574948   -0.769208
| 12> H      1.565322   -0.922739   -1.199271
| 13> H      2.715072   -0.922090    0.141351
| 14> H      0.119098    1.672856   -0.284035
| 15> H      1.213038    0.315233    1.445736
| 16> *
| 17>
| 18>                          ****END OF INPUT****

CARTESIAN COORDINATES (ANGSTROEM)
---------------------------------
  C     -1.389634    0.299814   -0.198766
  C      1.952053   -0.334792   -0.368307
  N     -0.126016    0.752446    0.062428
  N      0.873407   -0.070871    0.575294
  O     -1.831251   -0.798313    0.032910
  H     -1.989676    1.107143   -0.659469
  H      2.420897    0.574948   -0.769208
  H      1.565322   -0.922739   -1.199271
  H      2.715072   -0.922090    0.141351
  H      0.119098    1.672856   -0.284035
  H      1.213038    0.315233    1.445736

 Total Charge           Charge          ....    0
 Multiplicity           Mult            ....    1
 Number of Electrons    NEL             ....   40
 Basis Dimension        Dim             ....  676

ORBITAL ENERGIES
----------------

  NO   OCC          E(Eh)            E(eV)
   0   2.0000     -20.522263      -558.4392
   1   2.0000     -15.617035      -424.9611
   2   2.0000     -15.595933      -424.3869
   3   2.0000     -11.348001      -308.7948
   4   2.0000     -11.259863      -306.3964
   5   2.0000      -1.387857       -37.7655
   6   2.0000      -1.309501       -35.6333
   7   2.0000      -1.115775       -30.3618
   8   2.0000      -0.927121       -25.2282
   9   2.0000      -0.816651       -22.2222
  10   2.0000      -0.758921       -20.6513
  11   2.0000      -0.688909       -18.7462
  12   2.0000      -0.651628       -17.7317
  13   2.0000      -0.612503       -16.6671
  14   2.0000      -0.592945       -16.1349
  15   2.0000      -0.553611       -15.0645
  16   2.0000      -0.548189       -14.9170
  17   2.0000      -0.430364       -11.7108
  18   2.0000      -0.413335       -11.2474
  19   2.0000      -0.405915       -11.0455
  20   0.0000       0.017479         0.4756
  21   0.0000       0.030233         0.8227
  22   0.0000       0.035607         0.9689
  23   0.0000       0.039641         1.0787
  24   0.0000       0.053032         1.4431

MULLIKEN ATOMIC CHARGES
-----------------------
   0 C :    0.293306
   1 C :   -0.807147
   2 N :   -0.403982
   3 N :   -0.227104
   4 O :   -0.739885
   5 H :    0.509066
   6 H :    0.268263
   7 H :    0.292278
   8 H :    0.353759
   9 H :    0.240957
  10 H :    0.220489
Sum of atomic charges:   -0.0000000

LOEWDIN ATOMIC CHARGES
----------------------
   0 C :   -0.460810
   1 C :    0.761453
   2 N :    0.638312
   3 N :    0.714650
   4 O :    0.649207
   5 H :   -0.375997
   6 H :   -0.288085
   7 H :   -0.303448
   8 H :   -0.303903
   9 H :   -0.508945
  10 H :   -0.522434

  Mayer bond orders larger than 0.100000
B(  0-C ,  2-N ) :   1.2608 B(  0-C ,  4-O ) :   1.6344 B(  0-C ,  5-H ) :   0.7422
B(  1-C ,  3-N ) :   0.9665 B(  1-C ,  6-H ) :   0.9288 B(  1-C ,  7-H ) :   0.9194
B(  1-C ,  8-H ) :   0.8985 B(  2-N ,  3-N ) :   0.7259 B(  2-N ,  4-O ) :   0.1060
B(  2-N ,  9-H ) :   0.9658 B(  3-N , 10-H ) :   0.9574

MP2 TOTAL ENERGY:     -264.130738015 Eh
FINAL SINGLE POINT ENERGY      -264.130738015484

DIPOLE MOMENT
-------------
                                X             Y             Z
Electronic contribution:     -4.79350      -0.28977       1.06997
Nuclear contribution   :      6.10376       1.84227      -1.33917
                        -----------------------------------------
Total Dipole Moment    :      1.31027       1.55250      -0.26920
                        -----------------------------------------
Magnitude (a.u.)       :      2.04928
Magnitude (Debye)      :      5.20885

Rotational constants in cm-1:     0.441999     0.101591     0.093072
Rotational constants in MHz : 13250.799287  3045.609840  2790.239884

                             ****ORCA TERMINATED NORMALLY****
TOTAL RUN TIME: 0 days 0 hours 8 minutes 37 seconds 590 msec
