                         Program Version 5.0.4 -  RELEASE  -
|  1> !ri-mp2 aug-cc-pvqz aug-cc-pvqz/c tightscf
|  2> %pal nprocs 16 end
|  3>
|  4> * xyz 0 1
|  5> C      0.975299    0.827111   -0.352809
|  6> C      1.037330   -0.681581   -0.465009
|  7> C      1.707835    0.013482    0.686561
|  8> C     -0.339639    1.518890    0.000186
|  9> C     -0.218086   -1.511099   -0.270848
| 10> C     -1.568408    0.613209   -0.153427
| 11> C     -1.336768   -0.765176    0.466692
| 12> H      1.606840    1.375880   -1.039268
| 13> H      1.707047   -1.069245   -1.223026
| 14> H      2.788502    0.048694    0.705499
| 15> H      1.251515   -0.062096    1.665475
| 16> H     -0.295481    1.889223    1.028594
| 17> H     -0.460026    2.400340   -0.631932
| 18> H     -0.593963   -1.797410   -1.258217
| 19> H      0.025275   -2.442322    0.248361
| 20> H     -2.438162    1.095924    0.297128
| 21> H     -1.797265    0.485618   -1.216378
| 22> H     -2.251524   -1.359759    0.428994
| 23> H     -1.088138   -0.653867    1.526702
| 24> *
| 25>
| 26>                          ****END OF INPUT****

CARTESIAN COORDINATES (ANGSTROEM)
---------------------------------
  C      0.975299    0.827111   -0.352809
  C      1.037330   -0.681581   -0.465009
  C      1.707835    0.013482    0.686561
  C     -0.339639    1.518890    0.000186
  C     -0.218086   -1.511099   -0.270848
  C     -1.568408    0.613209   -0.153427
  C     -1.336768   -0.765176    0.466692
  H      1.606840    1.375880   -1.039268
  H      1.707047   -1.069245   -1.223026
  H      2.788502    0.048694    0.705499
  H      1.251515   -0.062096    1.665475
  H     -0.295481    1.889223    1.028594
  H     -0.460026    2.400340   -0.631932
  H     -0.593963   -1.797410   -1.258217
  H      0.025275   -2.442322    0.248361
  H     -2.438162    1.095924    0.297128
  H     -1.797265    0.485618   -1.216378
  H     -2.251524   -1.359759    0.428994
  H     -1.088138   -0.653867    1.526702

 Total Charge           Charge          ....    0
 Multiplicity           Mult            ....    1
 Number of Electrons    NEL             ....   54
 Basis Dimension        Dim             .... 1112

ORBITAL ENERGIES
----------------

  NO   OCC          E(Eh)            E(eV)
   0   2.0000     -11.220353      -305.3213
   1   2.0000     -11.219386      -305.2950
   2   2.0000     -11.214629      -305.1656
   3   2.0000     -11.214013      -305.1488
   4   2.0000     -11.212607      -305.1105
   5   2.0000     -11.211546      -305.0817
   6   2.0000     -11.211358      -305.0766
   7   2.0000      -1.153709       -31.3940
   8   2.0000      -1.051776       -28.6203
   9   2.0000      -0.998908       -27.1817
  10   2.0000      -0.881416       -23.9846
  11   2.0000      -0.822469       -22.3805
  12   2.0000      -0.787590       -21.4314
  13   2.0000      -0.714786       -19.4503
  14   2.0000      -0.675357       -18.3774
  15   2.0000      -0.614172       -16.7125
  16   2.0000      -0.597603       -16.2616
  17   2.0000      -0.588758       -16.0209
  18   2.0000      -0.572325       -15.5738
  19   2.0000      -0.525546       -14.3008
  20   2.0000      -0.511386       -13.9155
  21   2.0000      -0.491115       -13.3639
  22   2.0000      -0.469030       -12.7630
  23   2.0000      -0.464749       -12.6465
  24   2.0000      -0.437863       -11.9149
  25   2.0000      -0.391844       -10.6626
  26   2.0000      -0.382581       -10.4106
  27   0.0000       0.026337         0.7167
  28   0.0000       0.030248         0.8231
  29   0.0000       0.031731         0.8634
  30   0.0000       0.032922         0.8958
  31   0.0000       0.045343         1.2339

MULLIKEN ATOMIC CHARGES
-----------------------
   0 C :   -0.313546
   1 C :   -0.144184
   2 C :   -0.850646
   3 C :   -0.348918
   4 C :   -0.486815
   5 C :   -0.555036
   6 C :   -0.401136
   7 H :    0.354019
   8 H :    0.406572
   9 H :    0.353014
  10 H :    0.269442
  11 H :    0.155823
  12 H :    0.274249
  13 H :    0.142892
  14 H :    0.242602
  15 H :    0.280533
  16 H :    0.188437
  17 H :    0.244888
  18 H :    0.187811
Sum of atomic charges:   -0.0000000

LOEWDIN ATOMIC CHARGES
----------------------
   0 C :    0.210448
   1 C :    0.198947
   2 C :    0.620885
   3 C :    0.556351
   4 C :    0.546989
   5 C :    0.535722
   6 C :    0.528138
   7 H :   -0.260231
   8 H :   -0.258742
   9 H :   -0.261686
  10 H :   -0.278013
  11 H :   -0.272552
  12 H :   -0.274127
  13 H :   -0.274013
  14 H :   -0.260773
  15 H :   -0.262044
  16 H :   -0.264612
  17 H :   -0.261351
  18 H :   -0.269337

  Mayer bond orders larger than 0.100000
B(  0-C ,  1-C ) :   0.8329 B(  0-C ,  2-C ) :   1.0107 B(  0-C ,  3-C ) :   0.7277
B(  0-C ,  7-H ) :   0.8902 B(  0-C , 12-H ) :  -0.1046 B(  1-C ,  2-C ) :   1.0192
B(  1-C ,  4-C ) :   0.5420 B(  1-C ,  6-C ) :  -0.1279 B(  1-C ,  8-H ) :   0.8113
B(  2-C ,  9-H ) :   0.9065 B(  2-C , 10-H ) :   0.9503 B(  3-C ,  5-C ) :   0.9155
B(  3-C , 11-H ) :   0.9976 B(  3-C , 12-H ) :   0.9955 B(  4-C ,  6-C ) :   0.9051
B(  4-C , 13-H ) :   1.0696 B(  4-C , 14-H ) :   0.9663 B(  5-C ,  6-C ) :   0.8855
B(  5-C , 15-H ) :   0.9185 B(  5-C , 16-H ) :   0.9902 B(  6-C , 17-H ) :   0.9526
B(  6-C , 18-H ) :   0.9475

MP2 TOTAL ENERGY:     -273.415544987 Eh
FINAL SINGLE POINT ENERGY      -273.415544986717

DIPOLE MOMENT
-------------
                                X             Y             Z
Electronic contribution:      1.58023       0.09564      -0.61146
Nuclear contribution   :     -1.62963      -0.09387       0.56093
                        -----------------------------------------
Total Dipole Moment    :     -0.04940       0.00177      -0.05053
                        -----------------------------------------
Magnitude (a.u.)       :      0.07069
Magnitude (Debye)      :      0.17968

Rotational constants in cm-1:     0.127098     0.099072     0.067577
Rotational constants in MHz :  3810.299717  2970.089867  2025.916656

                             ****ORCA TERMINATED NORMALLY****
TOTAL RUN TIME: 0 days 1 hours 13 minutes 11 seconds 88 msec
