                         Program Version 5.0.4 -  RELEASE  -
|  1> !ri-mp2 aug-cc-pvqz aug-cc-pvqz/c tightscf
|  2> %pal nprocs 16 end
|  3> %maxcore 3800
|  4>
|  5> * xyz 0 1
|  6> C     -0.824709    1.228044    0.516573
|  7> C     -0.551689   -0.837659   -0.670034
|  8> C     -2.192547    1.016290    0.567183
|  9> C     -1.928178   -1.033187   -0.636809
| 10> C      0.016971    0.292751   -0.088553
| 11> C     -2.771189   -0.118200   -0.009775
| 12> C      1.480040    0.615826   -0.196992
| 13> C     -4.260063   -0.333800    0.047428
| 14> C      3.800000   -0.087883   -0.163135
| 15> C      2.129735   -1.553398    0.876092
| 16> N      2.392421   -0.372582    0.069758
| 17> O      1.827343    1.734039   -0.557225
| 18> H     -0.393860    2.126909    0.935086
| 19> H      0.076121   -1.560776   -1.173451
| 20> H     -2.825569    1.749761    1.051454
| 21> H     -2.351256   -1.910030   -1.110565
| 22> H     -4.560652   -1.194770   -0.547754
| 23> H     -4.593447   -0.504188    1.073579
| 24> H     -4.800270    0.538795   -0.323928
| 25> H      4.294841   -0.991603   -0.522094
| 26> H      4.298732    0.238192    0.755175
| 27> H      3.890077    0.701076   -0.901854
| 28> H      2.743352   -1.528530    1.781764
| 29> H      2.377510   -2.465691    0.327084
| 30> H      1.088513   -1.596087    1.173131
| 31> *
| 32>
| 33>                          ****END OF INPUT****

CARTESIAN COORDINATES (ANGSTROEM)
---------------------------------
  C     -0.824709    1.228044    0.516573
  C     -0.551689   -0.837659   -0.670034
  C     -2.192547    1.016290    0.567183
  C     -1.928178   -1.033187   -0.636809
  C      0.016971    0.292751   -0.088553
  C     -2.771189   -0.118200   -0.009775
  C      1.480040    0.615826   -0.196992
  C     -4.260063   -0.333800    0.047428
  C      3.800000   -0.087883   -0.163135
  C      2.129735   -1.553398    0.876092
  N      2.392421   -0.372582    0.069758
  O      1.827343    1.734039   -0.557225
  H     -0.393860    2.126909    0.935086
  H      0.076121   -1.560776   -1.173451
  H     -2.825569    1.749761    1.051454
  H     -2.351256   -1.910030   -1.110565
  H     -4.560652   -1.194770   -0.547754
  H     -4.593447   -0.504188    1.073579
  H     -4.800270    0.538795   -0.323928
  H      4.294841   -0.991603   -0.522094
  H      4.298732    0.238192    0.755175
  H      3.890077    0.701076   -0.901854
  H      2.743352   -1.528530    1.781764
  H      2.377510   -2.465691    0.327084
  H      1.088513   -1.596087    1.173131

 Total Charge           Charge          ....    0
 Multiplicity           Mult            ....    1
 Number of Electrons    NEL             ....   88
 Basis Dimension        Dim             .... 1558

ORBITAL ENERGIES
----------------

  NO   OCC          E(Eh)            E(eV)
   0   2.0000     -20.507891      -558.0481
   1   2.0000     -15.582923      -424.0329
   2   2.0000     -11.345704      -308.7323
   3   2.0000     -11.263982      -306.5085
   4   2.0000     -11.250474      -306.1409
   5   2.0000     -11.249938      -306.1264
   6   2.0000     -11.244935      -305.9902
   7   2.0000     -11.242669      -305.9286
   8   2.0000     -11.239830      -305.8513
   9   2.0000     -11.235262      -305.7270
  10   2.0000     -11.233034      -305.6664
  11   2.0000     -11.229025      -305.5573
  12   2.0000      -1.374205       -37.3940
  13   2.0000      -1.240657       -33.7600
  14   2.0000      -1.165141       -31.7051
  15   2.0000      -1.063347       -28.9351
  16   2.0000      -1.022060       -27.8117
  17   2.0000      -0.975176       -26.5359
  18   2.0000      -0.962179       -26.1822
  19   2.0000      -0.923084       -25.1184
  20   2.0000      -0.838119       -22.8064
  21   2.0000      -0.821377       -22.3508
  22   2.0000      -0.752958       -20.4890
  23   2.0000      -0.709228       -19.2991
  24   2.0000      -0.664479       -18.0814
  25   2.0000      -0.651981       -17.7413
  26   2.0000      -0.647965       -17.6320
  27   2.0000      -0.633950       -17.2506
  28   2.0000      -0.620178       -16.8759
  29   2.0000      -0.591710       -16.1013
  30   2.0000      -0.583505       -15.8780
  31   2.0000      -0.574156       -15.6236
  32   2.0000      -0.561926       -15.2908
  33   2.0000      -0.557072       -15.1587
  34   2.0000      -0.549399       -14.9499
  35   2.0000      -0.536153       -14.5895
  36   2.0000      -0.523651       -14.2493
  37   2.0000      -0.506410       -13.7801
  38   2.0000      -0.492949       -13.4138
  39   2.0000      -0.489528       -13.3207
  40   2.0000      -0.422104       -11.4860
  41   2.0000      -0.371534       -10.1100
  42   2.0000      -0.343715        -9.3530
  43   2.0000      -0.332253        -9.0411
  44   0.0000       0.021237         0.5779
  45   0.0000       0.025326         0.6892
  46   0.0000       0.028867         0.7855
  47   0.0000       0.033866         0.9215
  48   0.0000       0.037518         1.0209

MULLIKEN ATOMIC CHARGES
-----------------------
   0 C :   -0.463596
   1 C :   -0.158346
   2 C :   -0.333522
   3 C :   -0.421723
   4 C :   -0.088815
   5 C :    0.467155
   6 C :    1.752593
   7 C :   -0.917918
   8 C :   -0.958857
   9 C :   -0.987023
  10 N :   -0.395397
  11 O :   -0.988239
  12 H :    0.228923
  13 H :    0.241733
  14 H :    0.253215
  15 H :    0.135187
  16 H :    0.224664
  17 H :    0.240770
  18 H :    0.236414
  19 H :    0.251006
  20 H :    0.334214
  21 H :    0.333619
  22 H :    0.327615
  23 H :    0.330896
  24 H :    0.355429
Sum of atomic charges:    0.0000000

LOEWDIN ATOMIC CHARGES
----------------------
   0 C :    0.344461
   1 C :    0.335655
   2 C :    0.362846
   3 C :    0.367226
   4 C :   -0.144507
   5 C :   -0.066337
   6 C :   -0.860227
   7 C :    0.910795
   8 C :    0.754626
   9 C :    0.770981
  10 N :    0.411769
  11 O :    0.726742
  12 H :   -0.317969
  13 H :   -0.312107
  14 H :   -0.313804
  15 H :   -0.320183
  16 H :   -0.307862
  17 H :   -0.280442
  18 H :   -0.285439
  19 H :   -0.285772
  20 H :   -0.267841
  21 H :   -0.345425
  22 H :   -0.272644
  23 H :   -0.268055
  24 H :   -0.336485

  Mayer bond orders larger than 0.100000
B(  0-C ,  2-C ) :   1.3217 B(  0-C ,  3-C ) :   0.2049 B(  0-C ,  4-C ) :   1.2077
B(  0-C ,  5-C ) :  -0.1056 B(  0-C ,  6-C ) :  -0.3888 B(  0-C , 12-H ) :   1.0611
B(  0-C , 14-H ) :  -0.1111 B(  1-C ,  2-C ) :   0.1267 B(  1-C ,  3-C ) :   1.2065
B(  1-C ,  4-C ) :   1.2446 B(  1-C ,  5-C ) :  -0.2296 B(  1-C ,  6-C ) :  -0.3276
B(  1-C , 13-H ) :   1.0326 B(  1-C , 15-H ) :  -0.1351 B(  2-C ,  4-C ) :  -0.3370
B(  2-C ,  5-C ) :   0.9035 B(  2-C , 12-H ) :  -0.1260 B(  2-C , 14-H ) :   1.0467
B(  3-C ,  4-C ) :  -0.2970 B(  3-C ,  5-C ) :   0.9687 B(  3-C , 13-H ) :  -0.1402
B(  3-C , 15-H ) :   1.1578 B(  4-C ,  6-C ) :   1.0770 B(  4-C , 11-O ) :   0.3413
B(  5-C ,  7-C ) :   0.6364 B(  5-C , 14-H ) :  -0.1031 B(  5-C , 15-H ) :  -0.1120
B(  5-C , 16-H ) :  -0.1070 B(  5-C , 17-H ) :  -0.1076 B(  5-C , 18-H ) :  -0.1481
B(  6-C ,  8-C ) :  -0.1160 B(  6-C , 10-N ) :   1.0087 B(  6-C , 11-O ) :   0.6273
B(  7-C , 16-H ) :   1.0515 B(  7-C , 17-H ) :   1.0167 B(  7-C , 18-H ) :   1.0567
B(  8-C , 10-N ) :   0.8507 B(  8-C , 19-H ) :   1.0111 B(  8-C , 20-H ) :   0.9403
B(  8-C , 21-H ) :   0.9162 B(  9-C , 10-N ) :   0.7355 B(  9-C , 22-H ) :   0.9238
B(  9-C , 23-H ) :   0.9349 B(  9-C , 24-H ) :   0.9039 B( 10-N , 11-O ) :   0.3248

MP2 TOTAL ENERGY:     -517.998064936 Eh
FINAL SINGLE POINT ENERGY      -517.998064936300

DIPOLE MOMENT
-------------
                                X             Y             Z
Electronic contribution:      0.24628       5.03687      -1.96164
Nuclear contribution   :     -0.72202      -6.45184       2.54077
                        -----------------------------------------
Total Dipole Moment    :     -0.47574      -1.41497       0.57914
                        -----------------------------------------
Magnitude (a.u.)       :      1.60121
Magnitude (Debye)      :      4.06995

Rotational constants in cm-1:     0.079885     0.016798     0.014990
Rotational constants in MHz :  2394.894384   503.605520   449.382949

                             ****ORCA TERMINATED NORMALLY****
TOTAL RUN TIME: 0 days 2 hours 18 minutes 2 seconds 53 msec
