                         Program Version 5.0.4 -  RELEASE  -
|  1> !ri-mp2 aug-cc-pvqz aug-cc-pvqz/c tightscf
|  2> %pal nprocs 16 end
|  3> %maxcore 3800
|  4>
|  5> * xyz 0 1
|  6> C     -0.455055    0.007781    5.014090
|  7> C     -0.455055    0.007781   -5.014090
|  8> C      0.435676   -0.020717    3.773122
|  9> C      0.435676   -0.020717   -3.773122
| 10> C     -0.355461    0.027942    2.465843
| 11> C     -0.355461    0.027942   -2.465843
| 12> C      0.527885   -0.001819    1.223683
| 13> C      0.527885   -0.001819   -1.223683
| 14> N     -0.261779    0.067908    0.000000
| 15> H      0.135970   -0.027454    5.930256
| 16> H     -1.060071    0.916136    5.043881
| 17> H     -1.138956   -0.843381    5.027731
| 18> H      0.135970   -0.027454   -5.930256
| 19> H     -1.138956   -0.843381   -5.027731
| 20> H     -1.060071    0.916136   -5.043881
| 21> H      1.130138    0.824101    3.804951
| 22> H      1.054579   -0.922676    3.790225
| 23> H      1.054579   -0.922676   -3.790225
| 24> H      1.130138    0.824101   -3.804951
| 25> H     -1.049164   -0.820022    2.434262
| 26> H     -0.971786    0.930230    2.437138
| 27> H     -0.971786    0.930230   -2.437138
| 28> H     -1.049164   -0.820022   -2.434262
| 29> H      1.201869    0.860165    1.235204
| 30> H      1.172318   -0.897454    1.253831
| 31> H      1.172318   -0.897454   -1.253831
| 32> H      1.201869    0.860165   -1.235204
| 33> H     -0.953883   -0.672892    0.000000
| 34> *
| 35>
| 36>                          ****END OF INPUT****

CARTESIAN COORDINATES (ANGSTROEM)
---------------------------------
  C     -0.455055    0.007781    5.014090
  C     -0.455055    0.007781   -5.014090
  C      0.435676   -0.020717    3.773122
  C      0.435676   -0.020717   -3.773122
  C     -0.355461    0.027942    2.465843
  C     -0.355461    0.027942   -2.465843
  C      0.527885   -0.001819    1.223683
  C      0.527885   -0.001819   -1.223683
  N     -0.261779    0.067908    0.000000
  H      0.135970   -0.027454    5.930256
  H     -1.060071    0.916136    5.043881
  H     -1.138956   -0.843381    5.027731
  H      0.135970   -0.027454   -5.930256
  H     -1.138956   -0.843381   -5.027731
  H     -1.060071    0.916136   -5.043881
  H      1.130138    0.824101    3.804951
  H      1.054579   -0.922676    3.790225
  H      1.054579   -0.922676   -3.790225
  H      1.130138    0.824101   -3.804951
  H     -1.049164   -0.820022    2.434262
  H     -0.971786    0.930230    2.437138
  H     -0.971786    0.930230   -2.437138
  H     -1.049164   -0.820022   -2.434262
  H      1.201869    0.860165    1.235204
  H      1.172318   -0.897454    1.253831
  H      1.172318   -0.897454   -1.253831
  H      1.201869    0.860165   -1.235204
  H     -0.953883   -0.672892    0.000000

 Total Charge           Charge          ....    0
 Multiplicity           Mult            ....    1
 Number of Electrons    NEL             ....   74
 Basis Dimension        Dim             .... 1594

ORBITAL ENERGIES
----------------

  NO   OCC          E(Eh)            E(eV)
   0   2.0000     -15.532393      -422.6579
   1   2.0000     -11.239518      -305.8428
   2   2.0000     -11.239501      -305.8424
   3   2.0000     -11.215679      -305.1941
   4   2.0000     -11.215678      -305.1941
   5   2.0000     -11.211824      -305.0892
   6   2.0000     -11.211823      -305.0892
   7   2.0000     -11.208801      -305.0070
   8   2.0000     -11.208801      -305.0070
   9   2.0000      -1.201141       -32.6847
  10   2.0000      -1.072976       -29.1972
  11   2.0000      -1.054698       -28.6998
  12   2.0000      -0.983938       -26.7743
  13   2.0000      -0.939191       -25.5567
  14   2.0000      -0.855717       -23.2852
  15   2.0000      -0.825874       -22.4732
  16   2.0000      -0.798101       -21.7174
  17   2.0000      -0.783922       -21.3316
  18   2.0000      -0.667434       -18.1618
  19   2.0000      -0.638760       -17.3815
  20   2.0000      -0.620066       -16.8729
  21   2.0000      -0.609561       -16.5870
  22   2.0000      -0.597251       -16.2520
  23   2.0000      -0.568260       -15.4631
  24   2.0000      -0.565458       -15.3869
  25   2.0000      -0.562360       -15.3026
  26   2.0000      -0.524491       -14.2721
  27   2.0000      -0.522352       -14.2139
  28   2.0000      -0.503844       -13.7103
  29   2.0000      -0.490646       -13.3511
  30   2.0000      -0.483210       -13.1488
  31   2.0000      -0.470712       -12.8087
  32   2.0000      -0.468679       -12.7534
  33   2.0000      -0.465532       -12.6678
  34   2.0000      -0.460458       -12.5297
  35   2.0000      -0.443137       -12.0584
  36   2.0000      -0.362954        -9.8765
  37   0.0000       0.025796         0.7019
  38   0.0000       0.026103         0.7103
  39   0.0000       0.031027         0.8443
  40   0.0000       0.033275         0.9054
  41   0.0000       0.037692         1.0257

MULLIKEN ATOMIC CHARGES
-----------------------
   0 C :   -0.905871
   1 C :   -0.905904
   2 C :   -0.497287
   3 C :   -0.497224
   4 C :   -0.262124
   5 C :   -0.262099
   6 C :   -0.154996
   7 C :   -0.154906
   8 N :   -0.694056
   9 H :    0.267735
  10 H :    0.219640
  11 H :    0.221483
  12 H :    0.267746
  13 H :    0.221494
  14 H :    0.219627
  15 H :    0.222968
  16 H :    0.236629
  17 H :    0.236616
  18 H :    0.222967
  19 H :    0.223552
  20 H :    0.253789
  21 H :    0.253800
  22 H :    0.223534
  23 H :    0.234486
  24 H :    0.175921
  25 H :    0.175916
  26 H :    0.234528
  27 H :    0.222034
Sum of atomic charges:   -0.0000000

LOEWDIN ATOMIC CHARGES
----------------------
   0 C :    0.925857
   1 C :    0.925857
   2 C :    0.505413
   3 C :    0.505413
   4 C :    0.505953
   5 C :    0.505953
   6 C :    0.352868
   7 C :    0.352868
   8 N :    0.913882
   9 H :   -0.284820
  10 H :   -0.285304
  11 H :   -0.285816
  12 H :   -0.284820
  13 H :   -0.285816
  14 H :   -0.285304
  15 H :   -0.273080
  16 H :   -0.274205
  17 H :   -0.274205
  18 H :   -0.273080
  19 H :   -0.270262
  20 H :   -0.268781
  21 H :   -0.268781
  22 H :   -0.270262
  23 H :   -0.284138
  24 H :   -0.262637
  25 H :   -0.262637
  26 H :   -0.284138
  27 H :   -0.515977

  Mayer bond orders larger than 0.100000
B(  0-C ,  2-C ) :   1.0618 B(  0-C ,  4-C ) :  -0.1349 B(  0-C ,  9-H ) :   1.0219
B(  0-C , 10-H ) :   0.9621 B(  0-C , 11-H ) :   0.9585 B(  1-C ,  3-C ) :   1.0617
B(  1-C ,  5-C ) :  -0.1349 B(  1-C , 12-H ) :   1.0219 B(  1-C , 13-H ) :   0.9585
B(  1-C , 14-H ) :   0.9621 B(  2-C ,  4-C ) :   0.9771 B(  2-C ,  9-H ) :  -0.1021
B(  2-C , 15-H ) :   0.8817 B(  2-C , 16-H ) :   0.8626 B(  3-C ,  5-C ) :   0.9771
B(  3-C , 12-H ) :  -0.1021 B(  3-C , 17-H ) :   0.8626 B(  3-C , 18-H ) :   0.8817
B(  4-C ,  6-C ) :   1.0421 B(  4-C , 19-H ) :   0.8392 B(  4-C , 20-H ) :   0.8428
B(  5-C ,  7-C ) :   1.0422 B(  5-C , 21-H ) :   0.8428 B(  5-C , 22-H ) :   0.8393
B(  6-C ,  8-N ) :   0.9826 B(  6-C , 23-H ) :   0.8720 B(  6-C , 24-H ) :   0.9260
B(  7-C ,  8-N ) :   0.9825 B(  7-C , 25-H ) :   0.9260 B(  7-C , 26-H ) :   0.8719
B(  8-N , 27-H ) :   0.9623

MP2 TOTAL ENERGY:     -370.343486023 Eh
FINAL SINGLE POINT ENERGY      -370.343486023222

DIPOLE MOMENT
-------------
                                X             Y             Z
Electronic contribution:      0.16662       0.35024       0.00000
Nuclear contribution   :     -0.00605      -0.68087      -0.00000
                        -----------------------------------------
Total Dipole Moment    :      0.16057      -0.33063       0.00000
                        -----------------------------------------
Magnitude (a.u.)       :      0.36756
Magnitude (Debye)      :      0.93427

Rotational constants in cm-1:     0.314169     0.012021     0.011788
Rotational constants in MHz :  9418.546700   360.369182   353.385177

                             ****ORCA TERMINATED NORMALLY****
TOTAL RUN TIME: 0 days 1 hours 36 minutes 26 seconds 902 msec
