                         Program Version 5.0.4 -  RELEASE  -
|  1> !ri-mp2 aug-cc-pvqz aug-cc-pvqz/c tightscf
|  2> %pal nprocs 16 end
|  3>
|  4> * xyz 0 1
|  5> C     -1.603643    0.174878   -0.000006
|  6> C     -2.767397   -0.780438    0.000006
|  7> C      3.283501    0.155432    0.000008
|  8> C      1.963727   -0.615105   -0.000005
|  9> C      0.769150    0.317432   -0.000001
| 10> O     -1.688090    1.377808   -0.000001
| 11> O     -0.429939   -0.489876   -0.000012
| 12> H     -2.721291   -1.424419    0.878141
| 13> H     -2.721158   -1.424638   -0.877958
| 14> H     -3.696732   -0.219858   -0.000125
| 15> H      3.372308    0.793346    0.881230
| 16> H      4.132141   -0.528255    0.000005
| 17> H      3.372315    0.793363   -0.881202
| 18> H      1.908444   -1.264592    0.876224
| 19> H      1.908451   -1.264576   -0.876246
| 20> H      0.758862    0.961481    0.880478
| 21> H      0.758869    0.961496   -0.880469
| 22> *
| 23>
| 24>                          ****END OF INPUT****

CARTESIAN COORDINATES (ANGSTROEM)
---------------------------------
  C     -1.603643    0.174878   -0.000006
  C     -2.767397   -0.780438    0.000006
  C      3.283501    0.155432    0.000008
  C      1.963727   -0.615105   -0.000005
  C      0.769150    0.317432   -0.000001
  O     -1.688090    1.377808   -0.000001
  O     -0.429939   -0.489876   -0.000012
  H     -2.721291   -1.424419    0.878141
  H     -2.721158   -1.424638   -0.877958
  H     -3.696732   -0.219858   -0.000125
  H      3.372308    0.793346    0.881230
  H      4.132141   -0.528255    0.000005
  H      3.372315    0.793363   -0.881202
  H      1.908444   -1.264592    0.876224
  H      1.908451   -1.264576   -0.876246
  H      0.758862    0.961481    0.880478
  H      0.758869    0.961496   -0.880469

 Total Charge           Charge          ....    0
 Multiplicity           Mult            ....    1
 Number of Electrons    NEL             ....   56
 Basis Dimension        Dim             .... 1020

ORBITAL ENERGIES
----------------

  NO   OCC          E(Eh)            E(eV)
   0   2.0000     -20.595051      -560.4198
   1   2.0000     -20.538356      -558.8771
   2   2.0000     -11.376148      -309.5607
   3   2.0000     -11.283970      -307.0524
   4   2.0000     -11.237490      -305.7876
   5   2.0000     -11.227975      -305.5287
   6   2.0000     -11.221156      -305.3432
   7   2.0000      -1.454083       -39.5676
   8   2.0000      -1.354524       -36.8585
   9   2.0000      -1.074452       -29.2373
  10   2.0000      -1.017182       -27.6789
  11   2.0000      -0.934119       -25.4187
  12   2.0000      -0.822360       -22.3776
  13   2.0000      -0.778078       -21.1726
  14   2.0000      -0.686946       -18.6928
  15   2.0000      -0.686313       -18.6755
  16   2.0000      -0.667299       -18.1581
  17   2.0000      -0.623777       -16.9738
  18   2.0000      -0.592290       -16.1170
  19   2.0000      -0.576110       -15.6768
  20   2.0000      -0.572638       -15.5823
  21   2.0000      -0.535187       -14.5632
  22   2.0000      -0.523013       -14.2319
  23   2.0000      -0.516198       -14.0465
  24   2.0000      -0.489904       -13.3310
  25   2.0000      -0.486463       -13.2373
  26   2.0000      -0.457257       -12.4426
  27   2.0000      -0.445046       -12.1103
  28   0.0000       0.024399         0.6639
  29   0.0000       0.027590         0.7508
  30   0.0000       0.034594         0.9414
  31   0.0000       0.036416         0.9909
  32   0.0000       0.044791         1.2188

MULLIKEN ATOMIC CHARGES
-----------------------
   0 C :    0.880565
   1 C :   -0.747614
   2 C :   -0.853864
   3 C :   -0.501783
   4 C :    0.081242
   5 O :   -0.747815
   6 O :   -0.732636
   7 H :    0.290426
   8 H :    0.290424
   9 H :    0.304724
  10 H :    0.228754
  11 H :    0.265900
  12 H :    0.228756
  13 H :    0.251909
  14 H :    0.251895
  15 H :    0.254531
  16 H :    0.254586
Sum of atomic charges:    0.0000000

LOEWDIN ATOMIC CHARGES
----------------------
   0 C :   -1.065173
   1 C :    0.869972
   2 C :    0.923007
   3 C :    0.491298
   4 C :    0.153297
   5 O :    0.706950
   6 O :    0.861140
   7 H :   -0.301964
   8 H :   -0.301970
   9 H :   -0.324295
  10 H :   -0.283530
  11 H :   -0.284103
  12 H :   -0.283529
  13 H :   -0.279402
  14 H :   -0.279402
  15 H :   -0.301149
  16 H :   -0.301149

  Mayer bond orders larger than 0.100000
B(  0-C ,  1-C ) :   0.8859 B(  0-C ,  5-O ) :   1.3806 B(  0-C ,  6-O ) :   1.0537
B(  1-C ,  7-H ) :   0.9184 B(  1-C ,  8-H ) :   0.9184 B(  1-C ,  9-H ) :   0.9746
B(  2-C ,  3-C ) :   1.0274 B(  2-C , 10-H ) :   0.9421 B(  2-C , 11-H ) :   1.0017
B(  2-C , 12-H ) :   0.9421 B(  3-C ,  4-C ) :   0.9677 B(  3-C , 13-H ) :   0.8675
B(  3-C , 14-H ) :   0.8675 B(  4-C ,  5-O ) :   0.1543 B(  4-C ,  6-O ) :   0.7075
B(  4-C , 15-H ) :   0.8892 B(  4-C , 16-H ) :   0.8891

MP2 TOTAL ENERGY:     -346.482390985 Eh
FINAL SINGLE POINT ENERGY      -346.482390985385

DIPOLE MOMENT
-------------
                                X             Y             Z
Electronic contribution:     -6.87057       1.85039      -0.00007
Nuclear contribution   :      7.24827      -2.68010       0.00008
                        -----------------------------------------
Total Dipole Moment    :      0.37770      -0.82971       0.00001
                        -----------------------------------------
Magnitude (a.u.)       :      0.91164
Magnitude (Debye)      :      2.31719

Rotational constants in cm-1:     0.260529     0.038522     0.034413
Rotational constants in MHz :  7810.462712  1154.851605  1031.684345

                             ****ORCA TERMINATED NORMALLY****
TOTAL RUN TIME: 0 days 0 hours 44 minutes 46 seconds 163 msec
