                         Program Version 5.0.4 -  RELEASE  -
|  1> !ri-mp2 aug-cc-pvqz aug-cc-pvqz/c tightscf
|  2> %pal nprocs 16 end
|  3> %maxcore 3800
|  4>
|  5> * xyz 0 1
|  6> C      5.737654    0.300711    0.011156
|  7> C      4.448192   -0.518362   -0.011562
|  8> C      3.184431    0.342309    0.009963
|  9> C      1.888085   -0.468013   -0.011393
| 10> C      0.625303    0.394075    0.008474
| 11> C     -0.671025   -0.416506   -0.012685
| 12> C     -1.932920    0.447391    0.006322
| 13> C     -3.228540   -0.365266   -0.019608
| 14> C     -4.476648    0.508022    0.005687
| 15> O     -5.690067   -0.238804   -0.075332
| 16> H      6.619389   -0.341382   -0.006380
| 17> H      5.796144    0.967682   -0.851502
| 18> H      5.795907    0.919276    0.909188
| 19> H      4.433983   -1.199317    0.844790
| 20> H      4.435354   -1.153265   -0.902627
| 21> H      3.198187    0.979052    0.901047
| 22> H      3.198984    1.023585   -0.847491
| 23> H      1.874006   -1.148349    0.846661
| 24> H      1.875740   -1.105201   -0.901950
| 25> H      0.637718    1.031678    0.898752
| 26> H      0.639314    1.073915   -0.849865
| 27> H     -0.686189   -1.095875    0.845940
| 28> H     -0.684331   -1.053895   -0.902720
| 29> H     -1.919452    1.084161    0.897002
| 30> H     -1.916317    1.126849   -0.852022
| 31> H     -3.259860   -0.993407   -0.913658
| 32> H     -3.249682   -1.044442    0.840338
| 33> H     -4.476569    1.142168    0.900551
| 34> H     -4.490512    1.170814   -0.860513
| 35> H     -5.748466   -0.819778    0.688990
| 36> *
| 37>
| 38>                          ****END OF INPUT****

CARTESIAN COORDINATES (ANGSTROEM)
---------------------------------
  C      5.737654    0.300711    0.011156
  C      4.448192   -0.518362   -0.011562
  C      3.184431    0.342309    0.009963
  C      1.888085   -0.468013   -0.011393
  C      0.625303    0.394075    0.008474
  C     -0.671025   -0.416506   -0.012685
  C     -1.932920    0.447391    0.006322
  C     -3.228540   -0.365266   -0.019608
  C     -4.476648    0.508022    0.005687
  O     -5.690067   -0.238804   -0.075332
  H      6.619389   -0.341382   -0.006380
  H      5.796144    0.967682   -0.851502
  H      5.795907    0.919276    0.909188
  H      4.433983   -1.199317    0.844790
  H      4.435354   -1.153265   -0.902627
  H      3.198187    0.979052    0.901047
  H      3.198984    1.023585   -0.847491
  H      1.874006   -1.148349    0.846661
  H      1.875740   -1.105201   -0.901950
  H      0.637718    1.031678    0.898752
  H      0.639314    1.073915   -0.849865
  H     -0.686189   -1.095875    0.845940
  H     -0.684331   -1.053895   -0.902720
  H     -1.919452    1.084161    0.897002
  H     -1.916317    1.126849   -0.852022
  H     -3.259860   -0.993407   -0.913658
  H     -3.249682   -1.044442    0.840338
  H     -4.476569    1.142168    0.900551
  H     -4.490512    1.170814   -0.860513
  H     -5.748466   -0.819778    0.688990

 Total Charge           Charge          ....    0
 Multiplicity           Mult            ....    1
 Number of Electrons    NEL             ....   82
 Basis Dimension        Dim             .... 1720

ORBITAL ENERGIES
----------------

  NO   OCC          E(Eh)            E(eV)
   0   2.0000     -20.550834      -559.2166
   1   2.0000     -11.270168      -306.6769
   2   2.0000     -11.220259      -305.3188
   3   2.0000     -11.218684      -305.2759
   4   2.0000     -11.216931      -305.2282
   5   2.0000     -11.215059      -305.1773
   6   2.0000     -11.215005      -305.1758
   7   2.0000     -11.213935      -305.1467
   8   2.0000     -11.213043      -305.1224
   9   2.0000     -11.208951      -305.0111
  10   2.0000      -1.352196       -36.7951
  11   2.0000      -1.095901       -29.8210
  12   2.0000      -1.070525       -29.1305
  13   2.0000      -1.028680       -27.9918
  14   2.0000      -0.973617       -26.4935
  15   2.0000      -0.910577       -24.7781
  16   2.0000      -0.850407       -23.1407
  17   2.0000      -0.808296       -21.9948
  18   2.0000      -0.790456       -21.5094
  19   2.0000      -0.786041       -21.3893
  20   2.0000      -0.688480       -18.7345
  21   2.0000      -0.659116       -17.9355
  22   2.0000      -0.637922       -17.3587
  23   2.0000      -0.613067       -16.6824
  24   2.0000      -0.604238       -16.4421
  25   2.0000      -0.589776       -16.0486
  26   2.0000      -0.580846       -15.8056
  27   2.0000      -0.567446       -15.4410
  28   2.0000      -0.547486       -14.8978
  29   2.0000      -0.534724       -14.5506
  30   2.0000      -0.522151       -14.2084
  31   2.0000      -0.506732       -13.7889
  32   2.0000      -0.493723       -13.4349
  33   2.0000      -0.483429       -13.1548
  34   2.0000      -0.473666       -12.8891
  35   2.0000      -0.469899       -12.7866
  36   2.0000      -0.464010       -12.6264
  37   2.0000      -0.460049       -12.5186
  38   2.0000      -0.459026       -12.4907
  39   2.0000      -0.449825       -12.2404
  40   2.0000      -0.422878       -11.5071
  41   0.0000       0.025133         0.6839
  42   0.0000       0.026089         0.7099
  43   0.0000       0.029828         0.8117
  44   0.0000       0.031828         0.8661
  45   0.0000       0.036541         0.9943

MULLIKEN ATOMIC CHARGES
-----------------------
   0 C :   -0.917219
   1 C :   -0.537784
   2 C :   -0.303815
   3 C :   -0.368874
   4 C :   -0.444888
   5 C :   -0.453228
   6 C :   -0.348920
   7 C :   -0.661311
   8 C :    0.054020
   9 O :   -0.918606
  10 H :    0.266286
  11 H :    0.225891
  12 H :    0.225425
  13 H :    0.223031
  14 H :    0.223474
  15 H :    0.233096
  16 H :    0.230262
  17 H :    0.253332
  18 H :    0.250212
  19 H :    0.242025
  20 H :    0.239059
  21 H :    0.240209
  22 H :    0.241629
  23 H :    0.245387
  24 H :    0.239696
  25 H :    0.273737
  26 H :    0.224577
  27 H :    0.188158
  28 H :    0.286979
  29 H :    0.348159
Sum of atomic charges:    0.0000000

LOEWDIN ATOMIC CHARGES
----------------------
   0 C :    0.926092
   1 C :    0.508741
   2 C :    0.513127
   3 C :    0.526161
   4 C :    0.529070
   5 C :    0.528123
   6 C :    0.517364
   7 C :    0.506588
   8 C :    0.191102
   9 O :    1.268208
  10 H :   -0.284937
  11 H :   -0.285665
  12 H :   -0.285671
  13 H :   -0.273507
  14 H :   -0.273419
  15 H :   -0.268020
  16 H :   -0.268045
  17 H :   -0.265234
  18 H :   -0.265128
  19 H :   -0.264506
  20 H :   -0.264471
  21 H :   -0.264918
  22 H :   -0.264412
  23 H :   -0.266284
  24 H :   -0.265720
  25 H :   -0.273318
  26 H :   -0.275025
  27 H :   -0.292116
  28 H :   -0.314867
  29 H :   -0.799314

  Mayer bond orders larger than 0.100000
B(  0-C ,  1-C ) :   1.0589 B(  0-C ,  2-C ) :  -0.1453 B(  0-C , 10-H ) :   1.0293
B(  0-C , 11-H ) :   0.9569 B(  0-C , 12-H ) :   0.9571 B(  1-C ,  2-C ) :   1.0199
B(  1-C ,  3-C ) :  -0.1254 B(  1-C , 10-H ) :  -0.1009 B(  1-C , 13-H ) :   0.8832
B(  1-C , 14-H ) :   0.8825 B(  2-C ,  3-C ) :   1.1197 B(  2-C ,  4-C ) :  -0.1592
B(  2-C , 15-H ) :   0.8561 B(  2-C , 16-H ) :   0.8562 B(  3-C ,  4-C ) :   1.2234
B(  3-C ,  5-C ) :  -0.1597 B(  3-C , 17-H ) :   0.8306 B(  3-C , 18-H ) :   0.8329
B(  4-C ,  5-C ) :   1.2474 B(  4-C ,  6-C ) :  -0.1667 B(  4-C , 19-H ) :   0.8348
B(  4-C , 20-H ) :   0.8370 B(  5-C ,  6-C ) :   1.1834 B(  5-C ,  7-C ) :  -0.1157
B(  5-C , 21-H ) :   0.8445 B(  5-C , 22-H ) :   0.8363 B(  6-C ,  7-C ) :   1.0509
B(  6-C ,  8-C ) :  -0.1619 B(  6-C , 23-H ) :   0.8386 B(  6-C , 24-H ) :   0.8342
B(  7-C ,  8-C ) :   1.3003 B(  7-C , 25-H ) :   0.8267 B(  7-C , 26-H ) :   0.8597
B(  8-C ,  9-O ) :   0.6098 B(  8-C , 27-H ) :   0.9584 B(  8-C , 28-H ) :   0.8472
B(  9-O , 29-H ) :   0.8569

MP2 TOTAL ENERGY:     -429.456769743 Eh
FINAL SINGLE POINT ENERGY      -429.456769743346

DIPOLE MOMENT
-------------
                                X             Y             Z
Electronic contribution:    -12.19134      -0.66647      -0.26232
Nuclear contribution   :     12.79309       0.59836       0.72950
                        -----------------------------------------
Total Dipole Moment    :      0.60175      -0.06811       0.46718
                        -----------------------------------------
Magnitude (a.u.)       :      0.76486
Magnitude (Debye)      :      1.94411

Rotational constants in cm-1:     0.297782     0.008289     0.008178
Rotational constants in MHz :  8927.281889   248.500804   245.172922

                             ****ORCA TERMINATED NORMALLY****
TOTAL RUN TIME: 0 days 3 hours 1 minutes 10 seconds 817 msec
