                         Program Version 5.0.4 -  RELEASE  -
|  1> !ri-mp2 aug-cc-pvqz aug-cc-pvqz/c tightscf
|  2> %pal nprocs 16 end
|  3>
|  4> * xyz 0 1
|  5> C      0.504007    0.162021   -0.000522
|  6> C      1.815083   -0.581550    0.000816
|  7> C     -1.959986   -0.145515    0.001321
|  8> N      0.504425    1.442302    0.000085
|  9> N     -0.605061   -0.647080   -0.003604
| 10> H      1.900600   -1.219398    0.883090
| 11> H      1.902657   -1.218859   -0.881594
| 12> H      2.630056    0.134963    0.002108
| 13> H     -2.164863    0.459162    0.889530
| 14> H     -2.648126   -0.987714   -0.000986
| 15> H     -2.167537    0.465376   -0.881811
| 16> H     -0.436074    1.830537   -0.000616
| 17> H     -0.466885   -1.640362    0.005221
| 18> *
| 19>
| 20>                          ****END OF INPUT****

CARTESIAN COORDINATES (ANGSTROEM)
---------------------------------
  C      0.504007    0.162021   -0.000522
  C      1.815083   -0.581550    0.000816
  C     -1.959986   -0.145515    0.001321
  N      0.504425    1.442302    0.000085
  N     -0.605061   -0.647080   -0.003604
  H      1.900600   -1.219398    0.883090
  H      1.902657   -1.218859   -0.881594
  H      2.630056    0.134963    0.002108
  H     -2.164863    0.459162    0.889530
  H     -2.648126   -0.987714   -0.000986
  H     -2.167537    0.465376   -0.881811
  H     -0.436074    1.830537   -0.000616
  H     -0.466885   -1.640362    0.005221

 Total Charge           Charge          ....    0
 Multiplicity           Mult            ....    1
 Number of Electrons    NEL             ....   40
 Basis Dimension        Dim             ....  768

ORBITAL ENERGIES
----------------

  NO   OCC          E(Eh)            E(eV)
   0   2.0000     -15.574671      -423.8083
   1   2.0000     -15.508768      -422.0150
   2   2.0000     -11.307486      -307.6923
   3   2.0000     -11.265584      -306.5521
   4   2.0000     -11.223513      -305.4073
   5   2.0000      -1.269552       -34.5463
   6   2.0000      -1.145348       -31.1665
   7   2.0000      -1.000945       -27.2371
   8   2.0000      -0.928592       -25.2683
   9   2.0000      -0.770346       -20.9622
  10   2.0000      -0.703281       -19.1373
  11   2.0000      -0.661301       -17.9949
  12   2.0000      -0.626092       -17.0368
  13   2.0000      -0.577336       -15.7101
  14   2.0000      -0.562135       -15.2965
  15   2.0000      -0.544029       -14.8038
  16   2.0000      -0.536101       -14.5880
  17   2.0000      -0.464473       -12.6389
  18   2.0000      -0.413520       -11.2524
  19   2.0000      -0.351644        -9.5687
  20   0.0000       0.020406         0.5553
  21   0.0000       0.031065         0.8453
  22   0.0000       0.036843         1.0025
  23   0.0000       0.038299         1.0422
  24   0.0000       0.049021         1.3339

MULLIKEN ATOMIC CHARGES
-----------------------
   0 C :    0.527603
   1 C :   -0.751143
   2 C :   -0.719778
   3 N :   -0.791280
   4 N :   -0.482291
   5 H :    0.255354
   6 H :    0.255324
   7 H :    0.316352
   8 H :    0.248838
   9 H :    0.405496
  10 H :    0.245695
  11 H :    0.284151
  12 H :    0.205679
Sum of atomic charges:    0.0000000

LOEWDIN ATOMIC CHARGES
----------------------
   0 C :   -0.488833
   1 C :    0.876519
   2 C :    0.774120
   3 N :    0.985906
   4 N :    0.844645
   5 H :   -0.288176
   6 H :   -0.288158
   7 H :   -0.324320
   8 H :   -0.285944
   9 H :   -0.294500
  10 H :   -0.286516
  11 H :   -0.720698
  12 H :   -0.504046

  Mayer bond orders larger than 0.100000
B(  0-C ,  1-C ) :   0.8078 B(  0-C ,  3-N ) :   1.5974 B(  0-C ,  4-N ) :   1.0261
B(  1-C ,  5-H ) :   0.9420 B(  1-C ,  6-H ) :   0.9421 B(  1-C ,  7-H ) :   0.9862
B(  2-C ,  4-N ) :   0.8144 B(  2-C ,  8-H ) :   0.9701 B(  2-C ,  9-H ) :   0.8437
B(  2-C , 10-H ) :   0.9738 B(  3-N ,  4-N ) :   0.1022 B(  3-N , 11-H ) :   0.8403
B(  4-N , 12-H ) :   1.0172

MP2 TOTAL ENERGY:     -228.248416721 Eh
FINAL SINGLE POINT ENERGY      -228.248416721052

DIPOLE MOMENT
-------------
                                X             Y             Z
Electronic contribution:      0.73288       0.97397      -0.00955
Nuclear contribution   :     -1.51136      -2.26233       0.01554
                        -----------------------------------------
Total Dipole Moment    :     -0.77847      -1.28836       0.00599
                        -----------------------------------------
Magnitude (a.u.)       :      1.50530
Magnitude (Debye)      :      3.82616

Rotational constants in cm-1:     0.317633     0.127761     0.094326
Rotational constants in MHz :  9522.406597  3830.176496  2827.817733

                             ****ORCA TERMINATED NORMALLY****
TOTAL RUN TIME: 0 days 0 hours 13 minutes 39 seconds 95 msec
