                         Program Version 5.0.4 -  RELEASE  -
|  1> !ri-mp2 aug-cc-pvqz aug-cc-pvqz/c tightscf
|  2> %pal nprocs 16 end
|  3>
|  4> * xyz 0 1
|  5> N     -0.047335    0.494707    0.000095
|  6> N     -2.426020   -0.243839   -0.000088
|  7> N      2.256899   -0.124368    0.000008
|  8> C     -1.325935    0.106762   -0.000003
|  9> C      1.029441   -0.407626   -0.000048
| 10> H      0.145193    1.485628    0.000247
| 11> H      2.449675    0.876936    0.000174
| 12> H      0.699288   -1.442885   -0.000220
| 13> *
| 14>
| 15>                          ****END OF INPUT****

CARTESIAN COORDINATES (ANGSTROEM)
---------------------------------
  N     -0.047335    0.494707    0.000095
  N     -2.426020   -0.243839   -0.000088
  N      2.256899   -0.124368    0.000008
  C     -1.325935    0.106762   -0.000003
  C      1.029441   -0.407626   -0.000048
  H      0.145193    1.485628    0.000247
  H      2.449675    0.876936    0.000174
  H      0.699288   -1.442885   -0.000220

 Total Charge           Charge          ....    0
 Multiplicity           Mult            ....    1
 Number of Electrons    NEL             ....   36
 Basis Dimension        Dim             ....  538

ORBITAL ENERGIES
----------------

  NO   OCC          E(Eh)            E(eV)
   0   2.0000     -15.662433      -426.1965
   1   2.0000     -15.583066      -424.0368
   2   2.0000     -15.573295      -423.7709
   3   2.0000     -11.359257      -309.1011
   4   2.0000     -11.325475      -308.1818
   5   2.0000      -1.343826       -36.5674
   6   2.0000      -1.241757       -33.7899
   7   2.0000      -1.198812       -32.6213
   8   2.0000      -0.905643       -24.6438
   9   2.0000      -0.845478       -23.0066
  10   2.0000      -0.751838       -20.4586
  11   2.0000      -0.639568       -17.4035
  12   2.0000      -0.630277       -17.1507
  13   2.0000      -0.577389       -15.7116
  14   2.0000      -0.498203       -13.5568
  15   2.0000      -0.495858       -13.4930
  16   2.0000      -0.465526       -12.6676
  17   2.0000      -0.404830       -11.0160
  18   0.0000       0.014290         0.3888
  19   0.0000       0.034405         0.9362
  20   0.0000       0.037772         1.0278
  21   0.0000       0.056370         1.5339
  22   0.0000       0.068709         1.8697

MULLIKEN ATOMIC CHARGES
-----------------------
   0 N :   -0.687094
   1 N :   -0.615766
   2 N :   -0.702020
   3 C :    0.848505
   4 C :    0.002631
   5 H :    0.293506
   6 H :    0.322400
   7 H :    0.537839
Sum of atomic charges:   -0.0000000

LOEWDIN ATOMIC CHARGES
----------------------
   0 N :    0.732828
   1 N :    0.384148
   2 N :    0.974799
   3 C :   -0.475364
   4 C :   -0.057206
   5 H :   -0.518692
   6 H :   -0.675937
   7 H :   -0.364575

  Mayer bond orders larger than 0.100000
B(  0-N ,  3-C ) :   1.1321 B(  0-N ,  4-C ) :   1.0555 B(  0-N ,  5-H ) :   0.9398
B(  1-N ,  3-C ) :   2.6372 B(  2-N ,  4-C ) :   1.7936 B(  2-N ,  6-H ) :   0.7923
B(  4-C ,  7-H ) :   0.7126

MP2 TOTAL ENERGY:     -241.865287159 Eh
FINAL SINGLE POINT ENERGY      -241.865287159328

DIPOLE MOMENT
-------------
                                X             Y             Z
Electronic contribution:     -2.49203       0.09816      -0.00002
Nuclear contribution   :      3.22345       0.90101       0.00020
                        -----------------------------------------
Total Dipole Moment    :      0.73142       0.99917       0.00018
                        -----------------------------------------
Magnitude (a.u.)       :      1.23828
Magnitude (Debye)      :      3.14744

Rotational constants in cm-1:     1.442567     0.086859     0.081926
Rotational constants in MHz : 43247.058861  2603.969369  2456.084867

                             ****ORCA TERMINATED NORMALLY****
TOTAL RUN TIME: 0 days 0 hours 5 minutes 14 seconds 326 msec
