                         Program Version 5.0.4 -  RELEASE  -
|  1> !ri-mp2 aug-cc-pvqz aug-cc-pvqz/c tightscf
|  2> %pal nprocs 16 end
|  3>
|  4> * xyz 0 1
|  5> C      1.276347   -0.143704    0.000000
|  6> C     -0.094534    1.815947    0.000000
|  7> C      2.368941    0.714696    0.000000
|  8> C      1.065879    2.570549    0.000000
|  9> C      0.000000    0.420948    0.000000
| 10> C     -1.364098   -1.686589    0.000000
| 11> C     -2.811083   -2.138228    0.000000
| 12> N      2.292696    2.045547    0.000000
| 13> N     -1.189731   -0.317431    0.000000
| 14> O     -0.446472   -2.481401    0.000000
| 15> H      1.408310   -1.211468    0.000000
| 16> H     -1.059712    2.307235    0.000000
| 17> H      3.368384    0.294912    0.000000
| 18> H      1.004291    3.652813    0.000000
| 19> H     -2.977485   -2.760972    0.878119
| 20> H     -2.977485   -2.760972   -0.878119
| 21> H     -3.532976   -1.322843    0.000000
| 22> H     -2.031016    0.233980    0.000000
| 23> *
| 24>
| 25>                          ****END OF INPUT****

CARTESIAN COORDINATES (ANGSTROEM)
---------------------------------
  C      1.276347   -0.143704    0.000000
  C     -0.094534    1.815947    0.000000
  C      2.368941    0.714696    0.000000
  C      1.065879    2.570549    0.000000
  C      0.000000    0.420948    0.000000
  C     -1.364098   -1.686589    0.000000
  C     -2.811083   -2.138228    0.000000
  N      2.292696    2.045547    0.000000
  N     -1.189731   -0.317431    0.000000
  O     -0.446472   -2.481401    0.000000
  H      1.408310   -1.211468    0.000000
  H     -1.059712    2.307235    0.000000
  H      3.368384    0.294912    0.000000
  H      1.004291    3.652813    0.000000
  H     -2.977485   -2.760972    0.878119
  H     -2.977485   -2.760972   -0.878119
  H     -3.532976   -1.322843    0.000000
  H     -2.031016    0.233980    0.000000

 Total Charge           Charge          ....    0
 Multiplicity           Mult            ....    1
 Number of Electrons    NEL             ....   72
 Basis Dimension        Dim             .... 1168

ORBITAL ENERGIES
----------------

  NO   OCC          E(Eh)            E(eV)
   0   2.0000     -20.537006      -558.8403
   1   2.0000     -15.619661      -425.0326
   2   2.0000     -15.554719      -423.2654
   3   2.0000     -11.374513      -309.5162
   4   2.0000     -11.311282      -307.7956
   5   2.0000     -11.275733      -306.8283
   6   2.0000     -11.272412      -306.7379
   7   2.0000     -11.252798      -306.2042
   8   2.0000     -11.240739      -305.8761
   9   2.0000     -11.229621      -305.5735
  10   2.0000      -1.404969       -38.2312
  11   2.0000      -1.279574       -34.8190
  12   2.0000      -1.249965       -34.0133
  13   2.0000      -1.087706       -29.5980
  14   2.0000      -1.035859       -28.1871
  15   2.0000      -1.015721       -27.6392
  16   2.0000      -0.884590       -24.0709
  17   2.0000      -0.866009       -23.5653
  18   2.0000      -0.799403       -21.7529
  19   2.0000      -0.747413       -20.3381
  20   2.0000      -0.698969       -19.0199
  21   2.0000      -0.667314       -18.1585
  22   2.0000      -0.650370       -17.6975
  23   2.0000      -0.640036       -17.4163
  24   2.0000      -0.633585       -17.2407
  25   2.0000      -0.605228       -16.4691
  26   2.0000      -0.595265       -16.1980
  27   2.0000      -0.575713       -15.6659
  28   2.0000      -0.573572       -15.6077
  29   2.0000      -0.530743       -14.4422
  30   2.0000      -0.522832       -14.2270
  31   2.0000      -0.470415       -12.8006
  32   2.0000      -0.447105       -12.1663
  33   2.0000      -0.414979       -11.2922
  34   2.0000      -0.351441        -9.5632
  35   2.0000      -0.347652        -9.4601
  36   0.0000       0.013577         0.3695
  37   0.0000       0.025609         0.6969
  38   0.0000       0.033799         0.9197
  39   0.0000       0.039205         1.0668
  40   0.0000       0.039430         1.0730

MULLIKEN ATOMIC CHARGES
-----------------------
   0 C :   -0.531606
   1 C :   -0.643158
   2 C :   -0.106537
   3 C :   -0.103345
   4 C :    1.012872
   5 C :    0.936758
   6 C :   -0.794934
   7 N :   -0.744988
   8 N :   -0.589252
   9 O :   -0.838957
  10 H :    0.288126
  11 H :    0.158533
  12 H :    0.444736
  13 H :    0.470322
  14 H :    0.294154
  15 H :    0.294154
  16 H :    0.227235
  17 H :    0.225888
Sum of atomic charges:   -0.0000000

LOEWDIN ATOMIC CHARGES
----------------------
   0 C :    0.343991
   1 C :    0.331312
   2 C :    0.080357
   3 C :    0.071409
   4 C :   -0.226083
   5 C :   -0.785186
   6 C :    0.905723
   7 N :    0.588589
   8 N :    0.838650
   9 O :    0.738609
  10 H :   -0.411617
  11 H :   -0.325387
  12 H :   -0.349343
  13 H :   -0.350583
  14 H :   -0.293841
  15 H :   -0.293841
  16 H :   -0.308930
  17 H :   -0.553830

  Mayer bond orders larger than 0.100000
B(  0-C ,  2-C ) :   1.2371 B(  0-C ,  4-C ) :   1.0279 B(  0-C ,  7-N ) :   0.1315
B(  0-C , 10-H ) :   1.0088 B(  0-C , 12-H ) :  -0.1747 B(  1-C ,  2-C ) :   0.1074
B(  1-C ,  3-C ) :   1.3115 B(  1-C ,  4-C ) :   0.8958 B(  1-C ,  7-N ) :   0.1252
B(  1-C , 11-H ) :   1.0981 B(  1-C , 13-H ) :  -0.1765 B(  2-C ,  4-C ) :  -0.3773
B(  2-C ,  7-N ) :   1.0707 B(  2-C , 12-H ) :   0.9649 B(  3-C ,  4-C ) :  -0.3883
B(  3-C ,  7-N ) :   1.1782 B(  3-C , 13-H ) :   0.9090 B(  4-C ,  8-N ) :   0.8407
B(  4-C ,  9-O ) :   0.1330 B(  5-C ,  6-C ) :   0.8522 B(  5-C ,  8-N ) :   0.9751
B(  5-C ,  9-O ) :   1.1184 B(  5-C , 16-H ) :  -0.1284 B(  6-C ,  8-N ) :  -0.1061
B(  6-C , 14-H ) :   0.9353 B(  6-C , 15-H ) :   0.9353 B(  6-C , 16-H ) :   1.0307
B(  7-N , 12-H ) :  -0.1423 B(  7-N , 13-H ) :  -0.1263 B(  8-N ,  9-O ) :   0.2191
B(  8-N , 17-H ) :   1.0375

MP2 TOTAL ENERGY:     -455.573997306 Eh
FINAL SINGLE POINT ENERGY      -455.573997305935

DIPOLE MOMENT
-------------
                                X             Y             Z
Electronic contribution:      4.75424       1.84879      -0.00000
Nuclear contribution   :     -6.75168      -1.58535       0.00000
                        -----------------------------------------
Total Dipole Moment    :     -1.99745       0.26344      -0.00000
                        -----------------------------------------
Magnitude (a.u.)       :      2.01474
Magnitude (Debye)      :      5.12107

Rotational constants in cm-1:     0.129422     0.025935     0.021692
Rotational constants in MHz :  3879.988254   777.511115   650.306650

                             ****ORCA TERMINATED NORMALLY****
TOTAL RUN TIME: 0 days 1 hours 0 minutes 33 seconds 877 msec
