                         Program Version 5.0.4 -  RELEASE  -
|  1> !ri-mp2 aug-cc-pvqz aug-cc-pvqz/c tightscf
|  2> %pal nprocs 16 end
|  3>
|  4> * xyz 0 1
|  5> C     0.000000     1.265036   -0.119107
|  6> C     0.000000    -1.265036   -0.119107
|  7> C     0.000000     2.401004    0.887119
|  8> C     0.000000    -2.401004    0.887119
|  9> N     0.000000     0.000000    0.490686
| 10> O     0.000000     1.434626   -1.309734
| 11> O     0.000000    -1.434626   -1.309734
| 12> H     0.000000     3.342860    0.347946
| 13> H    -0.882484     2.352586    1.527823
| 14> H     0.882484     2.352586    1.527823
| 15> H    -0.882484    -2.352586    1.527823
| 16> H     0.882484    -2.352586    1.527823
| 17> H     0.000000    -3.342860    0.347946
| 18> H     0.000000     0.000000    1.497619
| 19> *
| 20>
| 21>                          ****END OF INPUT****

CARTESIAN COORDINATES (ANGSTROEM)
---------------------------------
  C      0.000000    1.265036   -0.119107
  C      0.000000   -1.265036   -0.119107
  C      0.000000    2.401004    0.887119
  C      0.000000   -2.401004    0.887119
  N      0.000000    0.000000    0.490686
  O      0.000000    1.434626   -1.309734
  O      0.000000   -1.434626   -1.309734
  H      0.000000    3.342860    0.347946
  H     -0.882484    2.352586    1.527823
  H      0.882484    2.352586    1.527823
  H     -0.882484   -2.352586    1.527823
  H      0.882484   -2.352586    1.527823
  H      0.000000   -3.342860    0.347946
  H      0.000000    0.000000    1.497619

 Total Charge           Charge          ....    0
 Multiplicity           Mult            ....    1
 Number of Electrons    NEL             ....   54
 Basis Dimension        Dim             ....  882

ORBITAL ENERGIES
----------------

  NO   OCC          E(Eh)            E(eV)
   0   2.0000     -20.538457      -558.8798
   1   2.0000     -20.538455      -558.8798
   2   2.0000     -15.613114      -424.8544
   3   2.0000     -11.369872      -309.3900
   4   2.0000     -11.369855      -309.3895
   5   2.0000     -11.250477      -306.1410
   6   2.0000     -11.250476      -306.1410
   7   2.0000      -1.414921       -38.5020
   8   2.0000      -1.389450       -37.8088
   9   2.0000      -1.248310       -33.9682
  10   2.0000      -1.042169       -28.3589
  11   2.0000      -1.006485       -27.3878
  12   2.0000      -0.855563       -23.2811
  13   2.0000      -0.778220       -21.1764
  14   2.0000      -0.705673       -19.2023
  15   2.0000      -0.676964       -18.4211
  16   2.0000      -0.648566       -17.6484
  17   2.0000      -0.621963       -16.9245
  18   2.0000      -0.613720       -16.7002
  19   2.0000      -0.605788       -16.4843
  20   2.0000      -0.590030       -16.0555
  21   2.0000      -0.568396       -15.4669
  22   2.0000      -0.552400       -15.0316
  23   2.0000      -0.506724       -13.7887
  24   2.0000      -0.465958       -12.6794
  25   2.0000      -0.428592       -11.6626
  26   2.0000      -0.416835       -11.3426
  27   0.0000       0.013317         0.3624
  28   0.0000       0.026239         0.7140
  29   0.0000       0.029776         0.8102
  30   0.0000       0.036750         1.0000
  31   0.0000       0.047013         1.2793

MULLIKEN ATOMIC CHARGES
-----------------------
   0 C :    0.885751
   1 C :    0.885751
   2 C :   -0.786463
   3 C :   -0.786463
   4 N :   -0.612887
   5 O :   -0.732598
   6 O :   -0.732598
   7 H :    0.307076
   8 H :    0.263024
   9 H :    0.263024
  10 H :    0.263024
  11 H :    0.263024
  12 H :    0.307076
  13 H :    0.213260
Sum of atomic charges:    0.0000000

LOEWDIN ATOMIC CHARGES
----------------------
   0 C :   -0.817725
   1 C :   -0.817725
   2 C :    0.890292
   3 C :    0.890292
   4 N :    0.781228
   5 O :    0.716603
   6 O :    0.716603
   7 H :   -0.318968
   8 H :   -0.290244
   9 H :   -0.290244
  10 H :   -0.290244
  11 H :   -0.290244
  12 H :   -0.318968
  13 H :   -0.560656

  Mayer bond orders larger than 0.100000
B(  0-C ,  2-C ) :   0.9049 B(  0-C ,  4-N ) :   0.9697 B(  0-C ,  5-O ) :   1.3621
B(  1-C ,  3-C ) :   0.9049 B(  1-C ,  4-N ) :   0.9697 B(  1-C ,  6-O ) :   1.3621
B(  2-C ,  7-H ) :   0.9832 B(  2-C ,  8-H ) :   0.9299 B(  2-C ,  9-H ) :   0.9299
B(  3-C , 10-H ) :   0.9299 B(  3-C , 11-H ) :   0.9299 B(  3-C , 12-H ) :   0.9832
B(  4-N ,  5-O ) :   0.1591 B(  4-N ,  6-O ) :   0.1591 B(  4-N , 13-H ) :   1.0007

MP2 TOTAL ENERGY:     -361.336698490 Eh
FINAL SINGLE POINT ENERGY      -361.336698490051

DIPOLE MOMENT
-------------
                                X             Y             Z
Electronic contribution:     -0.00000      -0.00000      -5.56120
Nuclear contribution   :      0.00000      -0.00000       8.29181
                        -----------------------------------------
Total Dipole Moment    :     -0.00000      -0.00000       2.73061
                        -----------------------------------------
Magnitude (a.u.)       :      2.73061
Magnitude (Debye)      :      6.94067

Rotational constants in cm-1:     0.183441     0.057977     0.044789
Rotational constants in MHz :  5499.434760  1738.096583  1342.728037

                             ****ORCA TERMINATED NORMALLY****
TOTAL RUN TIME: 0 days 0 hours 22 minutes 17 seconds 773 msec
