                         Program Version 5.0.4 -  RELEASE  -
|  1> !ri-mp2 aug-cc-pvqz aug-cc-pvqz/c tightscf
|  2> %pal nprocs 16 end
|  3>
|  4> * xyz 0 1
|  5> C     -2.139834   -0.710922    0.596826
|  6> C      1.068695   -0.883406   -0.030439
|  7> N     -1.459776   -0.309985   -0.644054
|  8> O      0.011483    1.442982    0.707174
|  9> S      0.021665    0.552366   -0.498920
| 10> H     -1.644773   -1.577025    1.031747
| 11> H     -3.157132   -1.003061    0.342196
| 12> H     -2.170598    0.089547    1.338748
| 13> C      2.503165   -0.427132    0.192491
| 14> H      0.977363   -1.601303   -0.844626
| 15> H      0.639979   -1.306459    0.877147
| 16> H     -2.062842    0.266509   -1.218062
| 17> H      2.551572    0.320870    0.982347
| 18> H      2.931112    0.002810   -0.714236
| 19> H      3.123098   -1.274945    0.485174
| 20> *
| 21>
| 22>                          ****END OF INPUT****

CARTESIAN COORDINATES (ANGSTROEM)
---------------------------------
  C     -2.139834   -0.710922    0.596826
  C      1.068695   -0.883406   -0.030439
  N     -1.459776   -0.309985   -0.644054
  O      0.011483    1.442982    0.707174
  S      0.021665    0.552366   -0.498920
  H     -1.644773   -1.577025    1.031747
  H     -3.157132   -1.003061    0.342196
  H     -2.170598    0.089547    1.338748
  C      2.503165   -0.427132    0.192491
  H      0.977363   -1.601303   -0.844626
  H      0.639979   -1.306459    0.877147
  H     -2.062842    0.266509   -1.218062
  H      2.551572    0.320870    0.982347
  H      2.931112    0.002810   -0.714236
  H      3.123098   -1.274945    0.485174

 Total Charge           Charge          ....    0
 Multiplicity           Mult            ....    1
 Number of Electrons    NEL             ....   58
 Basis Dimension        Dim             ....  898

ORBITAL ENERGIES
----------------

  NO   OCC          E(Eh)            E(eV)
   0   2.0000     -92.081413     -2505.6626
   1   2.0000     -20.505601      -557.9858
   2   2.0000     -15.586725      -424.1364
   3   2.0000     -11.261500      -306.4410
   4   2.0000     -11.260545      -306.4150
   5   2.0000     -11.229039      -305.5577
   6   2.0000      -9.065155      -246.6754
   7   2.0000      -6.747419      -183.6066
   8   2.0000      -6.746740      -183.5881
   9   2.0000      -6.745590      -183.5568
  10   2.0000      -1.343119       -36.5481
  11   2.0000      -1.210175       -32.9305
  12   2.0000      -1.062635       -28.9158
  13   2.0000      -0.955729       -26.0067
  14   2.0000      -0.892559       -24.2878
  15   2.0000      -0.799211       -21.7476
  16   2.0000      -0.682705       -18.5774
  17   2.0000      -0.648121       -17.6363
  18   2.0000      -0.640026       -17.4160
  19   2.0000      -0.605847       -16.4859
  20   2.0000      -0.599194       -16.3049
  21   2.0000      -0.557040       -15.1578
  22   2.0000      -0.540503       -14.7078
  23   2.0000      -0.530285       -14.4298
  24   2.0000      -0.527257       -14.3474
  25   2.0000      -0.503302       -13.6956
  26   2.0000      -0.444390       -12.0925
  27   2.0000      -0.412547       -11.2260
  28   2.0000      -0.368642       -10.0313
  29   0.0000       0.023282         0.6335
  30   0.0000       0.028747         0.7822
  31   0.0000       0.033627         0.9150
  32   0.0000       0.039100         1.0640
  33   0.0000       0.046242         1.2583

MULLIKEN ATOMIC CHARGES
-----------------------
   0 C :   -0.819773
   1 C :   -0.494108
   2 N :   -0.580466
   3 O :   -1.183275
   4 S :    1.274203
   5 H :    0.277784
   6 H :    0.387175
   7 H :    0.312594
   8 C :   -0.818207
   9 H :    0.357613
  10 H :    0.292053
  11 H :    0.218321
  12 H :    0.266470
  13 H :    0.226769
  14 H :    0.282847
Sum of atomic charges:   -0.0000000

LOEWDIN ATOMIC CHARGES
----------------------
   0 C :    0.694789
   1 C :    0.316095
   2 N :    0.619715
   3 O :    0.103865
   4 S :    0.574662
   5 H :   -0.322766
   6 H :   -0.304074
   7 H :   -0.315635
   8 C :    0.858516
   9 H :   -0.339902
  10 H :   -0.354784
  11 H :   -0.634770
  12 H :   -0.310169
  13 H :   -0.297504
  14 H :   -0.288039

  Mayer bond orders larger than 0.100000
B(  0-C ,  2-N ) :   0.9739 B(  0-C ,  5-H ) :   0.9270 B(  0-C ,  6-H ) :   0.8548
B(  0-C ,  7-H ) :   0.8934 B(  1-C ,  4-S ) :   0.8781 B(  1-C ,  8-C ) :   0.8918
B(  1-C ,  9-H ) :   0.8492 B(  1-C , 10-H ) :   0.8185 B(  2-N ,  4-S ) :   0.8897
B(  2-N , 11-H ) :   0.9467 B(  3-O ,  4-S ) :   1.2239 B(  8-C , 12-H ) :   0.9211
B(  8-C , 13-H ) :   0.9828 B(  8-C , 14-H ) :   0.9593

MP2 TOTAL ENERGY:     -647.033143381 Eh
FINAL SINGLE POINT ENERGY      -647.033143380691

DIPOLE MOMENT
-------------
                                X             Y             Z
Electronic contribution:     -1.43084       4.99234      -2.83453
Nuclear contribution   :      1.19805      -6.17885       2.34096
                        -----------------------------------------
Total Dipole Moment    :     -0.23279      -1.18652      -0.49357
                        -----------------------------------------
Magnitude (a.u.)       :      1.30599
Magnitude (Debye)      :      3.31957

Rotational constants in cm-1:     0.159699     0.065821     0.057414
Rotational constants in MHz :  4787.652070  1973.273807  1721.241594

                             ****ORCA TERMINATED NORMALLY****
TOTAL RUN TIME: 0 days 0 hours 23 minutes 42 seconds 519 msec
