                         Program Version 5.0.4 -  RELEASE  -
|  1> !ri-mp2 aug-cc-pvqz aug-cc-pvqz/c tightscf
|  2> %pal nprocs 16 end
|  3>
|  4> * xyz 0 1
|  5> C      0.000000    0.000000   -2.509568
|  6> C      0.000000    1.206952   -1.817042
|  7> C      0.000000   -1.206952   -1.817042
|  8> C      0.000000    1.215022   -0.429244
|  9> C      0.000000   -1.215022   -0.429244
| 10> C      0.000000    0.000000    0.241376
| 11> N      0.000000    0.000000    1.718131
| 12> O      0.000000    1.082390    2.285939
| 13> O      0.000000   -1.082390    2.285939
| 14> H      0.000000    0.000000   -3.590995
| 15> H      0.000000    2.143267   -2.357131
| 16> H      0.000000   -2.143267   -2.357131
| 17> H      0.000000    2.134833    0.133951
| 18> H      0.000000   -2.134833    0.133951
| 19> *
| 20>
| 21>                          ****END OF INPUT****

CARTESIAN COORDINATES (ANGSTROEM)
---------------------------------
  C      0.000000    0.000000   -2.509568
  C      0.000000    1.206952   -1.817042
  C      0.000000   -1.206952   -1.817042
  C      0.000000    1.215022   -0.429244
  C      0.000000   -1.215022   -0.429244
  C      0.000000    0.000000    0.241376
  N      0.000000    0.000000    1.718131
  O      0.000000    1.082390    2.285939
  O      0.000000   -1.082390    2.285939
  H      0.000000    0.000000   -3.590995
  H      0.000000    2.143267   -2.357131
  H      0.000000   -2.143267   -2.357131
  H      0.000000    2.134833    0.133951
  H      0.000000   -2.134833    0.133951

 Total Charge           Charge          ....    0
 Multiplicity           Mult            ....    1
 Number of Electrons    NEL             ....   64
 Basis Dimension        Dim             ....  950

ORBITAL ENERGIES
----------------

  NO   OCC          E(Eh)            E(eV)
   0   2.0000     -20.600349      -560.5640
   1   2.0000     -20.600297      -560.5626
   2   2.0000     -15.853157      -431.3863
   3   2.0000     -11.310637      -307.7781
   4   2.0000     -11.274039      -306.7822
   5   2.0000     -11.274001      -306.7812
   6   2.0000     -11.271529      -306.7139
   7   2.0000     -11.264043      -306.5102
   8   2.0000     -11.263931      -306.5072
   9   2.0000      -1.606970       -43.7279
  10   2.0000      -1.400130       -38.0995
  11   2.0000      -1.201433       -32.6926
  12   2.0000      -1.093489       -29.7553
  13   2.0000      -1.054221       -28.6868
  14   2.0000      -0.961279       -26.1577
  15   2.0000      -0.866822       -23.5874
  16   2.0000      -0.830934       -22.6109
  17   2.0000      -0.782982       -21.3060
  18   2.0000      -0.729150       -19.8412
  19   2.0000      -0.720752       -19.6126
  20   2.0000      -0.710068       -19.3219
  21   2.0000      -0.658376       -17.9153
  22   2.0000      -0.651981       -17.7413
  23   2.0000      -0.626330       -17.0433
  24   2.0000      -0.556725       -15.1492
  25   2.0000      -0.539571       -14.6825
  26   2.0000      -0.532393       -14.4871
  27   2.0000      -0.495825       -13.4921
  28   2.0000      -0.495478       -13.4827
  29   2.0000      -0.456120       -12.4116
  30   2.0000      -0.379177       -10.3179
  31   2.0000      -0.370602       -10.0846
  32   0.0000       0.018242         0.4964
  33   0.0000       0.025349         0.6898
  34   0.0000       0.032267         0.8780
  35   0.0000       0.034977         0.9518
  36   0.0000       0.044071         1.1992

MULLIKEN ATOMIC CHARGES
-----------------------
   0 C :   -0.221080
   1 C :   -0.332314
   2 C :   -0.332314
   3 C :   -0.148967
   4 C :   -0.148970
   5 C :    0.074186
   6 N :    0.710309
   7 O :   -0.594285
   8 O :   -0.594284
   9 H :    0.292848
  10 H :    0.254779
  11 H :    0.254781
  12 H :    0.392659
  13 H :    0.392653
Sum of atomic charges:   -0.0000000

LOEWDIN ATOMIC CHARGES
----------------------
   0 C :    0.354349
   1 C :    0.359919
   2 C :    0.359919
   3 C :    0.318336
   4 C :    0.318336
   5 C :   -0.301908
   6 N :   -0.836726
   7 O :    0.541516
   8 O :    0.541516
   9 H :   -0.314233
  10 H :   -0.319062
  11 H :   -0.319062
  12 H :   -0.351450
  13 H :   -0.351450

  Mayer bond orders larger than 0.100000
B(  0-C ,  1-C ) :   1.1420 B(  0-C ,  2-C ) :   1.1420 B(  0-C ,  9-H ) :   1.0588
B(  1-C ,  3-C ) :   1.3136 B(  1-C ,  4-C ) :   0.1135 B(  1-C ,  5-C ) :  -0.2685
B(  1-C ,  9-H ) :  -0.1033 B(  1-C , 10-H ) :   1.0957 B(  2-C ,  3-C ) :   0.1135
B(  2-C ,  4-C ) :   1.3136 B(  2-C ,  5-C ) :  -0.2685 B(  2-C ,  9-H ) :  -0.1033
B(  2-C , 11-H ) :   1.0958 B(  3-C ,  5-C ) :   1.1918 B(  3-C , 12-H ) :   0.8219
B(  4-C ,  5-C ) :   1.1918 B(  4-C , 13-H ) :   0.8219 B(  5-C ,  6-N ) :   0.7895
B(  5-C ,  7-O ) :   0.1873 B(  5-C ,  8-O ) :   0.1873 B(  6-N ,  7-O ) :   1.1765
B(  6-N ,  8-O ) :   1.1765

MP2 TOTAL ENERGY:     -436.102294935 Eh
FINAL SINGLE POINT ENERGY      -436.102294934943

DIPOLE MOMENT
-------------
                                X             Y             Z
Electronic contribution:      0.00000      -0.00000       5.73984
Nuclear contribution   :      0.00000       0.00000      -7.76688
                        -----------------------------------------
Total Dipole Moment    :      0.00000      -0.00000      -2.02704
                        -----------------------------------------
Magnitude (a.u.)       :      2.02704
Magnitude (Debye)      :      5.15233

Rotational constants in cm-1:     0.133375     0.042964     0.032496
Rotational constants in MHz :  3998.468292  1288.035290   974.210683

                             ****ORCA TERMINATED NORMALLY****
TOTAL RUN TIME: 0 days 0 hours 37 minutes 31 seconds 669 msec
