                         Program Version 5.0.4 -  RELEASE  -
|  1> !ri-mp2 aug-cc-pvqz aug-cc-pvqz/c tightscf
|  2> %pal nprocs 16 end
|  3> %maxcore 3800
|  4>
|  5> * xyz 0 1
|  6> O      3.657272   -0.908486    0.267264
|  7> N      2.280419   -1.049466   -0.034086
|  8> C      1.723395    0.078313   -0.240657
|  9> C      0.252045    0.045182   -0.552072
| 10> C     -0.612702    0.655783    0.563633
| 11> C      2.452308    1.390511   -0.181512
| 12> C     -2.104484    0.739914    0.222819
| 13> C     -2.812872   -0.610021    0.085967
| 14> C     -4.311099   -0.469861   -0.179030
| 15> H      3.935602   -1.821933    0.382506
| 16> H      0.079088    0.601638   -1.480057
| 17> H     -0.033680   -0.989673   -0.733020
| 18> H     -0.477778    0.065952    1.474702
| 19> H     -0.249404    1.660864    0.792252
| 20> H      1.801297    2.215730   -0.461660
| 21> H      3.314651    1.372956   -0.848863
| 22> H      2.840303    1.572750    0.821967
| 23> H     -2.605873    1.318775    1.004289
| 24> H     -2.232338    1.310663   -0.703449
| 25> H     -2.358845   -1.189949   -0.720907
| 26> H     -2.656457   -1.188678    1.001435
| 27> H     -4.805958    0.071843    0.629774
| 28> H     -4.498308    0.078583   -1.104556
| 29> H     -4.792947   -1.444298   -0.268812
| 30> *
| 31>
| 32>                          ****END OF INPUT****

CARTESIAN COORDINATES (ANGSTROEM)
---------------------------------
  O      3.657272   -0.908486    0.267264
  N      2.280419   -1.049466   -0.034086
  C      1.723395    0.078313   -0.240657
  C      0.252045    0.045182   -0.552072
  C     -0.612702    0.655783    0.563633
  C      2.452308    1.390511   -0.181512
  C     -2.104484    0.739914    0.222819
  C     -2.812872   -0.610021    0.085967
  C     -4.311099   -0.469861   -0.179030
  H      3.935602   -1.821933    0.382506
  H      0.079088    0.601638   -1.480057
  H     -0.033680   -0.989673   -0.733020
  H     -0.477778    0.065952    1.474702
  H     -0.249404    1.660864    0.792252
  H      1.801297    2.215730   -0.461660
  H      3.314651    1.372956   -0.848863
  H      2.840303    1.572750    0.821967
  H     -2.605873    1.318775    1.004289
  H     -2.232338    1.310663   -0.703449
  H     -2.358845   -1.189949   -0.720907
  H     -2.656457   -1.188678    1.001435
  H     -4.805958    0.071843    0.629774
  H     -4.498308    0.078583   -1.104556
  H     -4.792947   -1.444298   -0.268812

 Total Charge           Charge          ....    0
 Multiplicity           Mult            ....    1
 Number of Electrons    NEL             ....   72
 Basis Dimension        Dim             .... 1410

ORBITAL ENERGIES
----------------

  NO   OCC          E(Eh)            E(eV)
   0   2.0000     -20.582895      -560.0890
   1   2.0000     -15.603452      -424.5915
   2   2.0000     -11.273484      -306.7671
   3   2.0000     -11.228467      -305.5421
   4   2.0000     -11.225707      -305.4670
   5   2.0000     -11.224512      -305.4345
   6   2.0000     -11.219574      -305.3001
   7   2.0000     -11.217483      -305.2432
   8   2.0000     -11.211069      -305.0687
   9   2.0000      -1.405700       -38.2510
  10   2.0000      -1.168290       -31.7908
  11   2.0000      -1.084004       -29.4973
  12   2.0000      -1.022089       -27.8124
  13   2.0000      -0.979377       -26.6502
  14   2.0000      -0.932684       -25.3796
  15   2.0000      -0.846619       -23.0377
  16   2.0000      -0.785850       -21.3841
  17   2.0000      -0.728675       -19.8282
  18   2.0000      -0.688227       -18.7276
  19   2.0000      -0.657312       -17.8864
  20   2.0000      -0.636626       -17.3235
  21   2.0000      -0.614574       -16.7234
  22   2.0000      -0.597205       -16.2508
  23   2.0000      -0.587077       -15.9752
  24   2.0000      -0.572429       -15.5766
  25   2.0000      -0.555600       -15.1186
  26   2.0000      -0.546668       -14.8756
  27   2.0000      -0.543348       -14.7853
  28   2.0000      -0.512713       -13.9516
  29   2.0000      -0.507456       -13.8086
  30   2.0000      -0.492257       -13.3950
  31   2.0000      -0.468444       -12.7470
  32   2.0000      -0.465705       -12.6725
  33   2.0000      -0.454921       -12.3790
  34   2.0000      -0.424880       -11.5616
  35   2.0000      -0.375267       -10.2115
  36   0.0000       0.025107         0.6832
  37   0.0000       0.028446         0.7741
  38   0.0000       0.031558         0.8587
  39   0.0000       0.032105         0.8736
  40   0.0000       0.041706         1.1349

MULLIKEN ATOMIC CHARGES
-----------------------
   0 O :   -0.641783
   1 N :   -0.322864
   2 C :    0.300472
   3 C :   -0.253421
   4 C :   -0.370552
   5 C :   -0.834433
   6 C :   -0.351183
   7 C :   -0.402190
   8 C :   -0.829091
   9 H :    0.301764
  10 H :    0.222996
  11 H :    0.287576
  12 H :    0.257597
  13 H :    0.228093
  14 H :    0.302019
  15 H :    0.282713
  16 H :    0.242626
  17 H :    0.245016
  18 H :    0.209863
  19 H :    0.232201
  20 H :    0.207800
  21 H :    0.210780
  22 H :    0.226388
  23 H :    0.247613
Sum of atomic charges:    0.0000000

LOEWDIN ATOMIC CHARGES
----------------------
   0 O :    1.004025
   1 N :    0.339817
   2 C :   -0.351383
   3 C :    0.460754
   4 C :    0.533128
   5 C :    0.891642
   6 C :    0.526074
   7 C :    0.510002
   8 C :    0.930086
   9 H :   -0.880440
  10 H :   -0.271137
  11 H :   -0.326044
  12 H :   -0.261486
  13 H :   -0.279659
  14 H :   -0.303365
  15 H :   -0.295591
  16 H :   -0.283084
  17 H :   -0.270869
  18 H :   -0.267763
  19 H :   -0.284710
  20 H :   -0.268152
  21 H :   -0.285084
  22 H :   -0.283575
  23 H :   -0.283186

  Mayer bond orders larger than 0.100000
B(  0-O ,  1-N ) :   0.7340 B(  0-O ,  9-H ) :   0.9544 B(  1-N ,  2-C ) :   1.6798
B(  1-N ,  3-C ) :  -0.2643 B(  2-C ,  3-C ) :   1.0177 B(  2-C ,  5-C ) :   0.7651
B(  3-C ,  4-C ) :   0.8467 B(  3-C , 10-H ) :   0.9216 B(  3-C , 11-H ) :   0.9139
B(  4-C ,  6-C ) :   0.9646 B(  4-C , 12-H ) :   0.8620 B(  4-C , 13-H ) :   0.9646
B(  5-C , 14-H ) :   0.9775 B(  5-C , 15-H ) :   0.9646 B(  5-C , 16-H ) :   0.9617
B(  6-C ,  7-C ) :   0.8551 B(  6-C , 17-H ) :   0.9291 B(  6-C , 18-H ) :   0.9147
B(  7-C ,  8-C ) :   0.9048 B(  7-C , 19-H ) :   0.8897 B(  7-C , 20-H ) :   0.9080
B(  7-C , 23-H ) :  -0.1084 B(  8-C , 21-H ) :   0.9882 B(  8-C , 22-H ) :   0.9640
B(  8-C , 23-H ) :   1.0281

MP2 TOTAL ENERGY:     -405.015938199 Eh
FINAL SINGLE POINT ENERGY      -405.015938199352

DIPOLE MOMENT
-------------
                                X             Y             Z
Electronic contribution:     12.89966      -3.40253       0.16779
Nuclear contribution   :    -13.25976       3.78312      -0.22019
                        -----------------------------------------
Total Dipole Moment    :     -0.36010       0.38059      -0.05240
                        -----------------------------------------
Magnitude (a.u.)       :      0.52656
Magnitude (Debye)      :      1.33841

Rotational constants in cm-1:     0.141972     0.018262     0.016924
Rotational constants in MHz :  4256.212896   547.479287   507.380911

                             ****ORCA TERMINATED NORMALLY****
TOTAL RUN TIME: 0 days 1 hours 43 minutes 49 seconds 1 msec
