                         Program Version 5.0.4 -  RELEASE  -
|  1> !ri-mp2 aug-cc-pvqz aug-cc-pvqz/c tightscf
|  2> %pal nprocs 16 end
|  3>
|  4> * xyz 0 1
|  5> C     -0.718651   -0.816155        0.000000
|  6> C      0.000000    0.539124        0.000000
|  7> O      1.331696    0.432025        0.000000
|  8> O     -0.618671    1.571383        0.000000
|  9> O     -0.159963   -1.873970        0.000000
| 10> H     -1.815745   -0.700767        0.000000
| 11> H      1.703152    1.327452        0.000000
| 12> *
| 13>
| 14>                          ****END OF INPUT****

CARTESIAN COORDINATES (ANGSTROEM)
---------------------------------
  C     -0.718651   -0.816155    0.000000
  C      0.000000    0.539124    0.000000
  O      1.331696    0.432025    0.000000
  O     -0.618671    1.571383    0.000000
  O     -0.159963   -1.873970    0.000000
  H     -1.815745   -0.700767    0.000000
  H      1.703152    1.327452    0.000000

 Total Charge           Charge          ....    0
 Multiplicity           Mult            ....    1
 Number of Electrons    NEL             ....   38
 Basis Dimension        Dim             ....  492

ORBITAL ENERGIES
----------------

  NO   OCC          E(Eh)            E(eV)
   0   2.0000     -20.639880      -561.6397
   1   2.0000     -20.605836      -560.7133
   2   2.0000     -20.587865      -560.2243
   3   2.0000     -11.417916      -310.6973
   4   2.0000     -11.370193      -309.3987
   5   2.0000      -1.499941       -40.8155
   6   2.0000      -1.438860       -39.1534
   7   2.0000      -1.398791       -38.0630
   8   2.0000      -0.975207       -26.5367
   9   2.0000      -0.842257       -22.9190
  10   2.0000      -0.739519       -20.1233
  11   2.0000      -0.726298       -19.7636
  12   2.0000      -0.689605       -18.7651
  13   2.0000      -0.666852       -18.1460
  14   2.0000      -0.629525       -17.1302
  15   2.0000      -0.562693       -15.3117
  16   2.0000      -0.530932       -14.4474
  17   2.0000      -0.512921       -13.9573
  18   2.0000      -0.455301       -12.3894
  19   0.0000       0.022874         0.6224
  20   0.0000       0.032884         0.8948
  21   0.0000       0.046035         1.2527
  22   0.0000       0.060304         1.6410
  23   0.0000       0.068684         1.8690

MULLIKEN ATOMIC CHARGES
-----------------------
   0 C :    0.173359
   1 C :    0.834366
   2 O :   -0.527814
   3 O :   -0.641608
   4 O :   -0.592815
   5 H :    0.429879
   6 H :    0.324632
Sum of atomic charges:    0.0000000

LOEWDIN ATOMIC CHARGES
----------------------
   0 C :   -0.307077
   1 C :   -1.081144
   2 O :    1.220161
   3 O :    0.670116
   4 O :    0.693219
   5 H :   -0.390570
   6 H :   -0.804704

  Mayer bond orders larger than 0.100000
B(  0-C ,  1-C ) :   0.9701 B(  0-C ,  3-O ) :   0.1071 B(  0-C ,  4-O ) :   1.7246
B(  0-C ,  5-H ) :   0.8197 B(  1-C ,  2-O ) :   0.9888 B(  1-C ,  3-O ) :   1.5727
B(  1-C ,  4-O ) :   0.1192 B(  2-O ,  6-H ) :   0.9204

MP2 TOTAL ENERGY:     -302.708557078 Eh
FINAL SINGLE POINT ENERGY      -302.708557077760

DIPOLE MOMENT
-------------
                                X             Y             Z
Electronic contribution:      0.18686      -0.13742       0.00000
Nuclear contribution   :     -0.10013       0.60607       0.00000
                        -----------------------------------------
Total Dipole Moment    :      0.08673       0.46864       0.00000
                        -----------------------------------------
Magnitude (a.u.)       :      0.47660
Magnitude (Debye)      :      1.21142

Rotational constants in cm-1:     0.365517     0.148303     0.105499
Rotational constants in MHz : 10957.920703  4446.018600  3162.770140

                             ****ORCA TERMINATED NORMALLY****
TOTAL RUN TIME: 0 days 0 hours 6 minutes 32 seconds 975 msec
