                         Program Version 5.0.4 -  RELEASE  -
|  1> !ri-mp2 aug-cc-pvqz aug-cc-pvqz/c tightscf
|  2> %pal nprocs 16 end
|  3> %maxcore 3800
|  4>
|  5> * xyz 0 1
|  6> C     -3.346877   -3.031775    0.000000
|  7> C     -2.834619   -1.946702    0.000000
|  8> C      3.714400    1.932692    0.000000
|  9> C     -2.190041   -0.639220    0.000000
| 10> C      2.187929    1.995002    0.000000
| 11> C     -0.653223   -0.713523    0.000000
| 12> C      1.528109    0.615773    0.000000
| 13> C      0.000000    0.667374    0.000000
| 14> H     -3.805160   -3.988782    0.000000
| 15> H      4.087265    1.405598    0.880672
| 16> H      4.155073    2.930520    0.000000
| 17> H      4.087265    1.405598   -0.880672
| 18> H     -2.527896   -0.075379   -0.874546
| 19> H     -2.527896   -0.075379    0.874546
| 20> H      1.845994    2.557334    0.874089
| 21> H      1.845994    2.557334   -0.874089
| 22> H     -0.326053   -1.280282   -0.874781
| 23> H     -0.326053   -1.280282    0.874781
| 24> H      1.870789    0.052846    0.874570
| 25> H      1.870789    0.052846   -0.874570
| 26> H     -0.342088    1.230153   -0.875038
| 27> H     -0.342088    1.230153    0.875038
| 28> *
| 29>
| 30>                          ****END OF INPUT****

CARTESIAN COORDINATES (ANGSTROEM)
---------------------------------
  C     -3.346877   -3.031775    0.000000
  C     -2.834619   -1.946702    0.000000
  C      3.714400    1.932692    0.000000
  C     -2.190041   -0.639220    0.000000
  C      2.187929    1.995002    0.000000
  C     -0.653223   -0.713523    0.000000
  C      1.528109    0.615773    0.000000
  C      0.000000    0.667374    0.000000
  H     -3.805160   -3.988782    0.000000
  H      4.087265    1.405598    0.880672
  H      4.155073    2.930520    0.000000
  H      4.087265    1.405598   -0.880672
  H     -2.527896   -0.075379   -0.874546
  H     -2.527896   -0.075379    0.874546
  H      1.845994    2.557334    0.874089
  H      1.845994    2.557334   -0.874089
  H     -0.326053   -1.280282   -0.874781
  H     -0.326053   -1.280282    0.874781
  H      1.870789    0.052846    0.874570
  H      1.870789    0.052846   -0.874570
  H     -0.342088    1.230153   -0.875038
  H     -0.342088    1.230153    0.875038

 Total Charge           Charge          ....    0
 Multiplicity           Mult            ....    1
 Number of Electrons    NEL             ....   62
 Basis Dimension        Dim             .... 1284

ORBITAL ENERGIES
----------------

  NO   OCC          E(Eh)            E(eV)
   0   2.0000     -11.247836      -306.0692
   1   2.0000     -11.228475      -305.5423
   2   2.0000     -11.226083      -305.4773
   3   2.0000     -11.220406      -305.3228
   4   2.0000     -11.217830      -305.2527
   5   2.0000     -11.216970      -305.2293
   6   2.0000     -11.214220      -305.1544
   7   2.0000     -11.210745      -305.0599
   8   2.0000      -1.101281       -29.9674
   9   2.0000      -1.065943       -29.0058
  10   2.0000      -1.016548       -27.6617
  11   2.0000      -0.964236       -26.2382
  12   2.0000      -0.889456       -24.2033
  13   2.0000      -0.813847       -22.1459
  14   2.0000      -0.791845       -21.5472
  15   2.0000      -0.715141       -19.4600
  16   2.0000      -0.661431       -17.9985
  17   2.0000      -0.634180       -17.2569
  18   2.0000      -0.624671       -16.9981
  19   2.0000      -0.591867       -16.1055
  20   2.0000      -0.571019       -15.5382
  21   2.0000      -0.553956       -15.0739
  22   2.0000      -0.543629       -14.7929
  23   2.0000      -0.515806       -14.0358
  24   2.0000      -0.494942       -13.4681
  25   2.0000      -0.478228       -13.0133
  26   2.0000      -0.467369       -12.7178
  27   2.0000      -0.464633       -12.6433
  28   2.0000      -0.458567       -12.4782
  29   2.0000      -0.381909       -10.3923
  30   2.0000      -0.380461       -10.3529
  31   0.0000       0.025097         0.6829
  32   0.0000       0.027401         0.7456
  33   0.0000       0.031239         0.8501
  34   0.0000       0.033277         0.9055
  35   0.0000       0.037170         1.0115

MULLIKEN ATOMIC CHARGES
-----------------------
   0 C :   -1.121018
   1 C :    0.025738
   2 C :   -0.909175
   3 C :   -0.111938
   4 C :   -0.506555
   5 C :   -0.277098
   6 C :   -0.282771
   7 C :   -0.270232
   8 H :    0.323799
   9 H :    0.224985
  10 H :    0.266747
  11 H :    0.224931
  12 H :    0.268293
  13 H :    0.268257
  14 H :    0.227658
  15 H :    0.227741
  16 H :    0.218594
  17 H :    0.218711
  18 H :    0.227433
  19 H :    0.227679
  20 H :    0.264014
  21 H :    0.264206
Sum of atomic charges:    0.0000000

LOEWDIN ATOMIC CHARGES
----------------------
   0 C :    0.572373
   1 C :    0.100796
   2 C :    0.927079
   3 C :    0.423555
   4 C :    0.509506
   5 C :    0.504387
   6 C :    0.514312
   7 C :    0.521374
   8 H :   -0.471451
   9 H :   -0.285195
  10 H :   -0.284508
  11 H :   -0.285195
  12 H :   -0.299677
  13 H :   -0.299677
  14 H :   -0.273082
  15 H :   -0.273082
  16 H :   -0.268259
  17 H :   -0.268259
  18 H :   -0.267129
  19 H :   -0.267129
  20 H :   -0.265370
  21 H :   -0.265370

  Mayer bond orders larger than 0.100000
B(  0-C ,  1-C ) :   2.5928 B(  0-C ,  3-C ) :  -0.4168 B(  0-C ,  8-H ) :   1.2069
B(  1-C ,  3-C ) :   0.7923 B(  1-C ,  5-C ) :  -0.3914 B(  1-C ,  8-H ) :  -0.2190
B(  2-C ,  4-C ) :   1.0479 B(  2-C ,  6-C ) :  -0.1282 B(  2-C ,  9-H ) :   0.9560
B(  2-C , 10-H ) :   1.0258 B(  2-C , 11-H ) :   0.9560 B(  3-C ,  5-C ) :   1.0980
B(  3-C , 12-H ) :   0.8681 B(  3-C , 13-H ) :   0.8682 B(  4-C ,  6-C ) :   0.9950
B(  4-C , 10-H ) :  -0.1015 B(  4-C , 14-H ) :   0.8796 B(  4-C , 15-H ) :   0.8796
B(  5-C ,  7-C ) :   1.0410 B(  5-C , 16-H ) :   0.8630 B(  5-C , 17-H ) :   0.8630
B(  6-C ,  7-C ) :   1.0366 B(  6-C , 18-H ) :   0.8623 B(  6-C , 19-H ) :   0.8621
B(  7-C , 20-H ) :   0.8313 B(  7-C , 21-H ) :   0.8312

MP2 TOTAL ENERGY:     -312.611884088 Eh
FINAL SINGLE POINT ENERGY      -312.611884087727

DIPOLE MOMENT
-------------
                                X             Y             Z
Electronic contribution:     -9.86565      -6.79808       0.00000
Nuclear contribution   :     10.10764       7.10295       0.00000
                        -----------------------------------------
Total Dipole Moment    :      0.24199       0.30488       0.00000
                        -----------------------------------------
Magnitude (a.u.)       :      0.38924
Magnitude (Debye)      :      0.98938

Rotational constants in cm-1:     0.357183     0.018208     0.017661
Rotational constants in MHz : 10708.075325   545.853440   529.470461

                             ****ORCA TERMINATED NORMALLY****
TOTAL RUN TIME: 0 days 1 hours 32 minutes 39 seconds 310 msec
