                         Program Version 5.0.4 -  RELEASE  -
|  1> !ri-mp2 aug-cc-pvqz aug-cc-pvqz/c tightscf
|  2> %pal nprocs 16 end
|  3>
|  4> * xyz 0 1
|  5> C    -0.054169     0.770269       0.000000
|  6> C     0.054169    -0.770269       0.000000
|  7> O    -1.121261     1.323096       0.000000
|  8> O     1.121261    -1.323096       0.000000
|  9> O     1.121261     1.380321       0.000000
| 10> O    -1.121261    -1.380321       0.000000
| 11> H     1.811137     0.691631       0.000000
| 12> H    -1.811137    -0.691631       0.000000
| 13> *
| 14>
| 15>                          ****END OF INPUT****

CARTESIAN COORDINATES (ANGSTROEM)
---------------------------------
  C     -0.054169    0.770269    0.000000
  C      0.054169   -0.770269    0.000000
  O     -1.121261    1.323096    0.000000
  O      1.121261   -1.323096    0.000000
  O      1.121261    1.380321    0.000000
  O     -1.121261   -1.380321    0.000000
  H      1.811137    0.691631    0.000000
  H     -1.811137   -0.691631    0.000000

 Total Charge           Charge          ....    0
 Multiplicity           Mult            ....    1
 Number of Electrons    NEL             ....   46
 Basis Dimension        Dim             ....  572

ORBITAL ENERGIES
----------------

  NO   OCC          E(Eh)            E(eV)
   0   2.0000     -20.650761      -561.9358
   1   2.0000     -20.650759      -561.9357
   2   2.0000     -20.600780      -560.5757
   3   2.0000     -20.600780      -560.5757
   4   2.0000     -11.436140      -311.1932
   5   2.0000     -11.435589      -311.1782
   6   2.0000      -1.527933       -41.5772
   7   2.0000      -1.491140       -40.5760
   8   2.0000      -1.430978       -38.9389
   9   2.0000      -1.405770       -38.2530
  10   2.0000      -0.962649       -26.1950
  11   2.0000      -0.861036       -23.4300
  12   2.0000      -0.853981       -23.2380
  13   2.0000      -0.728166       -19.8144
  14   2.0000      -0.700570       -19.0635
  15   2.0000      -0.696342       -18.9484
  16   2.0000      -0.687102       -18.6970
  17   2.0000      -0.645437       -17.5632
  18   2.0000      -0.600892       -16.3511
  19   2.0000      -0.570665       -15.5286
  20   2.0000      -0.528463       -14.3802
  21   2.0000      -0.522708       -14.2236
  22   2.0000      -0.479124       -13.0376
  23   0.0000       0.025591         0.6964
  24   0.0000       0.034123         0.9285
  25   0.0000       0.052242         1.4216
  26   0.0000       0.056202         1.5293
  27   0.0000       0.062144         1.6910

MULLIKEN ATOMIC CHARGES
-----------------------
   0 C :    0.872131
   1 C :    0.872131
   2 O :   -0.650984
   3 O :   -0.650984
   4 O :   -0.655348
   5 O :   -0.655348
   6 H :    0.434201
   7 H :    0.434201
Sum of atomic charges:    0.0000000

LOEWDIN ATOMIC CHARGES
----------------------
   0 C :   -1.046328
   1 C :   -1.046328
   2 O :    0.705542
   3 O :    0.705542
   4 O :    1.244663
   5 O :    1.244663
   6 H :   -0.903877
   7 H :   -0.903877

  Mayer bond orders larger than 0.100000
B(  0-C ,  1-C ) :   1.1805 B(  0-C ,  2-O ) :   1.5713 B(  0-C ,  3-O ) :   0.1431
B(  0-C ,  4-O ) :   0.9226 B(  0-C ,  5-O ) :   0.1127 B(  1-C ,  2-O ) :   0.1431
B(  1-C ,  3-O ) :   1.5713 B(  1-C ,  4-O ) :   0.1127 B(  1-C ,  5-O ) :   0.9226
B(  4-O ,  6-H ) :   0.8081 B(  5-O ,  7-H ) :   0.8081

MP2 TOTAL ENERGY:     -377.899523720 Eh
FINAL SINGLE POINT ENERGY      -377.899523719576

DIPOLE MOMENT
-------------
                                X             Y             Z
Electronic contribution:      0.00000       0.00000       0.00000
Nuclear contribution   :      0.00000       0.00000       0.00000
                        -----------------------------------------
Total Dipole Moment    :      0.00000       0.00000       0.00000
                        -----------------------------------------
Magnitude (a.u.)       :      0.00000
Magnitude (Debye)      :      0.00000

Rotational constants in cm-1:     0.194081     0.127247     0.076857
Rotational constants in MHz :  5818.403812  3814.774168  2304.109465

                             ****ORCA TERMINATED NORMALLY****
TOTAL RUN TIME: 0 days 0 hours 9 minutes 13 seconds 524 msec
