                         Program Version 5.0.4 -  RELEASE  -
|  1> !ri-mp2 aug-cc-pvqz aug-cc-pvqz/c tightscf
|  2> %pal nprocs 16 end
|  3>
|  4> * xyz 0 1
|  5> C     0.000000     0.693498    1.952555
|  6> C     0.000000    -0.693498    1.952555
|  7> C     0.000000     1.377876    0.743109
|  8> C     0.000000    -1.377876    0.743109
|  9> C     0.000000     0.703110   -0.476273
| 10> C     0.000000    -0.703110   -0.476273
| 11> C     0.000000     1.477433   -1.768050
| 12> C     0.000000    -1.477433   -1.768050
| 13> H     0.000000     1.241957    2.885153
| 14> H     0.000000    -1.241957    2.885153
| 15> H     0.000000     2.461031    0.743277
| 16> H     0.000000    -2.461031    0.743277
| 17> H     0.876446     1.245249   -2.378000
| 18> H    -0.876446     1.245249   -2.378000
| 19> H     0.000000     2.550074   -1.580471
| 20> H     0.876446    -1.245249   -2.378000
| 21> H     0.000000    -2.550074   -1.580471
| 22> H    -0.876446    -1.245249   -2.378000
| 23> *
| 24>
| 25>                          ****END OF INPUT****

CARTESIAN COORDINATES (ANGSTROEM)
---------------------------------
  C      0.000000    0.693498    1.952555
  C      0.000000   -0.693498    1.952555
  C      0.000000    1.377876    0.743109
  C      0.000000   -1.377876    0.743109
  C      0.000000    0.703110   -0.476273
  C      0.000000   -0.703110   -0.476273
  C      0.000000    1.477433   -1.768050
  C      0.000000   -1.477433   -1.768050
  H      0.000000    1.241957    2.885153
  H      0.000000   -1.241957    2.885153
  H      0.000000    2.461031    0.743277
  H      0.000000   -2.461031    0.743277
  H      0.876446    1.245249   -2.378000
  H     -0.876446    1.245249   -2.378000
  H      0.000000    2.550074   -1.580471
  H      0.876446   -1.245249   -2.378000
  H      0.000000   -2.550074   -1.580471
  H     -0.876446   -1.245249   -2.378000

 Total Charge           Charge          ....    0
 Multiplicity           Mult            ....    1
 Number of Electrons    NEL             ....   58
 Basis Dimension        Dim             .... 1100

ORBITAL ENERGIES
----------------

  NO   OCC          E(Eh)            E(eV)
   0   2.0000     -11.234659      -305.7106
   1   2.0000     -11.233505      -305.6792
   2   2.0000     -11.225293      -305.4558
   3   2.0000     -11.224523      -305.4348
   4   2.0000     -11.223715      -305.4128
   5   2.0000     -11.223230      -305.3996
   6   2.0000     -11.220668      -305.3299
   7   2.0000     -11.220664      -305.3298
   8   2.0000      -1.154948       -31.4277
   9   2.0000      -1.049460       -28.5573
  10   2.0000      -1.031620       -28.0718
  11   2.0000      -0.947565       -25.7846
  12   2.0000      -0.915320       -24.9071
  13   2.0000      -0.811540       -22.0831
  14   2.0000      -0.783989       -21.3334
  15   2.0000      -0.678238       -18.4558
  16   2.0000      -0.645166       -17.5559
  17   2.0000      -0.619540       -16.8585
  18   2.0000      -0.591961       -16.1081
  19   2.0000      -0.572532       -15.5794
  20   2.0000      -0.558701       -15.2030
  21   2.0000      -0.550549       -14.9812
  22   2.0000      -0.539256       -14.6739
  23   2.0000      -0.538090       -14.6422
  24   2.0000      -0.480955       -13.0875
  25   2.0000      -0.479047       -13.0355
  26   2.0000      -0.477023       -12.9805
  27   2.0000      -0.327953        -8.9241
  28   2.0000      -0.317169        -8.6306
  29   0.0000       0.026345         0.7169
  30   0.0000       0.028561         0.7772
  31   0.0000       0.028684         0.7805
  32   0.0000       0.039696         1.0802
  33   0.0000       0.042000         1.1429

MULLIKEN ATOMIC CHARGES
-----------------------
   0 C :   -0.326676
   1 C :   -0.326462
   2 C :   -0.527973
   3 C :   -0.528074
   4 C :    0.480685
   5 C :    0.480790
   6 C :   -0.792582
   7 C :   -0.792607
   8 H :    0.260779
   9 H :    0.260776
  10 H :    0.230274
  11 H :    0.230241
  12 H :    0.183937
  13 H :    0.183937
  14 H :    0.307543
  15 H :    0.183959
  16 H :    0.307494
  17 H :    0.183959
Sum of atomic charges:    0.0000000

LOEWDIN ATOMIC CHARGES
----------------------
   0 C :    0.342186
   1 C :    0.342186
   2 C :    0.342944
   3 C :    0.342944
   4 C :   -0.064246
   5 C :   -0.064245
   6 C :    0.902003
   7 C :    0.902003
   8 H :   -0.324733
   9 H :   -0.324733
  10 H :   -0.325883
  11 H :   -0.325883
  12 H :   -0.282952
  13 H :   -0.282952
  14 H :   -0.306367
  15 H :   -0.282952
  16 H :   -0.306367
  17 H :   -0.282952

  Mayer bond orders larger than 0.100000
B(  0-C ,  1-C ) :   1.1981 B(  0-C ,  2-C ) :   1.2861 B(  0-C ,  4-C ) :  -0.3367
B(  0-C ,  8-H ) :   1.1276 B(  1-C ,  3-C ) :   1.2860 B(  1-C ,  5-C ) :  -0.3366
B(  1-C ,  9-H ) :   1.1276 B(  2-C ,  4-C ) :   0.9580 B(  2-C ,  5-C ) :  -0.1022
B(  2-C ,  6-C ) :  -0.1018 B(  2-C ,  8-H ) :  -0.1673 B(  2-C , 10-H ) :   1.0441
B(  3-C ,  4-C ) :  -0.1022 B(  3-C ,  5-C ) :   0.9579 B(  3-C ,  7-C ) :  -0.1018
B(  3-C ,  9-H ) :  -0.1674 B(  3-C , 11-H ) :   1.0441 B(  4-C ,  5-C ) :   1.0361
B(  4-C ,  6-C ) :   0.5830 B(  4-C , 12-H ) :  -0.1071 B(  4-C , 13-H ) :  -0.1071
B(  4-C , 14-H ) :  -0.1134 B(  5-C ,  7-C ) :   0.5829 B(  5-C , 15-H ) :  -0.1071
B(  5-C , 16-H ) :  -0.1134 B(  5-C , 17-H ) :  -0.1071 B(  6-C , 12-H ) :   1.0580
B(  6-C , 13-H ) :   1.0580 B(  6-C , 14-H ) :   0.9796 B(  7-C , 15-H ) :   1.0580
B(  7-C , 16-H ) :   0.9797 B(  7-C , 17-H ) :   1.0580

MP2 TOTAL ENERGY:     -310.292114739 Eh
FINAL SINGLE POINT ENERGY      -310.292114738623

DIPOLE MOMENT
-------------
                                X             Y             Z
Electronic contribution:     -0.00000      -0.00000       5.29849
Nuclear contribution   :      0.00000       0.00000      -5.55689
                        -----------------------------------------
Total Dipole Moment    :     -0.00000      -0.00000      -0.25840
                        -----------------------------------------
Magnitude (a.u.)       :      0.25840
Magnitude (Debye)      :      0.65681

Rotational constants in cm-1:     0.105856     0.072058     0.043560
Rotational constants in MHz :  3173.497603  2160.240407  1305.885012

                             ****ORCA TERMINATED NORMALLY****
TOTAL RUN TIME: 0 days 1 hours 8 minutes 43 seconds 169 msec
