                         Program Version 5.0.4 -  RELEASE  -
|  1> !ri-mp2 aug-cc-pvqz aug-cc-pvqz/c tightscf
|  2> %pal nprocs 16 end
|  3>
|  4> * xyz 0 1
|  5> C      1.183630   -1.657236    0.000000
|  6> C      1.978197   -0.519415    0.000000
|  7> C     -0.201692   -1.524488    0.000000
|  8> C      1.385481    0.737927    0.000000
|  9> C     -0.822901   -0.278622    0.000000
| 10> C      0.000000    0.854617    0.000000
| 11> C     -2.318300   -0.130060    0.000000
| 12> O     -0.625320    2.075643    0.000000
| 13> H      1.634666   -2.639701    0.000000
| 14> H      3.056498   -0.602769    0.000000
| 15> H     -0.822640   -2.411682    0.000000
| 16> H      1.999453    1.631427    0.000000
| 17> H     -2.661652    0.425255    0.874779
| 18> H     -2.661652    0.425255   -0.874779
| 19> H     -2.803146   -1.104999    0.000000
| 20> H      0.034538    2.775735    0.000000
| 21> *
| 22>
| 23>                          ****END OF INPUT****

CARTESIAN COORDINATES (ANGSTROEM)
---------------------------------
  C      1.183630   -1.657236    0.000000
  C      1.978197   -0.519415    0.000000
  C     -0.201692   -1.524488    0.000000
  C      1.385481    0.737927    0.000000
  C     -0.822901   -0.278622    0.000000
  C      0.000000    0.854617    0.000000
  C     -2.318300   -0.130060    0.000000
  O     -0.625320    2.075643    0.000000
  H      1.634666   -2.639701    0.000000
  H      3.056498   -0.602769    0.000000
  H     -0.822640   -2.411682    0.000000
  H      1.999453    1.631427    0.000000
  H     -2.661652    0.425255    0.874779
  H     -2.661652    0.425255   -0.874779
  H     -2.803146   -1.104999    0.000000
  H      0.034538    2.775735    0.000000

 Total Charge           Charge          ....    0
 Multiplicity           Mult            ....    1
 Number of Electrons    NEL             ....   58
 Basis Dimension        Dim             .... 1008

ORBITAL ENERGIES
----------------

  NO   OCC          E(Eh)            E(eV)
   0   2.0000     -20.587131      -560.2043
   1   2.0000     -11.296696      -307.3987
   2   2.0000     -11.234856      -305.7160
   3   2.0000     -11.234155      -305.6969
   4   2.0000     -11.231668      -305.6292
   5   2.0000     -11.230452      -305.5961
   6   2.0000     -11.223087      -305.3957
   7   2.0000     -11.216465      -305.2155
   8   2.0000      -1.403106       -38.1804
   9   2.0000      -1.150034       -31.2940
  10   2.0000      -1.047050       -28.4917
  11   2.0000      -1.004907       -27.3449
  12   2.0000      -0.930940       -25.3322
  13   2.0000      -0.844620       -22.9833
  14   2.0000      -0.800995       -21.7962
  15   2.0000      -0.729594       -19.8532
  16   2.0000      -0.674978       -18.3671
  17   2.0000      -0.652069       -17.7437
  18   2.0000      -0.603754       -16.4290
  19   2.0000      -0.600549       -16.3418
  20   2.0000      -0.582528       -15.8514
  21   2.0000      -0.562698       -15.3118
  22   2.0000      -0.551095       -14.9961
  23   2.0000      -0.542071       -14.7505
  24   2.0000      -0.502407       -13.6712
  25   2.0000      -0.486727       -13.2445
  26   2.0000      -0.478038       -13.0081
  27   2.0000      -0.334859        -9.1120
  28   2.0000      -0.310346        -8.4449
  29   0.0000       0.023556         0.6410
  30   0.0000       0.029167         0.7937
  31   0.0000       0.029846         0.8121
  32   0.0000       0.040549         1.1034
  33   0.0000       0.043639         1.1875

MULLIKEN ATOMIC CHARGES
-----------------------
   0 C :   -0.402860
   1 C :   -0.354029
   2 C :   -0.499780
   3 C :   -0.551929
   4 C :    0.338584
   5 C :    0.965300
   6 C :   -0.766977
   7 O :   -0.773758
   8 H :    0.219150
   9 H :    0.279024
  10 H :    0.247557
  11 H :    0.241806
  12 H :    0.227638
  13 H :    0.227638
  14 H :    0.271900
  15 H :    0.330736
Sum of atomic charges:    0.0000000

LOEWDIN ATOMIC CHARGES
----------------------
   0 C :    0.338643
   1 C :    0.327605
   2 C :    0.333709
   3 C :    0.330337
   4 C :   -0.094208
   5 C :   -0.429664
   6 C :    0.896062
   7 O :    1.281887
   8 H :   -0.329783
   9 H :   -0.324066
  10 H :   -0.322932
  11 H :   -0.326839
  12 H :   -0.285552
  13 H :   -0.285552
  14 H :   -0.309848
  15 H :   -0.799801

  Mayer bond orders larger than 0.100000
B(  0-C ,  1-C ) :   1.1964 B(  0-C ,  2-C ) :   1.2690 B(  0-C ,  4-C ) :  -0.3160
B(  0-C ,  8-H ) :   1.1739 B(  1-C ,  3-C ) :   1.2343 B(  1-C ,  5-C ) :  -0.1108
B(  1-C ,  8-H ) :  -0.1180 B(  1-C ,  9-H ) :   1.0537 B(  2-C ,  3-C ) :   0.1143
B(  2-C ,  4-C ) :   0.9189 B(  2-C ,  8-H ) :  -0.1429 B(  2-C , 10-H ) :   1.0267
B(  3-C ,  4-C ) :  -0.1448 B(  3-C ,  5-C ) :   1.3159 B(  3-C ,  7-O ) :   0.2109
B(  3-C ,  9-H ) :  -0.1156 B(  3-C , 11-H ) :   1.0530 B(  4-C ,  5-C ) :   1.1592
B(  4-C ,  6-C ) :   0.6289 B(  4-C ,  7-O ) :   0.3212 B(  4-C , 14-H ) :  -0.1329
B(  5-C , 15-H ) :  -0.1138 B(  6-C , 12-H ) :   1.0110 B(  6-C , 13-H ) :   1.0110
B(  6-C , 14-H ) :   1.0337 B(  7-O , 15-H ) :   0.9390

MP2 TOTAL ENERGY:     -346.204944559 Eh
FINAL SINGLE POINT ENERGY      -346.204944558848

DIPOLE MOMENT
-------------
                                X             Y             Z
Electronic contribution:      2.60113       1.67856      -0.00000
Nuclear contribution   :     -2.25007      -1.47946       0.00000
                        -----------------------------------------
Total Dipole Moment    :      0.35106       0.19910      -0.00000
                        -----------------------------------------
Magnitude (a.u.)       :      0.40359
Magnitude (Debye)      :      1.02584

Rotational constants in cm-1:     0.109448     0.073564     0.044351
Rotational constants in MHz :  3281.171262  2205.403046  1329.617708

                             ****ORCA TERMINATED NORMALLY****
TOTAL RUN TIME: 0 days 0 hours 53 minutes 11 seconds 16 msec
