                         Program Version 5.0.4 -  RELEASE  -
|  1> !ri-mp2 aug-cc-pvqz aug-cc-pvqz/c tightscf
|  2> %pal nprocs 16 end
|  3>
|  4> * xyz 0 1
|  5> O     -0.749026   -0.493037        0.000000
|  6> C      0.778446   -0.240644        0.000000
|  7> C      0.000000    0.750804        0.000000
|  8> H      1.619799   -0.896149        0.000000
|  9> H     -0.298263    1.779489        0.000000
| 10> *
| 11>
| 12>                          ****END OF INPUT****

CARTESIAN COORDINATES (ANGSTROEM)
---------------------------------
  O     -0.749026   -0.493037    0.000000
  C      0.778446   -0.240644    0.000000
  C      0.000000    0.750804    0.000000
  H      1.619799   -0.896149    0.000000
  H     -0.298263    1.779489    0.000000

 Total Charge           Charge          ....    0
 Multiplicity           Mult            ....    1
 Number of Electrons    NEL             ....   22
 Basis Dimension        Dim             ....  332

ORBITAL ENERGIES
----------------

  NO   OCC          E(Eh)            E(eV)
   0   2.0000     -20.566959      -559.6554
   1   2.0000     -11.314772      -307.8906
   2   2.0000     -11.305647      -307.6423
   3   2.0000      -1.378903       -37.5219
   4   2.0000      -0.969821       -26.3902
   5   2.0000      -0.820468       -22.3261
   6   2.0000      -0.723420       -19.6852
   7   2.0000      -0.584434       -15.9033
   8   2.0000      -0.538752       -14.6602
   9   2.0000      -0.500338       -13.6149
  10   2.0000      -0.344187        -9.3658
  11   0.0000       0.024461         0.6656
  12   0.0000       0.027450         0.7470
  13   0.0000       0.062154         1.6913
  14   0.0000       0.071957         1.9580
  15   0.0000       0.075254         2.0478

MULLIKEN ATOMIC CHARGES
-----------------------
   0 O :   -0.684992
   1 C :   -0.374937
   2 C :   -0.163933
   3 H :    0.617324
   4 H :    0.606538
Sum of atomic charges:    0.0000000

LOEWDIN ATOMIC CHARGES
----------------------
   0 O :    0.575412
   1 C :    0.141100
   2 C :   -0.010852
   3 H :   -0.358935
   4 H :   -0.346724

  Mayer bond orders larger than 0.100000
B(  0-O ,  1-C ) :   0.8462 B(  0-O ,  2-C ) :   0.8680 B(  1-C ,  2-C ) :   1.9213
B(  1-C ,  3-H ) :   0.6001 B(  2-C ,  4-H ) :   0.6259

MP2 TOTAL ENERGY:     -152.252000820 Eh
FINAL SINGLE POINT ENERGY      -152.252000819935

DIPOLE MOMENT
-------------
                                X             Y             Z
Electronic contribution:     -0.43309      -0.24345      -0.00000
Nuclear contribution   :      1.28731       0.86058       0.00000
                        -----------------------------------------
Total Dipole Moment    :      0.85422       0.61713      -0.00000
                        -----------------------------------------
Magnitude (a.u.)       :      1.05382
Magnitude (Debye)      :      2.67860

Rotational constants in cm-1:     1.146038     0.861057     0.491658
Rotational constants in MHz : 34357.349940 25813.834950 14739.529598

                             ****ORCA TERMINATED NORMALLY****
TOTAL RUN TIME: 0 days 0 hours 2 minutes 7 seconds 538 msec
