                         Program Version 5.0.4 -  RELEASE  -
|  1> !ri-mp2 aug-cc-pvqz aug-cc-pvqz/c tightscf
|  2> %pal nprocs 16 end
|  3>
|  4> * xyz 0 1
|  5> O     -0.485466    0.609325    0.000033
|  6> N     -1.490658   -0.472251   -0.000012
|  7> C      0.723672    0.132472    0.000000
|  8> C      1.867234   -0.225589   -0.000026
|  9> H     -2.052385   -0.232984   -0.814329
| 10> H     -2.052359   -0.233078    0.814350
| 11> H      2.877638   -0.544080   -0.000049
| 12> *
| 13>
| 14>                          ****END OF INPUT****

CARTESIAN COORDINATES (ANGSTROEM)
---------------------------------
  O     -0.485466    0.609325    0.000033
  N     -1.490658   -0.472251   -0.000012
  C      0.723672    0.132472    0.000000
  C      1.867234   -0.225589   -0.000026
  H     -2.052385   -0.232984   -0.814329
  H     -2.052359   -0.233078    0.814350
  H      2.877638   -0.544080   -0.000049

 Total Charge           Charge          ....    0
 Multiplicity           Mult            ....    1
 Number of Electrons    NEL             ....   30
 Basis Dimension        Dim             ....  458

ORBITAL ENERGIES
----------------

  NO   OCC          E(Eh)            E(eV)
   0   2.0000     -20.647942      -561.8591
   1   2.0000     -15.647659      -425.7945
   2   2.0000     -11.286728      -307.1275
   3   2.0000     -11.214870      -305.1721
   4   2.0000      -1.465887       -39.8888
   5   2.0000      -1.152469       -31.3603
   6   2.0000      -1.005757       -27.3680
   7   2.0000      -0.760143       -20.6845
   8   2.0000      -0.732365       -19.9287
   9   2.0000      -0.690424       -18.7874
  10   2.0000      -0.681541       -18.5457
  11   2.0000      -0.583468       -15.8770
  12   2.0000      -0.478308       -13.0154
  13   2.0000      -0.387762       -10.5515
  14   2.0000      -0.369159       -10.0453
  15   0.0000       0.021268         0.5787
  16   0.0000       0.033093         0.9005
  17   0.0000       0.040340         1.0977
  18   0.0000       0.061728         1.6797
  19   0.0000       0.081523         2.2183

MULLIKEN ATOMIC CHARGES
-----------------------
   0 O :   -0.606531
   1 N :   -0.354234
   2 C :    0.608959
   3 C :   -0.647054
   4 H :    0.289109
   5 H :    0.289109
   6 H :    0.420642
Sum of atomic charges:   -0.0000000

LOEWDIN ATOMIC CHARGES
----------------------
   0 O :    0.578039
   1 N :    1.024668
   2 C :   -0.441251
   3 C :    0.475524
   4 H :   -0.567538
   5 H :   -0.567539
   6 H :   -0.501903

  Mayer bond orders larger than 0.100000
B(  0-O ,  1-N ) :   0.8979 B(  0-O ,  2-C ) :   0.8156 B(  1-N ,  2-C ) :  -0.1081
B(  1-N ,  4-H ) :   0.9064 B(  1-N ,  5-H ) :   0.9064 B(  2-C ,  3-C ) :   2.6585
B(  3-C ,  6-H ) :   0.8986

MP2 TOTAL ENERGY:     -207.533832514 Eh
FINAL SINGLE POINT ENERGY      -207.533832513666

DIPOLE MOMENT
-------------
                                X             Y             Z
Electronic contribution:      0.36416       0.95352       0.00004
Nuclear contribution   :     -1.22804      -0.99083      -0.00003
                        -----------------------------------------
Total Dipole Moment    :     -0.86387      -0.03731       0.00001
                        -----------------------------------------
Magnitude (a.u.)       :      0.86468
Magnitude (Debye)      :      2.19784

Rotational constants in cm-1:     1.452059     0.166553     0.153042
Rotational constants in MHz : 43531.633925  4993.121106  4588.068831

                             ****ORCA TERMINATED NORMALLY****
TOTAL RUN TIME: 0 days 0 hours 2 minutes 15 seconds 922 msec
