                         Program Version 5.0.4 -  RELEASE  -
|  1> !ri-mp2 aug-cc-pvqz aug-cc-pvqz/c tightscf
|  2> %pal nprocs 16 end
|  3>
|  4> * xyz 0 1
|  5> O     -0.105885   -1.140297   -0.063377
|  6> O     -2.056550   -0.017889   -0.074554
|  7> N      1.295288   -0.679344    0.308891
|  8> N      1.383531    0.622036   -0.219008
|  9> C     -0.862295   -0.019042    0.010796
| 10> C      0.089800    1.168812    0.183518
| 11> H      1.867042   -1.302225   -0.257604
| 12> H      1.412350    0.590975   -1.239324
| 13> H     -0.209208    2.014166   -0.427950
| 14> H      0.112541    1.465110    1.233260
| 15> *
| 16>
| 17>                          ****END OF INPUT****

CARTESIAN COORDINATES (ANGSTROEM)
---------------------------------
  O     -0.105885   -1.140297   -0.063377
  O     -2.056550   -0.017889   -0.074554
  N      1.295288   -0.679344    0.308891
  N      1.383531    0.622036   -0.219008
  C     -0.862295   -0.019042    0.010796
  C      0.089800    1.168812    0.183518
  H      1.867042   -1.302225   -0.257604
  H      1.412350    0.590975   -1.239324
  H     -0.209208    2.014166   -0.427950
  H      0.112541    1.465110    1.233260

 Total Charge           Charge          ....    0
 Multiplicity           Mult            ....    1
 Number of Electrons    NEL             ....   46
 Basis Dimension        Dim             ....  664

ORBITAL ENERGIES
----------------

  NO   OCC          E(Eh)            E(eV)
   0   2.0000     -20.634102      -561.4824
   1   2.0000     -20.553357      -559.2853
   2   2.0000     -15.686902      -426.8623
   3   2.0000     -15.629209      -425.2924
   4   2.0000     -11.389953      -309.9364
   5   2.0000     -11.298697      -307.4532
   6   2.0000      -1.490206       -40.5506
   7   2.0000      -1.394388       -37.9432
   8   2.0000      -1.289753       -35.0960
   9   2.0000      -1.100040       -29.9336
  10   2.0000      -0.943687       -25.6790
  11   2.0000      -0.813999       -22.1500
  12   2.0000      -0.771300       -20.9881
  13   2.0000      -0.722921       -19.6717
  14   2.0000      -0.665898       -18.1200
  15   2.0000      -0.648034       -17.6339
  16   2.0000      -0.627923       -17.0867
  17   2.0000      -0.597925       -16.2704
  18   2.0000      -0.571902       -15.5622
  19   2.0000      -0.534169       -14.5355
  20   2.0000      -0.489613       -13.3230
  21   2.0000      -0.449365       -12.2279
  22   2.0000      -0.417690       -11.3659
  23   0.0000       0.018213         0.4956
  24   0.0000       0.030945         0.8420
  25   0.0000       0.035075         0.9544
  26   0.0000       0.050054         1.3620
  27   0.0000       0.058366         1.5882

MULLIKEN ATOMIC CHARGES
-----------------------
   0 O :   -0.617338
   1 O :   -0.753171
   2 N :   -0.075654
   3 N :   -0.375798
   4 C :    0.994243
   5 C :   -0.381075
   6 H :    0.295335
   7 H :    0.237750
   8 H :    0.340342
   9 H :    0.335365
Sum of atomic charges:    0.0000000

LOEWDIN ATOMIC CHARGES
----------------------
   0 O :    0.681738
   1 O :    0.637052
   2 N :    0.528864
   3 N :    0.694903
   4 C :   -1.128586
   5 C :    0.286165
   6 H :   -0.586137
   7 H :   -0.530002
   8 H :   -0.292562
   9 H :   -0.291435

  Mayer bond orders larger than 0.100000
B(  0-O ,  1-O ) :   0.1017 B(  0-O ,  2-N ) :   0.7429 B(  0-O ,  4-C ) :   0.8761
B(  1-O ,  4-C ) :   1.5287 B(  2-N ,  3-N ) :   0.9481 B(  2-N ,  6-H ) :   0.8422
B(  3-N ,  5-C ) :   0.9336 B(  3-N ,  7-H ) :   0.8625 B(  4-C ,  5-C ) :   1.0974
B(  5-C ,  8-H ) :   0.8523 B(  5-C ,  9-H ) :   0.8246

MP2 TOTAL ENERGY:     -338.036810138 Eh
FINAL SINGLE POINT ENERGY      -338.036810138355

DIPOLE MOMENT
-------------
                                X             Y             Z
Electronic contribution:     -1.71324      -2.14495       0.07956
Nuclear contribution   :      3.10419       2.69715      -0.68008
                        -----------------------------------------
Total Dipole Moment    :      1.39095       0.55220      -0.60052
                        -----------------------------------------
Magnitude (a.u.)       :      1.61254
Magnitude (Debye)      :      4.09876

Rotational constants in cm-1:     0.266913     0.121643     0.088712
Rotational constants in MHz :  8001.847366  3646.760499  2659.514643

                             ****ORCA TERMINATED NORMALLY****
TOTAL RUN TIME: 0 days 0 hours 10 minutes 26 seconds 124 msec
