                         Program Version 5.0.4 -  RELEASE  -
|  1> !ri-mp2 aug-cc-pvqz aug-cc-pvqz/c tightscf
|  2> %pal nprocs 16 end
|  3> %maxcore 3800
|  4>
|  5> * xyz 0 1
|  6> C      4.339193   -0.239943    0.516430
|  7> C      3.327634   -0.231568   -0.343062
|  8> C     -4.298854   -0.403949    0.124866
|  9> C      2.068612    0.568357   -0.199112
| 10> C     -3.042666    0.464354    0.079878
| 11> C      0.803711   -0.301438   -0.153528
| 12> C     -1.749886   -0.346967   -0.014527
| 13> C     -0.486737    0.513029   -0.061371
| 14> H      5.218634   -0.848262    0.352660
| 15> H      4.324601    0.365016    1.415596
| 16> H      3.390219   -0.857805   -1.229651
| 17> H     -4.383423   -1.021698   -0.771594
| 18> H     -4.283461   -1.075093    0.986132
| 19> H     -5.202181    0.203631    0.194727
| 20> H      1.984175    1.258703   -1.046285
| 21> H      2.125947    1.184941    0.701645
| 22> H     -3.101914    1.147047   -0.773197
| 23> H     -3.005278    1.097541    0.971468
| 24> H      0.770340   -0.934721   -1.045813
| 25> H      0.870178   -0.981984    0.700136
| 26> H     -1.788071   -0.982079   -0.905996
| 27> H     -1.691063   -1.029675    0.839789
| 28> H     -0.544961    1.194564   -0.916651
| 29> H     -0.449783    1.148628    0.829586
| 30> *
| 31>
| 32>                          ****END OF INPUT****

CARTESIAN COORDINATES (ANGSTROEM)
---------------------------------
  C      4.339193   -0.239943    0.516430
  C      3.327634   -0.231568   -0.343062
  C     -4.298854   -0.403949    0.124866
  C      2.068612    0.568357   -0.199112
  C     -3.042666    0.464354    0.079878
  C      0.803711   -0.301438   -0.153528
  C     -1.749886   -0.346967   -0.014527
  C     -0.486737    0.513029   -0.061371
  H      5.218634   -0.848262    0.352660
  H      4.324601    0.365016    1.415596
  H      3.390219   -0.857805   -1.229651
  H     -4.383423   -1.021698   -0.771594
  H     -4.283461   -1.075093    0.986132
  H     -5.202181    0.203631    0.194727
  H      1.984175    1.258703   -1.046285
  H      2.125947    1.184941    0.701645
  H     -3.101914    1.147047   -0.773197
  H     -3.005278    1.097541    0.971468
  H      0.770340   -0.934721   -1.045813
  H      0.870178   -0.981984    0.700136
  H     -1.788071   -0.982079   -0.905996
  H     -1.691063   -1.029675    0.839789
  H     -0.544961    1.194564   -0.916651
  H     -0.449783    1.148628    0.829586

 Total Charge           Charge          ....    0
 Multiplicity           Mult            ....    1
 Number of Electrons    NEL             ....   64
 Basis Dimension        Dim             .... 1376

ORBITAL ENERGIES
----------------

  NO   OCC          E(Eh)            E(eV)
   0   2.0000     -11.228512      -305.5433
   1   2.0000     -11.221522      -305.3531
   2   2.0000     -11.217050      -305.2314
   3   2.0000     -11.214947      -305.1742
   4   2.0000     -11.214851      -305.1716
   5   2.0000     -11.214563      -305.1638
   6   2.0000     -11.213132      -305.1248
   7   2.0000     -11.208694      -305.0041
   8   2.0000      -1.095883       -29.8205
   9   2.0000      -1.066655       -29.0252
  10   2.0000      -1.018183       -27.7062
  11   2.0000      -0.954077       -25.9618
  12   2.0000      -0.877359       -23.8742
  13   2.0000      -0.806169       -21.9370
  14   2.0000      -0.787376       -21.4256
  15   2.0000      -0.753961       -20.5163
  16   2.0000      -0.657811       -17.8999
  17   2.0000      -0.635745       -17.2995
  18   2.0000      -0.607713       -16.5367
  19   2.0000      -0.591159       -16.0863
  20   2.0000      -0.585064       -15.9204
  21   2.0000      -0.557924       -15.1819
  22   2.0000      -0.542201       -14.7540
  23   2.0000      -0.529652       -14.4126
  24   2.0000      -0.503127       -13.6908
  25   2.0000      -0.496335       -13.5060
  26   2.0000      -0.479777       -13.0554
  27   2.0000      -0.469671       -12.7804
  28   2.0000      -0.461705       -12.5636
  29   2.0000      -0.460447       -12.5294
  30   2.0000      -0.444640       -12.0993
  31   2.0000      -0.357796        -9.7361
  32   0.0000       0.026382         0.7179
  33   0.0000       0.027961         0.7609
  34   0.0000       0.031515         0.8576
  35   0.0000       0.032621         0.8877
  36   0.0000       0.038818         1.0563

MULLIKEN ATOMIC CHARGES
-----------------------
   0 C :   -0.891326
   1 C :   -0.662855
   2 C :   -0.911017
   3 C :   -0.316787
   4 C :   -0.511457
   5 C :   -0.330292
   6 C :   -0.294742
   7 C :   -0.308650
   8 H :    0.365156
   9 H :    0.300728
  10 H :    0.404145
  11 H :    0.226249
  12 H :    0.225000
  13 H :    0.266720
  14 H :    0.287395
  15 H :    0.256113
  16 H :    0.223654
  17 H :    0.226947
  18 H :    0.220973
  19 H :    0.259550
  20 H :    0.237793
  21 H :    0.222912
  22 H :    0.238867
  23 H :    0.264926
Sum of atomic charges:    0.0000000

LOEWDIN ATOMIC CHARGES
----------------------
   0 C :    0.798099
   1 C :    0.359504
   2 C :    0.926192
   3 C :    0.477510
   4 C :    0.508821
   5 C :    0.516542
   6 C :    0.512990
   7 C :    0.522396
   8 H :   -0.360375
   9 H :   -0.355609
  10 H :   -0.323491
  11 H :   -0.285582
  12 H :   -0.285582
  13 H :   -0.284919
  14 H :   -0.277560
  15 H :   -0.299512
  16 H :   -0.273380
  17 H :   -0.273386
  18 H :   -0.270056
  19 H :   -0.265179
  20 H :   -0.267970
  21 H :   -0.267853
  22 H :   -0.266456
  23 H :   -0.265146

  Mayer bond orders larger than 0.100000
B(  0-C ,  1-C ) :   1.9254 B(  0-C ,  3-C ) :  -0.1836 B(  0-C ,  8-H ) :   0.9400
B(  0-C ,  9-H ) :   0.9355 B(  1-C ,  3-C ) :   1.0357 B(  1-C ,  5-C ) :  -0.2512
B(  1-C , 10-H ) :   0.8213 B(  2-C ,  4-C ) :   1.0475 B(  2-C ,  6-C ) :  -0.1258
B(  2-C , 11-H ) :   0.9553 B(  2-C , 12-H ) :   0.9573 B(  2-C , 13-H ) :   1.0256
B(  3-C ,  5-C ) :   1.0798 B(  3-C , 14-H ) :   0.8302 B(  3-C , 15-H ) :   0.8872
B(  4-C ,  6-C ) :   0.9954 B(  4-C , 13-H ) :  -0.1010 B(  4-C , 16-H ) :   0.8818
B(  4-C , 17-H ) :   0.8806 B(  5-C ,  7-C ) :   1.0813 B(  5-C , 18-H ) :   0.8513
B(  5-C , 19-H ) :   0.8425 B(  6-C ,  7-C ) :   1.0510 B(  6-C , 20-H ) :   0.8545
B(  6-C , 21-H ) :   0.8655 B(  7-C , 22-H ) :   0.8553 B(  7-C , 23-H ) :   0.8277

MP2 TOTAL ENERGY:     -313.849699549 Eh
FINAL SINGLE POINT ENERGY      -313.849699549109

DIPOLE MOMENT
-------------
                                X             Y             Z
Electronic contribution:      5.99436       0.18639      -0.37226
Nuclear contribution   :     -6.17611      -0.14058       0.32407
                        -----------------------------------------
Total Dipole Moment    :     -0.18176       0.04580      -0.04819
                        -----------------------------------------
Magnitude (a.u.)       :      0.19353
Magnitude (Debye)      :      0.49192

Rotational constants in cm-1:     0.334871     0.017417     0.017189
Rotational constants in MHz : 10039.190258   522.157121   515.309625

                             ****ORCA TERMINATED NORMALLY****
TOTAL RUN TIME: 0 days 1 hours 39 minutes 21 seconds 375 msec
