                         Program Version 5.0.4 -  RELEASE  -
|  1> !ri-mp2 aug-cc-pvqz aug-cc-pvqz/c tightscf
|  2> %pal nprocs 16 end
|  3>
|  4> * xyz 0 1
|  5> S      0.050457   -1.283028    0.254896
|  6> S      1.318484    0.295909   -0.230152
|  7> O     -1.268667   -0.524946   -0.458383
|  8> C      0.011024    1.451390    0.341037
|  9> C     -1.372949    0.839488   -0.008592
| 10> H      0.172355    2.395956   -0.175996
| 11> H      0.109777    1.603307    1.412522
| 12> H     -1.847822    1.369365   -0.831999
| 13> H     -2.016479    0.879572    0.871964
| 14> *
| 15>
| 16>                          ****END OF INPUT****

CARTESIAN COORDINATES (ANGSTROEM)
---------------------------------
  S      0.050457   -1.283028    0.254896
  S      1.318484    0.295909   -0.230152
  O     -1.268667   -0.524946   -0.458383
  C      0.011024    1.451390    0.341037
  C     -1.372949    0.839488   -0.008592
  H      0.172355    2.395956   -0.175996
  H      0.109777    1.603307    1.412522
  H     -1.847822    1.369365   -0.831999
  H     -2.016479    0.879572    0.871964

 Total Charge           Charge          ....    0
 Multiplicity           Mult            ....    1
 Number of Electrons    NEL             ....   56
 Basis Dimension        Dim             ....  592

ORBITAL ENERGIES
----------------

  NO   OCC          E(Eh)            E(eV)
   0   2.0000     -92.023263     -2504.0803
   1   2.0000     -91.983302     -2502.9929
   2   2.0000     -20.597720      -560.4924
   3   2.0000     -11.305273      -307.6321
   4   2.0000     -11.281183      -306.9766
   5   2.0000      -9.017556      -245.3802
   6   2.0000      -8.983425      -244.4514
   7   2.0000      -6.698518      -182.2760
   8   2.0000      -6.697484      -182.2478
   9   2.0000      -6.695911      -182.2050
  10   2.0000      -6.664499      -181.3502
  11   2.0000      -6.663679      -181.3279
  12   2.0000      -6.662498      -181.2958
  13   2.0000      -1.392710       -37.8976
  14   2.0000      -1.078344       -29.3432
  15   2.0000      -1.017719       -27.6935
  16   2.0000      -0.841122       -22.8881
  17   2.0000      -0.828961       -22.5572
  18   2.0000      -0.683171       -18.5900
  19   2.0000      -0.661420       -17.9982
  20   2.0000      -0.610253       -16.6058
  21   2.0000      -0.596004       -16.2181
  22   2.0000      -0.526880       -14.3371
  23   2.0000      -0.507892       -13.8204
  24   2.0000      -0.476595       -12.9688
  25   2.0000      -0.451906       -12.2970
  26   2.0000      -0.403928       -10.9914
  27   2.0000      -0.335939        -9.1414
  28   0.0000       0.024595         0.6693
  29   0.0000       0.034686         0.9438
  30   0.0000       0.036463         0.9922
  31   0.0000       0.048602         1.3225
  32   0.0000       0.053983         1.4690

MULLIKEN ATOMIC CHARGES
-----------------------
   0 S :    0.231943
   1 S :   -0.062015
   2 O :   -0.733372
   3 C :   -0.525030
   4 C :   -0.097222
   5 H :    0.338314
   6 H :    0.252310
   7 H :    0.309767
   8 H :    0.285305
Sum of atomic charges:    0.0000000

LOEWDIN ATOMIC CHARGES
----------------------
   0 S :    0.421372
   1 S :    0.764920
   2 O :    0.271083
   3 C :    0.031078
   4 C :   -0.051431
   5 H :   -0.381914
   6 H :   -0.386061
   7 H :   -0.339210
   8 H :   -0.329838

  Mayer bond orders larger than 0.100000
B(  0-S ,  1-S ) :   1.1309 B(  0-S ,  2-O ) :   0.7922 B(  1-S ,  3-C ) :   0.9433
B(  2-O ,  4-C ) :   0.7055 B(  3-C ,  4-C ) :   1.0502 B(  3-C ,  5-H ) :   0.8333
B(  3-C ,  6-H ) :   0.8987 B(  4-C ,  7-H ) :   0.8544 B(  4-C ,  8-H ) :   0.8822

MP2 TOTAL ENERGY:     -949.056399410 Eh
FINAL SINGLE POINT ENERGY      -949.056399409697

DIPOLE MOMENT
-------------
                                X             Y             Z
Electronic contribution:      3.28699      -5.10935      -0.83112
Nuclear contribution   :     -3.54331       6.09643       1.23331
                        -----------------------------------------
Total Dipole Moment    :     -0.25632       0.98709       0.40219
                        -----------------------------------------
Magnitude (a.u.)       :      1.09627
Magnitude (Debye)      :      2.78649

Rotational constants in cm-1:     0.146879     0.134450     0.077993
Rotational constants in MHz :  4403.312213  4030.724273  2338.183413

                             ****ORCA TERMINATED NORMALLY****
TOTAL RUN TIME: 0 days 0 hours 11 minutes 23 seconds 478 msec
