                         Program Version 5.0.4 -  RELEASE  -
|  1> !ri-mp2 aug-cc-pvqz aug-cc-pvqz/c tightscf
|  2> %pal nprocs 16 end
|  3>
|  4> * xyz 0 1
|  5> C     -0.000362   -0.062016    1.039066
|  6> C     -0.000362   -0.062016   -1.039066
|  7> H     -0.886662    1.703368    0.000000
|  8> H      0.886384    1.702690    0.000000
|  9> C     -0.000362    1.073690    0.000000
| 10> H     -0.890999   -0.134448    1.666799
| 11> H      0.889472   -0.133116    1.668112
| 12> H     -0.890999   -0.134448   -1.666799
| 13> H      0.889472   -0.133116   -1.668112
| 14> O      0.001231   -1.071110    0.000000
| 15> *
| 16>
| 17>                          ****END OF INPUT****

CARTESIAN COORDINATES (ANGSTROEM)
---------------------------------
  C     -0.000362   -0.062016    1.039066
  C     -0.000362   -0.062016   -1.039066
  H     -0.886662    1.703368    0.000000
  H      0.886384    1.702690    0.000000
  C     -0.000362    1.073690    0.000000
  H     -0.890999   -0.134448    1.666799
  H      0.889472   -0.133116    1.668112
  H     -0.890999   -0.134448   -1.666799
  H      0.889472   -0.133116   -1.668112
  O      0.001231   -1.071110    0.000000

 Total Charge           Charge          ....    0
 Multiplicity           Mult            ....    1
 Number of Electrons    NEL             ....   32
 Basis Dimension        Dim             ....  596

ORBITAL ENERGIES
----------------

  NO   OCC          E(Eh)            E(eV)
   0   2.0000     -20.542548      -558.9912
   1   2.0000     -11.276684      -306.8542
   2   2.0000     -11.276682      -306.8541
   3   2.0000     -11.229652      -305.5744
   4   2.0000      -1.370288       -37.2874
   5   2.0000      -1.011847       -27.5338
   6   2.0000      -0.932193       -25.3663
   7   2.0000      -0.773095       -21.0370
   8   2.0000      -0.685036       -18.6408
   9   2.0000      -0.667311       -18.1584
  10   2.0000      -0.589373       -16.0377
  11   2.0000      -0.563929       -15.3453
  12   2.0000      -0.538248       -14.6465
  13   2.0000      -0.469242       -12.7687
  14   2.0000      -0.459723       -12.5097
  15   2.0000      -0.411990       -11.2108
  16   0.0000       0.026439         0.7195
  17   0.0000       0.035475         0.9653
  18   0.0000       0.035659         0.9703
  19   0.0000       0.039703         1.0804
  20   0.0000       0.052102         1.4178

MULLIKEN ATOMIC CHARGES
-----------------------
   0 C :   -0.210773
   1 C :   -0.210773
   2 H :    0.337211
   3 H :    0.337000
   4 C :   -0.790571
   5 H :    0.321796
   6 H :    0.322178
   7 H :    0.321796
   8 H :    0.322178
   9 O :   -0.750041
Sum of atomic charges:   -0.0000000

LOEWDIN ATOMIC CHARGES
----------------------
   0 C :    0.188898
   1 C :    0.188898
   2 H :   -0.280770
   3 H :   -0.280873
   4 C :    0.515354
   5 H :   -0.292369
   6 H :   -0.292384
   7 H :   -0.292369
   8 H :   -0.292384
   9 O :    0.837998

  Mayer bond orders larger than 0.100000
B(  0-C ,  4-C ) :   1.0380 B(  0-C ,  5-H ) :   0.8597 B(  0-C ,  6-H ) :   0.8594
B(  0-C ,  9-O ) :   0.7513 B(  1-C ,  4-C ) :   1.0380 B(  1-C ,  7-H ) :   0.8597
B(  1-C ,  8-H ) :   0.8594 B(  1-C ,  9-O ) :   0.7513 B(  2-H ,  4-C ) :   0.8384
B(  3-H ,  4-C ) :   0.8385 B(  4-C ,  9-O ) :   0.1017

MP2 TOTAL ENERGY:     -192.795146498 Eh
FINAL SINGLE POINT ENERGY      -192.795146497658

DIPOLE MOMENT
-------------
                                X             Y             Z
Electronic contribution:      0.00223      -2.09477       0.00000
Nuclear contribution   :     -0.00343       2.95323       0.00000
                        -----------------------------------------
Total Dipole Moment    :     -0.00120       0.85845       0.00000
                        -----------------------------------------
Magnitude (a.u.)       :      0.85845
Magnitude (Debye)      :      2.18202

Rotational constants in cm-1:     0.402081     0.393368     0.224109
Rotational constants in MHz : 12054.074986 11792.881408  6718.604223

                             ****ORCA TERMINATED NORMALLY****
TOTAL RUN TIME: 0 days 0 hours 8 minutes 35 seconds 673 msec
