                         Program Version 5.0.4 -  RELEASE  -
|  1> !ri-mp2 aug-cc-pvqz aug-cc-pvqz/c tightscf
|  2> %pal nprocs 16 end
|  3>
|  4> * xyz 0 1
|  5> C      0.331694    0.699305   -0.000060
|  6> C     -0.331694   -0.699305   -0.000060
|  7> O     -0.331694    1.722137   -0.000002
|  8> O      0.331694   -1.722137   -0.000002
|  9> N      1.672475    0.623238   -0.000051
| 10> N     -1.672475   -0.623238   -0.000051
| 11> H      2.224941    1.462119    0.000258
| 12> H      2.104637   -0.286302    0.000475
| 13> H     -2.224941   -1.462119    0.000258
| 14> H     -2.104637    0.286302    0.000475
| 15> *
| 16>
| 17>                          ****END OF INPUT****

CARTESIAN COORDINATES (ANGSTROEM)
---------------------------------
  C      0.331694    0.699305   -0.000060
  C     -0.331694   -0.699305   -0.000060
  O     -0.331694    1.722137   -0.000002
  O      0.331694   -1.722137   -0.000002
  N      1.672475    0.623238   -0.000051
  N     -1.672475   -0.623238   -0.000051
  H      2.224941    1.462119    0.000258
  H      2.104637   -0.286302    0.000475
  H     -2.224941   -1.462119    0.000258
  H     -2.104637    0.286302    0.000475

 Total Charge           Charge          ....    0
 Multiplicity           Mult            ....    1
 Number of Electrons    NEL             ....   46
 Basis Dimension        Dim             ....  664

ORBITAL ENERGIES
----------------

  NO   OCC          E(Eh)            E(eV)
   0   2.0000     -20.546023      -559.0857
   1   2.0000     -20.546022      -559.0857
   2   2.0000     -15.600268      -424.5049
   3   2.0000     -15.600267      -424.5048
   4   2.0000     -11.376470      -309.5695
   5   2.0000     -11.375916      -309.5544
   6   2.0000      -1.421352       -38.6770
   7   2.0000      -1.392426       -37.8898
   8   2.0000      -1.240758       -33.7627
   9   2.0000      -1.228478       -33.4286
  10   2.0000      -0.924793       -25.1649
  11   2.0000      -0.806117       -21.9356
  12   2.0000      -0.777050       -21.1446
  13   2.0000      -0.732984       -19.9455
  14   2.0000      -0.673481       -18.3263
  15   2.0000      -0.665373       -18.1057
  16   2.0000      -0.625888       -17.0313
  17   2.0000      -0.608628       -16.5616
  18   2.0000      -0.558236       -15.1904
  19   2.0000      -0.515201       -14.0193
  20   2.0000      -0.443524       -12.0689
  21   2.0000      -0.426227       -11.5982
  22   2.0000      -0.424607       -11.5542
  23   0.0000       0.023041         0.6270
  24   0.0000       0.026710         0.7268
  25   0.0000       0.043785         1.1914
  26   0.0000       0.053060         1.4438
  27   0.0000       0.070686         1.9235

MULLIKEN ATOMIC CHARGES
-----------------------
   0 C :    0.773114
   1 C :    0.773114
   2 O :   -0.766533
   3 O :   -0.766533
   4 N :   -0.644272
   5 N :   -0.644272
   6 H :    0.235994
   7 H :    0.401698
   8 H :    0.235994
   9 H :    0.401698
Sum of atomic charges:   -0.0000000

LOEWDIN ATOMIC CHARGES
----------------------
   0 C :   -0.864589
   1 C :   -0.864589
   2 O :    0.688942
   3 O :    0.688942
   4 N :    1.219831
   5 N :    1.219831
   6 H :   -0.481410
   7 H :   -0.562773
   8 H :   -0.481410
   9 H :   -0.562773

  Mayer bond orders larger than 0.100000
B(  0-C ,  1-C ) :   1.1631 B(  0-C ,  2-O ) :   1.3109 B(  0-C ,  3-O ) :   0.1910
B(  0-C ,  4-N ) :   1.2074 B(  1-C ,  2-O ) :   0.1910 B(  1-C ,  3-O ) :   1.3109
B(  1-C ,  5-N ) :   1.2074 B(  2-O ,  4-N ) :   0.1351 B(  3-O ,  5-N ) :   0.1351
B(  4-N ,  6-H ) :   0.9765 B(  4-N ,  7-H ) :   0.8391 B(  5-N ,  8-H ) :   0.9765
B(  5-N ,  9-H ) :   0.8391

MP2 TOTAL ENERGY:     -338.171876997 Eh
FINAL SINGLE POINT ENERGY      -338.171876996975

DIPOLE MOMENT
-------------
                                X             Y             Z
Electronic contribution:      0.00000       0.00000      -0.00051
Nuclear contribution   :     -0.00000      -0.00000       0.00144
                        -----------------------------------------
Total Dipole Moment    :      0.00000       0.00000       0.00093
                        -----------------------------------------
Magnitude (a.u.)       :      0.00093
Magnitude (Debye)      :      0.00236

Rotational constants in cm-1:     0.189437     0.123547     0.074778
Rotational constants in MHz :  5679.192346  3703.843326  2241.794611

                             ****ORCA TERMINATED NORMALLY****
TOTAL RUN TIME: 0 days 0 hours 9 minutes 44 seconds 878 msec
