                         Program Version 5.0.4 -  RELEASE  -
|  1> !ri-mp2 aug-cc-pvqz aug-cc-pvqz/c tightscf
|  2> %pal nprocs 16 end
|  3> %maxcore 3800
|  4>
|  5> * xyz 0 1
|  6> C      2.743376    0.386487    0.533004
|  7> C      3.403443   -0.769047   -0.220309
|  8> C      1.628643    1.096455   -0.247194
|  9> C      0.402478    0.244625   -0.603456
| 10> C     -0.402478   -0.244624    0.603457
| 11> C     -1.628643   -1.096455    0.247194
| 12> C     -2.743376   -0.386487   -0.533004
| 13> C     -3.403443    0.769047    0.220308
| 14> H      3.803237   -0.434641   -1.180362
| 15> H      4.230374   -1.189255    0.353881
| 16> H     -3.507182   -1.127157   -0.783972
| 17> H     -4.230374    1.189255   -0.353882
| 18> H     -2.701500    1.579527    0.420693
| 19> H     -3.803238    0.434642    1.180362
| 20> H      2.701500   -1.579527   -0.420694
| 21> H     -0.242366    0.842416   -1.252097
| 22> H      2.055029    1.496389   -1.172579
| 23> H      3.507182    1.127157    0.783972
| 24> H      2.356936    0.024239    1.488923
| 25> H     -1.295689   -1.964325   -0.330509
| 26> H     -2.356936   -0.024240   -1.488923
| 27> H      0.709119   -0.617126   -1.204218
| 28> H      1.295689    1.964325    0.330509
| 29> H      0.242366   -0.842416    1.252098
| 30> H     -0.709119    0.617127    1.204218
| 31> H     -2.055029   -1.496389    1.172580
| 32> *
| 33>
| 34>                          ****END OF INPUT****

CARTESIAN COORDINATES (ANGSTROEM)
---------------------------------
  C      2.743376    0.386487    0.533004
  C      3.403443   -0.769047   -0.220309
  C      1.628643    1.096455   -0.247194
  C      0.402478    0.244625   -0.603456
  C     -0.402478   -0.244624    0.603457
  C     -1.628643   -1.096455    0.247194
  C     -2.743376   -0.386487   -0.533004
  C     -3.403443    0.769047    0.220308
  H      3.803237   -0.434641   -1.180362
  H      4.230374   -1.189255    0.353881
  H     -3.507182   -1.127157   -0.783972
  H     -4.230374    1.189255   -0.353882
  H     -2.701500    1.579527    0.420693
  H     -3.803238    0.434642    1.180362
  H      2.701500   -1.579527   -0.420694
  H     -0.242366    0.842416   -1.252097
  H      2.055029    1.496389   -1.172579
  H      3.507182    1.127157    0.783972
  H      2.356936    0.024239    1.488923
  H     -1.295689   -1.964325   -0.330509
  H     -2.356936   -0.024240   -1.488923
  H      0.709119   -0.617126   -1.204218
  H      1.295689    1.964325    0.330509
  H      0.242366   -0.842416    1.252098
  H     -0.709119    0.617127    1.204218
  H     -2.055029   -1.496389    1.172580

 Total Charge           Charge          ....    0
 Multiplicity           Mult            ....    1
 Number of Electrons    NEL             ....   66
 Basis Dimension        Dim             .... 1468

ORBITAL ENERGIES
----------------

  NO   OCC          E(Eh)            E(eV)
   0   2.0000     -11.212641      -305.1115
   1   2.0000     -11.212641      -305.1115
   2   2.0000     -11.211511      -305.0807
   3   2.0000     -11.211495      -305.0803
   4   2.0000     -11.210041      -305.0407
   5   2.0000     -11.209445      -305.0245
   6   2.0000     -11.206894      -304.9551
   7   2.0000     -11.206894      -304.9551
   8   2.0000      -1.089745       -29.6535
   9   2.0000      -1.056892       -28.7595
  10   2.0000      -1.003829       -27.3156
  11   2.0000      -0.947973       -25.7956
  12   2.0000      -0.886278       -24.1169
  13   2.0000      -0.841936       -22.9102
  14   2.0000      -0.780729       -21.2447
  15   2.0000      -0.747622       -20.3438
  16   2.0000      -0.644159       -17.5285
  17   2.0000      -0.626217       -17.0402
  18   2.0000      -0.610299       -16.6071
  19   2.0000      -0.603426       -16.4201
  20   2.0000      -0.569546       -15.4981
  21   2.0000      -0.554153       -15.0793
  22   2.0000      -0.545565       -14.8456
  23   2.0000      -0.538164       -14.6442
  24   2.0000      -0.515879       -14.0378
  25   2.0000      -0.503318       -13.6960
  26   2.0000      -0.490097       -13.3362
  27   2.0000      -0.471108       -12.8195
  28   2.0000      -0.464691       -12.6449
  29   2.0000      -0.458558       -12.4780
  30   2.0000      -0.449268       -12.2252
  31   2.0000      -0.437664       -11.9094
  32   2.0000      -0.433006       -11.7827
  33   0.0000       0.026415         0.7188
  34   0.0000       0.028917         0.7869
  35   0.0000       0.029970         0.8155
  36   0.0000       0.031409         0.8547
  37   0.0000       0.041411         1.1269

MULLIKEN ATOMIC CHARGES
-----------------------
   0 C :   -0.474767
   1 C :   -0.941872
   2 C :   -0.408938
   3 C :   -0.336013
   4 C :   -0.336005
   5 C :   -0.408923
   6 C :   -0.474775
   7 C :   -0.941861
   8 H :    0.168475
   9 H :    0.312324
  10 H :    0.283443
  11 H :    0.312329
  12 H :    0.231063
  13 H :    0.168476
  14 H :    0.231072
  15 H :    0.221996
  16 H :    0.195380
  17 H :    0.283458
  18 H :    0.226848
  19 H :    0.228166
  20 H :    0.226887
  21 H :    0.293856
  22 H :    0.228159
  23 H :    0.221965
  24 H :    0.293870
  25 H :    0.195390
Sum of atomic charges:   -0.0000000

LOEWDIN ATOMIC CHARGES
----------------------
   0 C :    0.518779
   1 C :    0.928112
   2 C :    0.537984
   3 C :    0.529320
   4 C :    0.529320
   5 C :    0.537984
   6 C :    0.518778
   7 C :    0.928112
   8 H :   -0.279161
   9 H :   -0.280820
  10 H :   -0.274712
  11 H :   -0.280820
  12 H :   -0.293130
  13 H :   -0.279160
  14 H :   -0.293130
  15 H :   -0.281261
  16 H :   -0.271314
  17 H :   -0.274712
  18 H :   -0.288192
  19 H :   -0.268940
  20 H :   -0.288193
  21 H :   -0.276665
  22 H :   -0.268940
  23 H :   -0.281260
  24 H :   -0.276665
  25 H :   -0.271314

  Mayer bond orders larger than 0.100000
B(  0-C ,  1-C ) :   0.9334 B(  0-C ,  2-C ) :   0.8368 B(  0-C , 17-H ) :   0.9178
B(  0-C , 18-H ) :   0.9515 B(  1-C ,  8-H ) :   1.0198 B(  1-C ,  9-H ) :   0.9601
B(  1-C , 14-H ) :   0.9528 B(  2-C ,  3-C ) :   0.7380 B(  2-C , 16-H ) :   1.0163
B(  2-C , 22-H ) :   0.9645 B(  3-C ,  4-C ) :   0.7973 B(  3-C , 15-H ) :   0.9704
B(  3-C , 21-H ) :   0.8846 B(  4-C ,  5-C ) :   0.7379 B(  4-C , 23-H ) :   0.9704
B(  4-C , 24-H ) :   0.8846 B(  5-C ,  6-C ) :   0.8368 B(  5-C , 19-H ) :   0.9645
B(  5-C , 25-H ) :   1.0163 B(  6-C ,  7-C ) :   0.9334 B(  6-C , 10-H ) :   0.9178
B(  6-C , 20-H ) :   0.9514 B(  7-C , 11-H ) :   0.9601 B(  7-C , 12-H ) :   0.9528
B(  7-C , 13-H ) :   1.0198

MP2 TOTAL ENERGY:     -315.073909514 Eh
FINAL SINGLE POINT ENERGY      -315.073909513992

DIPOLE MOMENT
-------------
                                X             Y             Z
Electronic contribution:      0.00000       0.00000      -0.00000
Nuclear contribution   :     -0.00000      -0.00000      -0.00000
                        -----------------------------------------
Total Dipole Moment    :     -0.00000       0.00000      -0.00000
                        -----------------------------------------
Magnitude (a.u.)       :      0.00000
Magnitude (Debye)      :      0.00000

Rotational constants in cm-1:     0.153516     0.024358     0.023122
Rotational constants in MHz :  4602.303940   730.248463   693.179402

                             ****ORCA TERMINATED NORMALLY****
TOTAL RUN TIME: 0 days 2 hours 26 minutes 29 seconds 745 msec
