                         Program Version 5.0.4 -  RELEASE  -
|  1> !ri-mp2 aug-cc-pvqz aug-cc-pvqz/c tightscf
|  2> %pal nprocs 16 end
|  3>
|  4> * xyz 0 1
|  5> C      0.752140   -0.876732        0.000000
|  6> C     -0.594330   -0.964738        0.000000
|  7> C      0.000000    1.101527        0.000000
|  8> N      1.118628    0.463667        0.000000
|  9> O     -1.098400    0.308078        0.000000
| 10> H      1.482368   -1.666223        0.000000
| 11> H     -1.305329   -1.768953        0.000000
| 12> H     -0.167090    2.164537        0.000000
| 13> *
| 14>
| 15>                          ****END OF INPUT****

CARTESIAN COORDINATES (ANGSTROEM)
---------------------------------
  C      0.752140   -0.876732    0.000000
  C     -0.594330   -0.964738    0.000000
  C      0.000000    1.101527    0.000000
  N      1.118628    0.463667    0.000000
  O     -1.098400    0.308078    0.000000
  H      1.482368   -1.666223    0.000000
  H     -1.305329   -1.768953    0.000000
  H     -0.167090    2.164537    0.000000

 Total Charge           Charge          ....    0
 Multiplicity           Mult            ....    1
 Number of Electrons    NEL             ....   36
 Basis Dimension        Dim             ....  538

ORBITAL ENERGIES
----------------

  NO   OCC          E(Eh)            E(eV)
   0   2.0000     -20.641851      -561.6933
   1   2.0000     -15.569024      -423.6547
   2   2.0000     -11.337354      -308.5051
   3   2.0000     -11.297469      -307.4198
   4   2.0000     -11.264933      -306.5344
   5   2.0000      -1.490575       -40.5606
   6   2.0000      -1.238258       -33.6947
   7   2.0000      -1.039060       -28.2743
   8   2.0000      -0.845160       -22.9980
   9   2.0000      -0.824390       -22.4328
  10   2.0000      -0.755920       -20.5696
  11   2.0000      -0.663045       -18.0424
  12   2.0000      -0.631866       -17.1939
  13   2.0000      -0.600397       -16.3376
  14   2.0000      -0.583082       -15.8665
  15   2.0000      -0.466729       -12.7004
  16   2.0000      -0.459008       -12.4902
  17   2.0000      -0.350899        -9.5485
  18   0.0000       0.025233         0.6866
  19   0.0000       0.031566         0.8589
  20   0.0000       0.035876         0.9762
  21   0.0000       0.060595         1.6489
  22   0.0000       0.069018         1.8781

MULLIKEN ATOMIC CHARGES
-----------------------
   0 C :   -0.404403
   1 C :   -0.070587
   2 C :    0.053641
   3 N :   -0.595642
   4 O :   -0.716392
   5 H :    0.511744
   6 H :    0.566711
   7 H :    0.654928
Sum of atomic charges:    0.0000000

LOEWDIN ATOMIC CHARGES
----------------------
   0 C :    0.027312
   1 C :   -0.031907
   2 C :   -0.298861
   3 N :    0.528915
   4 O :    0.819316
   5 H :   -0.353950
   6 H :   -0.342230
   7 H :   -0.348596

  Mayer bond orders larger than 0.100000
B(  0-C ,  1-C ) :   1.7807 B(  0-C ,  3-N ) :   0.9881 B(  0-C ,  4-O ) :   0.1296
B(  0-C ,  5-H ) :   0.7536 B(  1-C ,  4-O ) :   0.7629 B(  1-C ,  6-H ) :   0.6735
B(  2-C ,  3-N ) :   1.7259 B(  2-C ,  4-O ) :   1.1014 B(  2-C ,  7-H ) :   0.5792

MP2 TOTAL ENERGY:     -245.707888428 Eh
FINAL SINGLE POINT ENERGY      -245.707888427606

DIPOLE MOMENT
-------------
                                X             Y             Z
Electronic contribution:     -0.50533       0.96118       0.00000
Nuclear contribution   :     -0.00078      -1.23650       0.00000
                        -----------------------------------------
Total Dipole Moment    :     -0.50611      -0.27532       0.00000
                        -----------------------------------------
Magnitude (a.u.)       :      0.57615
Magnitude (Debye)      :      1.46446

Rotational constants in cm-1:     0.336360     0.324952     0.165279
Rotational constants in MHz : 10083.804769  9741.808145  4954.928347

                             ****ORCA TERMINATED NORMALLY****
TOTAL RUN TIME: 0 days 0 hours 5 minutes 34 seconds 777 msec
