                         Program Version 5.0.4 -  RELEASE  -
|  1> !ri-mp2 aug-cc-pvqz aug-cc-pvqz/c tightscf
|  2> %pal nprocs 16 end
|  3> %maxcore 3800
|  4>
|  5> * xyz 0 1
|  6> C      3.802531    1.530625    0.000000
|  7> C     -4.637584   -1.541445    0.000000
|  8> C      2.306092    1.687856    0.000000
|  9> C     -3.126767   -1.767415    0.000000
| 10> C      1.512129    0.387412    0.000000
| 11> C     -2.319569   -0.468725    0.000000
| 12> C      0.000000    0.612534    0.000000
| 13> C     -0.806536   -0.686509    0.000000
| 14> O      4.392118    0.479692    0.000000
| 15> H      4.367576    2.486731    0.000000
| 16> H     -4.952565   -0.978042    0.880795
| 17> H     -5.181814   -2.486837    0.000000
| 18> H     -4.952565   -0.978042   -0.880795
| 19> H      2.054742    2.311831   -0.867367
| 20> H      2.054742    2.311831    0.867367
| 21> H     -2.848014   -2.363887   -0.873950
| 22> H     -2.848014   -2.363887    0.873950
| 23> H      1.799348   -0.206318    0.870716
| 24> H      1.799348   -0.206318   -0.870716
| 25> H     -2.599270    0.128270   -0.874711
| 26> H     -2.599270    0.128270    0.874711
| 27> H     -0.279114    1.209821    0.874730
| 28> H     -0.279114    1.209821   -0.874730
| 29> H     -0.527370   -1.283394   -0.874398
| 30> H     -0.527370   -1.283394    0.874398
| 31> *
| 32>
| 33>                          ****END OF INPUT****

CARTESIAN COORDINATES (ANGSTROEM)
---------------------------------
  C      3.802531    1.530625    0.000000
  C     -4.637584   -1.541445    0.000000
  C      2.306092    1.687856    0.000000
  C     -3.126767   -1.767415    0.000000
  C      1.512129    0.387412    0.000000
  C     -2.319569   -0.468725    0.000000
  C      0.000000    0.612534    0.000000
  C     -0.806536   -0.686509    0.000000
  O      4.392118    0.479692    0.000000
  H      4.367576    2.486731    0.000000
  H     -4.952565   -0.978042    0.880795
  H     -5.181814   -2.486837    0.000000
  H     -4.952565   -0.978042   -0.880795
  H      2.054742    2.311831   -0.867367
  H      2.054742    2.311831    0.867367
  H     -2.848014   -2.363887   -0.873950
  H     -2.848014   -2.363887    0.873950
  H      1.799348   -0.206318    0.870716
  H      1.799348   -0.206318   -0.870716
  H     -2.599270    0.128270   -0.874711
  H     -2.599270    0.128270    0.874711
  H     -0.279114    1.209821    0.874730
  H     -0.279114    1.209821   -0.874730
  H     -0.527370   -1.283394   -0.874398
  H     -0.527370   -1.283394    0.874398

 Total Charge           Charge          ....    0
 Multiplicity           Mult            ....    1
 Number of Electrons    NEL             ....   72
 Basis Dimension        Dim             .... 1456

ORBITAL ENERGIES
----------------

  NO   OCC          E(Eh)            E(eV)
   0   2.0000     -20.553875      -559.2994
   1   2.0000     -11.329719      -308.2973
   2   2.0000     -11.241028      -305.8839
   3   2.0000     -11.223250      -305.4002
   4   2.0000     -11.221113      -305.3420
   5   2.0000     -11.216617      -305.2197
   6   2.0000     -11.216283      -305.2106
   7   2.0000     -11.215198      -305.1811
   8   2.0000     -11.209954      -305.0384
   9   2.0000      -1.393519       -37.9196
  10   2.0000      -1.098577       -29.8938
  11   2.0000      -1.066896       -29.0317
  12   2.0000      -1.014646       -27.6099
  13   2.0000      -0.946308       -25.7503
  14   2.0000      -0.870812       -23.6960
  15   2.0000      -0.807878       -21.9835
  16   2.0000      -0.789919       -21.4948
  17   2.0000      -0.768322       -20.9071
  18   2.0000      -0.673033       -18.3142
  19   2.0000      -0.663707       -18.0604
  20   2.0000      -0.636185       -17.3115
  21   2.0000      -0.629396       -17.1267
  22   2.0000      -0.594151       -16.1677
  23   2.0000      -0.590674       -16.0731
  24   2.0000      -0.565091       -15.3769
  25   2.0000      -0.545949       -14.8560
  26   2.0000      -0.530727       -14.4418
  27   2.0000      -0.518904       -14.1201
  28   2.0000      -0.508438       -13.8353
  29   2.0000      -0.487772       -13.2730
  30   2.0000      -0.482968       -13.1422
  31   2.0000      -0.470076       -12.7914
  32   2.0000      -0.463111       -12.6019
  33   2.0000      -0.462382       -12.5821
  34   2.0000      -0.452398       -12.3104
  35   2.0000      -0.415263       -11.2999
  36   0.0000       0.022410         0.6098
  37   0.0000       0.025608         0.6968
  38   0.0000       0.031251         0.8504
  39   0.0000       0.032966         0.8970
  40   0.0000       0.036708         0.9989

MULLIKEN ATOMIC CHARGES
-----------------------
   0 C :    0.184931
   1 C :   -0.910524
   2 C :   -0.608227
   3 C :   -0.528331
   4 C :   -0.121539
   5 C :   -0.313183
   6 C :   -0.302813
   7 C :   -0.349504
   8 O :   -0.769680
   9 H :    0.335386
  10 H :    0.224586
  11 H :    0.266937
  12 H :    0.224613
  13 H :    0.199587
  14 H :    0.199654
  15 H :    0.222595
  16 H :    0.222590
  17 H :    0.185343
  18 H :    0.185575
  19 H :    0.229958
  20 H :    0.229729
  21 H :    0.241209
  22 H :    0.241381
  23 H :    0.254869
  24 H :    0.254858
Sum of atomic charges:    0.0000000

LOEWDIN ATOMIC CHARGES
----------------------
   0 C :   -0.230253
   1 C :    0.926445
   2 C :    0.474589
   3 C :    0.509335
   4 C :    0.492600
   5 C :    0.513522
   6 C :    0.524710
   7 C :    0.527217
   8 O :    0.717560
   9 H :   -0.342085
  10 H :   -0.285489
  11 H :   -0.284843
  12 H :   -0.285489
  13 H :   -0.286215
  14 H :   -0.286215
  15 H :   -0.273028
  16 H :   -0.273028
  17 H :   -0.272158
  18 H :   -0.272158
  19 H :   -0.267939
  20 H :   -0.267939
  21 H :   -0.265412
  22 H :   -0.265412
  23 H :   -0.264158
  24 H :   -0.264158

  Mayer bond orders larger than 0.100000
B(  0-C ,  2-C ) :   1.0535 B(  0-C ,  4-C ) :  -0.3730 B(  0-C ,  8-O ) :   1.4444
B(  0-C ,  9-H ) :   0.9826 B(  1-C ,  3-C ) :   1.0561 B(  1-C ,  5-C ) :  -0.1377
B(  1-C , 10-H ) :   0.9567 B(  1-C , 11-H ) :   1.0259 B(  1-C , 12-H ) :   0.9567
B(  2-C ,  4-C ) :   0.9134 B(  2-C ,  6-C ) :  -0.1493 B(  2-C ,  8-O ) :   0.2341
B(  2-C ,  9-H ) :  -0.1437 B(  2-C , 13-H ) :   0.9188 B(  2-C , 14-H ) :   0.9187
B(  3-C ,  5-C ) :   1.0046 B(  3-C ,  7-C ) :  -0.1049 B(  3-C , 15-H ) :   0.8830
B(  3-C , 16-H ) :   0.8831 B(  4-C ,  6-C ) :   1.0960 B(  4-C ,  7-C ) :  -0.1244
B(  4-C ,  8-O ) :  -0.1115 B(  4-C , 17-H ) :   0.8535 B(  4-C , 18-H ) :   0.8534
B(  5-C ,  6-C ) :  -0.1140 B(  5-C ,  7-C ) :   1.0961 B(  5-C , 19-H ) :   0.8601
B(  5-C , 20-H ) :   0.8602 B(  6-C ,  7-C ) :   1.1301 B(  6-C , 21-H ) :   0.8367
B(  6-C , 22-H ) :   0.8364 B(  7-C , 23-H ) :   0.8303 B(  7-C , 24-H ) :   0.8302

MP2 TOTAL ENERGY:     -389.015544629 Eh
FINAL SINGLE POINT ENERGY      -389.015544629190

DIPOLE MOMENT
-------------
                                X             Y             Z
Electronic contribution:     15.46121       3.34147      -0.00000
Nuclear contribution   :    -16.29372      -2.48472       0.00000
                        -----------------------------------------
Total Dipole Moment    :     -0.83251       0.85675      -0.00000
                        -----------------------------------------
Magnitude (a.u.)       :      1.19461
Magnitude (Debye)      :      3.03645

Rotational constants in cm-1:     0.254916     0.012904     0.012478
Rotational constants in MHz :  7642.185790   386.857801   374.091999

                             ****ORCA TERMINATED NORMALLY****
TOTAL RUN TIME: 0 days 2 hours 13 minutes 43 seconds 18 msec
