                         Program Version 5.0.4 -  RELEASE  -
|  1> !ri-mp2 aug-cc-pvqz aug-cc-pvqz/c tightscf
|  2> %pal nprocs 16 end
|  3>
|  4> * xyz 0 1
|  5> S      1.225174   -0.898935   -0.254228
|  6> O      1.535098    0.658588    0.407850
|  7> O     -2.480973   -0.262291    0.091047
|  8> N     -0.366881   -1.120825    0.191149
|  9> C     -1.293951   -0.078457   -0.057482
| 10> C     -0.684163    1.233340   -0.309598
| 11> C      0.572566    1.541966    0.062753
| 12> H     -1.361545    2.031989   -0.568230
| 13> H     -0.591464   -1.718951    0.976121
| 14> H      0.918677    2.564229    0.156502
| 15> *
| 16>
| 17>                          ****END OF INPUT****

CARTESIAN COORDINATES (ANGSTROEM)
---------------------------------
  S      1.225174   -0.898935   -0.254228
  O      1.535098    0.658588    0.407850
  O     -2.480973   -0.262291    0.091047
  N     -0.366881   -1.120825    0.191149
  C     -1.293951   -0.078457   -0.057482
  C     -0.684163    1.233340   -0.309598
  C      0.572566    1.541966    0.062753
  H     -1.361545    2.031989   -0.568230
  H     -0.591464   -1.718951    0.976121
  H      0.918677    2.564229    0.156502

 Total Charge           Charge          ....    0
 Multiplicity           Mult            ....    1
 Number of Electrons    NEL             ....   60
 Basis Dimension        Dim             ....  702

ORBITAL ENERGIES
----------------

  NO   OCC          E(Eh)            E(eV)
   0   2.0000     -92.060862     -2505.1034
   1   2.0000     -20.638138      -561.5923
   2   2.0000     -20.547214      -559.1181
   3   2.0000     -15.623480      -425.1365
   4   2.0000     -11.379276      -309.6459
   5   2.0000     -11.347637      -308.7849
   6   2.0000     -11.251320      -306.1640
   7   2.0000      -9.053177      -246.3495
   8   2.0000      -6.734428      -183.2531
   9   2.0000      -6.732948      -183.2128
  10   2.0000      -6.731351      -183.1694
  11   2.0000      -1.449232       -39.4356
  12   2.0000      -1.407193       -38.2917
  13   2.0000      -1.253898       -34.1203
  14   2.0000      -1.085436       -29.5362
  15   2.0000      -0.961349       -26.1596
  16   2.0000      -0.891206       -24.2510
  17   2.0000      -0.778773       -21.1915
  18   2.0000      -0.736619       -20.0444
  19   2.0000      -0.719479       -19.5780
  20   2.0000      -0.668750       -18.1976
  21   2.0000      -0.650435       -17.6992
  22   2.0000      -0.621038       -16.8993
  23   2.0000      -0.579356       -15.7651
  24   2.0000      -0.564757       -15.3678
  25   2.0000      -0.549467       -14.9518
  26   2.0000      -0.475326       -12.9343
  27   2.0000      -0.443872       -12.0784
  28   2.0000      -0.386430       -10.5153
  29   2.0000      -0.380670       -10.3585
  30   0.0000       0.022849         0.6218
  31   0.0000       0.031011         0.8438
  32   0.0000       0.038736         1.0540
  33   0.0000       0.045732         1.2444
  34   0.0000       0.057455         1.5634

MULLIKEN ATOMIC CHARGES
-----------------------
   0 S :    0.626816
   1 O :   -0.748547
   2 O :   -0.752882
   3 N :   -0.656132
   4 C :    0.954273
   5 C :   -0.624693
   6 C :    0.013017
   7 H :    0.367935
   8 H :    0.301750
   9 H :    0.518464
Sum of atomic charges:   -0.0000000

LOEWDIN ATOMIC CHARGES
----------------------
   0 S :    0.908178
   1 O :    0.389535
   2 O :    0.680471
   3 N :    0.335417
   4 C :   -1.000774
   5 C :    0.236138
   6 C :   -0.192610
   7 H :   -0.379313
   8 H :   -0.616870
   9 H :   -0.360172

  Mayer bond orders larger than 0.100000
B(  0-S ,  1-O ) :   0.6837 B(  0-S ,  3-N ) :   1.0053 B(  1-O ,  5-C ) :   0.1393
B(  1-O ,  6-C ) :   0.8553 B(  2-O ,  4-C ) :   1.3781 B(  2-O ,  5-C ) :   0.1323
B(  3-N ,  4-C ) :   1.0570 B(  3-N ,  8-H ) :   0.9063 B(  4-C ,  5-C ) :   1.0788
B(  4-C ,  6-C ) :  -0.1402 B(  5-C ,  6-C ) :   1.6807 B(  5-C ,  7-H ) :   0.8614
B(  6-C ,  9-H ) :   0.7411

MP2 TOTAL ENERGY:     -718.572231016 Eh
FINAL SINGLE POINT ENERGY      -718.572231016023

DIPOLE MOMENT
-------------
                                X             Y             Z
Electronic contribution:      2.04316      -2.45197      -0.40468
Nuclear contribution   :     -1.04793       2.79462       0.55920
                        -----------------------------------------
Total Dipole Moment    :      0.99522       0.34264       0.15452
                        -----------------------------------------
Magnitude (a.u.)       :      1.06384
Magnitude (Debye)      :      2.70406

Rotational constants in cm-1:     0.140407     0.074331     0.050911
Rotational constants in MHz :  4209.310207  2228.377615  1526.275714

                             ****ORCA TERMINATED NORMALLY****
TOTAL RUN TIME: 0 days 0 hours 15 minutes 0 seconds 270 msec
