                         Program Version 5.0.4 -  RELEASE  -
|  1> !ri-mp2 aug-cc-pvqz aug-cc-pvqz/c tightscf
|  2> %pal nprocs 16 end
|  3> %maxcore 3800
|  4>
|  5> * xyz 0 1
|  6> C      2.934682    0.194779   -0.004319
|  7> C      4.206745   -0.627668    0.015541
|  8> C     -4.735634    0.345804    0.007764
|  9> C      1.629987   -0.583788   -0.011871
| 10> C     -3.474297   -0.516071   -0.008273
| 11> C      0.371967    0.276168    0.007321
| 12> C     -2.183074    0.302813    0.008272
| 13> C     -0.914399   -0.550257   -0.008442
| 14> O      2.963972    1.405012   -0.011805
| 15> H      5.073473    0.025936   -0.034823
| 16> H      4.252724   -1.223691    0.929740
| 17> H      4.223317   -1.329172   -0.820869
| 18> H     -4.771299    1.007919   -0.859773
| 19> H     -4.773151    0.972598    0.901088
| 20> H     -5.638271   -0.266633   -0.005463
| 21> H      1.647676   -1.270090    0.842461
| 22> H      1.642249   -1.235279   -0.893437
| 23> H     -3.483287   -1.191182    0.852863
| 24> H     -3.482233   -1.157183   -0.895044
| 25> H      0.388911    0.953592   -0.849010
| 26> H      0.390148    0.917782    0.891046
| 27> H     -2.174223    0.979058   -0.852885
| 28> H     -2.174641    0.944692    0.895375
| 29> H     -0.924559   -1.192399   -0.895918
| 30> H     -0.924462   -1.226723    0.853135
| 31> *
| 32>
| 33>                          ****END OF INPUT****

CARTESIAN COORDINATES (ANGSTROEM)
---------------------------------
  C      2.934682    0.194779   -0.004319
  C      4.206745   -0.627668    0.015541
  C     -4.735634    0.345804    0.007764
  C      1.629987   -0.583788   -0.011871
  C     -3.474297   -0.516071   -0.008273
  C      0.371967    0.276168    0.007321
  C     -2.183074    0.302813    0.008272
  C     -0.914399   -0.550257   -0.008442
  O      2.963972    1.405012   -0.011805
  H      5.073473    0.025936   -0.034823
  H      4.252724   -1.223691    0.929740
  H      4.223317   -1.329172   -0.820869
  H     -4.771299    1.007919   -0.859773
  H     -4.773151    0.972598    0.901088
  H     -5.638271   -0.266633   -0.005463
  H      1.647676   -1.270090    0.842461
  H      1.642249   -1.235279   -0.893437
  H     -3.483287   -1.191182    0.852863
  H     -3.482233   -1.157183   -0.895044
  H      0.388911    0.953592   -0.849010
  H      0.390148    0.917782    0.891046
  H     -2.174223    0.979058   -0.852885
  H     -2.174641    0.944692    0.895375
  H     -0.924559   -1.192399   -0.895918
  H     -0.924462   -1.226723    0.853135

 Total Charge           Charge          ....    0
 Multiplicity           Mult            ....    1
 Number of Electrons    NEL             ....   72
 Basis Dimension        Dim             .... 1456

ORBITAL ENERGIES
----------------

  NO   OCC          E(Eh)            E(eV)
   0   2.0000     -20.540170      -558.9264
   1   2.0000     -11.326946      -308.2219
   2   2.0000     -11.234909      -305.7174
   3   2.0000     -11.231825      -305.6335
   4   2.0000     -11.218065      -305.2591
   5   2.0000     -11.217452      -305.2424
   6   2.0000     -11.215909      -305.2004
   7   2.0000     -11.213986      -305.1481
   8   2.0000     -11.209077      -305.0145
   9   2.0000      -1.384368       -37.6706
  10   2.0000      -1.093410       -29.7532
  11   2.0000      -1.056515       -28.7492
  12   2.0000      -1.014943       -27.6180
  13   2.0000      -0.968726       -26.3604
  14   2.0000      -0.890292       -24.2261
  15   2.0000      -0.813446       -22.1350
  16   2.0000      -0.789064       -21.4715
  17   2.0000      -0.731836       -19.9143
  18   2.0000      -0.660324       -17.9683
  19   2.0000      -0.650448       -17.6996
  20   2.0000      -0.630515       -17.1572
  21   2.0000      -0.624367       -16.9899
  22   2.0000      -0.594574       -16.1792
  23   2.0000      -0.584174       -15.8962
  24   2.0000      -0.567084       -15.4311
  25   2.0000      -0.558324       -15.1928
  26   2.0000      -0.540722       -14.7138
  27   2.0000      -0.527585       -14.3563
  28   2.0000      -0.510876       -13.9016
  29   2.0000      -0.490137       -13.3373
  30   2.0000      -0.486524       -13.2390
  31   2.0000      -0.472203       -12.8493
  32   2.0000      -0.463945       -12.6246
  33   2.0000      -0.461709       -12.5637
  34   2.0000      -0.454274       -12.3614
  35   2.0000      -0.405996       -11.0477
  36   0.0000       0.021886         0.5956
  37   0.0000       0.025994         0.7073
  38   0.0000       0.031568         0.8590
  39   0.0000       0.033388         0.9085
  40   0.0000       0.038261         1.0411

MULLIKEN ATOMIC CHARGES
-----------------------
   0 C :    0.630576
   1 C :   -0.945859
   2 C :   -0.912308
   3 C :   -0.418808
   4 C :   -0.536928
   5 C :   -0.299195
   6 C :   -0.275574
   7 C :   -0.299013
   8 O :   -0.810228
   9 H :    0.281082
  10 H :    0.283391
  11 H :    0.265895
  12 H :    0.224109
  13 H :    0.224400
  14 H :    0.269864
  15 H :    0.229530
  16 H :    0.230419
  17 H :    0.224544
  18 H :    0.224539
  19 H :    0.207564
  20 H :    0.219442
  21 H :    0.242402
  22 H :    0.238774
  23 H :    0.251554
  24 H :    0.249827
Sum of atomic charges:   -0.0000000

LOEWDIN ATOMIC CHARGES
----------------------
   0 C :   -0.621935
   1 C :    0.897188
   2 C :    0.926767
   3 C :    0.478415
   4 C :    0.508911
   5 C :    0.499225
   6 C :    0.514832
   7 C :    0.524644
   8 O :    0.747951
   9 H :   -0.318411
  10 H :   -0.292972
  11 H :   -0.294823
  12 H :   -0.285323
  13 H :   -0.285284
  14 H :   -0.284791
  15 H :   -0.279552
  16 H :   -0.279355
  17 H :   -0.273495
  18 H :   -0.273509
  19 H :   -0.272637
  20 H :   -0.270856
  21 H :   -0.266973
  22 H :   -0.266852
  23 H :   -0.265660
  24 H :   -0.265506

  Mayer bond orders larger than 0.100000
B(  0-C ,  1-C ) :   1.0966 B(  0-C ,  3-C ) :   0.8727 B(  0-C ,  5-C ) :  -0.2650
B(  0-C ,  8-O ) :   1.0331 B(  1-C ,  3-C ) :  -0.1178 B(  1-C ,  9-H ) :   1.0128
B(  1-C , 10-H ) :   0.9131 B(  1-C , 11-H ) :   0.9435 B(  2-C ,  4-C ) :   1.0589
B(  2-C ,  6-C ) :  -0.1378 B(  2-C , 12-H ) :   0.9566 B(  2-C , 13-H ) :   0.9571
B(  2-C , 14-H ) :   1.0231 B(  3-C ,  5-C ) :   1.0808 B(  3-C ,  7-C ) :  -0.1902
B(  3-C ,  8-O ) :   0.3267 B(  3-C , 15-H ) :   0.8747 B(  3-C , 16-H ) :   0.8768
B(  4-C ,  6-C ) :   0.9922 B(  4-C , 17-H ) :   0.8814 B(  4-C , 18-H ) :   0.8809
B(  5-C ,  6-C ) :  -0.1190 B(  5-C ,  7-C ) :   1.1118 B(  5-C ,  8-O ) :  -0.1005
B(  5-C , 19-H ) :   0.8422 B(  5-C , 20-H ) :   0.8228 B(  6-C ,  7-C ) :   1.1189
B(  6-C , 21-H ) :   0.8516 B(  6-C , 22-H ) :   0.8557 B(  7-C , 23-H ) :   0.8360
B(  7-C , 24-H ) :   0.8365

MP2 TOTAL ENERGY:     -389.026589750 Eh
FINAL SINGLE POINT ENERGY      -389.026589749665

DIPOLE MOMENT
-------------
                                X             Y             Z
Electronic contribution:     11.15840       3.25530      -0.05207
Nuclear contribution   :    -11.26456      -4.50188       0.06148
                        -----------------------------------------
Total Dipole Moment    :     -0.10616      -1.24659       0.00942
                        -----------------------------------------
Magnitude (a.u.)       :      1.25114
Magnitude (Debye)      :      3.18013

Rotational constants in cm-1:     0.212149     0.014489     0.013803
Rotational constants in MHz :  6360.062841   434.372864   413.792742

                             ****ORCA TERMINATED NORMALLY****
TOTAL RUN TIME: 0 days 2 hours 9 minutes 28 seconds 737 msec
