                         Program Version 5.0.4 -  RELEASE  -
|  1> !ri-mp2 aug-cc-pvqz aug-cc-pvqz/c tightscf
|  2> %pal nprocs 16 end
|  3>
|  4> * xyz 0 1
|  5> C      0.000000    0.694295   -0.532279
|  6> C      0.000000    1.395728    0.658951
|  7> C      0.000000    0.694955    1.860549
|  8> C      0.000000   -0.694955    1.860549
|  9> C      0.000000   -1.395728    0.658951
| 10> C      0.000000   -0.694295   -0.532279
| 11> F      0.000000   -1.349838   -1.705237
| 12> F      0.000000    1.349838   -1.705237
| 13> H      0.000000    2.476041    0.629411
| 14> H      0.000000    1.238774    2.794390
| 15> H      0.000000   -1.238774    2.794390
| 16> H      0.000000   -2.476041    0.629411
| 17> *
| 18>
| 19>                          ****END OF INPUT****

CARTESIAN COORDINATES (ANGSTROEM)
---------------------------------
  C      0.000000    0.694295   -0.532279
  C      0.000000    1.395728    0.658951
  C      0.000000    0.694955    1.860549
  C      0.000000   -0.694955    1.860549
  C      0.000000   -1.395728    0.658951
  C      0.000000   -0.694295   -0.532279
  F      0.000000   -1.349838   -1.705237
  F      0.000000    1.349838   -1.705237
  H      0.000000    2.476041    0.629411
  H      0.000000    1.238774    2.794390
  H      0.000000   -1.238774    2.794390
  H      0.000000   -2.476041    0.629411

 Total Charge           Charge          ....    0
 Multiplicity           Mult            ....    1
 Number of Electrons    NEL             ....   58
 Basis Dimension        Dim             ....  824

ORBITAL ENERGIES
----------------

  NO   OCC          E(Eh)            E(eV)
   0   2.0000     -26.317958      -716.1481
   1   2.0000     -26.317956      -716.1480
   2   2.0000     -11.340979      -308.6037
   3   2.0000     -11.339732      -308.5698
   4   2.0000     -11.258570      -306.3613
   5   2.0000     -11.258547      -306.3606
   6   2.0000     -11.255792      -306.2857
   7   2.0000     -11.254583      -306.2528
   8   2.0000      -1.643840       -44.7311
   9   2.0000      -1.629783       -44.3486
  10   2.0000      -1.180872       -32.1332
  11   2.0000      -1.046741       -28.4833
  12   2.0000      -1.036912       -28.2158
  13   2.0000      -0.880653       -23.9638
  14   2.0000      -0.862696       -23.4751
  15   2.0000      -0.774119       -21.0648
  16   2.0000      -0.741586       -20.1796
  17   2.0000      -0.734314       -19.9817
  18   2.0000      -0.718057       -19.5393
  19   2.0000      -0.690840       -18.7987
  20   2.0000      -0.666433       -18.1346
  21   2.0000      -0.661910       -18.0115
  22   2.0000      -0.630633       -17.1604
  23   2.0000      -0.601666       -16.3722
  24   2.0000      -0.550278       -14.9738
  25   2.0000      -0.530620       -14.4389
  26   2.0000      -0.519988       -14.1496
  27   2.0000      -0.362775        -9.8716
  28   2.0000      -0.350771        -9.5450
  29   0.0000       0.022524         0.6129
  30   0.0000       0.027829         0.7573
  31   0.0000       0.034283         0.9329
  32   0.0000       0.044742         1.2175
  33   0.0000       0.060920         1.6577

MULLIKEN ATOMIC CHARGES
-----------------------
   0 C :    0.872000
   1 C :   -0.462223
   2 C :   -0.373017
   3 C :   -0.373012
   4 C :   -0.462217
   5 C :    0.872007
   6 F :   -0.722337
   7 F :   -0.722338
   8 H :    0.430162
   9 H :    0.255404
  10 H :    0.255411
  11 H :    0.430161
Sum of atomic charges:   -0.0000000

LOEWDIN ATOMIC CHARGES
----------------------
   0 C :   -0.734872
   1 C :    0.289422
   2 C :    0.325492
   3 C :    0.325492
   4 C :    0.289422
   5 C :   -0.734872
   6 F :    0.773372
   7 F :    0.773372
   8 H :   -0.329363
   9 H :   -0.324051
  10 H :   -0.324051
  11 H :   -0.329363

  Mayer bond orders larger than 0.100000
B(  0-C ,  1-C ) :   1.3204 B(  0-C ,  2-C ) :  -0.1463 B(  0-C ,  3-C ) :   0.1143
B(  0-C ,  5-C ) :   1.4605 B(  1-C ,  2-C ) :   1.2048 B(  1-C ,  7-F ) :   0.1324
B(  1-C ,  8-H ) :   0.8009 B(  2-C ,  3-C ) :   1.2508 B(  2-C ,  5-C ) :   0.1143
B(  2-C ,  9-H ) :   1.0830 B(  3-C ,  4-C ) :   1.2048 B(  3-C ,  5-C ) :  -0.1463
B(  3-C , 10-H ) :   1.0830 B(  4-C ,  5-C ) :   1.3204 B(  4-C ,  6-F ) :   0.1324
B(  4-C , 11-H ) :   0.8009

MP2 TOTAL ENERGY:     -430.132337777 Eh
FINAL SINGLE POINT ENERGY      -430.132337776936

DIPOLE MOMENT
-------------
                                X             Y             Z
Electronic contribution:      0.00000       0.00000      -8.56574
Nuclear contribution   :      0.00000       0.00000       9.75322
                        -----------------------------------------
Total Dipole Moment    :      0.00000       0.00000       1.18748
                        -----------------------------------------
Magnitude (a.u.)       :      1.18748
Magnitude (Debye)      :      3.01833

Rotational constants in cm-1:     0.108997     0.074422     0.044225
Rotational constants in MHz :  3267.637147  2231.101732  1325.836898

                             ****ORCA TERMINATED NORMALLY****
TOTAL RUN TIME: 0 days 0 hours 27 minutes 2 seconds 505 msec
