                         Program Version 5.0.4 -  RELEASE  -
|  1> !ri-mp2 aug-cc-pvqz aug-cc-pvqz/c tightscf
|  2> %pal nprocs 16 end
|  3>
|  4> * xyz 0 1
|  5> C     -1.885447   -0.818106    0.007501
|  6> C     -1.975051    0.568350   -0.000697
|  7> C     -0.628773   -1.412605    0.008802
|  8> C     -0.822932    1.340246   -0.004708
|  9> C      0.543272   -0.661462    0.000704
| 10> C      0.440882    0.742403   -0.003804
| 11> C      1.892340   -1.326342   -0.010307
| 12> N      1.590034    1.533681   -0.069114
| 13> H     -2.777856   -1.428093    0.012258
| 14> H     -2.942118    1.053384   -0.001815
| 15> H     -0.550201   -2.492945    0.013468
| 16> H     -0.896228    2.421222   -0.012731
| 17> H      2.483420   -1.022758   -0.878512
| 18> H      2.479480   -1.078545    0.880504
| 19> H      1.791171   -2.409860   -0.037583
| 20> H      2.429428    1.133051    0.315391
| 21> H      1.466926    2.493869    0.207873
| 22> *
| 23>
| 24>                          ****END OF INPUT****

CARTESIAN COORDINATES (ANGSTROEM)
---------------------------------
  C     -1.885447   -0.818106    0.007501
  C     -1.975051    0.568350   -0.000697
  C     -0.628773   -1.412605    0.008802
  C     -0.822932    1.340246   -0.004708
  C      0.543272   -0.661462    0.000704
  C      0.440882    0.742403   -0.003804
  C      1.892340   -1.326342   -0.010307
  N      1.590034    1.533681   -0.069114
  H     -2.777856   -1.428093    0.012258
  H     -2.942118    1.053384   -0.001815
  H     -0.550201   -2.492945    0.013468
  H     -0.896228    2.421222   -0.012731
  H      2.483420   -1.022758   -0.878512
  H      2.479480   -1.078545    0.880504
  H      1.791171   -2.409860   -0.037583
  H      2.429428    1.133051    0.315391
  H      1.466926    2.493869    0.207873

 Total Charge           Charge          ....    0
 Multiplicity           Mult            ....    1
 Number of Electrons    NEL             ....   58
 Basis Dimension        Dim             .... 1054

ORBITAL ENERGIES
----------------

  NO   OCC          E(Eh)            E(eV)
   0   2.0000     -15.561659      -423.4543
   1   2.0000     -11.271427      -306.7111
   2   2.0000     -11.228061      -305.5311
   3   2.0000     -11.226821      -305.4973
   4   2.0000     -11.225904      -305.4724
   5   2.0000     -11.223164      -305.3978
   6   2.0000     -11.218668      -305.2755
   7   2.0000     -11.213812      -305.1433
   8   2.0000      -1.224377       -33.3170
   9   2.0000      -1.126883       -30.6641
  10   2.0000      -1.041146       -28.3310
  11   2.0000      -0.987398       -26.8685
  12   2.0000      -0.929196       -25.2847
  13   2.0000      -0.822736       -22.3878
  14   2.0000      -0.796208       -21.6659
  15   2.0000      -0.696862       -18.9626
  16   2.0000      -0.690626       -18.7929
  17   2.0000      -0.642776       -17.4908
  18   2.0000      -0.602761       -16.4020
  19   2.0000      -0.590674       -16.0731
  20   2.0000      -0.580848       -15.8057
  21   2.0000      -0.565943       -15.4001
  22   2.0000      -0.542807       -14.7705
  23   2.0000      -0.515643       -14.0313
  24   2.0000      -0.494626       -13.4594
  25   2.0000      -0.481518       -13.1028
  26   2.0000      -0.446174       -12.1410
  27   2.0000      -0.327653        -8.9159
  28   2.0000      -0.289370        -7.8741
  29   0.0000       0.023444         0.6379
  30   0.0000       0.028095         0.7645
  31   0.0000       0.030370         0.8264
  32   0.0000       0.040781         1.1097
  33   0.0000       0.041607         1.1322

MULLIKEN ATOMIC CHARGES
-----------------------
   0 C :   -0.360808
   1 C :   -0.407379
   2 C :   -0.535120
   3 C :   -0.482983
   4 C :    0.665514
   5 C :    0.534956
   6 C :   -0.715830
   7 N :   -0.876931
   8 H :    0.238571
   9 H :    0.254469
  10 H :    0.224947
  11 H :    0.263825
  12 H :    0.216670
  13 H :    0.193146
  14 H :    0.263627
  15 H :    0.290691
  16 H :    0.232633
Sum of atomic charges:   -0.0000000

LOEWDIN ATOMIC CHARGES
----------------------
   0 C :    0.337479
   1 C :    0.327997
   2 C :    0.333012
   3 C :    0.337415
   4 C :   -0.067703
   5 C :   -0.232034
   6 C :    0.895823
   7 N :    1.280235
   8 H :   -0.332322
   9 H :   -0.324514
  10 H :   -0.324640
  11 H :   -0.326324
  12 H :   -0.279356
  13 H :   -0.279884
  14 H :   -0.306167
  15 H :   -0.536018
  16 H :   -0.502998

  Mayer bond orders larger than 0.100000
B(  0-C ,  1-C ) :   1.2022 B(  0-C ,  2-C ) :   1.2837 B(  0-C ,  4-C ) :  -0.3419
B(  0-C ,  8-H ) :   1.1395 B(  1-C ,  3-C ) :   1.2866 B(  1-C ,  5-C ) :  -0.1788
B(  1-C ,  9-H ) :   1.1048 B(  2-C ,  3-C ) :   0.1179 B(  2-C ,  4-C ) :   0.8618
B(  2-C ,  5-C ) :  -0.1290 B(  2-C ,  6-C ) :  -0.1058 B(  2-C ,  8-H ) :  -0.1463
B(  2-C , 10-H ) :   1.0588 B(  3-C ,  4-C ) :  -0.1146 B(  3-C ,  5-C ) :   1.2117
B(  3-C ,  9-H ) :  -0.1411 B(  3-C , 11-H ) :   0.9915 B(  4-C ,  5-C ) :   1.1332
B(  4-C ,  6-C ) :   0.5347 B(  4-C , 12-H ) :  -0.1129 B(  4-C , 13-H ) :  -0.1144
B(  4-C , 14-H ) :  -0.1329 B(  5-C ,  7-N ) :   0.5170 B(  5-C , 11-H ) :  -0.1096
B(  6-C , 12-H ) :   1.0260 B(  6-C , 13-H ) :   1.0454 B(  6-C , 14-H ) :   1.0287
B(  7-N , 15-H ) :   0.9446 B(  7-N , 16-H ) :   0.9945

MP2 TOTAL ENERGY:     -326.338754009 Eh
FINAL SINGLE POINT ENERGY      -326.338754009165

DIPOLE MOMENT
-------------
                                X             Y             Z
Electronic contribution:     -3.10336       1.53711      -0.15206
Nuclear contribution   :      3.55113      -1.34353       0.50669
                        -----------------------------------------
Total Dipole Moment    :      0.44777       0.19358       0.35463
                        -----------------------------------------
Magnitude (a.u.)       :      0.60310
Magnitude (Debye)      :      1.53297

Rotational constants in cm-1:     0.108041     0.073325     0.044083
Rotational constants in MHz :  3238.984698  2198.213545  1321.579237

                             ****ORCA TERMINATED NORMALLY****
TOTAL RUN TIME: 0 days 0 hours 44 minutes 4 seconds 109 msec
