                         Program Version 5.0.4 -  RELEASE  -
|  1> !ri-mp2 aug-cc-pvqz aug-cc-pvqz/c tightscf
|  2> %pal nprocs 16 end
|  3>
|  4> * xyz 0 1
|  5> C      0.863078   -0.004934   -0.012038
|  6> C     -1.345484    0.742595    0.139382
|  7> C     -1.296433   -0.772693   -0.105039
|  8> N      0.032123    1.081398   -0.166734
|  9> O      2.061521   -0.022202    0.030559
| 10> O      0.084494   -1.127510    0.081246
| 11> H     -2.049443    1.241627   -0.524845
| 12> H     -1.609416    0.978619    1.174750
| 13> H     -1.897195   -1.346525    0.595247
| 14> H     -1.584158   -1.025162   -1.126673
| 15> H      0.420261    1.989541    0.020394
| 16> *
| 17>
| 18>                          ****END OF INPUT****

CARTESIAN COORDINATES (ANGSTROEM)
---------------------------------
  C      0.863078   -0.004934   -0.012038
  C     -1.345484    0.742595    0.139382
  C     -1.296433   -0.772693   -0.105039
  N      0.032123    1.081398   -0.166734
  O      2.061521   -0.022202    0.030559
  O      0.084494   -1.127510    0.081246
  H     -2.049443    1.241627   -0.524845
  H     -1.609416    0.978619    1.174750
  H     -1.897195   -1.346525    0.595247
  H     -1.584158   -1.025162   -1.126673
  H      0.420261    1.989541    0.020394

 Total Charge           Charge          ....    0
 Multiplicity           Mult            ....    1
 Number of Electrons    NEL             ....   46
 Basis Dimension        Dim             ....  710

ORBITAL ENERGIES
----------------

  NO   OCC          E(Eh)            E(eV)
   0   2.0000     -20.602838      -560.6317
   1   2.0000     -20.526181      -558.5458
   2   2.0000     -15.596692      -424.4076
   3   2.0000     -11.401148      -310.2410
   4   2.0000     -11.310629      -307.7779
   5   2.0000     -11.294030      -307.3262
   6   2.0000      -1.468812       -39.9684
   7   2.0000      -1.364678       -37.1348
   8   2.0000      -1.246060       -33.9070
   9   2.0000      -1.034780       -28.1578
  10   2.0000      -0.890087       -24.2205
  11   2.0000      -0.832247       -22.6466
  12   2.0000      -0.722979       -19.6733
  13   2.0000      -0.720814       -19.6144
  14   2.0000      -0.668464       -18.1898
  15   2.0000      -0.621918       -16.9232
  16   2.0000      -0.605497       -16.4764
  17   2.0000      -0.595906       -16.2154
  18   2.0000      -0.583747       -15.8846
  19   2.0000      -0.532679       -14.4949
  20   2.0000      -0.462446       -12.5838
  21   2.0000      -0.455865       -12.4047
  22   2.0000      -0.416935       -11.3454
  23   0.0000       0.017496         0.4761
  24   0.0000       0.029224         0.7952
  25   0.0000       0.030939         0.8419
  26   0.0000       0.039890         1.0855
  27   0.0000       0.049856         1.3567

MULLIKEN ATOMIC CHARGES
-----------------------
   0 C :    1.127781
   1 C :   -0.487733
   2 C :   -0.184977
   3 N :   -0.523789
   4 O :   -0.740809
   5 O :   -0.714139
   6 H :    0.341398
   7 H :    0.306004
   8 H :    0.366758
   9 H :    0.270542
  10 H :    0.238963
Sum of atomic charges:    0.0000000

LOEWDIN ATOMIC CHARGES
----------------------
   0 C :   -1.246046
   1 C :    0.375183
   2 C :    0.196428
   3 N :    0.817685
   4 O :    0.631451
   5 O :    0.843491
   6 H :   -0.276275
   7 H :   -0.269407
   8 H :   -0.294668
   9 H :   -0.290875
  10 H :   -0.486966

  Mayer bond orders larger than 0.100000
B(  0-C ,  3-N ) :   1.2364 B(  0-C ,  4-O ) :   1.5059 B(  0-C ,  5-O ) :   0.9876
B(  1-C ,  2-C ) :   1.1428 B(  1-C ,  3-N ) :   0.7980 B(  1-C ,  6-H ) :   0.8581
B(  1-C ,  7-H ) :   0.8929 B(  2-C ,  5-O ) :   0.6929 B(  2-C ,  8-H ) :   0.8277
B(  2-C ,  9-H ) :   0.9054 B(  3-N ,  4-O ) :   0.1462 B(  3-N , 10-H ) :   0.9656

MP2 TOTAL ENERGY:     -322.095368136 Eh
FINAL SINGLE POINT ENERGY      -322.095368135897

DIPOLE MOMENT
-------------
                                X             Y             Z
Electronic contribution:      4.52313      -0.98729      -0.04001
Nuclear contribution   :     -6.63321       1.81192       0.13856
                        -----------------------------------------
Total Dipole Moment    :     -2.11008       0.82463       0.09855
                        -----------------------------------------
Magnitude (a.u.)       :      2.26764
Magnitude (Debye)      :      5.76387

Rotational constants in cm-1:     0.263172     0.124089     0.087998
Rotational constants in MHz :  7889.688132  3720.100699  2638.107895

                             ****ORCA TERMINATED NORMALLY****
TOTAL RUN TIME: 0 days 0 hours 13 minutes 13 seconds 643 msec
