                         Program Version 5.0.4 -  RELEASE  -
|  1> !ri-mp2 aug-cc-pvqz aug-cc-pvqz/c tightscf
|  2> %pal nprocs 16 end
|  3>
|  4> * xyz 0 1
|  5> O     0.000000     0.000000    0.854896
|  6> C     0.000000     0.731605   -0.373327
|  7> C     0.000000    -0.731605   -0.373327
|  8> H     0.917863     1.266951   -0.589809
|  9> H    -0.917863     1.266951   -0.589809
| 10> H    -0.917863    -1.266951   -0.589809
| 11> H     0.917863    -1.266951   -0.589809
| 12> *
| 13>
| 14>                          ****END OF INPUT****

CARTESIAN COORDINATES (ANGSTROEM)
---------------------------------
  O      0.000000    0.000000    0.854896
  C      0.000000    0.731605   -0.373327
  C      0.000000   -0.731605   -0.373327
  H      0.917863    1.266951   -0.589809
  H     -0.917863    1.266951   -0.589809
  H     -0.917863   -1.266951   -0.589809
  H      0.917863   -1.266951   -0.589809

 Total Charge           Charge          ....    0
 Multiplicity           Mult            ....    1
 Number of Electrons    NEL             ....   24
 Basis Dimension        Dim             ....  424

ORBITAL ENERGIES
----------------

  NO   OCC          E(Eh)            E(eV)
   0   2.0000     -20.569516      -559.7250
   1   2.0000     -11.285332      -307.0895
   2   2.0000     -11.284523      -307.0675
   3   2.0000      -1.410159       -38.3724
   4   2.0000      -0.934476       -25.4284
   5   2.0000      -0.863084       -23.4857
   6   2.0000      -0.705722       -19.2037
   7   2.0000      -0.661757       -18.0073
   8   2.0000      -0.548727       -14.9316
   9   2.0000      -0.544073       -14.8050
  10   2.0000      -0.452748       -12.3199
  11   2.0000      -0.452570       -12.3151
  12   0.0000       0.026609         0.7241
  13   0.0000       0.035081         0.9546
  14   0.0000       0.036219         0.9856
  15   0.0000       0.053235         1.4486
  16   0.0000       0.063026         1.7150

MULLIKEN ATOMIC CHARGES
-----------------------
   0 O :   -0.706530
   1 C :   -0.420381
   2 C :   -0.420381
   3 H :    0.386823
   4 H :    0.386823
   5 H :    0.386823
   6 H :    0.386823
Sum of atomic charges:   -0.0000000

LOEWDIN ATOMIC CHARGES
----------------------
   0 O :    0.809800
   1 C :    0.219273
   2 C :    0.219273
   3 H :   -0.312086
   4 H :   -0.312086
   5 H :   -0.312086
   6 H :   -0.312086

  Mayer bond orders larger than 0.100000
B(  0-O ,  1-C ) :   0.8831 B(  0-O ,  2-C ) :   0.8831 B(  1-C ,  2-C ) :   1.1334
B(  1-C ,  3-H ) :   0.8266 B(  1-C ,  4-H ) :   0.8266 B(  2-C ,  5-H ) :   0.8266
B(  2-C ,  6-H ) :   0.8266

MP2 TOTAL ENERGY:     -153.557830772 Eh
FINAL SINGLE POINT ENERGY      -153.557830772339

DIPOLE MOMENT
-------------
                                X             Y             Z
Electronic contribution:     -0.00000       0.00000       1.52923
Nuclear contribution   :      0.00000       0.00000      -2.40011
                        -----------------------------------------
Total Dipole Moment    :     -0.00000       0.00000      -0.87088
                        -----------------------------------------
Magnitude (a.u.)       :      0.87088
Magnitude (Debye)      :      2.21360

Rotational constants in cm-1:     0.854982     0.741760     0.472868
Rotational constants in MHz : 25631.728710 22237.404137 14176.221750

                             ****ORCA TERMINATED NORMALLY****
TOTAL RUN TIME: 0 days 0 hours 3 minutes 30 seconds 631 msec
