                         Program Version 5.0.4 -  RELEASE  -
|  1> !ri-mp2 aug-cc-pvqz aug-cc-pvqz/c tightscf
|  2> %pal nprocs 16 end
|  3>
|  4> * xyz 0 1
|  5> C      0.000000    0.694844    2.382562
|  6> C      0.000000   -0.694844    2.382562
|  7> C      0.000000    1.388047    1.181404
|  8> C      0.000000   -1.388047    1.181404
|  9> C      0.000000    0.697332   -0.025757
| 10> C      0.000000   -0.697332   -0.025757
| 11> Cl     0.000000    1.605090   -1.512263
| 12> Cl     0.000000   -1.605090   -1.512263
| 13> H      0.000000    1.242555    3.314599
| 14> H      0.000000   -1.242555    3.314599
| 15> H      0.000000    2.468014    1.164618
| 16> H      0.000000   -2.468014    1.164618
| 17> *
| 18>
| 19>                          ****END OF INPUT****

CARTESIAN COORDINATES (ANGSTROEM)
---------------------------------
  C      0.000000    0.694844    2.382562
  C      0.000000   -0.694844    2.382562
  C      0.000000    1.388047    1.181404
  C      0.000000   -1.388047    1.181404
  C      0.000000    0.697332   -0.025757
  C      0.000000   -0.697332   -0.025757
  Cl     0.000000    1.605090   -1.512263
  Cl     0.000000   -1.605090   -1.512263
  H      0.000000    1.242555    3.314599
  H      0.000000   -1.242555    3.314599
  H      0.000000    2.468014    1.164618
  H      0.000000   -2.468014    1.164618

 Total Charge           Charge          ....    0
 Multiplicity           Mult            ....    1
 Number of Electrons    NEL             ....   74
 Basis Dimension        Dim             ....  832

ORBITAL ENERGIES
----------------

  NO   OCC          E(Eh)            E(eV)
   0   2.0000    -104.847086     -2853.0342
   1   2.0000    -104.847086     -2853.0342
   2   2.0000     -11.319369      -308.0157
   3   2.0000     -11.318160      -307.9828
   4   2.0000     -11.261116      -306.4305
   5   2.0000     -11.261108      -306.4303
   6   2.0000     -11.257508      -306.3324
   7   2.0000     -11.256285      -306.2991
   8   2.0000     -10.572321      -287.6875
   9   2.0000     -10.572317      -287.6874
  10   2.0000      -8.039451      -218.7646
  11   2.0000      -8.039449      -218.7645
  12   2.0000      -8.037653      -218.7156
  13   2.0000      -8.037653      -218.7156
  14   2.0000      -8.037614      -218.7146
  15   2.0000      -8.037613      -218.7146
  16   2.0000      -1.219644       -33.1882
  17   2.0000      -1.138332       -30.9756
  18   2.0000      -1.128373       -30.7046
  19   2.0000      -1.026389       -27.9295
  20   2.0000      -0.997970       -27.1561
  21   2.0000      -0.855209       -23.2714
  22   2.0000      -0.827851       -22.5270
  23   2.0000      -0.712057       -19.3760
  24   2.0000      -0.673926       -18.3385
  25   2.0000      -0.651441       -17.7266
  26   2.0000      -0.607627       -16.5344
  27   2.0000      -0.597168       -16.2498
  28   2.0000      -0.575528       -15.6609
  29   2.0000      -0.532769       -14.4974
  30   2.0000      -0.529269       -14.4021
  31   2.0000      -0.491612       -13.3774
  32   2.0000      -0.474684       -12.9168
  33   2.0000      -0.474621       -12.9151
  34   2.0000      -0.449850       -12.2410
  35   2.0000      -0.356461        -9.6998
  36   2.0000      -0.344581        -9.3765
  37   0.0000       0.022265         0.6059
  38   0.0000       0.027979         0.7614
  39   0.0000       0.035593         0.9685
  40   0.0000       0.045593         1.2407
  41   0.0000       0.058994         1.6053

MULLIKEN ATOMIC CHARGES
-----------------------
   0 C :   -0.312302
   1 C :   -0.312382
   2 C :   -0.099522
   3 C :   -0.099561
   4 C :   -0.028324
   5 C :   -0.028418
   6 Cl:   -0.302446
   7 Cl:   -0.302431
   8 H :    0.279859
   9 H :    0.279860
  10 H :    0.462830
  11 H :    0.462836
Sum of atomic charges:   -0.0000000

LOEWDIN ATOMIC CHARGES
----------------------
   0 C :    0.328398
   1 C :    0.328398
   2 C :    0.180057
   3 C :    0.180057
   4 C :   -0.988866
   5 C :   -0.988866
   6 Cl:    1.163585
   7 Cl:    1.163585
   8 H :   -0.320987
   9 H :   -0.320987
  10 H :   -0.362188
  11 H :   -0.362188

  Mayer bond orders larger than 0.100000
B(  0-C ,  1-C ) :   1.2119 B(  0-C ,  2-C ) :   1.1722 B(  0-C ,  5-C ) :   0.1097
B(  0-C ,  8-H ) :   1.0516 B(  1-C ,  3-C ) :   1.1722 B(  1-C ,  4-C ) :   0.1097
B(  1-C ,  9-H ) :   1.0516 B(  2-C ,  4-C ) :   1.1632 B(  2-C ,  6-Cl) :  -0.1219
B(  2-C ,  8-H ) :  -0.1086 B(  2-C , 10-H ) :   0.8112 B(  3-C ,  5-C ) :   1.1632
B(  3-C ,  7-Cl) :  -0.1219 B(  3-C ,  9-H ) :  -0.1086 B(  3-C , 11-H ) :   0.8111
B(  4-C ,  5-C ) :   1.0252 B(  4-C ,  6-Cl) :   0.9668 B(  4-C ,  7-Cl) :  -0.1699
B(  5-C ,  6-Cl) :  -0.1699 B(  5-C ,  7-Cl) :   0.9669

MP2 TOTAL ENERGY:    -1150.094710448 Eh
FINAL SINGLE POINT ENERGY     -1150.094710448407

DIPOLE MOMENT
-------------
                                X             Y             Z
Electronic contribution:      0.00000      -0.00000     -11.42242
Nuclear contribution   :      0.00000       0.00000      12.56008
                        -----------------------------------------
Total Dipole Moment    :      0.00000      -0.00000       1.13766
                        -----------------------------------------
Magnitude (a.u.)       :      1.13766
Magnitude (Debye)      :      2.89171

Rotational constants in cm-1:     0.062989     0.047385     0.027042
Rotational constants in MHz :  1888.350229  1420.554028   810.692397

                             ****ORCA TERMINATED NORMALLY****
TOTAL RUN TIME: 0 days 0 hours 33 minutes 55 seconds 969 msec
