                         Program Version 5.0.4 -  RELEASE  -
|  1> !ri-mp2 aug-cc-pvqz aug-cc-pvqz/c tightscf
|  2> %pal nprocs 16 end
|  3> %maxcore 3800
|  4>
|  5> * xyz 0 1
|  6> C      0.107535   -2.168802    0.000000
|  7> C     -0.072713   -1.229601    1.197282
|  8> C     -0.072713   -1.229601   -1.197282
|  9> C      0.643552    0.075590    0.785834
| 10> C     -0.072713    1.375568    1.203592
| 11> C     -0.955423    1.735879    0.000000
| 12> C     -0.072713    1.375568   -1.203592
| 13> C      0.643552    0.075590   -0.785834
| 14> H     -0.591384   -3.006411    0.000000
| 15> H     -0.635977    1.262705   -2.131346
| 16> H     -0.635977    1.262705    2.131346
| 17> H      0.312527   -1.639812   -2.131505
| 18> H     -1.275571    2.778231    0.000000
| 19> H      0.312527   -1.639812    2.131505
| 20> H      1.117840   -2.587719    0.000000
| 21> H     -1.860267    1.122424    0.000000
| 22> H      1.664077    0.059193   -1.169844
| 23> H      0.658197    2.171586   -1.366919
| 24> H      1.664077    0.059193    1.169844
| 25> H     -1.139228   -1.037507    1.348434
| 26> H      0.658197    2.171586    1.366919
| 27> H     -1.139228   -1.037507   -1.348434
| 28> *
| 29>
| 30>                          ****END OF INPUT****

CARTESIAN COORDINATES (ANGSTROEM)
---------------------------------
  C      0.107535   -2.168802    0.000000
  C     -0.072713   -1.229601    1.197282
  C     -0.072713   -1.229601   -1.197282
  C      0.643552    0.075590    0.785834
  C     -0.072713    1.375568    1.203592
  C     -0.955423    1.735879    0.000000
  C     -0.072713    1.375568   -1.203592
  C      0.643552    0.075590   -0.785834
  H     -0.591384   -3.006411    0.000000
  H     -0.635977    1.262705   -2.131346
  H     -0.635977    1.262705    2.131346
  H      0.312527   -1.639812   -2.131505
  H     -1.275571    2.778231    0.000000
  H      0.312527   -1.639812    2.131505
  H      1.117840   -2.587719    0.000000
  H     -1.860267    1.122424    0.000000
  H      1.664077    0.059193   -1.169844
  H      0.658197    2.171586   -1.366919
  H      1.664077    0.059193    1.169844
  H     -1.139228   -1.037507    1.348434
  H      0.658197    2.171586    1.366919
  H     -1.139228   -1.037507   -1.348434

 Total Charge           Charge          ....    0
 Multiplicity           Mult            ....    1
 Number of Electrons    NEL             ....   62
 Basis Dimension        Dim             .... 1284

ORBITAL ENERGIES
----------------

  NO   OCC          E(Eh)            E(eV)
   0   2.0000     -11.212412      -305.1052
   1   2.0000     -11.211890      -305.0910
   2   2.0000     -11.209831      -305.0350
   3   2.0000     -11.209453      -305.0247
   4   2.0000     -11.208412      -304.9964
   5   2.0000     -11.208276      -304.9927
   6   2.0000     -11.208217      -304.9911
   7   2.0000     -11.208062      -304.9869
   8   2.0000      -1.140029       -31.0218
   9   2.0000      -1.053160       -28.6579
  10   2.0000      -0.987244       -26.8643
  11   2.0000      -0.929060       -25.2810
  12   2.0000      -0.895176       -24.3590
  13   2.0000      -0.791124       -21.5276
  14   2.0000      -0.764753       -20.8100
  15   2.0000      -0.723012       -19.6741
  16   2.0000      -0.668549       -18.1921
  17   2.0000      -0.622401       -16.9364
  18   2.0000      -0.619680       -16.8623
  19   2.0000      -0.592458       -16.1216
  20   2.0000      -0.579287       -15.7632
  21   2.0000      -0.531365       -14.4592
  22   2.0000      -0.507125       -13.7996
  23   2.0000      -0.476379       -12.9629
  24   2.0000      -0.475525       -12.9397
  25   2.0000      -0.461558       -12.5596
  26   2.0000      -0.446528       -12.1507
  27   2.0000      -0.446216       -12.1422
  28   2.0000      -0.436716       -11.8837
  29   2.0000      -0.436130       -11.8677
  30   2.0000      -0.434897       -11.8341
  31   0.0000       0.026103         0.7103
  32   0.0000       0.030781         0.8376
  33   0.0000       0.031186         0.8486
  34   0.0000       0.031228         0.8498
  35   0.0000       0.044480         1.2104

MULLIKEN ATOMIC CHARGES
-----------------------
   0 C :   -0.601967
   1 C :   -0.571861
   2 C :   -0.571871
   3 C :    0.076239
   4 C :   -0.688926
   5 C :   -0.463751
   6 C :   -0.688989
   7 C :    0.076355
   8 H :    0.298276
   9 H :    0.291007
  10 H :    0.291010
  11 H :    0.297359
  12 H :    0.313395
  13 H :    0.297380
  14 H :    0.169391
  15 H :    0.166129
  16 H :    0.293613
  17 H :    0.192609
  18 H :    0.293585
  19 H :    0.169190
  20 H :    0.192625
  21 H :    0.169201
Sum of atomic charges:    0.0000000

LOEWDIN ATOMIC CHARGES
----------------------
   0 C :    0.548300
   1 C :    0.544875
   2 C :    0.544875
   3 C :    0.166677
   4 C :    0.550733
   5 C :    0.540902
   6 C :    0.550733
   7 C :    0.166677
   8 H :   -0.253304
   9 H :   -0.257948
  10 H :   -0.257948
  11 H :   -0.248480
  12 H :   -0.252853
  13 H :   -0.248480
  14 H :   -0.258783
  15 H :   -0.264494
  16 H :   -0.252428
  17 H :   -0.260526
  18 H :   -0.252428
  19 H :   -0.272786
  20 H :   -0.260526
  21 H :   -0.272786

  Mayer bond orders larger than 0.100000
B(  0-C ,  1-C ) :   1.0070 B(  0-C ,  2-C ) :   1.0070 B(  0-C ,  3-C ) :  -0.1216
B(  0-C ,  7-C ) :  -0.1216 B(  0-C ,  8-H ) :   0.8606 B(  0-C , 14-H ) :   1.0174
B(  1-C ,  3-C ) :   0.7049 B(  1-C , 13-H ) :   0.8990 B(  1-C , 19-H ) :   1.0308
B(  2-C ,  7-C ) :   0.7049 B(  2-C , 11-H ) :   0.8990 B(  2-C , 21-H ) :   1.0308
B(  3-C ,  4-C ) :   0.7486 B(  3-C ,  7-C ) :   0.9597 B(  3-C , 18-H ) :   0.8917
B(  4-C ,  5-C ) :   0.9535 B(  4-C , 10-H ) :   0.9257 B(  4-C , 20-H ) :   1.0679
B(  5-C ,  6-C ) :   0.9535 B(  5-C , 12-H ) :   0.8736 B(  5-C , 15-H ) :   1.0041
B(  6-C ,  7-C ) :   0.7486 B(  6-C ,  9-H ) :   0.9256 B(  6-C , 17-H ) :   1.0679
B(  7-C , 16-H ) :   0.8917

MP2 TOTAL ENERGY:     -312.686997290 Eh
FINAL SINGLE POINT ENERGY      -312.686997289756

DIPOLE MOMENT
-------------
                                X             Y             Z
Electronic contribution:      0.98484       0.06758       0.00000
Nuclear contribution   :     -0.94060      -0.06461      -0.00000
                        -----------------------------------------
Total Dipole Moment    :      0.04424       0.00297       0.00000
                        -----------------------------------------
Magnitude (a.u.)       :      0.04434
Magnitude (Debye)      :      0.11270

Rotational constants in cm-1:     0.114592     0.065351     0.050172
Rotational constants in MHz :  3435.393338  1959.186889  1504.110983

                             ****ORCA TERMINATED NORMALLY****
TOTAL RUN TIME: 0 days 1 hours 45 minutes 49 seconds 182 msec
