                         Program Version 5.0.4 -  RELEASE  -
|  1> !ri-mp2 aug-cc-pvqz aug-cc-pvqz/c tightscf
|  2> %pal nprocs 16 end
|  3> %maxcore 3800
|  4>
|  5> * xyz 0 1
|  6> C      5.101251   -0.357927   -0.007494
|  7> C      3.825718    0.482347    0.025964
|  8> C      2.547647   -0.356251   -0.014566
|  9> C      1.264914    0.475125    0.016833
| 10> C     -0.011971   -0.365198   -0.021296
| 11> C     -1.294964    0.466445    0.009286
| 12> C     -2.568842   -0.377394   -0.031588
| 13> C     -3.845971    0.454973    0.002143
| 14> N     -5.033409   -0.402959   -0.068536
| 15> H      5.152333   -0.960610   -0.916686
| 16> H      5.145033   -1.041786    0.842745
| 17> H      5.993780    0.268535    0.025090
| 18> H      3.820683    1.101568    0.928131
| 19> H      3.825838    1.178470   -0.818216
| 20> H      2.553701   -0.977563   -0.916520
| 21> H      2.547940   -1.052494    0.830938
| 22> H      1.260595    1.097575    0.917951
| 23> H      1.264843    1.169787   -0.829777
| 24> H     -0.007756   -0.987992   -0.921778
| 25> H     -0.012300   -1.059295    0.825700
| 26> H     -1.298111    1.089499    0.909813
| 27> H     -1.294044    1.159823   -0.838338
| 28> H     -2.580405   -0.997246   -0.931668
| 29> H     -2.571992   -1.069529    0.818063
| 30> H     -3.867157    1.118505   -0.865912
| 31> H     -3.829717    1.101269    0.891642
| 32> H     -5.881430    0.149049   -0.095245
| 33> H     -5.094663   -0.999577    0.748129
| 34> *
| 35>
| 36>                          ****END OF INPUT****

CARTESIAN COORDINATES (ANGSTROEM)
---------------------------------
  C      5.101251   -0.357927   -0.007494
  C      3.825718    0.482347    0.025964
  C      2.547647   -0.356251   -0.014566
  C      1.264914    0.475125    0.016833
  C     -0.011971   -0.365198   -0.021296
  C     -1.294964    0.466445    0.009286
  C     -2.568842   -0.377394   -0.031588
  C     -3.845971    0.454973    0.002143
  N     -5.033409   -0.402959   -0.068536
  H      5.152333   -0.960610   -0.916686
  H      5.145033   -1.041786    0.842745
  H      5.993780    0.268535    0.025090
  H      3.820683    1.101568    0.928131
  H      3.825838    1.178470   -0.818216
  H      2.553701   -0.977563   -0.916520
  H      2.547940   -1.052494    0.830938
  H      1.260595    1.097575    0.917951
  H      1.264843    1.169787   -0.829777
  H     -0.007756   -0.987992   -0.921778
  H     -0.012300   -1.059295    0.825700
  H     -1.298111    1.089499    0.909813
  H     -1.294044    1.159823   -0.838338
  H     -2.580405   -0.997246   -0.931668
  H     -2.571992   -1.069529    0.818063
  H     -3.867157    1.118505   -0.865912
  H     -3.829717    1.101269    0.891642
  H     -5.881430    0.149049   -0.095245
  H     -5.094663   -0.999577    0.748129

 Total Charge           Charge          ....    0
 Multiplicity           Mult            ....    1
 Number of Electrons    NEL             ....   74
 Basis Dimension        Dim             .... 1594

ORBITAL ENERGIES
----------------

  NO   OCC          E(Eh)            E(eV)
   0   2.0000     -15.534089      -422.7040
   1   2.0000     -11.242277      -305.9179
   2   2.0000     -11.213320      -305.1300
   3   2.0000     -11.212971      -305.1204
   4   2.0000     -11.211821      -305.0892
   5   2.0000     -11.211305      -305.0751
   6   2.0000     -11.210766      -305.0605
   7   2.0000     -11.210579      -305.0554
   8   2.0000     -11.207464      -304.9706
   9   2.0000      -1.173097       -31.9216
  10   2.0000      -1.088169       -29.6106
  11   2.0000      -1.054014       -28.6812
  12   2.0000      -1.001496       -27.2521
  13   2.0000      -0.935956       -25.4687
  14   2.0000      -0.865338       -23.5471
  15   2.0000      -0.807775       -21.9807
  16   2.0000      -0.786707       -21.4074
  17   2.0000      -0.783619       -21.3234
  18   2.0000      -0.664047       -18.0696
  19   2.0000      -0.650159       -17.6917
  20   2.0000      -0.631433       -17.1822
  21   2.0000      -0.609841       -16.5946
  22   2.0000      -0.590121       -16.0580
  23   2.0000      -0.577721       -15.7206
  24   2.0000      -0.565748       -15.3948
  25   2.0000      -0.550540       -14.9810
  26   2.0000      -0.531701       -14.4683
  27   2.0000      -0.507784       -13.8175
  28   2.0000      -0.503791       -13.7088
  29   2.0000      -0.490311       -13.3421
  30   2.0000      -0.475612       -12.9421
  31   2.0000      -0.469662       -12.7802
  32   2.0000      -0.460587       -12.5332
  33   2.0000      -0.457576       -12.4513
  34   2.0000      -0.456293       -12.4164
  35   2.0000      -0.432454       -11.7677
  36   2.0000      -0.386128       -10.5071
  37   0.0000       0.025092         0.6828
  38   0.0000       0.026772         0.7285
  39   0.0000       0.031658         0.8615
  40   0.0000       0.033520         0.9121
  41   0.0000       0.037194         1.0121

MULLIKEN ATOMIC CHARGES
-----------------------
   0 C :   -0.914699
   1 C :   -0.533996
   2 C :   -0.298305
   3 C :   -0.363496
   4 C :   -0.475889
   5 C :   -0.362163
   6 C :   -0.507592
   7 C :   -0.221859
   8 N :   -0.818231
   9 H :    0.225258
  10 H :    0.224814
  11 H :    0.266872
  12 H :    0.222321
  13 H :    0.223274
  14 H :    0.234192
  15 H :    0.232091
  16 H :    0.249974
  17 H :    0.250202
  18 H :    0.240570
  19 H :    0.236408
  20 H :    0.233468
  21 H :    0.227511
  22 H :    0.266742
  23 H :    0.242545
  24 H :    0.260688
  25 H :    0.203732
  26 H :    0.186693
  27 H :    0.268875
Sum of atomic charges:   -0.0000000

LOEWDIN ATOMIC CHARGES
----------------------
   0 C :    0.925797
   1 C :    0.508465
   2 C :    0.512910
   3 C :    0.525502
   4 C :    0.527533
   5 C :    0.521262
   6 C :    0.505254
   7 C :    0.352576
   8 N :    1.283510
   9 H :   -0.285715
  10 H :   -0.285832
  11 H :   -0.285082
  12 H :   -0.273586
  13 H :   -0.273577
  14 H :   -0.267955
  15 H :   -0.268208
  16 H :   -0.265498
  17 H :   -0.265393
  18 H :   -0.264497
  19 H :   -0.265091
  20 H :   -0.266667
  21 H :   -0.265376
  22 H :   -0.270516
  23 H :   -0.270243
  24 H :   -0.290599
  25 H :   -0.271456
  26 H :   -0.511640
  27 H :   -0.515878

  Mayer bond orders larger than 0.100000
B(  0-C ,  1-C ) :   1.0563 B(  0-C ,  2-C ) :  -0.1426 B(  0-C ,  9-H ) :   0.9572
B(  0-C , 10-H ) :   0.9578 B(  0-C , 11-H ) :   1.0277 B(  1-C ,  2-C ) :   1.0146
B(  1-C ,  3-C ) :  -0.1217 B(  1-C , 11-H ) :  -0.1003 B(  1-C , 12-H ) :   0.8847
B(  1-C , 13-H ) :   0.8824 B(  2-C ,  3-C ) :   1.1154 B(  2-C ,  4-C ) :  -0.1455
B(  2-C , 14-H ) :   0.8544 B(  2-C , 15-H ) :   0.8559 B(  3-C ,  4-C ) :   1.2006
B(  3-C ,  5-C ) :  -0.1372 B(  3-C , 16-H ) :   0.8337 B(  3-C , 17-H ) :   0.8352
B(  4-C ,  5-C ) :   1.2268 B(  4-C ,  6-C ) :  -0.1119 B(  4-C , 18-H ) :   0.8369
B(  4-C , 19-H ) :   0.8440 B(  5-C ,  6-C ) :   1.0651 B(  5-C ,  7-C ) :  -0.1325
B(  5-C , 20-H ) :   0.8494 B(  5-C , 21-H ) :   0.8475 B(  6-C ,  7-C ) :   1.2157
B(  6-C , 22-H ) :   0.8184 B(  6-C , 23-H ) :   0.8288 B(  7-C ,  8-N ) :   0.9438
B(  7-C , 24-H ) :   0.8699 B(  7-C , 25-H ) :   0.9254 B(  8-N , 26-H ) :   1.0026
B(  8-N , 27-H ) :   0.8835

MP2 TOTAL ENERGY:     -370.352005059 Eh
FINAL SINGLE POINT ENERGY      -370.352005059220

DIPOLE MOMENT
-------------
                                X             Y             Z
Electronic contribution:     -5.50564      -0.00961      -0.23882
Nuclear contribution   :      5.48140       0.30713       0.64911
                        -----------------------------------------
Total Dipole Moment    :     -0.02424       0.29752       0.41028
                        -----------------------------------------
Magnitude (a.u.)       :      0.50738
Magnitude (Debye)      :      1.28966

Rotational constants in cm-1:     0.324050     0.011441     0.011243
Rotational constants in MHz :  9714.782128   342.994238   337.059753

                             ****ORCA TERMINATED NORMALLY****
TOTAL RUN TIME: 0 days 1 hours 54 minutes 20 seconds 132 msec
