                         Program Version 5.0.4 -  RELEASE  -
|  1> !ri-mp2 aug-cc-pvqz aug-cc-pvqz/c tightscf
|  2> %pal nprocs 16 end
|  3>
|  4> * xyz 0 1
|  5> N     -1.545214    0.875722    0.000075
|  6> H     -2.543731    0.764446    0.000029
|  7> H     -1.130576    1.791761    0.000310
|  8> O      1.533181   -0.905280    0.000099
|  9> H      2.449443   -0.589400    0.000108
| 10> O     -1.138031   -1.371045   -0.000085
| 11> O      1.125097    1.307223   -0.000114
| 12> C      0.739014    0.164691   -0.000013
| 13> C     -0.759117   -0.222031   -0.000015
| 14> *
| 15>
| 16>                          ****END OF INPUT****

CARTESIAN COORDINATES (ANGSTROEM)
---------------------------------
  N     -1.545214    0.875722    0.000075
  H     -2.543731    0.764446    0.000029
  H     -1.130576    1.791761    0.000310
  O      1.533181   -0.905280    0.000099
  H      2.449443   -0.589400    0.000108
  O     -1.138031   -1.371045   -0.000085
  O      1.125097    1.307223   -0.000114
  C      0.739014    0.164691   -0.000013
  C     -0.759117   -0.222031   -0.000015

 Total Charge           Charge          ....    0
 Multiplicity           Mult            ....    1
 Number of Electrons    NEL             ....   46
 Basis Dimension        Dim             ....  618

ORBITAL ENERGIES
----------------

  NO   OCC          E(Eh)            E(eV)
   0   2.0000     -20.635632      -561.5241
   1   2.0000     -20.582882      -560.0887
   2   2.0000     -20.550088      -559.1963
   3   2.0000     -15.604513      -424.6204
   4   2.0000     -11.417749      -310.6927
   5   2.0000     -11.384732      -309.7943
   6   2.0000      -1.497697       -40.7544
   7   2.0000      -1.409476       -38.3538
   8   2.0000      -1.395679       -37.9784
   9   2.0000      -1.238143       -33.6916
  10   2.0000      -0.955248       -25.9936
  11   2.0000      -0.828160       -22.5354
  12   2.0000      -0.772213       -21.0130
  13   2.0000      -0.731936       -19.9170
  14   2.0000      -0.694960       -18.9108
  15   2.0000      -0.667319       -18.1587
  16   2.0000      -0.661983       -18.0135
  17   2.0000      -0.608943       -16.5702
  18   2.0000      -0.586250       -15.9527
  19   2.0000      -0.531206       -14.4548
  20   2.0000      -0.510993       -13.9048
  21   2.0000      -0.443894       -12.0790
  22   2.0000      -0.435166       -11.8415
  23   0.0000       0.021802         0.5933
  24   0.0000       0.027687         0.7534
  25   0.0000       0.044990         1.2242
  26   0.0000       0.068004         1.8505
  27   0.0000       0.069040         1.8787

MULLIKEN ATOMIC CHARGES
-----------------------
   0 N :   -0.595804
   1 H :    0.217684
   2 H :    0.377675
   3 O :   -0.572834
   4 H :    0.322683
   5 O :   -0.708823
   6 O :   -0.704860
   7 C :    1.065596
   8 C :    0.598682
Sum of atomic charges:    0.0000000

LOEWDIN ATOMIC CHARGES
----------------------
   0 N :    1.205810
   1 H :   -0.486696
   2 H :   -0.560450
   3 O :    1.234312
   4 H :   -0.803207
   5 O :    0.663948
   6 O :    0.706230
   7 C :   -1.062563
   8 C :   -0.897384

  Mayer bond orders larger than 0.100000
B(  0-N ,  1-H ) :   0.9973 B(  0-N ,  2-H ) :   0.8684 B(  0-N ,  5-O ) :   0.1402
B(  0-N ,  8-C ) :   1.1480 B(  3-O ,  4-H ) :   0.9232 B(  3-O ,  7-C ) :   0.9260
B(  5-O ,  7-C ) :   0.1735 B(  5-O ,  8-C ) :   1.3906 B(  6-O ,  7-C ) :   1.4547
B(  6-O ,  8-C ) :   0.1720 B(  7-C ,  8-C ) :   1.1811

MP2 TOTAL ENERGY:     -358.030626409 Eh
FINAL SINGLE POINT ENERGY      -358.030626408811

DIPOLE MOMENT
-------------
                                X             Y             Z
Electronic contribution:      1.25398      -0.97461      -0.00017
Nuclear contribution   :     -1.17384       1.89825       0.00043
                        -----------------------------------------
Total Dipole Moment    :      0.08014       0.92364       0.00026
                        -----------------------------------------
Magnitude (a.u.)       :      0.92711
Magnitude (Debye)      :      2.35653

Rotational constants in cm-1:     0.196531     0.120506     0.074702
Rotational constants in MHz :  5891.844854  3612.676977  2239.495343

                             ****ORCA TERMINATED NORMALLY****
TOTAL RUN TIME: 0 days 0 hours 7 minutes 48 seconds 676 msec
