                         Program Version 5.0.4 -  RELEASE  -
|  1> !ri-mp2 aug-cc-pvqz aug-cc-pvqz/c tightscf
|  2> %pal nprocs 16 end
|  3>
|  4> * xyz 0 1
|  5> C      0.000000    1.130554    0.695666
|  6> N      0.000000    0.000000    1.399240
|  7> C      0.000000    1.130554   -0.695666
|  8> C      0.000000   -1.130554    0.695666
|  9> N      0.000000    0.000000   -1.399240
| 10> C      0.000000   -1.130554   -0.695666
| 11> H      0.000000   -2.060631   -1.251616
| 12> H      0.000000    2.060631   -1.251616
| 13> H      0.000000   -2.060631    1.251616
| 14> H      0.000000    2.060631    1.251616
| 15> *
| 16>
| 17>                          ****END OF INPUT****

CARTESIAN COORDINATES (ANGSTROEM)
---------------------------------
  C      0.000000    1.130554    0.695666
  N      0.000000    0.000000    1.399240
  C      0.000000    1.130554   -0.695666
  C      0.000000   -1.130554    0.695666
  N      0.000000    0.000000   -1.399240
  C      0.000000   -1.130554   -0.695666
  H      0.000000   -2.060631   -1.251616
  H      0.000000    2.060631   -1.251616
  H      0.000000   -2.060631    1.251616
  H      0.000000    2.060631    1.251616

 Total Charge           Charge          ....    0
 Multiplicity           Mult            ....    1
 Number of Electrons    NEL             ....   42
 Basis Dimension        Dim             ....  664

ORBITAL ENERGIES
----------------

  NO   OCC          E(Eh)            E(eV)
   0   2.0000     -15.591884      -424.2767
   1   2.0000     -15.591870      -424.2764
   2   2.0000     -11.284223      -307.0593
   3   2.0000     -11.284181      -307.0582
   4   2.0000     -11.282964      -307.0250
   5   2.0000     -11.282954      -307.0248
   6   2.0000      -1.311288       -35.6820
   7   2.0000      -1.221928       -33.2503
   8   2.0000      -1.056060       -28.7369
   9   2.0000      -0.903036       -24.5729
  10   2.0000      -0.891434       -24.2572
  11   2.0000      -0.729637       -19.8544
  12   2.0000      -0.707596       -19.2547
  13   2.0000      -0.678772       -18.4703
  14   2.0000      -0.612738       -16.6734
  15   2.0000      -0.578257       -15.7352
  16   2.0000      -0.554189       -15.0803
  17   2.0000      -0.500112       -13.6087
  18   2.0000      -0.438781       -11.9398
  19   2.0000      -0.412071       -11.2130
  20   2.0000      -0.360827        -9.8186
  21   0.0000       0.025445         0.6924
  22   0.0000       0.030574         0.8320
  23   0.0000       0.034749         0.9456
  24   0.0000       0.042553         1.1579
  25   0.0000       0.056235         1.5302

MULLIKEN ATOMIC CHARGES
-----------------------
   0 C :   -0.203278
   1 N :   -0.585085
   2 C :   -0.203278
   3 C :   -0.203278
   4 N :   -0.585085
   5 C :   -0.203278
   6 H :    0.495820
   7 H :    0.495820
   8 H :    0.495820
   9 H :    0.495820
Sum of atomic charges:   -0.0000000

LOEWDIN ATOMIC CHARGES
----------------------
   0 C :    0.063426
   1 N :    0.583805
   2 C :    0.063426
   3 C :    0.063426
   4 N :    0.583805
   5 C :    0.063426
   6 H :   -0.355328
   7 H :   -0.355328
   8 H :   -0.355328
   9 H :   -0.355328

  Mayer bond orders larger than 0.100000
B(  0-C ,  1-N ) :   1.1678 B(  0-C ,  2-C ) :   1.2672 B(  0-C ,  9-H ) :   0.8324
B(  1-N ,  3-C ) :   1.1678 B(  1-N ,  8-H ) :  -0.1056 B(  1-N ,  9-H ) :  -0.1056
B(  2-C ,  4-N ) :   1.1678 B(  2-C ,  7-H ) :   0.8324 B(  3-C ,  5-C ) :   1.2672
B(  3-C ,  8-H ) :   0.8324 B(  4-N ,  5-C ) :   1.1678 B(  4-N ,  6-H ) :  -0.1056
B(  4-N ,  7-H ) :  -0.1056 B(  5-C ,  6-H ) :   0.8324

MP2 TOTAL ENERGY:     -263.879225659 Eh
FINAL SINGLE POINT ENERGY      -263.879225658503

DIPOLE MOMENT
-------------
                                X             Y             Z
Electronic contribution:      0.00000      -0.00000      -0.00000
Nuclear contribution   :      0.00000       0.00000       0.00000
                        -----------------------------------------
Total Dipole Moment    :      0.00000      -0.00000      -0.00000
                        -----------------------------------------
Magnitude (a.u.)       :      0.00000
Magnitude (Debye)      :      0.00000

Rotational constants in cm-1:     0.214670     0.199699     0.103457
Rotational constants in MHz :  6435.640765  5986.837929  3101.566054

                             ****ORCA TERMINATED NORMALLY****
TOTAL RUN TIME: 0 days 0 hours 10 minutes 36 seconds 71 msec
