                         Program Version 5.0.4 -  RELEASE  -
|  1> !ri-mp2 aug-cc-pvqz aug-cc-pvqz/c tightscf
|  2> %pal nprocs 16 end
|  3>
|  4> * xyz 0 1
|  5> C     -0.854017   -2.053209    0.000000
|  6> C      0.913211    2.739799    0.000000
|  7> C      0.331799   -1.126885    0.000000
|  8> C      1.244470    1.248574    0.000000
|  9> C      0.000000    0.360098    0.000000
| 10> O     -2.008076   -1.706587    0.000000
| 11> H     -0.596414   -3.133487    0.000000
| 12> H      1.818200    3.348531    0.000000
| 13> H      0.328751    3.013404    0.880532
| 14> H      0.328751    3.013404   -0.880532
| 15> H      0.945985   -1.401209    0.867354
| 16> H      0.945985   -1.401209   -0.867354
| 17> H      1.858867    1.012250    0.874251
| 18> H      1.858867    1.012250   -0.874251
| 19> H     -0.618581    0.589247   -0.870767
| 20> H     -0.618581    0.589247    0.870767
| 21> *
| 22>
| 23>                          ****END OF INPUT****

CARTESIAN COORDINATES (ANGSTROEM)
---------------------------------
  C     -0.854017   -2.053209    0.000000
  C      0.913211    2.739799    0.000000
  C      0.331799   -1.126885    0.000000
  C      1.244470    1.248574    0.000000
  C      0.000000    0.360098    0.000000
  O     -2.008076   -1.706587    0.000000
  H     -0.596414   -3.133487    0.000000
  H      1.818200    3.348531    0.000000
  H      0.328751    3.013404    0.880532
  H      0.328751    3.013404   -0.880532
  H      0.945985   -1.401209    0.867354
  H      0.945985   -1.401209   -0.867354
  H      1.858867    1.012250    0.874251
  H      1.858867    1.012250   -0.874251
  H     -0.618581    0.589247   -0.870767
  H     -0.618581    0.589247    0.870767

 Total Charge           Charge          ....    0
 Multiplicity           Mult            ....    1
 Number of Electrons    NEL             ....   48
 Basis Dimension        Dim             ....  940

ORBITAL ENERGIES
----------------

  NO   OCC          E(Eh)            E(eV)
   0   2.0000     -20.554264      -559.3100
   1   2.0000     -11.330126      -308.3084
   2   2.0000     -11.241526      -305.8975
   3   2.0000     -11.224300      -305.4287
   4   2.0000     -11.223626      -305.4104
   5   2.0000     -11.213845      -305.1442
   6   2.0000      -1.393920       -37.9305
   7   2.0000      -1.089787       -29.6546
   8   2.0000      -1.016708       -27.6660
   9   2.0000      -0.910061       -24.7640
  10   2.0000      -0.813666       -22.1410
  11   2.0000      -0.770458       -20.9652
  12   2.0000      -0.673260       -18.3203
  13   2.0000      -0.656195       -17.8560
  14   2.0000      -0.629399       -17.1268
  15   2.0000      -0.597123       -16.2486
  16   2.0000      -0.586277       -15.9534
  17   2.0000      -0.535219       -14.5640
  18   2.0000      -0.527380       -14.3507
  19   2.0000      -0.494380       -13.4528
  20   2.0000      -0.489039       -13.3074
  21   2.0000      -0.478870       -13.0307
  22   2.0000      -0.472159       -12.8481
  23   2.0000      -0.417875       -11.3709
  24   0.0000       0.022943         0.6243
  25   0.0000       0.027475         0.7476
  26   0.0000       0.033424         0.9095
  27   0.0000       0.036857         1.0029
  28   0.0000       0.045104         1.2273

MULLIKEN ATOMIC CHARGES
-----------------------
   0 C :    0.207156
   1 C :   -0.888956
   2 C :   -0.502393
   3 C :   -0.416878
   4 C :   -0.077023
   5 O :   -0.755603
   6 H :    0.337872
   7 H :    0.257254
   8 H :    0.229054
   9 H :    0.229054
  10 H :    0.221115
  11 H :    0.221114
  12 H :    0.238839
  13 H :    0.238839
  14 H :    0.230278
  15 H :    0.230279
Sum of atomic charges:   -0.0000000

LOEWDIN ATOMIC CHARGES
----------------------
   0 C :   -0.230773
   1 C :    0.928916
   2 C :    0.470758
   3 C :    0.504769
   4 C :    0.476312
   5 O :    0.717404
   6 H :   -0.342122
   7 H :   -0.283869
   8 H :   -0.283922
   9 H :   -0.283922
  10 H :   -0.287060
  11 H :   -0.287060
  12 H :   -0.274137
  13 H :   -0.274137
  14 H :   -0.275579
  15 H :   -0.275579

  Mayer bond orders larger than 0.100000
B(  0-C ,  2-C ) :   0.9880 B(  0-C ,  4-C ) :  -0.2456 B(  0-C ,  5-O ) :   1.4651
B(  0-C ,  6-H ) :   0.9608 B(  1-C ,  3-C ) :   1.0040 B(  1-C ,  7-H ) :   1.0146
B(  1-C ,  8-H ) :   0.9517 B(  1-C ,  9-H ) :   0.9517 B(  2-C ,  4-C ) :   0.8304
B(  2-C ,  5-O ) :   0.2086 B(  2-C ,  6-H ) :  -0.1334 B(  2-C , 10-H ) :   0.9109
B(  2-C , 11-H ) :   0.9109 B(  3-C ,  4-C ) :   0.9265 B(  3-C , 12-H ) :   0.8709
B(  3-C , 13-H ) :   0.8709 B(  4-C , 14-H ) :   0.8772 B(  4-C , 15-H ) :   0.8772

MP2 TOTAL ENERGY:     -271.306694738 Eh
FINAL SINGLE POINT ENERGY      -271.306694738088

DIPOLE MOMENT
-------------
                                X             Y             Z
Electronic contribution:     -5.28775      -6.99615       0.00000
Nuclear contribution   :      6.51001       6.92378       0.00000
                        -----------------------------------------
Total Dipole Moment    :      1.22226      -0.07237       0.00000
                        -----------------------------------------
Magnitude (a.u.)       :      1.22440
Magnitude (Debye)      :      3.11218

Rotational constants in cm-1:     0.352280     0.048258     0.043800
Rotational constants in MHz : 10561.091558  1446.752332  1313.101794

                             ****ORCA TERMINATED NORMALLY****
TOTAL RUN TIME: 0 days 0 hours 37 minutes 33 seconds 590 msec
