                         Program Version 5.0.4 -  RELEASE  -
|  1> !ri-mp2 aug-cc-pvqz aug-cc-pvqz/c tightscf
|  2> %pal nprocs 16 end
|  3>
|  4> * xyz 0 1
|  5> C     0.000000     2.553552    0.323437
|  6> C     0.000000    -2.553552    0.323437
|  7> C     0.000000     1.280666   -0.521619
|  8> C     0.000000    -1.280666   -0.521619
|  9> C     0.000000     0.000000    0.313781
| 10> H     0.880619     2.598968    0.967590
| 11> H    -0.880619     2.598968    0.967590
| 12> H     0.000000     3.448219   -0.300839
| 13> H     0.880619    -2.598968    0.967590
| 14> H     0.000000    -3.448219   -0.300839
| 15> H    -0.880619    -2.598968    0.967590
| 16> H    -0.873927     1.280219   -1.180074
| 17> H     0.873927     1.280219   -1.180074
| 18> H    -0.873927    -1.280219   -1.180074
| 19> H     0.873927    -1.280219   -1.180074
| 20> H    -0.874435     0.000000    0.973556
| 21> H     0.874435     0.000000    0.973556
| 22> *
| 23>
| 24>                          ****END OF INPUT****

CARTESIAN COORDINATES (ANGSTROEM)
---------------------------------
  C      0.000000    2.553552    0.323437
  C      0.000000   -2.553552    0.323437
  C      0.000000    1.280666   -0.521619
  C      0.000000   -1.280666   -0.521619
  C      0.000000    0.000000    0.313781
  H      0.880619    2.598968    0.967590
  H     -0.880619    2.598968    0.967590
  H      0.000000    3.448219   -0.300839
  H      0.880619   -2.598968    0.967590
  H      0.000000   -3.448219   -0.300839
  H     -0.880619   -2.598968    0.967590
  H     -0.873927    1.280219   -1.180074
  H      0.873927    1.280219   -1.180074
  H     -0.873927   -1.280219   -1.180074
  H      0.873927   -1.280219   -1.180074
  H     -0.874435    0.000000    0.973556
  H      0.874435    0.000000    0.973556

 Total Charge           Charge          ....    0
 Multiplicity           Mult            ....    1
 Number of Electrons    NEL             ....   42
 Basis Dimension        Dim             ....  952

ORBITAL ENERGIES
----------------

  NO   OCC          E(Eh)            E(eV)
   0   2.0000     -11.213399      -305.1321
   1   2.0000     -11.213330      -305.1302
   2   2.0000     -11.210984      -305.0664
   3   2.0000     -11.207565      -304.9733
   4   2.0000     -11.207564      -304.9733
   5   2.0000      -1.077693       -29.3255
   6   2.0000      -1.013386       -27.5756
   7   2.0000      -0.918585       -24.9960
   8   2.0000      -0.820147       -22.3173
   9   2.0000      -0.784240       -21.3402
  10   2.0000      -0.644768       -17.5450
  11   2.0000      -0.596613       -16.2347
  12   2.0000      -0.591679       -16.1004
  13   2.0000      -0.553316       -15.0565
  14   2.0000      -0.546913       -14.8823
  15   2.0000      -0.525794       -14.3076
  16   2.0000      -0.494416       -13.4537
  17   2.0000      -0.476016       -12.9531
  18   2.0000      -0.460536       -12.5318
  19   2.0000      -0.458454       -12.4752
  20   2.0000      -0.447975       -12.1900
  21   0.0000       0.027607         0.7512
  22   0.0000       0.029963         0.8153
  23   0.0000       0.034211         0.9309
  24   0.0000       0.035299         0.9605
  25   0.0000       0.048016         1.3066

MULLIKEN ATOMIC CHARGES
-----------------------
   0 C :   -0.897628
   1 C :   -0.897628
   2 C :   -0.414508
   3 C :   -0.414508
   4 C :   -0.208624
   5 H :    0.224435
   6 H :    0.224436
   7 H :    0.258456
   8 H :    0.224435
   9 H :    0.258456
  10 H :    0.224436
  11 H :    0.234243
  12 H :    0.234247
  13 H :    0.234243
  14 H :    0.234247
  15 H :    0.240631
  16 H :    0.240631
Sum of atomic charges:   -0.0000000

LOEWDIN ATOMIC CHARGES
----------------------
   0 C :    0.924999
   1 C :    0.924999
   2 C :    0.504612
   3 C :    0.504612
   4 C :    0.496045
   5 H :   -0.285924
   6 H :   -0.285924
   7 H :   -0.285153
   8 H :   -0.285924
   9 H :   -0.285153
  10 H :   -0.285924
  11 H :   -0.274424
  12 H :   -0.274424
  13 H :   -0.274424
  14 H :   -0.274424
  15 H :   -0.271785
  16 H :   -0.271785

  Mayer bond orders larger than 0.100000
B(  0-C ,  2-C ) :   0.9922 B(  0-C ,  5-H ) :   0.9570 B(  0-C ,  6-H ) :   0.9570
B(  0-C ,  7-H ) :   1.0270 B(  1-C ,  3-C ) :   0.9922 B(  1-C ,  8-H ) :   0.9570
B(  1-C ,  9-H ) :   1.0270 B(  1-C , 10-H ) :   0.9570 B(  2-C ,  4-C ) :   0.8923
B(  2-C ,  7-H ) :  -0.1006 B(  2-C , 11-H ) :   0.8811 B(  2-C , 12-H ) :   0.8811
B(  3-C ,  4-C ) :   0.8923 B(  3-C ,  9-H ) :  -0.1006 B(  3-C , 13-H ) :   0.8811
B(  3-C , 14-H ) :   0.8811 B(  4-C , 15-H ) :   0.8827 B(  4-C , 16-H ) :   0.8827

MP2 TOTAL ENERGY:     -197.368270298 Eh
FINAL SINGLE POINT ENERGY      -197.368270297535

DIPOLE MOMENT
-------------
                                X             Y             Z
Electronic contribution:      0.00000      -0.00000      -0.57479
Nuclear contribution   :      0.00000       0.00000       0.54170
                        -----------------------------------------
Total Dipole Moment    :      0.00000      -0.00000      -0.03308
                        -----------------------------------------
Magnitude (a.u.)       :      0.03308
Magnitude (Debye)      :      0.08409

Rotational constants in cm-1:     0.572242     0.064441     0.061176
Rotational constants in MHz : 17155.372822  1931.889839  1833.995355

                             ****ORCA TERMINATED NORMALLY****
TOTAL RUN TIME: 0 days 0 hours 30 minutes 19 seconds 714 msec
