                         Program Version 5.0.4 -  RELEASE  -
|  1> !ri-mp2 aug-cc-pvqz aug-cc-pvqz/c tightscf
|  2> %pal nprocs 16 end
|  3>
|  4> * xyz 0 1
|  5> C     -2.632692    0.270492    0.000000
|  6> C     -1.445615    0.445322    0.000000
|  7> C      2.298303   -0.462071    0.000000
|  8> C      0.000000    0.632435    0.000000
|  9> C      0.789039   -0.688491    0.000000
| 10> H     -3.683318    0.121999    0.000000
| 11> H      2.615695    0.098825    0.881392
| 12> H      2.836529   -1.410299    0.000000
| 13> H      2.615695    0.098825   -0.881392
| 14> H      0.283301    1.225765   -0.874581
| 15> H      0.283301    1.225765    0.874581
| 16> H      0.497294   -1.273503   -0.874226
| 17> H      0.497294   -1.273503    0.874226
| 18> *
| 19>
| 20>                          ****END OF INPUT****

CARTESIAN COORDINATES (ANGSTROEM)
---------------------------------
  C     -2.632692    0.270492    0.000000
  C     -1.445615    0.445322    0.000000
  C      2.298303   -0.462071    0.000000
  C      0.000000    0.632435    0.000000
  C      0.789039   -0.688491    0.000000
  H     -3.683318    0.121999    0.000000
  H      2.615695    0.098825    0.881392
  H      2.836529   -1.410299    0.000000
  H      2.615695    0.098825   -0.881392
  H      0.283301    1.225765   -0.874581
  H      0.283301    1.225765    0.874581
  H      0.497294   -1.273503   -0.874226
  H      0.497294   -1.273503    0.874226

 Total Charge           Charge          ....    0
 Multiplicity           Mult            ....    1
 Number of Electrons    NEL             ....   38
 Basis Dimension        Dim             ....  768

ORBITAL ENERGIES
----------------

  NO   OCC          E(Eh)            E(eV)
   0   2.0000     -11.248634      -306.0909
   1   2.0000     -11.229303      -305.5649
   2   2.0000     -11.229059      -305.5582
   3   2.0000     -11.218058      -305.2589
   4   2.0000     -11.214983      -305.1752
   5   2.0000      -1.091226       -29.6938
   6   2.0000      -1.018879       -27.7251
   7   2.0000      -0.941590       -25.6220
   8   2.0000      -0.823862       -22.4184
   9   2.0000      -0.717058       -19.5121
  10   2.0000      -0.645632       -17.5685
  11   2.0000      -0.640223       -17.4213
  12   2.0000      -0.578837       -15.7510
  13   2.0000      -0.559250       -15.2180
  14   2.0000      -0.514309       -13.9951
  15   2.0000      -0.496239       -13.5033
  16   2.0000      -0.485480       -13.2106
  17   2.0000      -0.382683       -10.4133
  18   2.0000      -0.382024       -10.3954
  19   0.0000       0.026239         0.7140
  20   0.0000       0.029801         0.8109
  21   0.0000       0.035261         0.9595
  22   0.0000       0.037087         1.0092
  23   0.0000       0.045242         1.2311

MULLIKEN ATOMIC CHARGES
-----------------------
   0 C :   -1.024451
   1 C :    0.113865
   2 C :   -0.809436
   3 C :   -0.098282
   4 C :   -0.350363
   5 H :    0.399077
   6 H :    0.229449
   7 H :    0.272950
   8 H :    0.229449
   9 H :    0.275711
  10 H :    0.275711
  11 H :    0.243161
  12 H :    0.243161
Sum of atomic charges:    0.0000000

LOEWDIN ATOMIC CHARGES
----------------------
   0 C :    0.571291
   1 C :    0.096647
   2 C :    0.924382
   3 C :    0.407265
   4 C :    0.485552
   5 H :   -0.471286
   6 H :   -0.284555
   7 H :   -0.283538
   8 H :   -0.284555
   9 H :   -0.303270
  10 H :   -0.303270
  11 H :   -0.277331
  12 H :   -0.277331

  Mayer bond orders larger than 0.100000
B(  0-C ,  1-C ) :   2.6121 B(  0-C ,  3-C ) :  -0.3211 B(  0-C ,  5-H ) :   1.0371
B(  1-C ,  3-C ) :   0.7370 B(  1-C ,  4-C ) :  -0.1544 B(  1-C ,  5-H ) :  -0.1299
B(  2-C ,  4-C ) :   0.9895 B(  2-C ,  6-H ) :   0.9450 B(  2-C ,  7-H ) :   0.9775
B(  2-C ,  8-H ) :   0.9450 B(  3-C ,  4-C ) :   0.9674 B(  3-C ,  9-H ) :   0.8795
B(  3-C , 10-H ) :   0.8795 B(  4-C , 11-H ) :   0.8763 B(  4-C , 12-H ) :   0.8763

MP2 TOTAL ENERGY:     -194.903022161 Eh
FINAL SINGLE POINT ENERGY      -194.903022160598

DIPOLE MOMENT
-------------
                                X             Y             Z
Electronic contribution:     -5.88460       1.20375       0.00000
Nuclear contribution   :      6.22927      -1.24268       0.00000
                        -----------------------------------------
Total Dipole Moment    :      0.34467      -0.03893       0.00000
                        -----------------------------------------
Magnitude (a.u.)       :      0.34686
Magnitude (Debye)      :      0.88165

Rotational constants in cm-1:     0.794272     0.074030     0.070346
Rotational constants in MHz : 23811.671020  2219.371699  2108.919706

                             ****ORCA TERMINATED NORMALLY****
TOTAL RUN TIME: 0 days 0 hours 24 minutes 12 seconds 719 msec
