                         Program Version 5.0.4 -  RELEASE  -
|  1> !ri-mp2 aug-cc-pvqz aug-cc-pvqz/c tightscf
|  2> %pal nprocs 16 end
|  3> %maxcore 3800
|  4>
|  5> * xyz 0 1
|  6> C           0.000000     1.141350    0.720815
|  7> C           0.000000     1.141350   -0.720815
|  8> N           0.000000     0.000000    1.415067
|  9> C           0.000000     2.387462    1.410508
| 10> N           0.000000     0.000000   -1.415067
| 11> C           0.000000     2.387462   -1.410508
| 12> C           0.000000    -1.141350    0.720815
| 13> C           0.000000     3.557969    0.711879
| 14> C           0.000000    -1.141350   -0.720815
| 15> C           0.000000     3.557969   -0.711879
| 16> C           0.000000    -2.387462    1.410508
| 17> C           0.000000    -2.387462   -1.410508
| 18> C           0.000000    -3.557969    0.711879
| 19> C           0.000000    -3.557969   -0.711879
| 20> H           0.000000     2.364656    2.491337
| 21> H           0.000000     2.364656   -2.491337
| 22> H           0.000000     4.502732    1.238686
| 23> H           0.000000     4.502732   -1.238686
| 24> H           0.000000    -2.364656    2.491337
| 25> H           0.000000    -2.364656   -2.491337
| 26> H           0.000000    -4.502732    1.238686
| 27> H           0.000000    -4.502732   -1.238686
| 28> *
| 29>
| 30>                          ****END OF INPUT****

CARTESIAN COORDINATES (ANGSTROEM)
---------------------------------
  C      0.000000    1.141350    0.720815
  C      0.000000    1.141350   -0.720815
  N      0.000000    0.000000    1.415067
  C      0.000000    2.387462    1.410508
  N      0.000000    0.000000   -1.415067
  C      0.000000    2.387462   -1.410508
  C      0.000000   -1.141350    0.720815
  C      0.000000    3.557969    0.711879
  C      0.000000   -1.141350   -0.720815
  C      0.000000    3.557969   -0.711879
  C      0.000000   -2.387462    1.410508
  C      0.000000   -2.387462   -1.410508
  C      0.000000   -3.557969    0.711879
  C      0.000000   -3.557969   -0.711879
  H      0.000000    2.364656    2.491337
  H      0.000000    2.364656   -2.491337
  H      0.000000    4.502732    1.238686
  H      0.000000    4.502732   -1.238686
  H      0.000000   -2.364656    2.491337
  H      0.000000   -2.364656   -2.491337
  H      0.000000   -4.502732    1.238686
  H      0.000000   -4.502732   -1.238686

 Total Charge           Charge          ....    0
 Multiplicity           Mult            ....    1
 Number of Electrons    NEL             ....   94
 Basis Dimension        Dim             .... 1488

ORBITAL ENERGIES
----------------

  NO   OCC          E(Eh)            E(eV)
   0   2.0000     -15.584305      -424.0705
   1   2.0000     -15.584292      -424.0701
   2   2.0000     -11.285327      -307.0894
   3   2.0000     -11.285289      -307.0883
   4   2.0000     -11.284338      -307.0624
   5   2.0000     -11.284335      -307.0624
   6   2.0000     -11.249617      -306.1176
   7   2.0000     -11.249616      -306.1176
   8   2.0000     -11.248610      -306.0903
   9   2.0000     -11.248610      -306.0902
  10   2.0000     -11.243209      -305.9433
  11   2.0000     -11.243208      -305.9433
  12   2.0000     -11.243206      -305.9432
  13   2.0000     -11.243206      -305.9432
  14   2.0000      -1.308712       -35.6119
  15   2.0000      -1.226100       -33.3639
  16   2.0000      -1.166262       -31.7356
  17   2.0000      -1.129211       -30.7274
  18   2.0000      -1.043793       -28.4030
  19   2.0000      -1.028666       -27.9914
  20   2.0000      -1.009078       -27.4584
  21   2.0000      -0.928586       -25.2681
  22   2.0000      -0.880775       -23.9671
  23   2.0000      -0.839610       -22.8469
  24   2.0000      -0.822791       -22.3893
  25   2.0000      -0.775048       -21.0901
  26   2.0000      -0.750499       -20.4221
  27   2.0000      -0.691685       -18.8217
  28   2.0000      -0.683664       -18.6034
  29   2.0000      -0.660746       -17.9798
  30   2.0000      -0.644925       -17.5493
  31   2.0000      -0.615614       -16.7517
  32   2.0000      -0.606992       -16.5171
  33   2.0000      -0.604011       -16.4360
  34   2.0000      -0.596598       -16.2343
  35   2.0000      -0.557979       -15.1834
  36   2.0000      -0.538146       -14.6437
  37   2.0000      -0.517187       -14.0734
  38   2.0000      -0.512551       -13.9472
  39   2.0000      -0.508046       -13.8246
  40   2.0000      -0.492825       -13.4104
  41   2.0000      -0.471880       -12.8405
  42   2.0000      -0.442042       -12.0286
  43   2.0000      -0.403580       -10.9820
  44   2.0000      -0.359599        -9.7852
  45   2.0000      -0.320194        -8.7129
  46   2.0000      -0.300115        -8.1665
  47   0.0000       0.019397         0.5278
  48   0.0000       0.024036         0.6540
  49   0.0000       0.024109         0.6560
  50   0.0000       0.028194         0.7672
  51   0.0000       0.034139         0.9290

MULLIKEN ATOMIC CHARGES
-----------------------
   0 C :    0.799740
   1 C :    0.799798
   2 N :   -0.728215
   3 C :   -0.605775
   4 N :   -0.728033
   5 C :   -0.605634
   6 C :    0.799647
   7 C :   -0.406945
   8 C :    0.799089
   9 C :   -0.407140
  10 C :   -0.605693
  11 C :   -0.605704
  12 C :   -0.406798
  13 C :   -0.406734
  14 H :    0.297490
  15 H :    0.297493
  16 H :    0.279738
  17 H :    0.279615
  18 H :    0.297451
  19 H :    0.297556
  20 H :    0.279527
  21 H :    0.279528
Sum of atomic charges:   -0.0000000

LOEWDIN ATOMIC CHARGES
----------------------
   0 C :   -0.360460
   1 C :   -0.360460
   2 N :    0.637717
   3 C :    0.341153
   4 N :    0.637717
   5 C :    0.341153
   6 C :   -0.360460
   7 C :    0.351213
   8 C :   -0.360460
   9 C :    0.351213
  10 C :    0.341153
  11 C :    0.341153
  12 C :    0.351213
  13 C :    0.351213
  14 H :   -0.326680
  15 H :   -0.326681
  16 H :   -0.324084
  17 H :   -0.324084
  18 H :   -0.326681
  19 H :   -0.326680
  20 H :   -0.324084
  21 H :   -0.324084

  Mayer bond orders larger than 0.100000
B(  0-C ,  1-C ) :   1.3099 B(  0-C ,  2-N ) :   0.5950 B(  0-C ,  3-C ) :   0.8359
B(  0-C ,  5-C ) :  -0.2101 B(  0-C ,  7-C ) :  -0.3534 B(  1-C ,  3-C ) :  -0.2100
B(  1-C ,  4-N ) :   0.5947 B(  1-C ,  5-C ) :   0.8358 B(  1-C ,  9-C ) :  -0.3532
B(  2-N ,  6-C ) :   0.5952 B(  2-N ,  7-C ) :   0.1035 B(  2-N , 12-C ) :   0.1033
B(  3-C ,  5-C ) :   0.2506 B(  3-C ,  7-C ) :   1.4872 B(  3-C ,  9-C ) :   0.1292
B(  3-C , 14-H ) :   0.9157 B(  3-C , 16-H ) :  -0.1787 B(  4-N ,  8-C ) :   0.5953
B(  4-N ,  9-C ) :   0.1034 B(  4-N , 13-C ) :   0.1033 B(  5-C ,  7-C ) :   0.1291
B(  5-C ,  9-C ) :   1.4871 B(  5-C , 15-H ) :   0.9157 B(  5-C , 17-H ) :  -0.1788
B(  6-C ,  8-C ) :   1.3097 B(  6-C , 10-C ) :   0.8357 B(  6-C , 11-C ) :  -0.2100
B(  6-C , 12-C ) :  -0.3536 B(  7-C ,  9-C ) :   1.0798 B(  7-C , 16-H ) :   1.1206
B(  8-C , 10-C ) :  -0.2099 B(  8-C , 11-C ) :   0.8363 B(  8-C , 13-C ) :  -0.3535
B(  9-C , 17-H ) :   1.1208 B( 10-C , 11-C ) :   0.2507 B( 10-C , 12-C ) :   1.4873
B( 10-C , 13-C ) :   0.1291 B( 10-C , 18-H ) :   0.9158 B( 10-C , 20-H ) :  -0.1788
B( 11-C , 12-C ) :   0.1289 B( 11-C , 13-C ) :   1.4873 B( 11-C , 19-H ) :   0.9156
B( 11-C , 21-H ) :  -0.1786 B( 12-C , 13-C ) :   1.0798 B( 12-C , 20-H ) :   1.1208
B( 13-C , 21-H ) :   1.1208

MP2 TOTAL ENERGY:     -570.613242355 Eh
FINAL SINGLE POINT ENERGY      -570.613242355207

DIPOLE MOMENT
-------------
                                X             Y             Z
Electronic contribution:      0.00000      -0.00000      -0.00000
Nuclear contribution   :      0.00000      -0.00000       0.00000
                        -----------------------------------------
Total Dipole Moment    :      0.00000      -0.00000      -0.00000
                        -----------------------------------------
Magnitude (a.u.)       :      0.00000
Magnitude (Debye)      :      0.00000

Rotational constants in cm-1:     0.072599     0.016071     0.013158
Rotational constants in MHz :  2176.458697   481.807567   394.480524

                             ****ORCA TERMINATED NORMALLY****
TOTAL RUN TIME: 0 days 2 hours 14 minutes 17 seconds 504 msec
