                         Program Version 5.0.4 -  RELEASE  -
|  1> !ri-mp2 aug-cc-pvqz aug-cc-pvqz/c tightscf
|  2> %pal nprocs 16 end
|  3>
|  4> * xyz 0 1
|  5> C      2.356270   -1.777173    0.000000
|  6> O      3.482232   -1.329055    0.000000
|  7> C      1.122819   -0.978189    0.000000
|  8> C     -0.122816   -1.616318    0.000000
|  9> C     -1.293641   -0.885835    0.000000
| 10> C     -1.239473    0.512535    0.000000
| 11> C      0.000000    1.164562    0.000000
| 12> C      1.165300    0.417042    0.000000
| 13> O     -2.435229    1.147852    0.000000
| 14> C     -2.463378    2.570550    0.000000
| 15> H      2.191197   -2.874062    0.000000
| 16> H     -0.165916   -2.698728    0.000000
| 17> H     -2.261088   -1.367425    0.000000
| 18> H      0.057823    2.241984    0.000000
| 19> H      2.129488    0.906789    0.000000
| 20> H     -1.981978    2.976345    0.892234
| 21> H     -1.981978    2.976345   -0.892234
| 22> H     -3.514049    2.845335    0.000000
| 23> *
| 24>
| 25>                          ****END OF INPUT****

CARTESIAN COORDINATES (ANGSTROEM)
---------------------------------
  C      2.356270   -1.777173    0.000000
  O      3.482232   -1.329055    0.000000
  C      1.122819   -0.978189    0.000000
  C     -0.122816   -1.616318    0.000000
  C     -1.293641   -0.885835    0.000000
  C     -1.239473    0.512535    0.000000
  C      0.000000    1.164562    0.000000
  C      1.165300    0.417042    0.000000
  O     -2.435229    1.147852    0.000000
  C     -2.463378    2.570550    0.000000
  H      2.191197   -2.874062    0.000000
  H     -0.165916   -2.698728    0.000000
  H     -2.261088   -1.367425    0.000000
  H      0.057823    2.241984    0.000000
  H      2.129488    0.906789    0.000000
  H     -1.981978    2.976345    0.892234
  H     -1.981978    2.976345   -0.892234
  H     -3.514049    2.845335    0.000000

 Total Charge           Charge          ....    0
 Multiplicity           Mult            ....    1
 Number of Electrons    NEL             ....   72
 Basis Dimension        Dim             .... 1168

ORBITAL ENERGIES
----------------

  NO   OCC          E(Eh)            E(eV)
   0   2.0000     -20.600821      -560.5768
   1   2.0000     -20.543732      -559.0234
   2   2.0000     -11.327444      -308.2354
   3   2.0000     -11.324520      -308.1558
   4   2.0000     -11.297094      -307.4096
   5   2.0000     -11.260984      -306.4269
   6   2.0000     -11.257753      -306.3390
   7   2.0000     -11.244230      -305.9711
   8   2.0000     -11.239799      -305.8505
   9   2.0000     -11.239748      -305.8491
  10   2.0000      -1.428933       -38.8832
  11   2.0000      -1.382388       -37.6167
  12   2.0000      -1.170377       -31.8476
  13   2.0000      -1.050281       -28.5796
  14   2.0000      -1.040439       -28.3118
  15   2.0000      -0.967154       -26.3176
  16   2.0000      -0.880280       -23.9536
  17   2.0000      -0.847071       -23.0500
  18   2.0000      -0.790824       -21.5194
  19   2.0000      -0.736265       -20.0348
  20   2.0000      -0.699377       -19.0310
  21   2.0000      -0.675230       -18.3739
  22   2.0000      -0.671123       -18.2622
  23   2.0000      -0.638837       -17.3836
  24   2.0000      -0.632987       -17.2244
  25   2.0000      -0.608640       -16.5619
  26   2.0000      -0.589437       -16.0394
  27   2.0000      -0.565765       -15.3953
  28   2.0000      -0.556472       -15.1424
  29   2.0000      -0.537129       -14.6160
  30   2.0000      -0.530414       -14.4333
  31   2.0000      -0.496676       -13.5152
  32   2.0000      -0.475429       -12.9371
  33   2.0000      -0.422762       -11.5039
  34   2.0000      -0.360633        -9.8133
  35   2.0000      -0.328683        -8.9439
  36   0.0000       0.020129         0.5477
  37   0.0000       0.025685         0.6989
  38   0.0000       0.031034         0.8445
  39   0.0000       0.037546         1.0217
  40   0.0000       0.038989         1.0609

MULLIKEN ATOMIC CHARGES
-----------------------
   0 C :    0.448129
   1 O :   -0.805315
   2 C :   -0.210990
   3 C :   -0.267726
   4 C :   -0.514269
   5 C :    1.078093
   6 C :   -0.575594
   7 C :    0.039138
   8 O :   -0.787595
   9 C :   -0.664078
  10 H :    0.272822
  11 H :    0.233524
  12 H :    0.265454
  13 H :    0.211928
  14 H :    0.273339
  15 H :    0.248155
  16 H :    0.248155
  17 H :    0.506833
Sum of atomic charges:   -0.0000000

LOEWDIN ATOMIC CHARGES
----------------------
   0 C :   -0.288529
   1 O :    0.695018
   2 C :   -0.139479
   3 C :    0.315800
   4 C :    0.337970
   5 C :   -0.451485
   6 C :    0.350751
   7 C :    0.328665
   8 O :    0.880592
   9 C :    0.592486
  10 H :   -0.368648
  11 H :   -0.319760
  12 H :   -0.327681
  13 H :   -0.358345
  14 H :   -0.321154
  15 H :   -0.304752
  16 H :   -0.304752
  17 H :   -0.316697

  Mayer bond orders larger than 0.100000
B(  0-C ,  1-O ) :   1.2471 B(  0-C ,  2-C ) :   1.0711 B(  0-C ,  3-C ) :  -0.2696
B(  0-C ,  7-C ) :  -0.2370 B(  0-C , 10-H ) :   1.0814 B(  1-O ,  2-C ) :   0.3261
B(  2-C ,  3-C ) :   0.9360 B(  2-C ,  4-C ) :  -0.2040 B(  2-C ,  6-C ) :  -0.2675
B(  2-C ,  7-C ) :   1.0365 B(  2-C , 10-H ) :  -0.2744 B(  3-C ,  4-C ) :   1.3476
B(  3-C ,  5-C ) :  -0.2217 B(  3-C , 11-H ) :   1.0788 B(  3-C , 12-H ) :  -0.1009
B(  4-C ,  5-C ) :   1.0889 B(  4-C ,  7-C ) :   0.1314 B(  4-C ,  8-O ) :   0.2453
B(  4-C , 11-H ) :  -0.1549 B(  4-C , 12-H ) :   1.0045 B(  5-C ,  6-C ) :   1.3017
B(  5-C ,  7-C ) :  -0.1498 B(  5-C ,  8-O ) :   0.1482 B(  5-C ,  9-C ) :  -0.1190
B(  5-C , 12-H ) :  -0.1171 B(  6-C ,  7-C ) :   1.0096 B(  6-C ,  8-O ) :   0.1653
B(  6-C ,  9-C ) :   0.1186 B(  6-C , 13-H ) :   1.1064 B(  6-C , 14-H ) :  -0.1339
B(  7-C , 13-H ) :  -0.1256 B(  7-C , 14-H ) :   0.9503 B(  8-O ,  9-C ) :   0.9178
B(  9-C , 15-H ) :   0.9259 B(  9-C , 16-H ) :   0.9259 B(  9-C , 17-H ) :   0.7362

MP2 TOTAL ENERGY:     -459.365475403 Eh
FINAL SINGLE POINT ENERGY      -459.365475402978

DIPOLE MOMENT
-------------
                                X             Y             Z
Electronic contribution:      3.97528      -4.34527       0.00000
Nuclear contribution   :     -5.47241       4.96959       0.00000
                        -----------------------------------------
Total Dipole Moment    :     -1.49713       0.62433       0.00000
                        -----------------------------------------
Magnitude (a.u.)       :      1.62209
Magnitude (Debye)      :      4.12302

Rotational constants in cm-1:     0.140226     0.023873     0.020480
Rotational constants in MHz :  4203.857133   715.703442   613.966911

                             ****ORCA TERMINATED NORMALLY****
TOTAL RUN TIME: 0 days 1 hours 27 minutes 5 seconds 650 msec
