                         Program Version 5.0.4 -  RELEASE  -
|  1> !ri-mp2 aug-cc-pvqz aug-cc-pvqz/c tightscf
|  2> %pal nprocs 16 end
|  3>
|  4> * xyz 0 1
|  5> O      0.000000    0.000000    1.676657
|  6> C      0.000000    0.000000    0.503213
|  7> Cl     0.000000    1.457697   -0.483310
|  8> Cl     0.000000   -1.457697   -0.483310
|  9> *
| 10>
| 11>                          ****END OF INPUT****

CARTESIAN COORDINATES (ANGSTROEM)
---------------------------------
  O      0.000000    0.000000    1.676657
  C      0.000000    0.000000    0.503213
  Cl     0.000000    1.457697   -0.483310
  Cl     0.000000   -1.457697   -0.483310

 Total Charge           Charge          ....    0
 Multiplicity           Mult            ....    1
 Number of Electrons    NEL             ....   48
 Basis Dimension        Dim             ....  328

ORBITAL ENERGIES
----------------

  NO   OCC          E(Eh)            E(eV)
   0   2.0000    -104.887836     -2854.1431
   1   2.0000    -104.887836     -2854.1431
   2   2.0000     -20.624094      -561.2101
   3   2.0000     -11.476109      -312.2808
   4   2.0000     -10.613061      -288.7961
   5   2.0000     -10.613046      -288.7957
   6   2.0000      -8.080006      -219.8681
   7   2.0000      -8.080002      -219.8680
   8   2.0000      -8.078080      -219.8157
   9   2.0000      -8.078078      -219.8157
  10   2.0000      -8.077966      -219.8126
  11   2.0000      -8.077965      -219.8126
  12   2.0000      -1.489322       -40.5265
  13   2.0000      -1.196817       -32.5670
  14   2.0000      -1.136923       -30.9373
  15   2.0000      -0.811998       -22.0956
  16   2.0000      -0.707749       -19.2588
  17   2.0000      -0.701985       -19.1020
  18   2.0000      -0.648980       -17.6596
  19   2.0000      -0.529647       -14.4124
  20   2.0000      -0.500776       -13.6268
  21   2.0000      -0.499825       -13.6009
  22   2.0000      -0.493813       -13.4373
  23   2.0000      -0.477371       -12.9899
  24   0.0000       0.040427         1.1001
  25   0.0000       0.054800         1.4912
  26   0.0000       0.067987         1.8500
  27   0.0000       0.074125         2.0170
  28   0.0000       0.087688         2.3861

MULLIKEN ATOMIC CHARGES
-----------------------
   0 O :   -0.447945
   1 C :    0.379249
   2 Cl:    0.034348
   3 Cl:    0.034348
Sum of atomic charges:    0.0000000

LOEWDIN ATOMIC CHARGES
----------------------
   0 O :    0.410254
   1 C :   -2.289684
   2 Cl:    0.939715
   3 Cl:    0.939715

  Mayer bond orders larger than 0.100000
B(  0-O ,  1-C ) :   1.8748 B(  1-C ,  2-Cl) :   1.0320 B(  1-C ,  3-Cl) :   1.0320

MP2 TOTAL ENERGY:    -1032.654538605 Eh
FINAL SINGLE POINT ENERGY     -1032.654538605282

DIPOLE MOMENT
-------------
                                X             Y             Z
Electronic contribution:     -0.00000      -0.00000      -1.85464
Nuclear contribution   :      0.00000       0.00000       1.28440
                        -----------------------------------------
Total Dipole Moment    :     -0.00000      -0.00000      -0.57025
                        -----------------------------------------
Magnitude (a.u.)       :      0.57025
Magnitude (Debye)      :      1.44945

Rotational constants in cm-1:     0.261114     0.111887     0.078325
Rotational constants in MHz :  7827.996994  3354.286062  2348.119886

                             ****ORCA TERMINATED NORMALLY****
TOTAL RUN TIME: 0 days 0 hours 1 minutes 48 seconds 557 msec
