                         Program Version 5.0.4 -  RELEASE  -
|  1> !ri-mp2 aug-cc-pvqz aug-cc-pvqz/c tightscf
|  2> %pal nprocs 16 end
|  3>
|  4> * xyz 0 1
|  5> C     -1.181319   -1.083539        0.000000
|  6> C      0.000000    1.010809        0.000000
|  7> C      0.048798   -1.709300        0.000000
|  8> C     -1.198215    0.314134        0.000000
|  9> C      1.176033    0.261682        0.000000
| 10> N      1.220451   -1.060717        0.000000
| 11> O     -2.406742    0.931648        0.000000
| 12> O      2.354509    0.926245        0.000000
| 13> H     -2.104345   -1.642803        0.000000
| 14> H      0.041008    2.091380        0.000000
| 15> H      0.107341   -2.790875        0.000000
| 16> H     -2.290414    1.887774        0.000000
| 17> H      3.049335    0.253679        0.000000
| 18> *
| 19>
| 20>                          ****END OF INPUT****

CARTESIAN COORDINATES (ANGSTROEM)
---------------------------------
  C     -1.181319   -1.083539    0.000000
  C      0.000000    1.010809    0.000000
  C      0.048798   -1.709300    0.000000
  C     -1.198215    0.314134    0.000000
  C      1.176033    0.261682    0.000000
  N      1.220451   -1.060717    0.000000
  O     -2.406742    0.931648    0.000000
  O      2.354509    0.926245    0.000000
  H     -2.104345   -1.642803    0.000000
  H      0.041008    2.091380    0.000000
  H      0.107341   -2.790875    0.000000
  H     -2.290414    1.887774    0.000000
  H      3.049335    0.253679    0.000000

 Total Charge           Charge          ....    0
 Multiplicity           Mult            ....    1
 Number of Electrons    NEL             ....   58
 Basis Dimension        Dim             ....  870

ORBITAL ENERGIES
----------------

  NO   OCC          E(Eh)            E(eV)
   0   2.0000     -20.610403      -560.8376
   1   2.0000     -20.596267      -560.4529
   2   2.0000     -15.555455      -423.2855
   3   2.0000     -11.347026      -308.7683
   4   2.0000     -11.332820      -308.3817
   5   2.0000     -11.285745      -307.1007
   6   2.0000     -11.234894      -305.7170
   7   2.0000     -11.227946      -305.5279
   8   2.0000      -1.430434       -38.9241
   9   2.0000      -1.426043       -38.8046
  10   2.0000      -1.255103       -34.1531
  11   2.0000      -1.085402       -29.5353
  12   2.0000      -1.033841       -28.1322
  13   2.0000      -0.888168       -24.1683
  14   2.0000      -0.859310       -23.3830
  15   2.0000      -0.783849       -21.3296
  16   2.0000      -0.717789       -19.5320
  17   2.0000      -0.692243       -18.8369
  18   2.0000      -0.665261       -18.1027
  19   2.0000      -0.626362       -17.0442
  20   2.0000      -0.626143       -17.0382
  21   2.0000      -0.606050       -16.4915
  22   2.0000      -0.596073       -16.2200
  23   2.0000      -0.571754       -15.5582
  24   2.0000      -0.533824       -14.5261
  25   2.0000      -0.501950       -13.6587
  26   2.0000      -0.436928       -11.8894
  27   2.0000      -0.369100       -10.0437
  28   2.0000      -0.338853        -9.2207
  29   0.0000       0.022080         0.6008
  30   0.0000       0.029014         0.7895
  31   0.0000       0.032827         0.8933
  32   0.0000       0.044281         1.2050
  33   0.0000       0.048942         1.3318

MULLIKEN ATOMIC CHARGES
-----------------------
   0 C :   -0.533144
   1 C :   -0.935869
   2 C :   -0.283962
   3 C :    1.019240
   4 C :    1.083207
   5 N :   -0.595501
   6 O :   -0.786318
   7 O :   -0.817792
   8 H :    0.340778
   9 H :    0.329869
  10 H :    0.449890
  11 H :    0.354104
  12 H :    0.375497
Sum of atomic charges:   -0.0000000

LOEWDIN ATOMIC CHARGES
----------------------
   0 C :    0.313750
   1 C :    0.310168
   2 C :    0.067509
   3 C :   -0.461338
   4 C :   -0.724098
   5 N :    0.585046
   6 O :    1.287416
   7 O :    1.259376
   8 H :   -0.338276
   9 H :   -0.333691
  10 H :   -0.347319
  11 H :   -0.792404
  12 H :   -0.826139

  Mayer bond orders larger than 0.100000
B(  0-C ,  2-C ) :   1.3721 B(  0-C ,  3-C ) :   1.1849 B(  0-C ,  6-O ) :   0.1586
B(  0-C ,  8-H ) :   0.9298 B(  0-C , 10-H ) :  -0.1060 B(  1-C ,  3-C ) :   1.4409
B(  1-C ,  4-C ) :   1.3815 B(  1-C ,  6-O ) :   0.2254 B(  1-C ,  7-O ) :   0.2420
B(  1-C ,  9-H ) :   0.8828 B(  2-C ,  3-C ) :  -0.1899 B(  2-C ,  5-N ) :   1.1118
B(  2-C , 10-H ) :   0.9282 B(  3-C ,  4-C ) :  -0.2926 B(  3-C ,  6-O ) :   0.3306
B(  4-C ,  5-N ) :   1.3566 B(  4-C ,  7-O ) :   0.5274 B(  5-N ,  7-O ) :   0.1094
B(  6-O , 11-H ) :   0.8880 B(  7-O , 12-H ) :   0.8512

MP2 TOTAL ENERGY:     -398.168736389 Eh
FINAL SINGLE POINT ENERGY      -398.168736389096

DIPOLE MOMENT
-------------
                                X             Y             Z
Electronic contribution:      0.87587       0.51301       0.00000
Nuclear contribution   :     -1.16746      -0.17431       0.00000
                        -----------------------------------------
Total Dipole Moment    :     -0.29159       0.33871       0.00000
                        -----------------------------------------
Magnitude (a.u.)       :      0.44693
Magnitude (Debye)      :      1.13600

Rotational constants in cm-1:     0.134594     0.061923     0.042411
Rotational constants in MHz :  4035.028417  1856.394633  1271.442406

                             ****ORCA TERMINATED NORMALLY****
TOTAL RUN TIME: 0 days 0 hours 25 minutes 7 seconds 996 msec
