                         Program Version 5.0.4 -  RELEASE  -
|  1> !ri-mp2 aug-cc-pvqz aug-cc-pvqz/c tightscf
|  2> %pal nprocs 16 end
|  3>
|  4> * xyz 0 1
|  5> C      2.487747    0.326580    0.218061
|  6> C      2.045807   -0.986436    0.330087
|  7> C      1.598711    1.325573   -0.163943
|  8> C      0.718272   -1.302587    0.064989
|  9> C      0.269988    1.021727   -0.434324
| 10> C     -0.152532   -0.293089   -0.311684
| 11> C     -2.512580   -0.121577    0.007190
| 12> O     -2.466293    0.684083    0.887913
| 13> O     -1.461326   -0.671192   -0.645444
| 14> H      3.520254    0.570857    0.425766
| 15> H      2.732232   -1.768633    0.623796
| 16> H      1.937995    2.348421   -0.253363
| 17> H      0.355162   -2.317509    0.142752
| 18> H     -0.426389    1.792073   -0.729422
| 19> H     -3.430787   -0.549489   -0.411541
| 20> *
| 21>
| 22>                          ****END OF INPUT****

CARTESIAN COORDINATES (ANGSTROEM)
---------------------------------
  C      2.487747    0.326580    0.218061
  C      2.045807   -0.986436    0.330087
  C      1.598711    1.325573   -0.163943
  C      0.718272   -1.302587    0.064989
  C      0.269988    1.021727   -0.434324
  C     -0.152532   -0.293089   -0.311684
  C     -2.512580   -0.121577    0.007190
  O     -2.466293    0.684083    0.887913
  O     -1.461326   -0.671192   -0.645444
  H      3.520254    0.570857    0.425766
  H      2.732232   -1.768633    0.623796
  H      1.937995    2.348421   -0.253363
  H      0.355162   -2.317509    0.142752
  H     -0.426389    1.792073   -0.729422
  H     -3.430787   -0.549489   -0.411541

 Total Charge           Charge          ....    0
 Multiplicity           Mult            ....    1
 Number of Electrons    NEL             ....   64
 Basis Dimension        Dim             ....  996

ORBITAL ENERGIES
----------------

  NO   OCC          E(Eh)            E(eV)
   0   2.0000     -20.623988      -561.2073
   1   2.0000     -20.563792      -559.5692
   2   2.0000     -11.393951      -310.0452
   3   2.0000     -11.309483      -307.7467
   4   2.0000     -11.245512      -306.0059
   5   2.0000     -11.245182      -305.9970
   6   2.0000     -11.243122      -305.9409
   7   2.0000     -11.242994      -305.9374
   8   2.0000     -11.239445      -305.8408
   9   2.0000      -1.478412       -40.2296
  10   2.0000      -1.386440       -37.7270
  11   2.0000      -1.164336       -31.6832
  12   2.0000      -1.033351       -28.1189
  13   2.0000      -1.030615       -28.0445
  14   2.0000      -0.902976       -24.5712
  15   2.0000      -0.849970       -23.1288
  16   2.0000      -0.801196       -21.8016
  17   2.0000      -0.737133       -20.0584
  18   2.0000      -0.715649       -19.4738
  19   2.0000      -0.687682       -18.7128
  20   2.0000      -0.673307       -18.3216
  21   2.0000      -0.634661       -17.2700
  22   2.0000      -0.610954       -16.6249
  23   2.0000      -0.600463       -16.3394
  24   2.0000      -0.587170       -15.9777
  25   2.0000      -0.528332       -14.3766
  26   2.0000      -0.525015       -14.2864
  27   2.0000      -0.509407       -13.8617
  28   2.0000      -0.483018       -13.1436
  29   2.0000      -0.471639       -12.8339
  30   2.0000      -0.349362        -9.5066
  31   2.0000      -0.341717        -9.2986
  32   0.0000       0.024304         0.6613
  33   0.0000       0.027797         0.7564
  34   0.0000       0.029716         0.8086
  35   0.0000       0.039637         1.0786
  36   0.0000       0.042224         1.1490

MULLIKEN ATOMIC CHARGES
-----------------------
   0 C :   -0.327549
   1 C :   -0.371081
   2 C :   -0.356739
   3 C :   -0.484337
   4 C :   -0.362144
   5 C :    0.846290
   6 C :    0.309348
   7 O :   -0.696928
   8 O :   -0.709200
   9 H :    0.308297
  10 H :    0.271237
  11 H :    0.264384
  12 H :    0.355482
  13 H :    0.350558
  14 H :    0.602381
Sum of atomic charges:   -0.0000000

LOEWDIN ATOMIC CHARGES
----------------------
   0 C :    0.338200
   1 C :    0.335315
   2 C :    0.341234
   3 C :    0.319655
   4 C :    0.312995
   5 C :   -0.488238
   6 C :   -0.643953
   7 O :    0.682914
   8 O :    0.818343
   9 H :   -0.325259
  10 H :   -0.322106
  11 H :   -0.320298
  12 H :   -0.323735
  13 H :   -0.328600
  14 H :   -0.396467

  Mayer bond orders larger than 0.100000
B(  0-C ,  1-C ) :   1.1791 B(  0-C ,  2-C ) :   1.1722 B(  0-C ,  9-H ) :   1.0198
B(  1-C ,  3-C ) :   1.3699 B(  1-C ,  5-C ) :  -0.2936 B(  1-C , 10-H ) :   1.0860
B(  2-C ,  3-C ) :   0.1191 B(  2-C ,  4-C ) :   1.2765 B(  2-C ,  5-C ) :  -0.2444
B(  2-C , 11-H ) :   1.0866 B(  3-C ,  5-C ) :   1.1800 B(  3-C ,  8-O ) :   0.1673
B(  3-C , 10-H ) :  -0.1116 B(  3-C , 12-H ) :   0.8882 B(  4-C ,  5-C ) :   1.2718
B(  4-C ,  8-O ) :   0.2030 B(  4-C , 11-H ) :  -0.1072 B(  4-C , 13-H ) :   0.8865
B(  5-C ,  8-O ) :   0.1374 B(  6-C ,  7-O ) :   1.7237 B(  6-C ,  8-O ) :   1.0609
B(  6-C , 14-H ) :   0.6049

MP2 TOTAL ENERGY:     -420.147846137 Eh
FINAL SINGLE POINT ENERGY      -420.147846136705

DIPOLE MOMENT
-------------
                                X             Y             Z
Electronic contribution:     -4.22426      -0.46794      -0.29158
Nuclear contribution   :      4.55357       0.07473      -0.19506
                        -----------------------------------------
Total Dipole Moment    :      0.32932      -0.39322      -0.48664
                        -----------------------------------------
Magnitude (a.u.)       :      0.70703
Magnitude (Debye)      :      1.79712

Rotational constants in cm-1:     0.132572     0.039022     0.033262
Rotational constants in MHz :  3974.415651  1169.844124   997.168164

                             ****ORCA TERMINATED NORMALLY****
TOTAL RUN TIME: 0 days 0 hours 52 minutes 56 seconds 654 msec
