                         Program Version 5.0.4 -  RELEASE  -
|  1> !ri-mp2 aug-cc-pvqz aug-cc-pvqz/c tightscf
|  2> %pal nprocs 16 end
|  3>
|  4> * xyz 0 1
|  5> C      0.627734    1.332116    0.000000
|  6> C     -0.015015    0.749126    1.262844
|  7> C     -0.015015    0.749126   -1.262844
|  8> C     -0.015015   -0.777813    1.216280
|  9> C     -0.015015   -0.777813   -1.216280
| 10> N     -0.683238   -1.236622    0.000000
| 11> H      0.550093    2.421274    0.000000
| 12> H      1.697146    1.095686    0.000000
| 13> H      0.514966    1.090753    2.154644
| 14> H     -1.048069    1.096853    1.343790
| 15> H     -1.048069    1.096853   -1.343790
| 16> H      0.514966    1.090753   -2.154644
| 17> H      1.028243   -1.134962    1.275130
| 18> H     -0.545722   -1.185262    2.078063
| 19> H     -0.545722   -1.185262   -2.078063
| 20> H      1.028243   -1.134962   -1.275130
| 21> H     -0.769444   -2.243821    0.000000
| 22> *
| 23>
| 24>                          ****END OF INPUT****

CARTESIAN COORDINATES (ANGSTROEM)
---------------------------------
  C      0.627734    1.332116    0.000000
  C     -0.015015    0.749126    1.262844
  C     -0.015015    0.749126   -1.262844
  C     -0.015015   -0.777813    1.216280
  C     -0.015015   -0.777813   -1.216280
  N     -0.683238   -1.236622    0.000000
  H      0.550093    2.421274    0.000000
  H      1.697146    1.095686    0.000000
  H      0.514966    1.090753    2.154644
  H     -1.048069    1.096853    1.343790
  H     -1.048069    1.096853   -1.343790
  H      0.514966    1.090753   -2.154644
  H      1.028243   -1.134962    1.275130
  H     -0.545722   -1.185262    2.078063
  H     -0.545722   -1.185262   -2.078063
  H      1.028243   -1.134962   -1.275130
  H     -0.769444   -2.243821    0.000000

 Total Charge           Charge          ....    0
 Multiplicity           Mult            ....    1
 Number of Electrons    NEL             ....   48
 Basis Dimension        Dim             ....  986

ORBITAL ENERGIES
----------------

  NO   OCC          E(Eh)            E(eV)
   0   2.0000     -15.533087      -422.6768
   1   2.0000     -11.240157      -305.8602
   2   2.0000     -11.240142      -305.8598
   3   2.0000     -11.212733      -305.1140
   4   2.0000     -11.210495      -305.0531
   5   2.0000     -11.210403      -305.0506
   6   2.0000      -1.206084       -32.8192
   7   2.0000      -1.052785       -28.6477
   8   2.0000      -1.009298       -27.4644
   9   2.0000      -0.861408       -23.4401
  10   2.0000      -0.838508       -22.8169
  11   2.0000      -0.751430       -20.4474
  12   2.0000      -0.682257       -18.5652
  13   2.0000      -0.618601       -16.8330
  14   2.0000      -0.609762       -16.5925
  15   2.0000      -0.583225       -15.8703
  16   2.0000      -0.557759       -15.1774
  17   2.0000      -0.543316       -14.7844
  18   2.0000      -0.527907       -14.3651
  19   2.0000      -0.484908       -13.1950
  20   2.0000      -0.464187       -12.6312
  21   2.0000      -0.442204       -12.0330
  22   2.0000      -0.440697       -11.9920
  23   2.0000      -0.362509        -9.8644
  24   0.0000       0.026647         0.7251
  25   0.0000       0.031624         0.8605
  26   0.0000       0.031816         0.8658
  27   0.0000       0.035191         0.9576
  28   0.0000       0.047635         1.2962

MULLIKEN ATOMIC CHARGES
-----------------------
   0 C :   -0.406492
   1 C :   -0.507977
   2 C :   -0.507975
   3 C :   -0.294223
   4 C :   -0.294224
   5 N :   -0.490315
   6 H :    0.290365
   7 H :    0.174635
   8 H :    0.292687
   9 H :    0.214287
  10 H :    0.214286
  11 H :    0.292689
  12 H :    0.140239
  13 H :    0.319433
  14 H :    0.319432
  15 H :    0.140238
  16 H :    0.102914
Sum of atomic charges:    0.0000000

LOEWDIN ATOMIC CHARGES
----------------------
   0 C :    0.525575
   1 C :    0.521033
   2 C :    0.521033
   3 C :    0.359010
   4 C :    0.359010
   5 N :    0.908248
   6 H :   -0.262901
   7 H :   -0.270269
   8 H :   -0.265373
   9 H :   -0.269194
  10 H :   -0.269194
  11 H :   -0.265373
  12 H :   -0.264479
  13 H :   -0.279681
  14 H :   -0.279681
  15 H :   -0.264479
  16 H :   -0.503285

  Mayer bond orders larger than 0.100000
B(  0-C ,  1-C ) :   0.9283 B(  0-C ,  2-C ) :   0.9283 B(  0-C ,  6-H ) :   0.8775
B(  0-C ,  7-H ) :   0.9656 B(  1-C ,  3-C ) :   0.9801 B(  1-C ,  8-H ) :   0.8948
B(  1-C ,  9-H ) :   0.9308 B(  2-C ,  4-C ) :   0.9801 B(  2-C , 10-H ) :   0.9308
B(  2-C , 11-H ) :   0.8948 B(  3-C ,  5-N ) :   0.8590 B(  3-C , 12-H ) :   1.0066
B(  3-C , 13-H ) :   0.8990 B(  4-C ,  5-N ) :   0.8590 B(  4-C , 14-H ) :   0.8990
B(  4-C , 15-H ) :   1.0066 B(  5-N , 16-H ) :   1.0547

MP2 TOTAL ENERGY:     -251.444493029 Eh
FINAL SINGLE POINT ENERGY      -251.444493028716

DIPOLE MOMENT
-------------
                                X             Y             Z
Electronic contribution:     -1.12882      -1.22300       0.00000
Nuclear contribution   :      1.45318       1.05937       0.00000
                        -----------------------------------------
Total Dipole Moment    :      0.32435      -0.16363       0.00000
                        -----------------------------------------
Magnitude (a.u.)       :      0.36329
Magnitude (Debye)      :      0.92341

Rotational constants in cm-1:     0.150742     0.148224     0.084475
Rotational constants in MHz :  4519.118520  4443.653055  2532.485789

                             ****ORCA TERMINATED NORMALLY****
TOTAL RUN TIME: 0 days 0 hours 34 minutes 33 seconds 596 msec
