                         Program Version 5.0.4 -  RELEASE  -
|  1> !ri-mp2 aug-cc-pvqz aug-cc-pvqz/c tightscf
|  2> %pal nprocs 16 end
|  3>
|  4> * xyz 0 1
|  5> O     -1.140757    1.067901   -0.000039
|  6> O     -1.122638   -1.159311   -0.000036
|  7> C     -0.509953   -0.131001   -0.000019
|  8> C      0.939527   -0.050347    0.000023
|  9> C      2.137587    0.000371    0.000080
| 10> H     -0.495557    1.786680   -0.000024
| 11> H      3.199749    0.030461    0.000128
| 12> *
| 13>
| 14>                          ****END OF INPUT****

CARTESIAN COORDINATES (ANGSTROEM)
---------------------------------
  O     -1.140757    1.067901   -0.000039
  O     -1.122638   -1.159311   -0.000036
  C     -0.509953   -0.131001   -0.000019
  C      0.939527   -0.050347    0.000023
  C      2.137587    0.000371    0.000080
  H     -0.495557    1.786680   -0.000024
  H      3.199749    0.030461    0.000128

 Total Charge           Charge          ....    0
 Multiplicity           Mult            ....    1
 Number of Electrons    NEL             ....   36
 Basis Dimension        Dim             ....  492

ORBITAL ENERGIES
----------------

  NO   OCC          E(Eh)            E(eV)
   0   2.0000     -20.629312      -561.3521
   1   2.0000     -20.566522      -559.6435
   2   2.0000     -11.423624      -310.8526
   3   2.0000     -11.285228      -307.0867
   4   2.0000     -11.275116      -306.8115
   5   2.0000      -1.480540       -40.2875
   6   2.0000      -1.386751       -37.7354
   7   2.0000      -1.084442       -29.5092
   8   2.0000      -0.915002       -24.8985
   9   2.0000      -0.824990       -22.4491
  10   2.0000      -0.749243       -20.3879
  11   2.0000      -0.682779       -18.5794
  12   2.0000      -0.652085       -17.7441
  13   2.0000      -0.619540       -16.8586
  14   2.0000      -0.507084       -13.7985
  15   2.0000      -0.493878       -13.4391
  16   2.0000      -0.444071       -12.0838
  17   2.0000      -0.442755       -12.0480
  18   0.0000       0.016982         0.4621
  19   0.0000       0.030122         0.8197
  20   0.0000       0.054860         1.4928
  21   0.0000       0.057344         1.5604
  22   0.0000       0.070307         1.9132

MULLIKEN ATOMIC CHARGES
-----------------------
   0 O :   -0.646045
   1 O :   -0.638647
   2 C :    1.249490
   3 C :   -0.300294
   4 C :   -0.580825
   5 H :    0.358512
   6 H :    0.557809
Sum of atomic charges:   -0.0000000

LOEWDIN ATOMIC CHARGES
----------------------
   0 O :    1.214034
   1 O :    0.637901
   2 C :   -1.154323
   3 C :    0.001217
   4 C :    0.566718
   5 H :   -0.825363
   6 H :   -0.440185

  Mayer bond orders larger than 0.100000
B(  0-O ,  1-O ) :   0.1013 B(  0-O ,  2-C ) :   0.8212 B(  0-O ,  5-H ) :   0.8674
B(  1-O ,  2-C ) :   1.5950 B(  2-C ,  3-C ) :   1.0127 B(  3-C ,  4-C ) :   2.7355
B(  4-C ,  6-H ) :   0.7550

MP2 TOTAL ENERGY:     -265.539573743 Eh
FINAL SINGLE POINT ENERGY      -265.539573742788

DIPOLE MOMENT
-------------
                                X             Y             Z
Electronic contribution:     -1.02464      -0.61544      -0.00005
Nuclear contribution   :      2.57570       1.75255       0.00010
                        -----------------------------------------
Total Dipole Moment    :      1.55106       1.13711       0.00005
                        -----------------------------------------
Magnitude (a.u.)       :      1.92322
Magnitude (Debye)      :      4.88845

Rotational constants in cm-1:     0.390673     0.140404     0.103285
Rotational constants in MHz : 11712.069850  4209.212230  3096.395592

                             ****ORCA TERMINATED NORMALLY****
TOTAL RUN TIME: 0 days 0 hours 4 minutes 57 seconds 332 msec
