                         Program Version 5.0.4 -  RELEASE  -
|  1> !ri-mp2 aug-cc-pvqz aug-cc-pvqz/c tightscf
|  2> %pal nprocs 16 end
|  3>
|  4> * xyz 0 1
|  5> C      0.000000    0.688857    1.174003
|  6> C      0.000000   -0.688857    1.174003
|  7> C      0.000000   -1.319429   -0.067431
|  8> C      0.000000    1.319429   -0.067431
|  9> H      0.000000    1.265199    2.088781
| 10> H      0.000000   -1.265199    2.088781
| 11> H      0.000000   -2.398824   -0.151216
| 12> H      0.000000    2.398824   -0.151216
| 13> N      0.000000    0.664263   -1.225286
| 14> N      0.000000   -0.664263   -1.225286
| 15> *
| 16>
| 17>                          ****END OF INPUT****

CARTESIAN COORDINATES (ANGSTROEM)
---------------------------------
  C      0.000000    0.688857    1.174003
  C      0.000000   -0.688857    1.174003
  C      0.000000   -1.319429   -0.067431
  C      0.000000    1.319429   -0.067431
  H      0.000000    1.265199    2.088781
  H      0.000000   -1.265199    2.088781
  H      0.000000   -2.398824   -0.151216
  H      0.000000    2.398824   -0.151216
  N      0.000000    0.664263   -1.225286
  N      0.000000   -0.664263   -1.225286

 Total Charge           Charge          ....    0
 Multiplicity           Mult            ....    1
 Number of Electrons    NEL             ....   42
 Basis Dimension        Dim             ....  664

ORBITAL ENERGIES
----------------

  NO   OCC          E(Eh)            E(eV)
   0   2.0000     -15.610099      -424.7724
   1   2.0000     -15.609259      -424.7495
   2   2.0000     -11.282801      -307.0206
   3   2.0000     -11.282778      -307.0200
   4   2.0000     -11.270800      -306.6941
   5   2.0000     -11.269461      -306.6576
   6   2.0000      -1.348342       -36.6903
   7   2.0000      -1.116778       -30.3891
   8   2.0000      -1.114653       -30.3312
   9   2.0000      -0.902709       -24.5640
  10   2.0000      -0.889381       -24.2013
  11   2.0000      -0.732674       -19.9371
  12   2.0000      -0.701588       -19.0912
  13   2.0000      -0.667478       -18.1630
  14   2.0000      -0.602614       -16.3980
  15   2.0000      -0.590561       -16.0700
  16   2.0000      -0.580096       -15.7852
  17   2.0000      -0.482177       -13.1207
  18   2.0000      -0.406426       -11.0594
  19   2.0000      -0.406026       -11.0485
  20   2.0000      -0.385236       -10.4828
  21   0.0000       0.019085         0.5193
  22   0.0000       0.026698         0.7265
  23   0.0000       0.035008         0.9526
  24   0.0000       0.044144         1.2012
  25   0.0000       0.068037         1.8514

MULLIKEN ATOMIC CHARGES
-----------------------
   0 C :   -0.345271
   1 C :   -0.345271
   2 C :   -0.140898
   3 C :   -0.140899
   4 H :    0.376888
   5 H :    0.376888
   6 H :    0.476945
   7 H :    0.476945
   8 N :   -0.367663
   9 N :   -0.367663
Sum of atomic charges:    0.0000000

LOEWDIN ATOMIC CHARGES
----------------------
   0 C :    0.319269
   1 C :    0.319269
   2 C :    0.039837
   3 C :    0.039837
   4 H :   -0.318309
   5 H :   -0.318309
   6 H :   -0.364856
   7 H :   -0.364856
   8 N :    0.324060
   9 N :    0.324060

  Mayer bond orders larger than 0.100000
B(  0-C ,  1-C ) :   1.2282 B(  0-C ,  3-C ) :   1.2207 B(  0-C ,  4-H ) :   0.9281
B(  1-C ,  2-C ) :   1.2207 B(  1-C ,  5-H ) :   0.9281 B(  2-C ,  6-H ) :   0.8516
B(  2-C ,  9-N ) :   1.2494 B(  3-C ,  7-H ) :   0.8516 B(  3-C ,  8-N ) :   1.2494
B(  6-H ,  9-N ) :  -0.1201 B(  7-H ,  8-N ) :  -0.1201 B(  8-N ,  9-N ) :   0.7411

MP2 TOTAL ENERGY:     -263.850008421 Eh
FINAL SINGLE POINT ENERGY      -263.850008420844

DIPOLE MOMENT
-------------
                                X             Y             Z
Electronic contribution:     -0.00000       0.00000      -2.08133
Nuclear contribution   :      0.00000       0.00000       3.80237
                        -----------------------------------------
Total Dipole Moment    :     -0.00000       0.00000       1.72104
                        -----------------------------------------
Magnitude (a.u.)       :      1.72104
Magnitude (Debye)      :      4.37454

Rotational constants in cm-1:     0.209652     0.200843     0.102576
Rotational constants in MHz :  6285.217020  6021.111702  3075.165194

                             ****ORCA TERMINATED NORMALLY****
TOTAL RUN TIME: 0 days 0 hours 11 minutes 13 seconds 798 msec
