                         Program Version 5.0.4 -  RELEASE  -
|  1> !ri-mp2 aug-cc-pvqz aug-cc-pvqz/c tightscf
|  2> %pal nprocs 16 end
|  3>
|  4> * xyz 0 1
|  5> C      0.771682   -0.432622    0.000000
|  6> C     -1.515437    0.563249    0.000000
|  7> C      0.000000    0.807103    0.000000
|  8> N      1.364991   -1.417770    0.000000
|  9> H     -1.819793    0.002200    0.881973
| 10> H     -2.041098    1.517131    0.000000
| 11> H     -1.819793    0.002200   -0.881973
| 12> H      0.294138    1.388238    0.876058
| 13> H      0.294138    1.388238   -0.876058
| 14> *
| 15>
| 16>                          ****END OF INPUT****

CARTESIAN COORDINATES (ANGSTROEM)
---------------------------------
  C      0.771682   -0.432622    0.000000
  C     -1.515437    0.563249    0.000000
  C      0.000000    0.807103    0.000000
  N      1.364991   -1.417770    0.000000
  H     -1.819793    0.002200    0.881973
  H     -2.041098    1.517131    0.000000
  H     -1.819793    0.002200   -0.881973
  H      0.294138    1.388238    0.876058
  H      0.294138    1.388238   -0.876058

 Total Charge           Charge          ....    0
 Multiplicity           Mult            ....    1
 Number of Electrons    NEL             ....   30
 Basis Dimension        Dim             ....  550

ORBITAL ENERGIES
----------------

  NO   OCC          E(Eh)            E(eV)
   0   2.0000     -15.564642      -423.5354
   1   2.0000     -11.284995      -307.0803
   2   2.0000     -11.269896      -306.6695
   3   2.0000     -11.247932      -306.0718
   4   2.0000      -1.220292       -33.2058
   5   2.0000      -1.083474       -29.4828
   6   2.0000      -0.914097       -24.8738
   7   2.0000      -0.703465       -19.1423
   8   2.0000      -0.659129       -17.9358
   9   2.0000      -0.590721       -16.0743
  10   2.0000      -0.563514       -15.3340
  11   2.0000      -0.544361       -14.8128
  12   2.0000      -0.541389       -14.7319
  13   2.0000      -0.458534       -12.4774
  14   2.0000      -0.458236       -12.4692
  15   0.0000       0.019448         0.5292
  16   0.0000       0.033073         0.9000
  17   0.0000       0.033555         0.9131
  18   0.0000       0.041163         1.1201
  19   0.0000       0.055182         1.5016

MULLIKEN ATOMIC CHARGES
-----------------------
   0 C :    0.334045
   1 C :   -0.756866
   2 C :   -0.361041
   3 N :   -0.622079
   4 H :    0.252394
   5 H :    0.304144
   6 H :    0.252394
   7 H :    0.298505
   8 H :    0.298505
Sum of atomic charges:    0.0000000

LOEWDIN ATOMIC CHARGES
----------------------
   0 C :   -0.273027
   1 C :    0.914120
   2 C :    0.421058
   3 N :    0.403431
   4 H :   -0.285030
   5 H :   -0.283735
   6 H :   -0.285030
   7 H :   -0.305894
   8 H :   -0.305894

  Mayer bond orders larger than 0.100000
B(  0-C ,  2-C ) :   1.0285 B(  0-C ,  3-N ) :   2.5990 B(  1-C ,  2-C ) :   0.9967
B(  1-C ,  4-H ) :   0.9251 B(  1-C ,  5-H ) :   0.9155 B(  1-C ,  6-H ) :   0.9251
B(  2-C ,  7-H ) :   0.8649 B(  2-C ,  8-H ) :   0.8649

MP2 TOTAL ENERGY:     -171.769548236 Eh
FINAL SINGLE POINT ENERGY      -171.769548236461

DIPOLE MOMENT
-------------
                                X             Y             Z
Electronic contribution:      4.22201      -2.97432      -0.00000
Nuclear contribution   :     -5.20091       4.38799       0.00000
                        -----------------------------------------
Total Dipole Moment    :     -0.97889       1.41367      -0.00000
                        -----------------------------------------
Magnitude (a.u.)       :      1.71950
Magnitude (Debye)      :      4.37063

Rotational constants in cm-1:     0.940156     0.156620     0.141265
Rotational constants in MHz : 28185.154270  4695.353194  4235.007188

                             ****ORCA TERMINATED NORMALLY****
TOTAL RUN TIME: 0 days 0 hours 4 minutes 36 seconds 736 msec
