                         Program Version 5.0.4 -  RELEASE  -
|  1> !ri-mp2 aug-cc-pvqz aug-cc-pvqz/c tightscf
|  2> %pal nprocs 16 end
|  3>
|  4> * xyz 0 1
|  5> O      0.828981   -0.789180   -0.238022
|  6> C     -1.508266    0.097281   -0.148770
|  7> H     -1.418953    0.320203   -1.211647
|  8> H     -2.074015   -0.829198   -0.038726
|  9> H     -2.076905    0.897311    0.329487
| 10> C     -0.152980   -0.033489    0.484726
| 11> H     -0.154020   -0.247472    1.550696
| 12> C      1.040125    0.616650   -0.061363
| 13> H      0.954099    1.210204   -0.965902
| 14> H      1.864673    0.879739    0.592713
| 15> *
| 16>
| 17>                          ****END OF INPUT****

CARTESIAN COORDINATES (ANGSTROEM)
---------------------------------
  O      0.828981   -0.789180   -0.238022
  C     -1.508266    0.097281   -0.148770
  H     -1.418953    0.320203   -1.211647
  H     -2.074015   -0.829198   -0.038726
  H     -2.076905    0.897311    0.329487
  C     -0.152980   -0.033489    0.484726
  H     -0.154020   -0.247472    1.550696
  C      1.040125    0.616650   -0.061363
  H      0.954099    1.210204   -0.965902
  H      1.864673    0.879739    0.592713

 Total Charge           Charge          ....    0
 Multiplicity           Mult            ....    1
 Number of Electrons    NEL             ....   32
 Basis Dimension        Dim             ....  596

ORBITAL ENERGIES
----------------

  NO   OCC          E(Eh)            E(eV)
   0   2.0000     -20.562641      -559.5379
   1   2.0000     -11.286970      -307.1341
   2   2.0000     -11.279112      -306.9203
   3   2.0000     -11.224761      -305.4413
   4   2.0000      -1.404896       -38.2292
   5   2.0000      -1.013434       -27.5770
   6   2.0000      -0.908830       -24.7305
   7   2.0000      -0.815206       -22.1829
   8   2.0000      -0.696614       -18.9558
   9   2.0000      -0.643445       -17.5090
  10   2.0000      -0.587292       -15.9810
  11   2.0000      -0.563397       -15.3308
  12   2.0000      -0.526050       -14.3145
  13   2.0000      -0.516784       -14.0624
  14   2.0000      -0.446158       -12.1406
  15   2.0000      -0.433693       -11.8014
  16   0.0000       0.025813         0.7024
  17   0.0000       0.033309         0.9064
  18   0.0000       0.034288         0.9330
  19   0.0000       0.042317         1.1515
  20   0.0000       0.050989         1.3875

MULLIKEN ATOMIC CHARGES
-----------------------
   0 O :   -0.786421
   1 C :   -0.784205
   2 H :    0.239245
   3 H :    0.222470
   4 H :    0.261391
   5 C :    0.130395
   6 H :    0.482283
   7 C :   -0.476750
   8 H :    0.353620
   9 H :    0.357971
Sum of atomic charges:    0.0000000

LOEWDIN ATOMIC CHARGES
----------------------
   0 O :    0.837343
   1 C :    0.918502
   2 H :   -0.304721
   3 H :   -0.289602
   4 H :   -0.289718
   5 C :   -0.204153
   6 H :   -0.297100
   7 C :    0.237240
   8 H :   -0.306433
   9 H :   -0.301357

  Mayer bond orders larger than 0.100000
B(  0-O ,  5-C ) :   0.6703 B(  0-O ,  7-C ) :   0.9912 B(  1-C ,  2-H ) :   0.9471
B(  1-C ,  3-H ) :   0.9841 B(  1-C ,  4-H ) :   0.9483 B(  1-C ,  5-C ) :   0.8286
B(  5-C ,  6-H ) :   0.7202 B(  5-C ,  7-C ) :   1.0374 B(  7-C ,  8-H ) :   0.8686
B(  7-C ,  9-H ) :   0.8882

MP2 TOTAL ENERGY:     -192.801377998 Eh
FINAL SINGLE POINT ENERGY      -192.801377998207

DIPOLE MOMENT
-------------
                                X             Y             Z
Electronic contribution:      2.61884      -1.53692       0.04399
Nuclear contribution   :     -2.99255       2.29544       0.26166
                        -----------------------------------------
Total Dipole Moment    :     -0.37371       0.75852       0.30564
                        -----------------------------------------
Magnitude (a.u.)       :      0.89913
Magnitude (Debye)      :      2.28540

Rotational constants in cm-1:     0.607773     0.221998     0.197750
Rotational constants in MHz : 18220.569480  6655.339185  5928.407708

                             ****ORCA TERMINATED NORMALLY****
TOTAL RUN TIME: 0 days 0 hours 9 minutes 26 seconds 800 msec
