                         Program Version 5.0.4 -  RELEASE  -
|  1> !ri-mp2 aug-cc-pvqz aug-cc-pvqz/c tightscf
|  2> %pal nprocs 16 end
|  3>
|  4> * xyz 0 1
|  5> H      0.006474   -0.227339    2.044374
|  6> H     -1.635546   -0.354899    1.408749
|  7> C     -0.624771   -0.007610    1.187918
|  8> H      0.006474   -0.227339   -2.044374
|  9> H     -1.635546   -0.354899   -1.408749
| 10> C     -0.624771   -0.007610   -1.187918
| 11> H     -1.486817    2.000076   -1.189456
| 12> H      0.267197    1.975221   -1.154715
| 13> C     -0.624771    1.478937   -0.776179
| 14> H     -1.486817    2.000076    1.189456
| 15> H      0.267197    1.975221    1.154715
| 16> C     -0.624771    1.478937    0.776179
| 17> N     -0.139113   -0.737456    0.000000
| 18> C      1.096623   -1.229239    0.000000
| 19> N      2.155136   -1.700631    0.000000
| 20> *
| 21>
| 22>                          ****END OF INPUT****

CARTESIAN COORDINATES (ANGSTROEM)
---------------------------------
  H      0.006474   -0.227339    2.044374
  H     -1.635546   -0.354899    1.408749
  C     -0.624771   -0.007610    1.187918
  H      0.006474   -0.227339   -2.044374
  H     -1.635546   -0.354899   -1.408749
  C     -0.624771   -0.007610   -1.187918
  H     -1.486817    2.000076   -1.189456
  H      0.267197    1.975221   -1.154715
  C     -0.624771    1.478937   -0.776179
  H     -1.486817    2.000076    1.189456
  H      0.267197    1.975221    1.154715
  C     -0.624771    1.478937    0.776179
  N     -0.139113   -0.737456    0.000000
  C      1.096623   -1.229239    0.000000
  N      2.155136   -1.700631    0.000000

 Total Charge           Charge          ....    0
 Multiplicity           Mult            ....    1
 Number of Electrons    NEL             ....   52
 Basis Dimension        Dim             ....  928

ORBITAL ENERGIES
----------------

  NO   OCC          E(Eh)            E(eV)
   0   2.0000     -15.609009      -424.7427
   1   2.0000     -15.544771      -422.9947
   2   2.0000     -11.289558      -307.2045
   3   2.0000     -11.283748      -307.0464
   4   2.0000     -11.283729      -307.0459
   5   2.0000     -11.244665      -305.9829
   6   2.0000     -11.244107      -305.9677
   7   2.0000      -1.302649       -35.4469
   8   2.0000      -1.190405       -32.3926
   9   2.0000      -1.071364       -29.1533
  10   2.0000      -1.014848       -27.6154
  11   2.0000      -0.894874       -24.3508
  12   2.0000      -0.823665       -22.4131
  13   2.0000      -0.746509       -20.3135
  14   2.0000      -0.690180       -18.7808
  15   2.0000      -0.638952       -17.3868
  16   2.0000      -0.632266       -17.2048
  17   2.0000      -0.574987       -15.6462
  18   2.0000      -0.569072       -15.4852
  19   2.0000      -0.540560       -14.7094
  20   2.0000      -0.516986       -14.0679
  21   2.0000      -0.512098       -13.9349
  22   2.0000      -0.505235       -13.7481
  23   2.0000      -0.490439       -13.3455
  24   2.0000      -0.442989       -12.0543
  25   2.0000      -0.374937       -10.2026
  26   0.0000       0.019023         0.5176
  27   0.0000       0.028964         0.7882
  28   0.0000       0.030143         0.8202
  29   0.0000       0.037003         1.0069
  30   0.0000       0.045826         1.2470

MULLIKEN ATOMIC CHARGES
-----------------------
   0 H :    0.346842
   1 H :    0.293628
   2 C :   -0.471711
   3 H :    0.346854
   4 H :    0.293593
   5 C :   -0.471711
   6 H :    0.307118
   7 H :    0.256365
   8 C :   -0.494067
   9 H :    0.307039
  10 H :    0.256408
  11 C :   -0.494056
  12 N :   -0.585057
  13 C :    0.882576
  14 N :   -0.773822
Sum of atomic charges:   -0.0000000

LOEWDIN ATOMIC CHARGES
----------------------
   0 H :   -0.277441
   1 H :   -0.266713
   2 C :    0.386745
   3 H :   -0.277441
   4 H :   -0.266713
   5 C :    0.386745
   6 H :   -0.265433
   7 H :   -0.268816
   8 C :    0.564530
   9 H :   -0.265433
  10 H :   -0.268816
  11 C :    0.564530
  12 N :    0.378616
  13 C :   -0.513384
  14 N :    0.389023

  Mayer bond orders larger than 0.100000
B(  0-H ,  2-C ) :   0.8436 B(  1-H ,  2-C ) :   0.9111 B(  2-C , 11-C ) :   1.0539
B(  2-C , 12-N ) :   0.8300 B(  3-H ,  5-C ) :   0.8437 B(  4-H ,  5-C ) :   0.9111
B(  5-C ,  8-C ) :   1.0539 B(  5-C , 12-N ) :   0.8300 B(  6-H ,  8-C ) :   0.8649
B(  7-H ,  8-C ) :   0.9128 B(  8-C , 11-C ) :   1.0371 B(  9-H , 11-C ) :   0.8650
B( 10-H , 11-C ) :   0.9128 B( 12-N , 13-C ) :   1.3414 B( 12-N , 14-N ) :   0.1050
B( 13-C , 14-N ) :   2.4706

MP2 TOTAL ENERGY:     -304.300888488 Eh
FINAL SINGLE POINT ENERGY      -304.300888488404

DIPOLE MOMENT
-------------
                                X             Y             Z
Electronic contribution:      4.05601      -5.51136      -0.00000
Nuclear contribution   :     -5.77585       6.87936       0.00000
                        -----------------------------------------
Total Dipole Moment    :     -1.71984       1.36800      -0.00000
                        -----------------------------------------
Magnitude (a.u.)       :      2.19756
Magnitude (Debye)      :      5.58575

Rotational constants in cm-1:     0.176967     0.069423     0.060154
Rotational constants in MHz :  5305.351866  2081.253485  1803.369897

                             ****ORCA TERMINATED NORMALLY****
TOTAL RUN TIME: 0 days 0 hours 35 minutes 37 seconds 816 msec
