                         Program Version 5.0.4 -  RELEASE  -
|  1> !ri-mp2 aug-cc-pvqz aug-cc-pvqz/c tightscf
|  2> %pal nprocs 16 end
|  3> %maxcore 3800
|  4>
|  5> * xyz 0 1
|  6> C     -0.588673    0.514586   -0.092762
|  7> C      0.588673   -0.514586   -0.092763
|  8> C     -2.009338   -0.118245    0.074227
|  9> C      2.009338    0.118245    0.074228
| 10> F     -0.415550    1.394344    0.915469
| 11> F     -0.572838    1.184057   -1.260942
| 12> F      0.415550   -1.394345    0.915467
| 13> F      0.572838   -1.184055   -1.260944
| 14> F     -2.925528    0.830845   -0.129852
| 15> F      2.925528   -0.830845   -0.129853
| 16> F     -2.197432   -1.096346   -0.814973
| 17> F     -2.171696   -0.609091    1.302656
| 18> F      2.197432    1.096347   -0.814971
| 19> F      2.171696    0.609089    1.302657
| 20> *
| 21>
| 22>                          ****END OF INPUT****

CARTESIAN COORDINATES (ANGSTROEM)
---------------------------------
  C     -0.588673    0.514586   -0.092762
  C      0.588673   -0.514586   -0.092763
  C     -2.009338   -0.118245    0.074227
  C      2.009338    0.118245    0.074228
  F     -0.415550    1.394344    0.915469
  F     -0.572838    1.184057   -1.260942
  F      0.415550   -1.394345    0.915467
  F      0.572838   -1.184055   -1.260944
  F     -2.925528    0.830845   -0.129852
  F      2.925528   -0.830845   -0.129853
  F     -2.197432   -1.096346   -0.814973
  F     -2.171696   -0.609091    1.302656
  F      2.197432    1.096347   -0.814971
  F      2.171696    0.609089    1.302657

 Total Charge           Charge          ....    0
 Multiplicity           Mult            ....    1
 Number of Electrons    NEL             ....  114
 Basis Dimension        Dim             .... 1120

ORBITAL ENERGIES
----------------

  NO   OCC          E(Eh)            E(eV)
   0   2.0000     -26.378145      -717.7858
   1   2.0000     -26.378145      -717.7858
   2   2.0000     -26.377924      -717.7798
   3   2.0000     -26.377924      -717.7798
   4   2.0000     -26.376409      -717.7386
   5   2.0000     -26.376408      -717.7386
   6   2.0000     -26.376043      -717.7286
   7   2.0000     -26.376040      -717.7285
   8   2.0000     -26.375011      -717.7005
   9   2.0000     -26.375010      -717.7005
  10   2.0000     -11.559971      -314.5628
  11   2.0000     -11.559970      -314.5628
  12   2.0000     -11.503713      -313.0319
  13   2.0000     -11.503165      -313.0170
  14   2.0000      -1.776883       -48.3515
  15   2.0000      -1.772595       -48.2348
  16   2.0000      -1.738406       -47.3044
  17   2.0000      -1.726657       -46.9847
  18   2.0000      -1.683411       -45.8079
  19   2.0000      -1.677603       -45.6499
  20   2.0000      -1.675134       -45.5827
  21   2.0000      -1.674257       -45.5588
  22   2.0000      -1.669521       -45.4300
  23   2.0000      -1.666036       -45.3351
  24   2.0000      -1.141353       -31.0578
  25   2.0000      -1.078954       -29.3598
  26   2.0000      -0.995402       -27.0863
  27   2.0000      -0.951714       -25.8974
  28   2.0000      -0.897265       -24.4158
  29   2.0000      -0.896742       -24.4016
  30   2.0000      -0.875231       -23.8163
  31   2.0000      -0.868824       -23.6419
  32   2.0000      -0.868548       -23.6344
  33   2.0000      -0.861607       -23.4455
  34   2.0000      -0.846065       -23.0226
  35   2.0000      -0.837080       -22.7781
  36   2.0000      -0.808274       -21.9943
  37   2.0000      -0.766582       -20.8597
  38   2.0000      -0.762563       -20.7504
  39   2.0000      -0.754298       -20.5255
  40   2.0000      -0.752005       -20.4631
  41   2.0000      -0.749639       -20.3987
  42   2.0000      -0.743534       -20.2326
  43   2.0000      -0.739409       -20.1203
  44   2.0000      -0.732026       -19.9194
  45   2.0000      -0.728375       -19.8201
  46   2.0000      -0.711292       -19.3552
  47   2.0000      -0.704205       -19.1624
  48   2.0000      -0.699541       -19.0355
  49   2.0000      -0.697528       -18.9807
  50   2.0000      -0.695143       -18.9158
  51   2.0000      -0.690982       -18.8026
  52   2.0000      -0.687578       -18.7100
  53   2.0000      -0.684752       -18.6331
  54   2.0000      -0.655024       -17.8241
  55   2.0000      -0.626045       -17.0356
  56   2.0000      -0.557764       -15.1775
  57   0.0000       0.046928         1.2770
  58   0.0000       0.047093         1.2815
  59   0.0000       0.051043         1.3889
  60   0.0000       0.058385         1.5887
  61   0.0000       0.068401         1.8613

MULLIKEN ATOMIC CHARGES
-----------------------
   0 C :    1.312193
   1 C :    1.312194
   2 C :    1.946075
   3 C :    1.946075
   4 F :   -0.692362
   5 F :   -0.700392
   6 F :   -0.692362
   7 F :   -0.700392
   8 F :   -0.619676
   9 F :   -0.619676
  10 F :   -0.630886
  11 F :   -0.614952
  12 F :   -0.630886
  13 F :   -0.614952
Sum of atomic charges:    0.0000000

LOEWDIN ATOMIC CHARGES
----------------------
   0 C :   -1.696798
   1 C :   -1.696798
   2 C :   -2.238748
   3 C :   -2.238748
   4 F :    0.806538
   5 F :    0.806749
   6 F :    0.806538
   7 F :    0.806749
   8 F :    0.771172
   9 F :    0.771172
  10 F :    0.776568
  11 F :    0.774518
  12 F :    0.776568
  13 F :    0.774519

  Mayer bond orders larger than 0.100000
B(  0-C ,  1-C ) :   0.7498 B(  0-C ,  2-C ) :   0.9905 B(  0-C ,  4-F ) :   0.3252
B(  0-C ,  5-F ) :   0.3329 B(  1-C ,  3-C ) :   0.9905 B(  1-C ,  6-F ) :   0.3252
B(  1-C ,  7-F ) :   0.3329 B(  2-C ,  8-F ) :   0.4657 B(  2-C , 10-F ) :   0.4772
B(  2-C , 11-F ) :   0.4620 B(  3-C ,  9-F ) :   0.4657 B(  3-C , 12-F ) :   0.4772
B(  3-C , 13-F ) :   0.4620

MP2 TOTAL ENERGY:    -1149.813429596 Eh
FINAL SINGLE POINT ENERGY     -1149.813429595701

DIPOLE MOMENT
-------------
                                X             Y             Z
Electronic contribution:      0.00000       0.00000       0.03900
Nuclear contribution   :      0.00000      -0.00000      -0.02195
                        -----------------------------------------
Total Dipole Moment    :      0.00000       0.00000       0.01704
                        -----------------------------------------
Magnitude (a.u.)       :      0.01704
Magnitude (Debye)      :      0.04332

Rotational constants in cm-1:     0.041853     0.016940     0.016334
Rotational constants in MHz :  1254.721900   507.838845   489.688615

                             ****ORCA TERMINATED NORMALLY****
TOTAL RUN TIME: 0 days 0 hours 47 minutes 24 seconds 901 msec
