                         Program Version 5.0.4 -  RELEASE  -
|  1> !ri-mp2 aug-cc-pvqz aug-cc-pvqz/c tightscf
|  2> %pal nprocs 16 end
|  3>
|  4> * xyz 0 1
|  5> C      0.000000    0.000000    1.363040
|  6> C      0.000000    0.000000   -1.363040
|  7> C      0.000000    1.211776    0.695210
|  8> C      0.000000   -1.211776    0.695210
|  9> C      0.000000   -1.211776   -0.695210
| 10> C      0.000000    1.211776   -0.695210
| 11> F      0.000000    0.000000    2.715276
| 12> F      0.000000    0.000000   -2.715276
| 13> H      0.000000    2.134857    1.256229
| 14> H      0.000000   -2.134857    1.256229
| 15> H      0.000000   -2.134857   -1.256229
| 16> H      0.000000    2.134857   -1.256229
| 17> *
| 18>
| 19>                          ****END OF INPUT****

CARTESIAN COORDINATES (ANGSTROEM)
---------------------------------
  C      0.000000    0.000000    1.363040
  C      0.000000    0.000000   -1.363040
  C      0.000000    1.211776    0.695210
  C      0.000000   -1.211776    0.695210
  C      0.000000   -1.211776   -0.695210
  C      0.000000    1.211776   -0.695210
  F      0.000000    0.000000    2.715276
  F      0.000000    0.000000   -2.715276
  H      0.000000    2.134857    1.256229
  H      0.000000   -2.134857    1.256229
  H      0.000000   -2.134857   -1.256229
  H      0.000000    2.134857   -1.256229

 Total Charge           Charge          ....    0
 Multiplicity           Mult            ....    1
 Number of Electrons    NEL             ....   58
 Basis Dimension        Dim             ....  824

ORBITAL ENERGIES
----------------

  NO   OCC          E(Eh)            E(eV)
   0   2.0000     -26.311252      -715.9656
   1   2.0000     -26.311252      -715.9656
   2   2.0000     -11.334609      -308.4304
   3   2.0000     -11.334588      -308.4298
   4   2.0000     -11.260558      -306.4154
   5   2.0000     -11.260515      -306.4142
   6   2.0000     -11.259299      -306.3811
   7   2.0000     -11.259291      -306.3809
   8   2.0000      -1.629056       -44.3289
   9   2.0000      -1.628860       -44.3235
  10   2.0000      -1.182201       -32.1693
  11   2.0000      -1.052592       -28.6425
  12   2.0000      -1.032851       -28.1053
  13   2.0000      -0.884514       -24.0688
  14   2.0000      -0.857009       -23.3204
  15   2.0000      -0.758637       -20.6436
  16   2.0000      -0.747977       -20.3535
  17   2.0000      -0.739379       -20.1195
  18   2.0000      -0.701423       -19.0867
  19   2.0000      -0.696471       -18.9519
  20   2.0000      -0.666677       -18.1412
  21   2.0000      -0.643918       -17.5219
  22   2.0000      -0.623237       -16.9591
  23   2.0000      -0.596780       -16.2392
  24   2.0000      -0.588932       -16.0256
  25   2.0000      -0.523896       -14.2559
  26   2.0000      -0.520173       -14.1546
  27   2.0000      -0.369008       -10.0412
  28   2.0000      -0.346820        -9.4374
  29   0.0000       0.025927         0.7055
  30   0.0000       0.027413         0.7460
  31   0.0000       0.034621         0.9421
  32   0.0000       0.042528         1.1573
  33   0.0000       0.062116         1.6903

MULLIKEN ATOMIC CHARGES
-----------------------
   0 C :    0.907217
   1 C :    0.907216
   2 C :   -0.454953
   3 C :   -0.454951
   4 C :   -0.454950
   5 C :   -0.454957
   6 F :   -0.751679
   7 F :   -0.751679
   8 H :    0.377187
   9 H :    0.377181
  10 H :    0.377182
  11 H :    0.377187
Sum of atomic charges:    0.0000000

LOEWDIN ATOMIC CHARGES
----------------------
   0 C :   -0.688283
   1 C :   -0.688283
   2 C :    0.290403
   3 C :    0.290403
   4 C :    0.290403
   5 C :    0.290403
   6 F :    0.764980
   7 F :    0.764980
   8 H :   -0.328751
   9 H :   -0.328751
  10 H :   -0.328751
  11 H :   -0.328751

  Mayer bond orders larger than 0.100000
B(  0-C ,  1-C ) :   0.1481 B(  0-C ,  2-C ) :   1.3208 B(  0-C ,  3-C ) :   1.3208
B(  1-C ,  4-C ) :   1.3208 B(  1-C ,  5-C ) :   1.3208 B(  2-C ,  5-C ) :   1.2781
B(  2-C ,  6-F ) :   0.1078 B(  2-C ,  8-H ) :   0.8884 B(  3-C ,  4-C ) :   1.2781
B(  3-C ,  6-F ) :   0.1078 B(  3-C ,  9-H ) :   0.8884 B(  4-C ,  7-F ) :   0.1078
B(  4-C , 10-H ) :   0.8884 B(  5-C ,  7-F ) :   0.1078 B(  5-C , 11-H ) :   0.8884

MP2 TOTAL ENERGY:     -430.137209658 Eh
FINAL SINGLE POINT ENERGY      -430.137209657591

DIPOLE MOMENT
-------------
                                X             Y             Z
Electronic contribution:      0.00000       0.00000      -0.00000
Nuclear contribution   :      0.00000       0.00000       0.00000
                        -----------------------------------------
Total Dipole Moment    :      0.00000       0.00000      -0.00000
                        -----------------------------------------
Magnitude (a.u.)       :      0.00000
Magnitude (Debye)      :      0.00000

Rotational constants in cm-1:     0.189573     0.047574     0.038030
Rotational constants in MHz :  5683.263867  1426.226085  1140.112614

                             ****ORCA TERMINATED NORMALLY****
TOTAL RUN TIME: 0 days 0 hours 25 minutes 29 seconds 111 msec
