                         Program Version 5.0.4 -  RELEASE  -
|  1> !ri-mp2 aug-cc-pvqz aug-cc-pvqz/c tightscf
|  2> %pal nprocs 16 end
|  3> %maxcore 3800
|  4>
|  5> * xyz 0 1
|  6> C      0.000000    0.000000    0.338951
|  7> C     -0.058312    1.310999   -0.518663
|  8> C      0.058312   -1.310999   -0.518663
|  9> C      0.291389    2.615577    0.272146
| 10> C     -0.291389   -2.615577    0.272146
| 11> F      1.094395    0.038571    1.125903
| 12> F     -1.094395   -0.038571    1.125903
| 13> F      0.809009    1.215438   -1.547143
| 14> F     -1.303708    1.452288   -1.008386
| 15> F     -0.809009   -1.215438   -1.547143
| 16> F      1.303708   -1.452288   -1.008386
| 17> F      0.000000    3.669670   -0.493082
| 18> F      0.000000   -3.669670   -0.493082
| 19> F     -0.424553    2.689340    1.397413
| 20> F      1.587918    2.657401    0.576655
| 21> F      0.424553   -2.689340    1.397413
| 22> F     -1.587918   -2.657401    0.576655
| 23> *
| 24>
| 25>                          ****END OF INPUT****

CARTESIAN COORDINATES (ANGSTROEM)
---------------------------------
  C      0.000000    0.000000    0.338951
  C     -0.058312    1.310999   -0.518663
  C      0.058312   -1.310999   -0.518663
  C      0.291389    2.615577    0.272146
  C     -0.291389   -2.615577    0.272146
  F      1.094395    0.038571    1.125903
  F     -1.094395   -0.038571    1.125903
  F      0.809009    1.215438   -1.547143
  F     -1.303708    1.452288   -1.008386
  F     -0.809009   -1.215438   -1.547143
  F      1.303708   -1.452288   -1.008386
  F      0.000000    3.669670   -0.493082
  F      0.000000   -3.669670   -0.493082
  F     -0.424553    2.689340    1.397413
  F      1.587918    2.657401    0.576655
  F      0.424553   -2.689340    1.397413
  F     -1.587918   -2.657401    0.576655

 Total Charge           Charge          ....    0
 Multiplicity           Mult            ....    1
 Number of Electrons    NEL             ....  138
 Basis Dimension        Dim             .... 1360

ORBITAL ENERGIES
----------------

  NO   OCC          E(Eh)            E(eV)
   0   2.0000     -26.379391      -717.8197
   1   2.0000     -26.379373      -717.8192
   2   2.0000     -26.378019      -717.7824
   3   2.0000     -26.378019      -717.7824
   4   2.0000     -26.377944      -717.7803
   5   2.0000     -26.377942      -717.7803
   6   2.0000     -26.376289      -717.7353
   7   2.0000     -26.376289      -717.7353
   8   2.0000     -26.375674      -717.7186
   9   2.0000     -26.375674      -717.7186
  10   2.0000     -26.374926      -717.6982
  11   2.0000     -26.374926      -717.6982
  12   2.0000     -11.559851      -314.5595
  13   2.0000     -11.559851      -314.5595
  14   2.0000     -11.507007      -313.1216
  15   2.0000     -11.503678      -313.0310
  16   2.0000     -11.503622      -313.0295
  17   2.0000      -1.776054       -48.3289
  18   2.0000      -1.773927       -48.2710
  19   2.0000      -1.746717       -47.5306
  20   2.0000      -1.729110       -47.0515
  21   2.0000      -1.727491       -47.0074
  22   2.0000      -1.684282       -45.8317
  23   2.0000      -1.679332       -45.6970
  24   2.0000      -1.675173       -45.5838
  25   2.0000      -1.674644       -45.5694
  26   2.0000      -1.672855       -45.5207
  27   2.0000      -1.667223       -45.3674
  28   2.0000      -1.666688       -45.3529
  29   2.0000      -1.148345       -31.2481
  30   2.0000      -1.106352       -30.1054
  31   2.0000      -1.040128       -28.3033
  32   2.0000      -0.976050       -26.5597
  33   2.0000      -0.946111       -25.7450
  34   2.0000      -0.901939       -24.5430
  35   2.0000      -0.891908       -24.2700
  36   2.0000      -0.881543       -23.9880
  37   2.0000      -0.873719       -23.7751
  38   2.0000      -0.870965       -23.7002
  39   2.0000      -0.868628       -23.6366
  40   2.0000      -0.850749       -23.1501
  41   2.0000      -0.850057       -23.1312
  42   2.0000      -0.843345       -22.9486
  43   2.0000      -0.823518       -22.4091
  44   2.0000      -0.804600       -21.8943
  45   2.0000      -0.770385       -20.9632
  46   2.0000      -0.765750       -20.8371
  47   2.0000      -0.760503       -20.6943
  48   2.0000      -0.753839       -20.5130
  49   2.0000      -0.749464       -20.3940
  50   2.0000      -0.746052       -20.3011
  51   2.0000      -0.743439       -20.2300
  52   2.0000      -0.742021       -20.1914
  53   2.0000      -0.735249       -20.0071
  54   2.0000      -0.731732       -19.9114
  55   2.0000      -0.725448       -19.7404
  56   2.0000      -0.711344       -19.3567
  57   2.0000      -0.703970       -19.1560
  58   2.0000      -0.701365       -19.0851
  59   2.0000      -0.698624       -19.0105
  60   2.0000      -0.696021       -18.9397
  61   2.0000      -0.693813       -18.8796
  62   2.0000      -0.691034       -18.8040
  63   2.0000      -0.686023       -18.6676
  64   2.0000      -0.685740       -18.6599
  65   2.0000      -0.658573       -17.9207
  66   2.0000      -0.643718       -17.5165
  67   2.0000      -0.608803       -16.5664
  68   2.0000      -0.546780       -14.8786
  69   0.0000       0.045064         1.2263
  70   0.0000       0.045625         1.2415
  71   0.0000       0.048928         1.3314
  72   0.0000       0.055183         1.5016
  73   0.0000       0.065941         1.7943

MULLIKEN ATOMIC CHARGES
-----------------------
   0 C :    1.602830
   1 C :    1.278730
   2 C :    1.278730
   3 C :    1.954732
   4 C :    1.954732
   5 F :   -0.717920
   6 F :   -0.717920
   7 F :   -0.710913
   8 F :   -0.709064
   9 F :   -0.710913
  10 F :   -0.709064
  11 F :   -0.627882
  12 F :   -0.627882
  13 F :   -0.643662
  14 F :   -0.625437
  15 F :   -0.643662
  16 F :   -0.625437
Sum of atomic charges:   -0.0000000

LOEWDIN ATOMIC CHARGES
----------------------
   0 C :   -1.664760
   1 C :   -1.691884
   2 C :   -1.691884
   3 C :   -2.237926
   4 C :   -2.237926
   5 F :    0.817210
   6 F :    0.817210
   7 F :    0.811482
   8 F :    0.809676
   9 F :    0.811482
  10 F :    0.809676
  11 F :    0.771580
  12 F :    0.771580
  13 F :    0.777038
  14 F :    0.775204
  15 F :    0.777038
  16 F :    0.775204

  Mayer bond orders larger than 0.100000
B(  0-C ,  1-C ) :   0.7537 B(  0-C ,  2-C ) :   0.7537 B(  0-C ,  3-C ) :  -0.1259
B(  0-C ,  4-C ) :  -0.1259 B(  0-C ,  5-F ) :   0.2419 B(  0-C ,  6-F ) :   0.2419
B(  0-C ,  7-F ) :   0.1619 B(  0-C ,  9-F ) :   0.1619 B(  1-C ,  3-C ) :   1.0689
B(  1-C ,  5-F ) :   0.1142 B(  1-C ,  7-F ) :   0.2435 B(  1-C ,  8-F ) :   0.3041
B(  2-C ,  4-C ) :   1.0689 B(  2-C ,  6-F ) :   0.1142 B(  2-C ,  9-F ) :   0.2435
B(  2-C , 10-F ) :   0.3041 B(  3-C , 11-F ) :   0.4446 B(  3-C , 13-F ) :   0.4588
B(  3-C , 14-F ) :   0.4498 B(  4-C , 12-F ) :   0.4446 B(  4-C , 15-F ) :   0.4588
B(  4-C , 16-F ) :   0.4498

MP2 TOTAL ENERGY:    -1387.378052587 Eh
FINAL SINGLE POINT ENERGY     -1387.378052586974

DIPOLE MOMENT
-------------
                                X             Y             Z
Electronic contribution:     -0.00000       0.00000       0.13799
Nuclear contribution   :     -0.00000       0.00000      -0.09128
                        -----------------------------------------
Total Dipole Moment    :     -0.00000       0.00000       0.04671
                        -----------------------------------------
Magnitude (a.u.)       :      0.04671
Magnitude (Debye)      :      0.11872

Rotational constants in cm-1:     0.032764     0.010301     0.009982
Rotational constants in MHz :   982.236961   308.819943   299.244473

                             ****ORCA TERMINATED NORMALLY****
TOTAL RUN TIME: 0 days 1 hours 26 minutes 7 seconds 718 msec
