                         Program Version 5.0.4 -  RELEASE  -
|  1> !ri-mp2 aug-cc-pvqz aug-cc-pvqz/c tightscf
|  2> %pal nprocs 16 end
|  3>
|  4> * xyz 0 1
|  5> C     -0.006126    0.695514    1.193928
|  6> C      0.006126   -0.695514    1.193928
|  7> C     -0.005956    0.693932   -1.191741
|  8> C      0.005956   -0.693932   -1.191741
|  9> C     -0.010665    1.417282    0.002438
| 10> C      0.010665   -1.417282    0.002438
| 11> C      0.005956    2.923660   -0.002240
| 12> C     -0.005956   -2.923660   -0.002240
| 13> H     -0.011287    1.226083    2.138293
| 14> H      0.011287   -1.226083    2.138293
| 15> H     -0.010880    1.224834   -2.136140
| 16> H      0.010880   -1.224834   -2.136140
| 17> H     -0.642816    3.326662   -0.780885
| 18> H     -0.324391    3.327444    0.954402
| 19> H      1.012311    3.306699   -0.189982
| 20> H      0.642816   -3.326662   -0.780885
| 21> H      0.324391   -3.327444    0.954402
| 22> H     -1.012311   -3.306699   -0.189982
| 23> *
| 24>
| 25>                          ****END OF INPUT****

CARTESIAN COORDINATES (ANGSTROEM)
---------------------------------
  C     -0.006126    0.695514    1.193928
  C      0.006126   -0.695514    1.193928
  C     -0.005956    0.693932   -1.191741
  C      0.005956   -0.693932   -1.191741
  C     -0.010665    1.417282    0.002438
  C      0.010665   -1.417282    0.002438
  C      0.005956    2.923660   -0.002240
  C     -0.005956   -2.923660   -0.002240
  H     -0.011287    1.226083    2.138293
  H      0.011287   -1.226083    2.138293
  H     -0.010880    1.224834   -2.136140
  H      0.010880   -1.224834   -2.136140
  H     -0.642816    3.326662   -0.780885
  H     -0.324391    3.327444    0.954402
  H      1.012311    3.306699   -0.189982
  H      0.642816   -3.326662   -0.780885
  H      0.324391   -3.327444    0.954402
  H     -1.012311   -3.306699   -0.189982

 Total Charge           Charge          ....    0
 Multiplicity           Mult            ....    1
 Number of Electrons    NEL             ....   58
 Basis Dimension        Dim             .... 1100

ORBITAL ENERGIES
----------------

  NO   OCC          E(Eh)            E(eV)
   0   2.0000     -11.233096      -305.6681
   1   2.0000     -11.233086      -305.6678
   2   2.0000     -11.224955      -305.4466
   3   2.0000     -11.224568      -305.4360
   4   2.0000     -11.223692      -305.4122
   5   2.0000     -11.223338      -305.4026
   6   2.0000     -11.219375      -305.2947
   7   2.0000     -11.219375      -305.2947
   8   2.0000      -1.153502       -31.3884
   9   2.0000      -1.060158       -28.8484
  10   2.0000      -1.007818       -27.4241
  11   2.0000      -0.971886       -26.4464
  12   2.0000      -0.894128       -24.3305
  13   2.0000      -0.824932       -22.4475
  14   2.0000      -0.780945       -21.2506
  15   2.0000      -0.667315       -18.1586
  16   2.0000      -0.643449       -17.5091
  17   2.0000      -0.624561       -16.9952
  18   2.0000      -0.577318       -15.7096
  19   2.0000      -0.577271       -15.7084
  20   2.0000      -0.567740       -15.4490
  21   2.0000      -0.553921       -15.0730
  22   2.0000      -0.547815       -14.9068
  23   2.0000      -0.522728       -14.2241
  24   2.0000      -0.481159       -13.0930
  25   2.0000      -0.477683       -12.9984
  26   2.0000      -0.475414       -12.9367
  27   2.0000      -0.332267        -9.0414
  28   2.0000      -0.312548        -8.5049
  29   0.0000       0.026752         0.7280
  30   0.0000       0.027235         0.7411
  31   0.0000       0.030118         0.8195
  32   0.0000       0.039916         1.0862
  33   0.0000       0.040080         1.0906

MULLIKEN ATOMIC CHARGES
-----------------------
   0 C :   -0.374814
   1 C :   -0.374737
   2 C :   -0.320479
   3 C :   -0.320452
   4 C :    0.329751
   5 C :    0.329691
   6 C :   -0.795359
   7 C :   -0.795350
   8 H :    0.204234
   9 H :    0.204227
  10 H :    0.255615
  11 H :    0.255603
  12 H :    0.207797
  13 H :    0.217475
  14 H :    0.275760
  15 H :    0.207799
  16 H :    0.217473
  17 H :    0.275765
Sum of atomic charges:    0.0000000

LOEWDIN ATOMIC CHARGES
----------------------
   0 C :    0.348902
   1 C :    0.348902
   2 C :    0.346728
   3 C :    0.346728
   4 C :   -0.077522
   5 C :   -0.077522
   6 C :    0.903102
   7 C :    0.903102
   8 H :   -0.321700
   9 H :   -0.321700
  10 H :   -0.317992
  11 H :   -0.317992
  12 H :   -0.295107
  13 H :   -0.306236
  14 H :   -0.280174
  15 H :   -0.295107
  16 H :   -0.306236
  17 H :   -0.280174

  Mayer bond orders larger than 0.100000
B(  0-C ,  1-C ) :   1.3552 B(  0-C ,  3-C ) :   0.1688 B(  0-C ,  4-C ) :   1.0039
B(  0-C ,  5-C ) :  -0.1277 B(  0-C ,  8-H ) :   1.0949 B(  0-C ,  9-H ) :  -0.1445
B(  1-C ,  2-C ) :   0.1688 B(  1-C ,  4-C ) :  -0.1277 B(  1-C ,  5-C ) :   1.0039
B(  1-C ,  8-H ) :  -0.1445 B(  1-C ,  9-H ) :   1.0949 B(  2-C ,  3-C ) :   1.3485
B(  2-C ,  4-C ) :   0.9761 B(  2-C ,  5-C ) :  -0.1058 B(  2-C , 10-H ) :   1.0305
B(  2-C , 11-H ) :  -0.1283 B(  3-C ,  4-C ) :  -0.1058 B(  3-C ,  5-C ) :   0.9761
B(  3-C , 10-H ) :  -0.1283 B(  3-C , 11-H ) :   1.0305 B(  4-C ,  6-C ) :   0.7173
B(  4-C , 10-H ) :  -0.1001 B(  4-C , 12-H ) :  -0.1094 B(  4-C , 13-H ) :  -0.1152
B(  5-C ,  7-C ) :   0.7173 B(  5-C , 11-H ) :  -0.1001 B(  5-C , 15-H ) :  -0.1094
B(  5-C , 16-H ) :  -0.1152 B(  6-C , 12-H ) :   1.0482 B(  6-C , 13-H ) :   1.0465
B(  6-C , 14-H ) :   0.9566 B(  7-C , 15-H ) :   1.0481 B(  7-C , 16-H ) :   1.0465
B(  7-C , 17-H ) :   0.9566

MP2 TOTAL ENERGY:     -310.291048506 Eh
FINAL SINGLE POINT ENERGY      -310.291048505781

DIPOLE MOMENT
-------------
                                X             Y             Z
Electronic contribution:     -0.00000      -0.00000       0.01395
Nuclear contribution   :      0.00000       0.00000      -0.02937
                        -----------------------------------------
Total Dipole Moment    :     -0.00000      -0.00000      -0.01541
                        -----------------------------------------
Magnitude (a.u.)       :      0.01541
Magnitude (Debye)      :      0.03918

Rotational constants in cm-1:     0.181202     0.047806     0.038363
Rotational constants in MHz :  5432.305035  1433.202698  1150.103636

                             ****ORCA TERMINATED NORMALLY****
TOTAL RUN TIME: 0 days 0 hours 59 minutes 58 seconds 291 msec
