                         Program Version 5.0.4 -  RELEASE  -
|  1> !ri-mp2 aug-cc-pvqz aug-cc-pvqz/c tightscf
|  2> %pal nprocs 16 end
|  3>
|  4> * xyz 0 1
|  5> C     -0.903175    0.001036   -0.006994
|  6> C      0.005478    1.220666    0.132987
|  7> C      1.412127    0.693606   -0.180358
|  8> C      1.324994   -0.815730    0.127683
|  9> N     -0.088155   -1.094127   -0.072504
| 10> O     -2.116544   -0.011504   -0.038990
| 11> H     -0.330880    2.020914   -0.521866
| 12> H     -0.083303    1.580279    1.160742
| 13> H      1.635799    0.834612   -1.237813
| 14> H      2.197405    1.180877    0.393609
| 15> H      1.945173   -1.412323   -0.541075
| 16> H      1.632814   -1.032529    1.156074
| 17> H     -0.484123   -2.018367   -0.030135
| 18> *
| 19>
| 20>                          ****END OF INPUT****

CARTESIAN COORDINATES (ANGSTROEM)
---------------------------------
  C     -0.903175    0.001036   -0.006994
  C      0.005478    1.220666    0.132987
  C      1.412127    0.693606   -0.180358
  C      1.324994   -0.815730    0.127683
  N     -0.088155   -1.094127   -0.072504
  O     -2.116544   -0.011504   -0.038990
  H     -0.330880    2.020914   -0.521866
  H     -0.083303    1.580279    1.160742
  H      1.635799    0.834612   -1.237813
  H      2.197405    1.180877    0.393609
  H      1.945173   -1.412323   -0.541075
  H      1.632814   -1.032529    1.156074
  H     -0.484123   -2.018367   -0.030135

 Total Charge           Charge          ....    0
 Multiplicity           Mult            ....    1
 Number of Electrons    NEL             ....   46
 Basis Dimension        Dim             ....  802

ORBITAL ENERGIES
----------------

  NO   OCC          E(Eh)            E(eV)
   0   2.0000     -20.511496      -558.1462
   1   2.0000     -15.580575      -423.9690
   2   2.0000     -11.342746      -308.6518
   3   2.0000     -11.277587      -306.8787
   4   2.0000     -11.243255      -305.9445
   5   2.0000     -11.239364      -305.8386
   6   2.0000      -1.375478       -37.4286
   7   2.0000      -1.248998       -33.9870
   8   2.0000      -1.060384       -28.8545
   9   2.0000      -0.974760       -26.5246
  10   2.0000      -0.836613       -22.7654
  11   2.0000      -0.791581       -21.5400
  12   2.0000      -0.689716       -18.7681
  13   2.0000      -0.678168       -18.4539
  14   2.0000      -0.621808       -16.9203
  15   2.0000      -0.590217       -16.0606
  16   2.0000      -0.575358       -15.6563
  17   2.0000      -0.560584       -15.2543
  18   2.0000      -0.553282       -15.0556
  19   2.0000      -0.508462       -13.8359
  20   2.0000      -0.483488       -13.1564
  21   2.0000      -0.411911       -11.2087
  22   2.0000      -0.391387       -10.6502
  23   0.0000       0.020712         0.5636
  24   0.0000       0.029952         0.8150
  25   0.0000       0.031370         0.8536
  26   0.0000       0.037484         1.0200
  27   0.0000       0.049602         1.3497

MULLIKEN ATOMIC CHARGES
-----------------------
   0 C :    0.956833
   1 C :   -0.548489
   2 C :   -0.529232
   3 C :   -0.340019
   4 N :   -0.517385
   5 O :   -0.849954
   6 H :    0.306178
   7 H :    0.251513
   8 H :    0.259144
   9 H :    0.320659
  10 H :    0.342033
  11 H :    0.237982
  12 H :    0.110736
Sum of atomic charges:   -0.0000000

LOEWDIN ATOMIC CHARGES
----------------------
   0 C :   -0.839193
   1 C :    0.503242
   2 C :    0.523253
   3 C :    0.394677
   4 N :    0.845981
   5 O :    0.667464
   6 H :   -0.278438
   7 H :   -0.272882
   8 H :   -0.271262
   9 H :   -0.262991
  10 H :   -0.272156
  11 H :   -0.266479
  12 H :   -0.471216

  Mayer bond orders larger than 0.100000
B(  0-C ,  1-C ) :   1.1004 B(  0-C ,  4-N ) :   1.1469 B(  0-C ,  5-O ) :   1.1541
B(  1-C ,  2-C ) :   1.0344 B(  1-C ,  5-O ) :   0.1608 B(  1-C ,  6-H ) :   0.8752
B(  1-C ,  7-H ) :   0.8865 B(  2-C ,  3-C ) :   1.0261 B(  2-C ,  8-H ) :   0.8870
B(  2-C ,  9-H ) :   0.8700 B(  3-C ,  4-N ) :   0.7341 B(  3-C , 10-H ) :   0.8725
B(  3-C , 11-H ) :   0.9612 B(  4-N ,  5-O ) :   0.1978 B(  4-N , 12-H ) :   1.1178

MP2 TOTAL ENERGY:     -286.182828694 Eh
FINAL SINGLE POINT ENERGY      -286.182828693824

DIPOLE MOMENT
-------------
                                X             Y             Z
Electronic contribution:     -4.78322      -1.34856      -0.23542
Nuclear contribution   :      6.57686       1.16418       0.38421
                        -----------------------------------------
Total Dipole Moment    :      1.79363      -0.18438       0.14879
                        -----------------------------------------
Magnitude (a.u.)       :      1.80921
Magnitude (Debye)      :      4.59865

Rotational constants in cm-1:     0.240045     0.115131     0.082271
Rotational constants in MHz :  7196.363915  3451.549469  2466.409291

                             ****ORCA TERMINATED NORMALLY****
TOTAL RUN TIME: 0 days 0 hours 18 minutes 34 seconds 989 msec
