                         Program Version 5.0.4 -  RELEASE  -
|  1> !ri-mp2 aug-cc-pvqz aug-cc-pvqz/c tightscf
|  2> %pal nprocs 16 end
|  3>
|  4> * xyz 0 1
|  5> O      0.000000    1.083262   -3.015657
|  6> N      0.000000    0.000000   -2.452829
|  7> O      0.000000   -1.083262   -3.015657
|  8> C      0.000000    0.000000   -0.973083
|  9> C      0.000000   -1.215143   -0.304010
| 10> C      0.000000   -1.213700    1.080544
| 11> C      0.000000    0.000000    1.777046
| 12> C      0.000000    0.000000    3.207339
| 13> N      0.000000    0.000000    4.359138
| 14> C      0.000000    1.213700    1.080544
| 15> C      0.000000    1.215143   -0.304010
| 16> H      0.000000   -2.135421   -0.866311
| 17> H      0.000000   -2.145531    1.626371
| 18> H      0.000000    2.145531    1.626371
| 19> H      0.000000    2.135421   -0.866311
| 20> *
| 21>
| 22>                          ****END OF INPUT****

CARTESIAN COORDINATES (ANGSTROEM)
---------------------------------
  O      0.000000    1.083262   -3.015657
  N      0.000000    0.000000   -2.452829
  O      0.000000   -1.083262   -3.015657
  C      0.000000    0.000000   -0.973083
  C      0.000000   -1.215143   -0.304010
  C      0.000000   -1.213700    1.080544
  C      0.000000    0.000000    1.777046
  C      0.000000    0.000000    3.207339
  N      0.000000    0.000000    4.359138
  C      0.000000    1.213700    1.080544
  C      0.000000    1.215143   -0.304010
  H      0.000000   -2.135421   -0.866311
  H      0.000000   -2.145531    1.626371
  H      0.000000    2.145531    1.626371
  H      0.000000    2.135421   -0.866311

 Total Charge           Charge          ....    0
 Multiplicity           Mult            ....    1
 Number of Electrons    NEL             ....   76
 Basis Dimension        Dim             .... 1064

ORBITAL ENERGIES
----------------

  NO   OCC          E(Eh)            E(eV)
   0   2.0000     -20.620074      -561.1007
   1   2.0000     -20.620022      -561.0993
   2   2.0000     -15.872854      -431.9223
   3   2.0000     -15.596169      -424.3933
   4   2.0000     -11.339678      -308.5683
   5   2.0000     -11.325724      -308.1886
   6   2.0000     -11.299008      -307.4616
   7   2.0000     -11.298952      -307.4601
   8   2.0000     -11.297677      -307.4254
   9   2.0000     -11.297660      -307.4250
  10   2.0000     -11.297321      -307.4157
  11   2.0000      -1.627400       -44.2838
  12   2.0000      -1.421005       -38.6675
  13   2.0000      -1.253112       -34.0989
  14   2.0000      -1.226153       -33.3653
  15   2.0000      -1.129891       -30.7459
  16   2.0000      -1.084154       -29.5013
  17   2.0000      -1.004717       -27.3397
  18   2.0000      -0.899128       -24.4665
  19   2.0000      -0.876056       -23.8387
  20   2.0000      -0.807210       -21.9653
  21   2.0000      -0.788675       -21.4609
  22   2.0000      -0.750678       -20.4270
  23   2.0000      -0.740731       -20.1563
  24   2.0000      -0.695585       -18.9278
  25   2.0000      -0.679702       -18.4956
  26   2.0000      -0.654026       -17.7970
  27   2.0000      -0.626288       -17.0422
  28   2.0000      -0.585084       -15.9210
  29   2.0000      -0.577519       -15.7151
  30   2.0000      -0.565270       -15.3818
  31   2.0000      -0.516202       -14.0466
  32   2.0000      -0.515622       -14.0308
  33   2.0000      -0.511843       -13.9280
  34   2.0000      -0.492636       -13.4053
  35   2.0000      -0.473840       -12.8939
  36   2.0000      -0.397470       -10.8157
  37   2.0000      -0.395762       -10.7692
  38   0.0000       0.002999         0.0816
  39   0.0000       0.018925         0.5150
  40   0.0000       0.023382         0.6363
  41   0.0000       0.035812         0.9745
  42   0.0000       0.043172         1.1748

MULLIKEN ATOMIC CHARGES
-----------------------
   0 O :   -0.591340
   1 N :    0.748580
   2 O :   -0.591328
   3 C :   -0.059354
   4 C :   -0.215428
   5 C :   -0.091129
   6 C :   -0.013795
   7 C :    0.585927
   8 N :   -0.764052
   9 C :   -0.091415
  10 C :   -0.215317
  11 H :    0.350138
  12 H :    0.299236
  13 H :    0.299147
  14 H :    0.350129
Sum of atomic charges:   -0.0000000

LOEWDIN ATOMIC CHARGES
----------------------
   0 O :    0.550922
   1 N :   -0.827219
   2 O :    0.550922
   3 C :   -0.283363
   4 C :    0.339836
   5 C :    0.348654
   6 C :   -0.186679
   7 C :   -0.302117
   8 N :    0.428512
   9 C :    0.348654
  10 C :    0.339836
  11 H :   -0.345902
  12 H :   -0.308077
  13 H :   -0.308077
  14 H :   -0.345902

  Mayer bond orders larger than 0.100000
B(  0-O ,  1-N ) :   1.2142 B(  0-O ,  3-C ) :   0.2288 B(  1-N ,  2-O ) :   1.2143
B(  1-N ,  3-C ) :   0.7962 B(  1-N ,  4-C ) :  -0.1060 B(  1-N , 10-C ) :  -0.1062
B(  2-O ,  3-C ) :   0.2287 B(  3-C ,  4-C ) :   1.2133 B(  3-C ,  5-C ) :  -0.2237
B(  3-C ,  9-C ) :  -0.2237 B(  3-C , 10-C ) :   1.2134 B(  4-C ,  5-C ) :   1.2842
B(  4-C ,  6-C ) :  -0.1769 B(  4-C , 11-H ) :   0.8731 B(  4-C , 12-H ) :  -0.1261
B(  5-C ,  6-C ) :   0.9893 B(  5-C ,  7-C ) :  -0.3405 B(  5-C , 12-H ) :   0.9883
B(  6-C ,  7-C ) :   1.4890 B(  6-C ,  9-C ) :   0.9896 B(  6-C , 10-C ) :  -0.1769
B(  7-C ,  8-N ) :   2.3164 B(  7-C ,  9-C ) :  -0.3402 B(  9-C , 10-C ) :   1.2840
B(  9-C , 13-H ) :   0.9884 B( 10-C , 13-H ) :  -0.1262 B( 10-C , 14-H ) :   0.8731

MP2 TOTAL ENERGY:     -528.211887159 Eh
FINAL SINGLE POINT ENERGY      -528.211887159222

DIPOLE MOMENT
-------------
                                X             Y             Z
Electronic contribution:      0.00000      -0.00000      -1.28207
Nuclear contribution   :      0.00000      -0.00000       1.38399
                        -----------------------------------------
Total Dipole Moment    :      0.00000      -0.00000       0.10193
                        -----------------------------------------
Magnitude (a.u.)       :      0.10193
Magnitude (Debye)      :      0.25907

Rotational constants in cm-1:     0.132865     0.019800     0.017232
Rotational constants in MHz :  3983.199093   593.594327   516.607189

                             ****ORCA TERMINATED NORMALLY****
TOTAL RUN TIME: 0 days 1 hours 3 minutes 56 seconds 372 msec
