                         Program Version 5.0.4 -  RELEASE  -
|  1> !ri-mp2 aug-cc-pvqz aug-cc-pvqz/c tightscf
|  2> %pal nprocs 16 end
|  3>
|  4> * xyz 0 1
|  5> C      0.000000    0.000000    2.029610
|  6> C      0.000000    1.200354   -0.112893
|  7> C      0.000000   -1.200354   -0.112893
|  8> C      0.000000    1.140883   -1.499716
|  9> C      0.000000   -1.140883   -1.499716
| 10> C      0.000000    0.000000    0.598544
| 11> N      0.000000    0.000000    3.181206
| 12> N      0.000000    0.000000   -2.189569
| 13> H      0.000000    2.149584    0.402220
| 14> H      0.000000   -2.149584    0.402220
| 15> H      0.000000    2.054587   -2.081755
| 16> H      0.000000   -2.054587   -2.081755
| 17> *
| 18>
| 19>                          ****END OF INPUT****

CARTESIAN COORDINATES (ANGSTROEM)
---------------------------------
  C      0.000000    0.000000    2.029610
  C      0.000000    1.200354   -0.112893
  C      0.000000   -1.200354   -0.112893
  C      0.000000    1.140883   -1.499716
  C      0.000000   -1.140883   -1.499716
  C      0.000000    0.000000    0.598544
  N      0.000000    0.000000    3.181206
  N      0.000000    0.000000   -2.189569
  H      0.000000    2.149584    0.402220
  H      0.000000   -2.149584    0.402220
  H      0.000000    2.054587   -2.081755
  H      0.000000   -2.054587   -2.081755

 Total Charge           Charge          ....    0
 Multiplicity           Mult            ....    1
 Number of Electrons    NEL             ....   54
 Basis Dimension        Dim             ....  824

ORBITAL ENERGIES
----------------

  NO   OCC          E(Eh)            E(eV)
   0   2.0000     -15.594053      -424.3358
   1   2.0000     -15.589207      -424.2039
   2   2.0000     -11.315777      -307.9180
   3   2.0000     -11.300522      -307.5028
   4   2.0000     -11.300505      -307.5024
   5   2.0000     -11.290316      -307.2251
   6   2.0000     -11.277080      -306.8649
   7   2.0000     -11.277049      -306.8641
   8   2.0000      -1.290755       -35.1232
   9   2.0000      -1.240374       -33.7523
  10   2.0000      -1.137279       -30.9469
  11   2.0000      -1.067063       -29.0363
  12   2.0000      -0.929353       -25.2890
  13   2.0000      -0.892145       -24.2765
  14   2.0000      -0.787932       -21.4407
  15   2.0000      -0.704121       -19.1601
  16   2.0000      -0.692107       -18.8332
  17   2.0000      -0.652643       -17.7593
  18   2.0000      -0.629992       -17.1430
  19   2.0000      -0.584615       -15.9082
  20   2.0000      -0.574563       -15.6346
  21   2.0000      -0.559302       -15.2194
  22   2.0000      -0.513884       -13.9835
  23   2.0000      -0.485272       -13.2049
  24   2.0000      -0.449080       -12.2201
  25   2.0000      -0.401521       -10.9259
  26   2.0000      -0.377482       -10.2718
  27   0.0000       0.021199         0.5768
  28   0.0000       0.025113         0.6834
  29   0.0000       0.034804         0.9471
  30   0.0000       0.039595         1.0774
  31   0.0000       0.042191         1.1481

MULLIKEN ATOMIC CHARGES
-----------------------
   0 C :    0.551672
   1 C :   -0.256488
   2 C :   -0.256479
   3 C :   -0.215283
   4 C :   -0.215299
   5 C :    0.130933
   6 N :   -0.743729
   7 N :   -0.605148
   8 H :    0.334610
   9 H :    0.334608
  10 H :    0.470302
  11 H :    0.470303
Sum of atomic charges:   -0.0000000

LOEWDIN ATOMIC CHARGES
----------------------
   0 C :   -0.303681
   1 C :    0.317049
   2 C :    0.317049
   3 C :    0.093096
   4 C :    0.093096
   5 C :   -0.217671
   6 N :    0.423866
   7 N :    0.604331
   8 H :   -0.317116
   9 H :   -0.317116
  10 H :   -0.346452
  11 H :   -0.346452

  Mayer bond orders larger than 0.100000
B(  0-C ,  1-C ) :  -0.2442 B(  0-C ,  2-C ) :  -0.2442 B(  0-C ,  5-C ) :   1.3328
B(  0-C ,  6-N ) :   2.3529 B(  1-C ,  3-C ) :   1.2404 B(  1-C ,  4-C ) :   0.1023
B(  1-C ,  5-C ) :   1.1143 B(  1-C ,  8-H ) :   0.9349 B(  1-C , 10-H ) :  -0.1021
B(  2-C ,  3-C ) :   0.1023 B(  2-C ,  4-C ) :   1.2404 B(  2-C ,  5-C ) :   1.1143
B(  2-C ,  9-H ) :   0.9350 B(  2-C , 11-H ) :  -0.1021 B(  3-C ,  5-C ) :  -0.2522
B(  3-C ,  7-N ) :   1.2062 B(  3-C , 10-H ) :   0.8945 B(  4-C ,  5-C ) :  -0.2522
B(  4-C ,  7-N ) :   1.2062 B(  4-C , 11-H ) :   0.8945 B(  7-N , 10-H ) :  -0.1081
B(  7-N , 11-H ) :  -0.1082

MP2 TOTAL ENERGY:     -339.956038101 Eh
FINAL SINGLE POINT ENERGY      -339.956038101302

DIPOLE MOMENT
-------------
                                X             Y             Z
Electronic contribution:     -0.00000      -0.00000       2.36169
Nuclear contribution   :      0.00000       0.00000      -3.26641
                        -----------------------------------------
Total Dipole Moment    :     -0.00000      -0.00000      -0.90472
                        -----------------------------------------
Magnitude (a.u.)       :      0.90472
Magnitude (Debye)      :      2.29962

Rotational constants in cm-1:     0.201393     0.051714     0.041148
Rotational constants in MHz :  6037.624867  1550.358396  1233.592917

                             ****ORCA TERMINATED NORMALLY****
TOTAL RUN TIME: 0 days 0 hours 24 minutes 30 seconds 543 msec
