                         Program Version 5.0.4 -  RELEASE  -
|  1> !ri-mp2 aug-cc-pvqz aug-cc-pvqz/c tightscf
|  2> %pal nprocs 16 end
|  3>
|  4> * xyz 0 1
|  5> C     -0.000845   -1.808309    0.000000
|  6> C      0.002500   -1.071896    1.177316
|  7> C      0.002500   -1.071896   -1.177316
|  8> C     -0.003688    0.863909    0.000000
|  9> N      0.002500    0.255572    1.197627
| 10> N      0.002500    0.255572   -1.197627
| 11> N     -0.041543    2.223054    0.000000
| 12> H     -0.000837   -2.887318    0.000000
| 13> H      0.007769   -1.564229    2.143784
| 14> H      0.007769   -1.564229   -2.143784
| 15> H      0.119153    2.702771   -0.866351
| 16> H      0.119153    2.702771    0.866351
| 17> *
| 18>
| 19>                          ****END OF INPUT****

CARTESIAN COORDINATES (ANGSTROEM)
---------------------------------
  C     -0.000845   -1.808309    0.000000
  C      0.002500   -1.071896    1.177316
  C      0.002500   -1.071896   -1.177316
  C     -0.003688    0.863909    0.000000
  N      0.002500    0.255572    1.197627
  N      0.002500    0.255572   -1.197627
  N     -0.041543    2.223054    0.000000
  H     -0.000837   -2.887318    0.000000
  H      0.007769   -1.564229    2.143784
  H      0.007769   -1.564229   -2.143784
  H      0.119153    2.702771   -0.866351
  H      0.119153    2.702771    0.866351

 Total Charge           Charge          ....    0
 Multiplicity           Mult            ....    1
 Number of Electrons    NEL             ....   50
 Basis Dimension        Dim             ....  790

ORBITAL ENERGIES
----------------

  NO   OCC          E(Eh)            E(eV)
   0   2.0000     -15.572150      -423.7398
   1   2.0000     -15.554630      -423.2630
   2   2.0000     -15.554607      -423.2624
   3   2.0000     -11.349600      -308.8383
   4   2.0000     -11.293026      -307.2989
   5   2.0000     -11.293018      -307.2986
   6   2.0000     -11.225581      -305.4636
   7   2.0000      -1.327007       -36.1097
   8   2.0000      -1.204780       -32.7837
   9   2.0000      -1.190605       -32.3980
  10   2.0000      -1.044526       -28.4230
  11   2.0000      -0.894763       -24.3477
  12   2.0000      -0.869232       -23.6530
  13   2.0000      -0.739685       -20.1278
  14   2.0000      -0.732363       -19.9286
  15   2.0000      -0.657716       -17.8974
  16   2.0000      -0.652586       -17.7578
  17   2.0000      -0.598884       -16.2965
  18   2.0000      -0.592634       -16.1264
  19   2.0000      -0.582140       -15.8408
  20   2.0000      -0.482372       -13.1260
  21   2.0000      -0.467306       -12.7160
  22   2.0000      -0.424432       -11.5494
  23   2.0000      -0.404019       -10.9939
  24   2.0000      -0.328521        -8.9395
  25   0.0000       0.024710         0.6724
  26   0.0000       0.028875         0.7857
  27   0.0000       0.031842         0.8665
  28   0.0000       0.044246         1.2040
  29   0.0000       0.048542         1.3209

MULLIKEN ATOMIC CHARGES
-----------------------
   0 C :   -0.320116
   1 C :   -0.262443
   2 C :   -0.262443
   3 C :    0.723505
   4 N :   -0.505320
   5 N :   -0.505320
   6 N :   -0.758923
   7 H :    0.395793
   8 H :    0.475235
   9 H :    0.475235
  10 H :    0.272397
  11 H :    0.272397
Sum of atomic charges:    0.0000000

LOEWDIN ATOMIC CHARGES
----------------------
   0 C :    0.320379
   1 C :    0.052654
   2 C :    0.052654
   3 C :   -0.783894
   4 N :    0.590156
   5 N :    0.590156
   6 N :    1.223089
   7 H :   -0.345412
   8 H :   -0.342180
   9 H :   -0.342180
  10 H :   -0.507711
  11 H :   -0.507711

  Mayer bond orders larger than 0.100000
B(  0-C ,  1-C ) :   1.2033 B(  0-C ,  2-C ) :   1.2033 B(  0-C ,  7-H ) :   0.9077
B(  1-C ,  4-N ) :   1.2422 B(  1-C ,  8-H ) :   0.8861 B(  2-C ,  5-N ) :   1.2422
B(  2-C ,  9-H ) :   0.8861 B(  3-C ,  4-N ) :   1.3235 B(  3-C ,  5-N ) :   1.3235
B(  3-C ,  6-N ) :   1.1555 B(  6-N , 10-H ) :   0.9267 B(  6-N , 11-H ) :   0.9267

MP2 TOTAL ENERGY:     -319.188288316 Eh
FINAL SINGLE POINT ENERGY      -319.188288315597

DIPOLE MOMENT
-------------
                                X             Y             Z
Electronic contribution:     -0.05649       0.39676       0.00000
Nuclear contribution   :      0.24960      -0.58668       0.00000
                        -----------------------------------------
Total Dipole Moment    :      0.19311      -0.18992       0.00000
                        -----------------------------------------
Magnitude (a.u.)       :      0.27085
Magnitude (Debye)      :      0.68846

Rotational constants in cm-1:     0.199960     0.096327     0.065035
Rotational constants in MHz :  5994.655970  2887.811864  1949.691987

                             ****ORCA TERMINATED NORMALLY****
TOTAL RUN TIME: 0 days 0 hours 17 minutes 1 seconds 516 msec
