                         Program Version 5.0.4 -  RELEASE  -
|  1> !ri-mp2 aug-cc-pvqz aug-cc-pvqz/c tightscf
|  2> %pal nprocs 16 end
|  3>
|  4> * xyz 0 1
|  5> C     -0.002527   -1.360148    1.209015
|  6> C     -0.002527   -1.360148   -1.209015
|  7> C     -0.002527    0.019496    1.209747
|  8> C     -0.002527    0.019496   -1.209747
|  9> C     -0.001512   -2.076412    0.000000
| 10> C     -0.002390    0.706727    0.000000
| 11> N     -0.043718   -3.450313    0.000000
| 12> N     -0.000096    2.164119    0.000000
| 13> O      0.000905    2.738949    1.083563
| 14> O      0.000905    2.738949   -1.083563
| 15> H     -0.005983   -1.897716    2.148203
| 16> H     -0.005983   -1.897716   -2.148203
| 17> H     -0.001593    0.575824    2.134036
| 18> H     -0.001593    0.575824   -2.134036
| 19> H      0.195712   -3.935056    0.846913
| 20> H      0.195712   -3.935056   -0.846913
| 21> *
| 22>
| 23>                          ****END OF INPUT****

CARTESIAN COORDINATES (ANGSTROEM)
---------------------------------
  C     -0.002527   -1.360148    1.209015
  C     -0.002527   -1.360148   -1.209015
  C     -0.002527    0.019496    1.209747
  C     -0.002527    0.019496   -1.209747
  C     -0.001512   -2.076412    0.000000
  C     -0.002390    0.706727    0.000000
  N     -0.043718   -3.450313    0.000000
  N     -0.000096    2.164119    0.000000
  O      0.000905    2.738949    1.083563
  O      0.000905    2.738949   -1.083563
  H     -0.005983   -1.897716    2.148203
  H     -0.005983   -1.897716   -2.148203
  H     -0.001593    0.575824    2.134036
  H     -0.001593    0.575824   -2.134036
  H      0.195712   -3.935056    0.846913
  H      0.195712   -3.935056   -0.846913

 Total Charge           Charge          ....    0
 Multiplicity           Mult            ....    1
 Number of Electrons    NEL             ....   72
 Basis Dimension        Dim             .... 1076

ORBITAL ENERGIES
----------------

  NO   OCC          E(Eh)            E(eV)
   0   2.0000     -20.585657      -560.1642
   1   2.0000     -20.585606      -560.1628
   2   2.0000     -15.840863      -431.0518
   3   2.0000     -15.596071      -424.3907
   4   2.0000     -11.319888      -308.0298
   5   2.0000     -11.287885      -307.1590
   6   2.0000     -11.272308      -306.7351
   7   2.0000     -11.272243      -306.7333
   8   2.0000     -11.250441      -306.1401
   9   2.0000     -11.250424      -306.1396
  10   2.0000      -1.590907       -43.2908
  11   2.0000      -1.383369       -37.6434
  12   2.0000      -1.262722       -34.3604
  13   2.0000      -1.178950       -32.0809
  14   2.0000      -1.067654       -29.0523
  15   2.0000      -1.050273       -28.5794
  16   2.0000      -0.941291       -25.6138
  17   2.0000      -0.871346       -23.7105
  18   2.0000      -0.823440       -22.4069
  19   2.0000      -0.772335       -21.0163
  20   2.0000      -0.735890       -20.0246
  21   2.0000      -0.729272       -19.8445
  22   2.0000      -0.707563       -19.2538
  23   2.0000      -0.706004       -19.2113
  24   2.0000      -0.645109       -17.5543
  25   2.0000      -0.630193       -17.1484
  26   2.0000      -0.618727       -16.8364
  27   2.0000      -0.591932       -16.1073
  28   2.0000      -0.565765       -15.3952
  29   2.0000      -0.523297       -14.2396
  30   2.0000      -0.486357       -13.2344
  31   2.0000      -0.482167       -13.1204
  32   2.0000      -0.481407       -13.0998
  33   2.0000      -0.444673       -12.1002
  34   2.0000      -0.371623       -10.1124
  35   2.0000      -0.327763        -8.9189
  36   0.0000       0.012507         0.3403
  37   0.0000       0.023029         0.6266
  38   0.0000       0.032521         0.8849
  39   0.0000       0.042448         1.1551
  40   0.0000       0.046378         1.2620

MULLIKEN ATOMIC CHARGES
-----------------------
   0 C :   -0.236495
   1 C :   -0.236433
   2 C :   -0.203231
   3 C :   -0.203274
   4 C :    0.653040
   5 C :   -0.176938
   6 N :   -0.807075
   7 N :    0.784374
   8 O :   -0.622721
   9 O :   -0.622715
  10 H :    0.229194
  11 H :    0.229195
  12 H :    0.329554
  13 H :    0.329536
  14 H :    0.276990
  15 H :    0.276997
Sum of atomic charges:    0.0000000

LOEWDIN ATOMIC CHARGES
----------------------
   0 C :    0.363734
   1 C :    0.363734
   2 C :    0.317393
   3 C :    0.317393
   4 C :   -0.225656
   5 C :   -0.316246
   6 N :    1.282697
   7 N :   -0.849422
   8 O :    0.533090
   9 O :    0.533090
  10 H :   -0.321821
  11 H :   -0.321821
  12 H :   -0.346346
  13 H :   -0.346346
  14 H :   -0.491737
  15 H :   -0.491737

  Mayer bond orders larger than 0.100000
B(  0-C ,  2-C ) :   1.2884 B(  0-C ,  4-C ) :   1.1193 B(  0-C ,  5-C ) :  -0.2233
B(  0-C , 10-H ) :   1.0391 B(  0-C , 12-H ) :  -0.1270 B(  1-C ,  3-C ) :   1.2884
B(  1-C ,  4-C ) :   1.1192 B(  1-C ,  5-C ) :  -0.2233 B(  1-C , 11-H ) :   1.0391
B(  1-C , 13-H ) :  -0.1270 B(  2-C ,  4-C ) :  -0.1524 B(  2-C ,  5-C ) :   1.2156
B(  2-C , 10-H ) :  -0.1487 B(  2-C , 12-H ) :   0.9264 B(  3-C ,  4-C ) :  -0.1523
B(  3-C ,  5-C ) :   1.2154 B(  3-C , 11-H ) :  -0.1487 B(  3-C , 13-H ) :   0.9264
B(  4-C ,  6-N ) :   0.7528 B(  4-C , 10-H ) :  -0.1127 B(  4-C , 11-H ) :  -0.1127
B(  5-C ,  7-N ) :   0.8222 B(  5-C ,  8-O ) :   0.3205 B(  5-C ,  9-O ) :   0.3204
B(  6-N , 14-H ) :   0.9438 B(  6-N , 15-H ) :   0.9438 B(  7-N ,  8-O ) :   1.1290
B(  7-N ,  9-O ) :   1.1290

MP2 TOTAL ENERGY:     -491.391200426 Eh
FINAL SINGLE POINT ENERGY      -491.391200425907

DIPOLE MOMENT
-------------
                                X             Y             Z
Electronic contribution:     -0.09386       7.35027      -0.00000
Nuclear contribution   :      0.36814     -10.21564       0.00000
                        -----------------------------------------
Total Dipole Moment    :      0.27427      -2.86537      -0.00000
                        -----------------------------------------
Magnitude (a.u.)       :      2.87847
Magnitude (Debye)      :      7.31648

Rotational constants in cm-1:     0.131833     0.027496     0.022757
Rotational constants in MHz :  3952.249093   824.304709   682.240605

                             ****ORCA TERMINATED NORMALLY****
TOTAL RUN TIME: 0 days 0 hours 59 minutes 23 seconds 324 msec
