                         Program Version 5.0.4 -  RELEASE  -
|  1> !ri-mp2 aug-cc-pvqz aug-cc-pvqz/c tightscf
|  2> %pal nprocs 16 end
|  3>
|  4> * xyz 0 1
|  5> C      0.968305   -1.191866   -0.005659
|  6> C      1.297498    1.177941   -0.005925
|  7> C     -0.412677   -1.004932   -0.001215
|  8> C     -0.072135    1.370804   -0.000176
|  9> C      1.845461   -0.110566   -0.007083
| 10> C     -0.943492    0.281050    0.001739
| 11> C     -3.203619   -0.496341    0.002648
| 12> N      3.234655   -0.299516   -0.075261
| 13> O     -2.281512    0.577362    0.007741
| 14> H      1.361714   -2.200914   -0.013324
| 15> H      1.955088    2.038508   -0.014741
| 16> H     -1.054456   -1.872710    0.000780
| 17> H     -0.487426    2.369078    0.002544
| 18> H     -3.093299   -1.125308    0.890843
| 19> H     -3.093184   -1.116539   -0.891616
| 20> H     -4.192458   -0.045145    0.004971
| 21> H      3.556642   -1.185853    0.280103
| 22> H      3.780840    0.460055    0.299362
| 23> *
| 24>
| 25>                          ****END OF INPUT****

CARTESIAN COORDINATES (ANGSTROEM)
---------------------------------
  C      0.968305   -1.191866   -0.005659
  C      1.297498    1.177941   -0.005925
  C     -0.412677   -1.004932   -0.001215
  C     -0.072135    1.370804   -0.000176
  C      1.845461   -0.110566   -0.007083
  C     -0.943492    0.281050    0.001739
  C     -3.203619   -0.496341    0.002648
  N      3.234655   -0.299516   -0.075261
  O     -2.281512    0.577362    0.007741
  H      1.361714   -2.200914   -0.013324
  H      1.955088    2.038508   -0.014741
  H     -1.054456   -1.872710    0.000780
  H     -0.487426    2.369078    0.002544
  H     -3.093299   -1.125308    0.890843
  H     -3.093184   -1.116539   -0.891616
  H     -4.192458   -0.045145    0.004971
  H      3.556642   -1.185853    0.280103
  H      3.780840    0.460055    0.299362

 Total Charge           Charge          ....    0
 Multiplicity           Mult            ....    1
 Number of Electrons    NEL             ....   66
 Basis Dimension        Dim             .... 1134

ORBITAL ENERGIES
----------------

  NO   OCC          E(Eh)            E(eV)
   0   2.0000     -20.572145      -559.7965
   1   2.0000     -15.557728      -423.3473
   2   2.0000     -11.283033      -307.0269
   3   2.0000     -11.277506      -306.8765
   4   2.0000     -11.266924      -306.5886
   5   2.0000     -11.228990      -305.5564
   6   2.0000     -11.226687      -305.4937
   7   2.0000     -11.225240      -305.4543
   8   2.0000     -11.225213      -305.4536
   9   2.0000      -1.397524       -38.0286
  10   2.0000      -1.217859       -33.1396
  11   2.0000      -1.124429       -30.5973
  12   2.0000      -1.016886       -27.6709
  13   2.0000      -0.994609       -27.0647
  14   2.0000      -0.928875       -25.2760
  15   2.0000      -0.838378       -22.8134
  16   2.0000      -0.800324       -21.7779
  17   2.0000      -0.715084       -19.4584
  18   2.0000      -0.694669       -18.9029
  19   2.0000      -0.676495       -18.4084
  20   2.0000      -0.648134       -17.6366
  21   2.0000      -0.629988       -17.1429
  22   2.0000      -0.616222       -16.7682
  23   2.0000      -0.585599       -15.9350
  24   2.0000      -0.566542       -15.4164
  25   2.0000      -0.551995       -15.0205
  26   2.0000      -0.532389       -14.4870
  27   2.0000      -0.512807       -13.9542
  28   2.0000      -0.496197       -13.5022
  29   2.0000      -0.476857       -12.9759
  30   2.0000      -0.425582       -11.5807
  31   2.0000      -0.339733        -9.2446
  32   2.0000      -0.277993        -7.5646
  33   0.0000       0.023208         0.6315
  34   0.0000       0.027003         0.7348
  35   0.0000       0.030153         0.8205
  36   0.0000       0.040801         1.1103
  37   0.0000       0.041906         1.1403

MULLIKEN ATOMIC CHARGES
-----------------------
   0 C :   -0.391194
   1 C :   -0.342223
   2 C :   -0.453298
   3 C :   -0.557092
   4 C :    0.542198
   5 C :    1.092459
   6 C :   -0.661850
   7 N :   -0.844197
   8 O :   -0.824027
   9 H :    0.220697
  10 H :    0.230584
  11 H :    0.196190
  12 H :    0.245950
  13 H :    0.242053
  14 H :    0.245468
  15 H :    0.503200
  16 H :    0.276844
  17 H :    0.278239
Sum of atomic charges:    0.0000000

LOEWDIN ATOMIC CHARGES
----------------------
   0 C :    0.339075
   1 C :    0.333638
   2 C :    0.320749
   3 C :    0.316908
   4 C :   -0.245383
   5 C :   -0.459044
   6 C :    0.564162
   7 N :    1.264723
   8 O :    0.864070
   9 H :   -0.322070
  10 H :   -0.322122
  11 H :   -0.358465
  12 H :   -0.326227
  13 H :   -0.308535
  14 H :   -0.308359
  15 H :   -0.321543
  16 H :   -0.515781
  17 H :   -0.515796

  Mayer bond orders larger than 0.100000
B(  0-C ,  2-C ) :   1.0448 B(  0-C ,  3-C ) :   0.1274 B(  0-C ,  4-C ) :   1.3023
B(  0-C ,  5-C ) :  -0.1624 B(  0-C ,  9-H ) :   1.0261 B(  0-C , 11-H ) :  -0.1489
B(  1-C ,  3-C ) :   1.3273 B(  1-C ,  4-C ) :   1.1959 B(  1-C ,  5-C ) :  -0.3021
B(  1-C , 10-H ) :   1.0464 B(  1-C , 12-H ) :  -0.1088 B(  2-C ,  4-C ) :  -0.2760
B(  2-C ,  5-C ) :   1.3519 B(  2-C ,  6-C ) :   0.1201 B(  2-C ,  8-O ) :   0.1442
B(  2-C ,  9-H ) :  -0.1633 B(  2-C , 11-H ) :   1.1271 B(  3-C ,  5-C ) :   1.0963
B(  3-C ,  8-O ) :   0.2676 B(  3-C , 10-H ) :  -0.1568 B(  3-C , 12-H ) :   1.0185
B(  4-C ,  7-N ) :   0.6998 B(  4-C ,  9-H ) :  -0.1038 B(  4-C , 10-H ) :  -0.1150
B(  5-C ,  6-C ) :  -0.1355 B(  6-C ,  8-O ) :   0.9340 B(  6-C , 13-H ) :   0.9277
B(  6-C , 14-H ) :   0.9230 B(  6-C , 15-H ) :   0.7430 B(  7-N , 16-H ) :   0.9247
B(  7-N , 17-H ) :   0.9288

MP2 TOTAL ENERGY:     -401.465404426 Eh
FINAL SINGLE POINT ENERGY      -401.465404426118

DIPOLE MOMENT
-------------
                                X             Y             Z
Electronic contribution:      1.47278       2.18685      -0.15898
Nuclear contribution   :     -1.29183      -2.68879       0.56222
                        -----------------------------------------
Total Dipole Moment    :      0.18095      -0.50194       0.40324
                        -----------------------------------------
Magnitude (a.u.)       :      0.66880
Magnitude (Debye)      :      1.69995

Rotational constants in cm-1:     0.163371     0.032959     0.027591
Rotational constants in MHz :  4897.743129   988.071284   827.157882

                             ****ORCA TERMINATED NORMALLY****
TOTAL RUN TIME: 0 days 1 hours 1 minutes 22 seconds 322 msec
