                         Program Version 5.0.4 -  RELEASE  -
|  1> !ri-mp2 aug-cc-pvqz aug-cc-pvqz/c tightscf
|  2> %pal nprocs 16 end
|  3>
|  4> * xyz 0 1
|  5> C      0.656988   -0.482689    0.000000
|  6> C      0.000000    0.643879    0.000000
|  7> C     -0.646073    1.774994    0.000000
|  8> O      0.112787   -1.745853    0.000000
|  9> H      1.737890   -0.517886    0.000000
| 10> H     -0.928536    2.272014    0.922836
| 11> H     -0.928536    2.272014   -0.922836
| 12> H     -0.848607   -1.676418    0.000000
| 13> *
| 14>
| 15>                          ****END OF INPUT****

CARTESIAN COORDINATES (ANGSTROEM)
---------------------------------
  C      0.656988   -0.482689    0.000000
  C      0.000000    0.643879    0.000000
  C     -0.646073    1.774994    0.000000
  O      0.112787   -1.745853    0.000000
  H      1.737890   -0.517886    0.000000
  H     -0.928536    2.272014    0.922836
  H     -0.928536    2.272014   -0.922836
  H     -0.848607   -1.676418    0.000000

 Total Charge           Charge          ....    0
 Multiplicity           Mult            ....    1
 Number of Electrons    NEL             ....   30
 Basis Dimension        Dim             ....  504

ORBITAL ENERGIES
----------------

  NO   OCC          E(Eh)            E(eV)
   0   2.0000     -20.589441      -560.2672
   1   2.0000     -11.303369      -307.5803
   2   2.0000     -11.248685      -306.0923
   3   2.0000     -11.243383      -305.9480
   4   2.0000      -1.398420       -38.0530
   5   2.0000      -1.068706       -29.0810
   6   2.0000      -0.951331       -25.8870
   7   2.0000      -0.788914       -21.4675
   8   2.0000      -0.673855       -18.3365
   9   2.0000      -0.649500       -17.6738
  10   2.0000      -0.617269       -16.7967
  11   2.0000      -0.573081       -15.5943
  12   2.0000      -0.567031       -15.4297
  13   2.0000      -0.391599       -10.6559
  14   2.0000      -0.351099        -9.5539
  15   0.0000       0.024525         0.6674
  16   0.0000       0.036244         0.9863
  17   0.0000       0.038733         1.0540
  18   0.0000       0.039636         1.0786
  19   0.0000       0.071178         1.9369

MULLIKEN ATOMIC CHARGES
-----------------------
   0 C :    0.120077
   1 C :   -0.377734
   2 C :   -0.568217
   3 O :   -0.729436
   4 H :    0.491943
   5 H :    0.353369
   6 H :    0.353369
   7 H :    0.356630
Sum of atomic charges:   -0.0000000

LOEWDIN ATOMIC CHARGES
----------------------
   0 C :   -0.056718
   1 C :    0.159666
   2 C :    0.696340
   3 O :    1.208832
   4 H :   -0.404710
   5 H :   -0.390754
   6 H :   -0.390754
   7 H :   -0.821903

  Mayer bond orders larger than 0.100000
B(  0-C ,  1-C ) :   2.0152 B(  0-C ,  3-O ) :   0.6956 B(  0-C ,  4-H ) :   0.7178
B(  1-C ,  2-C ) :   1.8992 B(  1-C ,  3-O ) :   0.1271 B(  2-C ,  5-H ) :   0.8741
B(  2-C ,  6-H ) :   0.8741 B(  3-O ,  7-H ) :   0.8638

MP2 TOTAL ENERGY:     -191.568721233 Eh
FINAL SINGLE POINT ENERGY      -191.568721233107

DIPOLE MOMENT
-------------
                                X             Y             Z
Electronic contribution:      0.58972      -1.94707      -0.00000
Nuclear contribution   :     -0.97080       2.33372       0.00000
                        -----------------------------------------
Total Dipole Moment    :     -0.38109       0.38666      -0.00000
                        -----------------------------------------
Magnitude (a.u.)       :      0.54289
Magnitude (Debye)      :      1.37992

Rotational constants in cm-1:     1.462736     0.145825     0.136286
Rotational constants in MHz : 43851.709798  4371.712506  4085.751309

                             ****ORCA TERMINATED NORMALLY****
TOTAL RUN TIME: 0 days 0 hours 4 minutes 29 seconds 758 msec
