                         Program Version 5.0.4 -  RELEASE  -
|  1> !ri-mp2 aug-cc-pvqz aug-cc-pvqz/c tightscf
|  2> %pal nprocs 16 end
|  3>
|  4> * xyz 0 1
|  5> C      0.996293   -0.222905    0.000000
|  6> C     -1.458518    0.470962    0.000000
|  7> C      0.000000    0.905538    0.000000
|  8> O      0.716194   -1.394736    0.000000
|  9> H      2.059410    0.097311    0.000000
| 10> H     -1.685732   -0.133233    0.877361
| 11> H     -1.685732   -0.133233   -0.877361
| 12> H     -2.117948    1.338361    0.000000
| 13> H      0.236898    1.533556   -0.867218
| 14> H      0.236898    1.533556    0.867218
| 15> *
| 16>
| 17>                          ****END OF INPUT****

CARTESIAN COORDINATES (ANGSTROEM)
---------------------------------
  C      0.996293   -0.222905    0.000000
  C     -1.458518    0.470962    0.000000
  C      0.000000    0.905538    0.000000
  O      0.716194   -1.394736    0.000000
  H      2.059410    0.097311    0.000000
  H     -1.685732   -0.133233    0.877361
  H     -1.685732   -0.133233   -0.877361
  H     -2.117948    1.338361    0.000000
  H      0.236898    1.533556   -0.867218
  H      0.236898    1.533556    0.867218

 Total Charge           Charge          ....    0
 Multiplicity           Mult            ....    1
 Number of Electrons    NEL             ....   32
 Basis Dimension        Dim             ....  596

ORBITAL ENERGIES
----------------

  NO   OCC          E(Eh)            E(eV)
   0   2.0000     -20.555439      -559.3419
   1   2.0000     -11.330843      -308.3279
   2   2.0000     -11.244950      -305.9906
   3   2.0000     -11.221718      -305.3585
   4   2.0000      -1.395107       -37.9628
   5   2.0000      -1.062173       -28.9032
   6   2.0000      -0.912495       -24.8303
   7   2.0000      -0.773163       -21.0388
   8   2.0000      -0.681819       -18.5532
   9   2.0000      -0.634348       -17.2615
  10   2.0000      -0.630165       -17.1477
  11   2.0000      -0.544227       -14.8092
  12   2.0000      -0.530946       -14.4478
  13   2.0000      -0.521434       -14.1889
  14   2.0000      -0.492374       -13.3982
  15   2.0000      -0.421418       -11.4674
  16   0.0000       0.023063         0.6276
  17   0.0000       0.031846         0.8666
  18   0.0000       0.035474         0.9653
  19   0.0000       0.041112         1.1187
  20   0.0000       0.053515         1.4562

MULLIKEN ATOMIC CHARGES
-----------------------
   0 C :    0.234556
   1 C :   -0.734263
   2 C :   -0.449057
   3 O :   -0.723362
   4 H :    0.416823
   5 H :    0.220974
   6 H :    0.220974
   7 H :    0.303035
   8 H :    0.255160
   9 H :    0.255160
Sum of atomic charges:   -0.0000000

LOEWDIN ATOMIC CHARGES
----------------------
   0 C :   -0.247883
   1 C :    0.891010
   2 C :    0.454167
   3 O :    0.711661
   4 H :   -0.344910
   5 H :   -0.291958
   6 H :   -0.291958
   7 H :   -0.287483
   8 H :   -0.296323
   9 H :   -0.296323

  Mayer bond orders larger than 0.100000
B(  0-C ,  2-C ) :   0.9925 B(  0-C ,  3-O ) :   1.5887 B(  0-C ,  4-H ) :   0.7829
B(  1-C ,  2-C ) :   0.9578 B(  1-C ,  5-H ) :   0.9540 B(  1-C ,  6-H ) :   0.9540
B(  1-C ,  7-H ) :   0.9255 B(  2-C ,  8-H ) :   0.8883 B(  2-C ,  9-H ) :   0.8883

MP2 TOTAL ENERGY:     -192.834562249 Eh
FINAL SINGLE POINT ENERGY      -192.834562248776

DIPOLE MOMENT
-------------
                                X             Y             Z
Electronic contribution:      3.09765      -3.13460       0.00000
Nuclear contribution   :     -3.04725       4.36078       0.00000
                        -----------------------------------------
Total Dipole Moment    :      0.05040       1.22618       0.00000
                        -----------------------------------------
Magnitude (a.u.)       :      1.22722
Magnitude (Debye)      :      3.11934

Rotational constants in cm-1:     0.564820     0.193804     0.152292
Rotational constants in MHz : 16932.863654  5810.094785  4565.593283

                             ****ORCA TERMINATED NORMALLY****
TOTAL RUN TIME: 0 days 0 hours 8 minutes 59 seconds 221 msec
