                         Program Version 5.0.4 -  RELEASE  -
|  1> !ri-mp2 aug-cc-pvqz aug-cc-pvqz/c tightscf
|  2> %pal nprocs 16 end
|  3> %maxcore 3800
|  4>
|  5> * xyz 0 1
|  6> C     -2.668057   -0.516202   -0.151817
|  7> C     -2.379219    0.990207    0.083732
|  8> C     -1.340914   -1.229360    0.139892
|  9> C     -0.838544    1.117468    0.194491
| 10> C     -0.268079   -0.224742   -0.304017
| 11> C      3.632805   -0.000756    0.134440
| 12> C      1.143001   -0.554336    0.179922
| 13> C      2.231894    0.390324   -0.333620
| 14> H     -3.488035   -0.885577    0.464020
| 15> H     -2.953947   -0.684716   -1.191912
| 16> H     -2.769755    1.593120   -0.736241
| 17> H     -2.864319    1.350360    0.991058
| 18> H     -1.236812   -1.414843    1.213997
| 19> H     -1.254830   -2.193162   -0.364168
| 20> H     -0.452275    1.972210   -0.360265
| 21> H     -0.546339    1.259696    1.238803
| 22> H     -0.259603   -0.208411   -1.401207
| 23> H      3.700615    0.007006    1.224348
| 24> H      3.895190   -1.005453   -0.203653
| 25> H      4.388824    0.686078   -0.248814
| 26> H      1.393620   -1.576741   -0.122604
| 27> H      1.150697   -0.552656    1.276131
| 28> H      2.014697    1.411417   -0.009971
| 29> H      2.204946    0.406052   -1.427659
| 30> *
| 31>
| 32>                          ****END OF INPUT****

CARTESIAN COORDINATES (ANGSTROEM)
---------------------------------
  C     -2.668057   -0.516202   -0.151817
  C     -2.379219    0.990207    0.083732
  C     -1.340914   -1.229360    0.139892
  C     -0.838544    1.117468    0.194491
  C     -0.268079   -0.224742   -0.304017
  C      3.632805   -0.000756    0.134440
  C      1.143001   -0.554336    0.179922
  C      2.231894    0.390324   -0.333620
  H     -3.488035   -0.885577    0.464020
  H     -2.953947   -0.684716   -1.191912
  H     -2.769755    1.593120   -0.736241
  H     -2.864319    1.350360    0.991058
  H     -1.236812   -1.414843    1.213997
  H     -1.254830   -2.193162   -0.364168
  H     -0.452275    1.972210   -0.360265
  H     -0.546339    1.259696    1.238803
  H     -0.259603   -0.208411   -1.401207
  H      3.700615    0.007006    1.224348
  H      3.895190   -1.005453   -0.203653
  H      4.388824    0.686078   -0.248814
  H      1.393620   -1.576741   -0.122604
  H      1.150697   -0.552656    1.276131
  H      2.014697    1.411417   -0.009971
  H      2.204946    0.406052   -1.427659

 Total Charge           Charge          ....    0
 Multiplicity           Mult            ....    1
 Number of Electrons    NEL             ....   64
 Basis Dimension        Dim             .... 1376

ORBITAL ENERGIES
----------------

  NO   OCC          E(Eh)            E(eV)
   0   2.0000     -11.214158      -305.1528
   1   2.0000     -11.212595      -305.1102
   2   2.0000     -11.210067      -305.0414
   3   2.0000     -11.209827      -305.0349
   4   2.0000     -11.209408      -305.0235
   5   2.0000     -11.208229      -304.9914
   6   2.0000     -11.207759      -304.9786
   7   2.0000     -11.207126      -304.9614
   8   2.0000      -1.121782       -30.5252
   9   2.0000      -1.054233       -28.6871
  10   2.0000      -0.976800       -26.5801
  11   2.0000      -0.955688       -26.0056
  12   2.0000      -0.890500       -24.2317
  13   2.0000      -0.803976       -21.8773
  14   2.0000      -0.770359       -20.9625
  15   2.0000      -0.753561       -20.5054
  16   2.0000      -0.652582       -17.7577
  17   2.0000      -0.629819       -17.1382
  18   2.0000      -0.622333       -16.9345
  19   2.0000      -0.580697       -15.8016
  20   2.0000      -0.568933       -15.4815
  21   2.0000      -0.553286       -15.0557
  22   2.0000      -0.529658       -14.4127
  23   2.0000      -0.521038       -14.1782
  24   2.0000      -0.486086       -13.2271
  25   2.0000      -0.472051       -12.8452
  26   2.0000      -0.469188       -12.7673
  27   2.0000      -0.462142       -12.5755
  28   2.0000      -0.451468       -12.2851
  29   2.0000      -0.445483       -12.1222
  30   2.0000      -0.441007       -12.0004
  31   2.0000      -0.430977       -11.7275
  32   0.0000       0.026731         0.7274
  33   0.0000       0.028964         0.7881
  34   0.0000       0.031277         0.8511
  35   0.0000       0.032382         0.8812
  36   0.0000       0.042965         1.1691

MULLIKEN ATOMIC CHARGES
-----------------------
   0 C :   -0.639700
   1 C :   -0.423682
   2 C :   -0.720106
   3 C :   -0.622433
   4 C :    0.381750
   5 C :   -0.887306
   6 C :   -0.259219
   7 C :   -0.474609
   8 H :    0.327848
   9 H :    0.179201
  10 H :    0.187666
  11 H :    0.218724
  12 H :    0.141736
  13 H :    0.346169
  14 H :    0.285078
  15 H :    0.189553
  16 H :    0.203812
  17 H :    0.220346
  18 H :    0.220995
  19 H :    0.254172
  20 H :    0.263261
  21 H :    0.162811
  22 H :    0.248848
  23 H :    0.195087
Sum of atomic charges:    0.0000000

LOEWDIN ATOMIC CHARGES
----------------------
   0 C :    0.553563
   1 C :    0.569916
   2 C :    0.532112
   3 C :    0.543365
   4 C :    0.120696
   5 C :    0.930852
   6 C :    0.522182
   7 C :    0.515323
   8 H :   -0.261784
   9 H :   -0.269046
  10 H :   -0.268055
  11 H :   -0.267929
  12 H :   -0.259899
  13 H :   -0.247855
  14 H :   -0.256632
  15 H :   -0.265502
  16 H :   -0.257393
  17 H :   -0.283638
  18 H :   -0.285219
  19 H :   -0.283947
  20 H :   -0.264024
  21 H :   -0.269539
  22 H :   -0.279820
  23 H :   -0.267725

  Mayer bond orders larger than 0.100000
B(  0-C ,  1-C ) :   1.0014 B(  0-C ,  2-C ) :   1.1083 B(  0-C ,  4-C ) :  -0.2231
B(  0-C ,  8-H ) :   0.8808 B(  0-C ,  9-H ) :   1.0070 B(  1-C ,  3-C ) :   0.9298
B(  1-C ,  4-C ) :  -0.1235 B(  1-C , 10-H ) :   1.0041 B(  1-C , 11-H ) :   0.9727
B(  2-C ,  4-C ) :   0.5741 B(  2-C , 12-H ) :   1.0594 B(  2-C , 13-H ) :   0.8524
B(  3-C ,  4-C ) :   0.7048 B(  3-C , 14-H ) :   0.9056 B(  3-C , 15-H ) :   0.9949
B(  4-C ,  6-C ) :   0.8113 B(  4-C ,  7-C ) :  -0.1217 B(  4-C , 16-H ) :   0.9779
B(  5-C ,  6-C ) :  -0.1173 B(  5-C ,  7-C ) :   0.9897 B(  5-C , 17-H ) :   0.9643
B(  5-C , 18-H ) :   0.9764 B(  5-C , 19-H ) :   1.0434 B(  6-C ,  7-C ) :   0.9063
B(  6-C , 20-H ) :   0.9127 B(  6-C , 21-H ) :   0.8951 B(  7-C , 19-H ) :  -0.1189
B(  7-C , 22-H ) :   0.8392 B(  7-C , 23-H ) :   0.9126

MP2 TOTAL ENERGY:     -313.879678591 Eh
FINAL SINGLE POINT ENERGY      -313.879678591031

DIPOLE MOMENT
-------------
                                X             Y             Z
Electronic contribution:     -3.14102      -0.16489      -0.40131
Nuclear contribution   :      3.13053       0.17607       0.36618
                        -----------------------------------------
Total Dipole Moment    :     -0.01049       0.01118      -0.03514
                        -----------------------------------------
Magnitude (a.u.)       :      0.03833
Magnitude (Debye)      :      0.09744

Rotational constants in cm-1:     0.174300     0.031345     0.028155
Rotational constants in MHz :  5225.368671   939.698244   844.057146

                             ****ORCA TERMINATED NORMALLY****
TOTAL RUN TIME: 0 days 1 hours 58 minutes 1 seconds 302 msec
