                         Program Version 5.0.4 -  RELEASE  -
|  1> !ri-mp2 aug-cc-pvqz aug-cc-pvqz/c tightscf
|  2> %pal nprocs 16 end
|  3>
|  4> * xyz 0 1
|  5> O     -2.769216   -0.536264    0.000215
|  6> C     -0.546543    0.198083   -0.000698
|  7> C     -1.974175    0.375575    0.000309
|  8> C      0.660285    0.101518   -0.000632
|  9> C      2.012661   -0.024555   -0.000207
| 10> C      3.212576   -0.134634    0.000498
| 11> H     -2.304988    1.428398    0.001460
| 12> H      4.269894   -0.234210    0.001198
| 13> *
| 14>
| 15>                          ****END OF INPUT****

CARTESIAN COORDINATES (ANGSTROEM)
---------------------------------
  O     -2.769216   -0.536264    0.000215
  C     -0.546543    0.198083   -0.000698
  C     -1.974175    0.375575    0.000309
  C      0.660285    0.101518   -0.000632
  C      2.012661   -0.024555   -0.000207
  C      3.212576   -0.134634    0.000498
  H     -2.304988    1.428398    0.001460
  H      4.269894   -0.234210    0.001198

 Total Charge           Charge          ....    0
 Multiplicity           Mult            ....    1
 Number of Electrons    NEL             ....   40
 Basis Dimension        Dim             ....  572

ORBITAL ENERGIES
----------------

  NO   OCC          E(Eh)            E(eV)
   0   2.0000     -20.582693      -560.0835
   1   2.0000     -11.371557      -309.4358
   2   2.0000     -11.295325      -307.3614
   3   2.0000     -11.281206      -306.9772
   4   2.0000     -11.277147      -306.8668
   5   2.0000     -11.275888      -306.8325
   6   2.0000      -1.417220       -38.5645
   7   2.0000      -1.119302       -30.4578
   8   2.0000      -1.053598       -28.6698
   9   2.0000      -0.938972       -25.5507
  10   2.0000      -0.846334       -23.0299
  11   2.0000      -0.742291       -20.1988
  12   2.0000      -0.728250       -19.8167
  13   2.0000      -0.671470       -18.2716
  14   2.0000      -0.571484       -15.5509
  15   2.0000      -0.513434       -13.9713
  16   2.0000      -0.502845       -13.6831
  17   2.0000      -0.469504       -12.7759
  18   2.0000      -0.386843       -10.5265
  19   2.0000      -0.386678       -10.5220
  20   0.0000       0.019817         0.5392
  21   0.0000       0.027023         0.7353
  22   0.0000       0.033389         0.9086
  23   0.0000       0.055895         1.5210
  24   0.0000       0.057536         1.5656

MULLIKEN ATOMIC CHARGES
-----------------------
   0 O :   -0.683860
   1 C :   -0.078508
   2 C :    0.706584
   3 C :   -1.095595
   4 C :    0.004395
   5 C :    0.201386
   6 H :    0.438623
   7 H :    0.506976
Sum of atomic charges:   -0.0000000

LOEWDIN ATOMIC CHARGES
----------------------
   0 O :    0.664080
   1 C :    0.061168
   2 C :   -0.362997
   3 C :   -0.031612
   4 C :   -0.051553
   5 C :    0.555352
   6 H :   -0.392124
   7 H :   -0.442314

  Mayer bond orders larger than 0.100000
B(  0-O ,  1-C ) :   0.2182 B(  0-O ,  2-C ) :   1.4527 B(  1-C ,  2-C ) :   0.7572
B(  1-C ,  3-C ) :   3.6313 B(  1-C ,  5-C ) :   0.1895 B(  2-C ,  4-C ) :   0.1054
B(  2-C ,  6-H ) :   0.8509 B(  3-C ,  4-C ) :   0.2503 B(  3-C ,  5-C ) :  -0.9189
B(  4-C ,  5-C ) :   2.8222 B(  4-C ,  7-H ) :  -0.1140 B(  5-C ,  7-H ) :   0.8425

MP2 TOTAL ENERGY:     -266.377173815 Eh
FINAL SINGLE POINT ENERGY      -266.377173814901

DIPOLE MOMENT
-------------
                                X             Y             Z
Electronic contribution:     -0.65917      -0.36120      -0.00182
Nuclear contribution   :      1.84873       1.14097       0.00256
                        -----------------------------------------
Total Dipole Moment    :      1.18956       0.77977       0.00074
                        -----------------------------------------
Magnitude (a.u.)       :      1.42235
Magnitude (Debye)      :      3.61533

Rotational constants in cm-1:     1.840193     0.044993     0.043919
Rotational constants in MHz : 55167.592559  1348.845690  1316.653688

                             ****ORCA TERMINATED NORMALLY****
TOTAL RUN TIME: 0 days 0 hours 9 minutes 23 seconds 242 msec
