                         Program Version 5.0.4 -  RELEASE  -
|  1> !ri-mp2 aug-cc-pvqz aug-cc-pvqz/c tightscf
|  2> %pal nprocs 16 end
|  3>
|  4> * xyz 0 1
|  5> C     -1.381391   -1.674027    0.000000
|  6> C      1.469740    2.485294    0.000000
|  7> C     -0.027455   -1.130038    0.000000
|  8> C      1.425482    0.958648    0.000000
|  9> C      0.000000    0.407830    0.000000
| 10> N     -2.455764   -2.084510    0.000000
| 11> H      0.971625    2.894129    0.880933
| 12> H      2.497069    2.850311    0.000000
| 13> H      0.971625    2.894129   -0.880933
| 14> H      0.496473   -1.517892   -0.876678
| 15> H      0.496473   -1.517892    0.876678
| 16> H      1.960400    0.577288   -0.874787
| 17> H      1.960400    0.577288    0.874787
| 18> H     -0.540986    0.773987   -0.875086
| 19> H     -0.540986    0.773987    0.875086
| 20> *
| 21>
| 22>                          ****END OF INPUT****

CARTESIAN COORDINATES (ANGSTROEM)
---------------------------------
  C     -1.381391   -1.674027    0.000000
  C      1.469740    2.485294    0.000000
  C     -0.027455   -1.130038    0.000000
  C      1.425482    0.958648    0.000000
  C      0.000000    0.407830    0.000000
  N     -2.455764   -2.084510    0.000000
  H      0.971625    2.894129    0.880933
  H      2.497069    2.850311    0.000000
  H      0.971625    2.894129   -0.880933
  H      0.496473   -1.517892   -0.876678
  H      0.496473   -1.517892    0.876678
  H      1.960400    0.577288   -0.874787
  H      1.960400    0.577288    0.874787
  H     -0.540986    0.773987   -0.875086
  H     -0.540986    0.773987    0.875086

 Total Charge           Charge          ....    0
 Multiplicity           Mult            ....    1
 Number of Electrons    NEL             ....   46
 Basis Dimension        Dim             ....  894

ORBITAL ENERGIES
----------------

  NO   OCC          E(Eh)            E(eV)
   0   2.0000     -15.562616      -423.4803
   1   2.0000     -11.279997      -306.9443
   2   2.0000     -11.268175      -306.6226
   3   2.0000     -11.248418      -306.0850
   4   2.0000     -11.238805      -305.8234
   5   2.0000     -11.225567      -305.4632
   6   2.0000      -1.218447       -33.1556
   7   2.0000      -1.108548       -30.1651
   8   2.0000      -1.030034       -28.0286
   9   2.0000      -0.913043       -24.8452
  10   2.0000      -0.820761       -22.3340
  11   2.0000      -0.696059       -18.9407
  12   2.0000      -0.677254       -18.4290
  13   2.0000      -0.614984       -16.7346
  14   2.0000      -0.613055       -16.6821
  15   2.0000      -0.564130       -15.3507
  16   2.0000      -0.552050       -15.0221
  17   2.0000      -0.537110       -14.6155
  18   2.0000      -0.512661       -13.9502
  19   2.0000      -0.495399       -13.4805
  20   2.0000      -0.490195       -13.3389
  21   2.0000      -0.456321       -12.4171
  22   2.0000      -0.451434       -12.2841
  23   0.0000       0.020129         0.5477
  24   0.0000       0.028738         0.7820
  25   0.0000       0.030477         0.8293
  26   0.0000       0.034061         0.9268
  27   0.0000       0.047207         1.2846

MULLIKEN ATOMIC CHARGES
-----------------------
   0 C :    0.362432
   1 C :   -0.879953
   2 C :   -0.492246
   3 C :   -0.374111
   4 C :   -0.191554
   5 N :   -0.692305
   6 H :    0.229438
   7 H :    0.263778
   8 H :    0.229438
   9 H :    0.275636
  10 H :    0.275636
  11 H :    0.246949
  12 H :    0.246949
  13 H :    0.249957
  14 H :    0.249957
Sum of atomic charges:    0.0000000

LOEWDIN ATOMIC CHARGES
----------------------
   0 C :   -0.255824
   1 C :    0.933110
   2 C :    0.435510
   3 C :    0.508235
   4 C :    0.494451
   5 N :    0.408749
   6 H :   -0.282407
   7 H :   -0.281930
   8 H :   -0.282407
   9 H :   -0.297544
  10 H :   -0.297544
  11 H :   -0.271836
  12 H :   -0.271836
  13 H :   -0.269363
  14 H :   -0.269363

  Mayer bond orders larger than 0.100000
B(  0-C ,  2-C ) :   1.3054 B(  0-C ,  4-C ) :  -0.2664 B(  0-C ,  5-N ) :   2.4643
B(  1-C ,  3-C ) :   0.9672 B(  1-C ,  6-H ) :   0.9532 B(  1-C ,  7-H ) :   1.0100
B(  1-C ,  8-H ) :   0.9532 B(  2-C ,  4-C ) :   0.9338 B(  2-C ,  9-H ) :   0.8703
B(  2-C , 10-H ) :   0.8703 B(  3-C ,  4-C ) :   0.9139 B(  3-C , 11-H ) :   0.8715
B(  3-C , 12-H ) :   0.8715 B(  4-C , 13-H ) :   0.8671 B(  4-C , 14-H ) :   0.8671

MP2 TOTAL ENERGY:     -250.242577920 Eh
FINAL SINGLE POINT ENERGY      -250.242577920129

DIPOLE MOMENT
-------------
                                X             Y             Z
Electronic contribution:     -6.95692      -7.81007       0.00000
Nuclear contribution   :      8.58123       8.61804       0.00000
                        -----------------------------------------
Total Dipole Moment    :      1.62431       0.80797       0.00000
                        -----------------------------------------
Magnitude (a.u.)       :      1.81417
Magnitude (Debye)      :      4.61124

Rotational constants in cm-1:     0.511851     0.044211     0.041952
Rotational constants in MHz : 15344.894692  1325.412457  1257.683732

                             ****ORCA TERMINATED NORMALLY****
TOTAL RUN TIME: 0 days 0 hours 21 minutes 47 seconds 636 msec
