                         Program Version 5.0.4 -  RELEASE  -
|  1> !ri-mp2 aug-cc-pvqz aug-cc-pvqz/c tightscf
|  2> %pal nprocs 16 end
|  3>
|  4> * xyz 0 1
|  5> C      0.000000    0.000000    1.417677
|  6> C      0.000000    0.000000    0.218758
|  7> C      0.000000    0.000000   -1.236142
|  8> H      0.000000    0.000000    2.478402
|  9> H      0.000000    1.018882   -1.626721
| 10> H      0.882377   -0.509441   -1.626721
| 11> H     -0.882377   -0.509441   -1.626721
| 12> *
| 13>
| 14>                          ****END OF INPUT****

CARTESIAN COORDINATES (ANGSTROEM)
---------------------------------
  C      0.000000    0.000000    1.417677
  C      0.000000    0.000000    0.218758
  C      0.000000    0.000000   -1.236142
  H      0.000000    0.000000    2.478402
  H      0.000000    1.018882   -1.626721
  H      0.882377   -0.509441   -1.626721
  H     -0.882377   -0.509441   -1.626721

 Total Charge           Charge          ....    0
 Multiplicity           Mult            ....    1
 Number of Electrons    NEL             ....   22
 Basis Dimension        Dim             ....  424

ORBITAL ENERGIES
----------------

  NO   OCC          E(Eh)            E(eV)
   0   2.0000     -11.249041      -306.1020
   1   2.0000     -11.233083      -305.6677
   2   2.0000     -11.216571      -305.2184
   3   2.0000      -1.058917       -28.8146
   4   2.0000      -0.959104       -26.0985
   5   2.0000      -0.718882       -19.5618
   6   2.0000      -0.624615       -16.9966
   7   2.0000      -0.592250       -16.1160
   8   2.0000      -0.592250       -16.1160
   9   2.0000      -0.385887       -10.5005
  10   2.0000      -0.385887       -10.5005
  11   0.0000       0.025838         0.7031
  12   0.0000       0.030650         0.8340
  13   0.0000       0.043450         1.1823
  14   0.0000       0.043450         1.1823
  15   0.0000       0.067225         1.8293

MULLIKEN ATOMIC CHARGES
-----------------------
   0 C :   -0.822600
   1 C :    0.075266
   2 C :   -0.523103
   3 H :    0.500599
   4 H :    0.256612
   5 H :    0.256613
   6 H :    0.256613
Sum of atomic charges:    0.0000000

LOEWDIN ATOMIC CHARGES
----------------------
   0 C :    0.545667
   1 C :    0.078227
   2 C :    0.815442
   3 H :   -0.477407
   4 H :   -0.320642
   5 H :   -0.320643
   6 H :   -0.320643

  Mayer bond orders larger than 0.100000
B(  0-C ,  1-C ) :   2.6810 B(  0-C ,  3-H ) :   0.8224 B(  1-C ,  2-C ) :   0.8063
B(  2-C ,  4-H ) :   0.9493 B(  2-C ,  5-H ) :   0.9493 B(  2-C ,  6-H ) :   0.9493

MP2 TOTAL ENERGY:     -116.430600283 Eh
FINAL SINGLE POINT ENERGY      -116.430600283051

DIPOLE MOMENT
-------------
                                X             Y             Z
Electronic contribution:      0.00000      -0.00000       2.16588
Nuclear contribution   :      0.00000       0.00000      -2.47685
                        -----------------------------------------
Total Dipole Moment    :      0.00000      -0.00000      -0.31097
                        -----------------------------------------
Magnitude (a.u.)       :      0.31097
Magnitude (Debye)      :      0.79043

Rotational constants in cm-1:     5.369918     0.287236     0.287236
Rotational constants in MHz : 160986.100087  8611.117914  8611.117551

                             ****ORCA TERMINATED NORMALLY****
TOTAL RUN TIME: 0 days 0 hours 3 minutes 26 seconds 539 msec
