                         Program Version 5.0.4 -  RELEASE  -
|  1> !ri-mp2 aug-cc-pvqz aug-cc-pvqz/c tightscf
|  2> %pal nprocs 16 end
|  3>
|  4> * xyz 0 1
|  5> S     -1.051061    1.281881   -0.283900
|  6> S     -1.895278   -0.532601    0.338547
|  7> O     -0.614494   -1.427165   -0.363889
|  8> N      0.475661    0.575388    0.138694
|  9> C      0.558745   -0.776721   -0.091504
| 10> C      1.756359    1.099948    0.219774
| 11> C      1.870920   -1.154035   -0.105040
| 12> C      2.624545    0.047815    0.089137
| 13> H      1.921997    2.142592    0.418071
| 14> H      2.246994   -2.155899   -0.208071
| 15> H      3.695337    0.112379    0.181703
| 16> *
| 17>
| 18>                          ****END OF INPUT****

CARTESIAN COORDINATES (ANGSTROEM)
---------------------------------
  S     -1.051061    1.281881   -0.283900
  S     -1.895278   -0.532601    0.338547
  O     -0.614494   -1.427165   -0.363889
  N      0.475661    0.575388    0.138694
  C      0.558745   -0.776721   -0.091504
  C      1.756359    1.099948    0.219774
  C      1.870920   -1.154035   -0.105040
  C      2.624545    0.047815    0.089137
  H      1.921997    2.142592    0.418071
  H      2.246994   -2.155899   -0.208071
  H      3.695337    0.112379    0.181703

 Total Charge           Charge          ....    0
 Multiplicity           Mult            ....    1
 Number of Electrons    NEL             ....   74
 Basis Dimension        Dim             ....  786

ORBITAL ENERGIES
----------------

  NO   OCC          E(Eh)            E(eV)
   0   2.0000     -92.056041     -2504.9722
   1   2.0000     -92.042757     -2504.6108
   2   2.0000     -20.636593      -561.5503
   3   2.0000     -15.638271      -425.5390
   4   2.0000     -11.335720      -308.4606
   5   2.0000     -11.268242      -306.6245
   6   2.0000     -11.232164      -305.6427
   7   2.0000     -11.224973      -305.4471
   8   2.0000      -9.049835      -246.2585
   9   2.0000      -9.038800      -245.9583
  10   2.0000      -6.730520      -183.1468
  11   2.0000      -6.729563      -183.1207
  12   2.0000      -6.727757      -183.0716
  13   2.0000      -6.719669      -182.8515
  14   2.0000      -6.718986      -182.8329
  15   2.0000      -6.717191      -182.7841
  16   2.0000      -1.447835       -39.3976
  17   2.0000      -1.308418       -35.6039
  18   2.0000      -1.114182       -30.3184
  19   2.0000      -1.011102       -27.5135
  20   2.0000      -0.987171       -26.8623
  21   2.0000      -0.888461       -24.1762
  22   2.0000      -0.807044       -21.9608
  23   2.0000      -0.771131       -20.9835
  24   2.0000      -0.712763       -19.3953
  25   2.0000      -0.663000       -18.0411
  26   2.0000      -0.638721       -17.3805
  27   2.0000      -0.610618       -16.6158
  28   2.0000      -0.593153       -16.1405
  29   2.0000      -0.565610       -15.3910
  30   2.0000      -0.563218       -15.3260
  31   2.0000      -0.538317       -14.6484
  32   2.0000      -0.485531       -13.2120
  33   2.0000      -0.459844       -12.5130
  34   2.0000      -0.383945       -10.4477
  35   2.0000      -0.342246        -9.3130
  36   2.0000      -0.304816        -8.2945
  37   0.0000       0.026482         0.7206
  38   0.0000       0.031051         0.8449
  39   0.0000       0.035254         0.9593
  40   0.0000       0.041287         1.1235
  41   0.0000       0.047178         1.2838

MULLIKEN ATOMIC CHARGES
-----------------------
   0 S :    0.098140
   1 S :    0.269151
   2 O :   -0.769430
   3 N :   -0.333677
   4 C :    0.781912
   5 C :   -0.403067
   6 C :   -0.507702
   7 C :   -0.387426
   8 H :    0.439282
   9 H :    0.406064
  10 H :    0.406756
Sum of atomic charges:   -0.0000000

LOEWDIN ATOMIC CHARGES
----------------------
   0 S :    0.713155
   1 S :    0.480873
   2 O :    0.313527
   3 N :   -0.186774
   4 C :   -0.996495
   5 C :    0.096049
   6 C :    0.296484
   7 C :    0.282111
   8 H :   -0.332317
   9 H :   -0.336613
  10 H :   -0.330001

  Mayer bond orders larger than 0.100000
B(  0-S ,  1-S ) :   1.1775 B(  0-S ,  3-N ) :   0.8090 B(  1-S ,  2-O ) :   0.8003
B(  2-O ,  4-C ) :   0.6057 B(  2-O ,  6-C ) :   0.1323 B(  3-N ,  4-C ) :   1.2903
B(  3-N ,  5-C ) :   1.0015 B(  4-C ,  6-C ) :   1.5040 B(  4-C ,  7-C ) :  -0.2267
B(  5-C ,  7-C ) :   1.5670 B(  5-C ,  8-H ) :   0.8804 B(  6-C ,  7-C ) :   1.2389
B(  6-C ,  9-H ) :   0.8304 B(  7-C , 10-H ) :   0.8649

MP2 TOTAL ENERGY:    -1079.172637856 Eh
FINAL SINGLE POINT ENERGY     -1079.172637855731

DIPOLE MOMENT
-------------
                                X             Y             Z
Electronic contribution:     -7.66383       0.40104      -0.19178
Nuclear contribution   :      7.60803       0.05440       0.36861
                        -----------------------------------------
Total Dipole Moment    :     -0.05580       0.45544       0.17682
                        -----------------------------------------
Magnitude (a.u.)       :      0.49174
Magnitude (Debye)      :      1.24990

Rotational constants in cm-1:     0.108110     0.047179     0.034148
Rotational constants in MHz :  3241.053804  1414.399802  1023.738612

                             ****ORCA TERMINATED NORMALLY****
TOTAL RUN TIME: 0 days 0 hours 22 minutes 3 seconds 236 msec
