                         Program Version 5.0.4 -  RELEASE  -
|  1> !ri-mp2 aug-cc-pvqz aug-cc-pvqz/c tightscf
|  2> %pal nprocs 16 end
|  3>
|  4> * xyz 0 1
|  5> C      0.000000    0.000000    1.983144
|  6> C      0.000000    0.000000   -2.114003
|  7> C      0.000000    1.182119   -1.386720
|  8> C      0.000000   -1.182119   -1.386720
|  9> C      0.000000    0.000000    0.536531
| 10> N      0.000000    0.000000    3.132944
| 11> N      0.000000    1.194621   -0.055327
| 12> N      0.000000   -1.194621   -0.055327
| 13> H      0.000000    0.000000   -3.193985
| 14> H      0.000000    2.147839   -1.877717
| 15> H      0.000000   -2.147839   -1.877717
| 16> *
| 17>
| 18>                          ****END OF INPUT****

CARTESIAN COORDINATES (ANGSTROEM)
---------------------------------
  C      0.000000    0.000000    1.983144
  C      0.000000    0.000000   -2.114003
  C      0.000000    1.182119   -1.386720
  C      0.000000   -1.182119   -1.386720
  C      0.000000    0.000000    0.536531
  N      0.000000    0.000000    3.132944
  N      0.000000    1.194621   -0.055327
  N      0.000000   -1.194621   -0.055327
  H      0.000000    0.000000   -3.193985
  H      0.000000    2.147839   -1.877717
  H      0.000000   -2.147839   -1.877717

 Total Charge           Charge          ....    0
 Multiplicity           Mult            ....    1
 Number of Electrons    NEL             ....   54
 Basis Dimension        Dim             ....  778

ORBITAL ENERGIES
----------------

  NO   OCC          E(Eh)            E(eV)
   0   2.0000     -15.608801      -424.7371
   1   2.0000     -15.608774      -424.7363
   2   2.0000     -15.585665      -424.1075
   3   2.0000     -11.374695      -309.5212
   4   2.0000     -11.326892      -308.2204
   5   2.0000     -11.326879      -308.2201
   6   2.0000     -11.282777      -307.0200
   7   2.0000     -11.279017      -306.9177
   8   2.0000      -1.356486       -36.9119
   9   2.0000      -1.233974       -33.5781
  10   2.0000      -1.231217       -33.5031
  11   2.0000      -1.114372       -30.3236
  12   2.0000      -0.956500       -26.0277
  13   2.0000      -0.931487       -25.3471
  14   2.0000      -0.808900       -22.0113
  15   2.0000      -0.742754       -20.2114
  16   2.0000      -0.704740       -19.1769
  17   2.0000      -0.639186       -17.3931
  18   2.0000      -0.627690       -17.0803
  19   2.0000      -0.624573       -16.9955
  20   2.0000      -0.572811       -15.5870
  21   2.0000      -0.517387       -14.0788
  22   2.0000      -0.499480       -13.5915
  23   2.0000      -0.485464       -13.2101
  24   2.0000      -0.454641       -12.3714
  25   2.0000      -0.448663       -12.2087
  26   2.0000      -0.398227       -10.8363
  27   0.0000       0.013643         0.3713
  28   0.0000       0.024317         0.6617
  29   0.0000       0.034211         0.9309
  30   0.0000       0.046700         1.2708
  31   0.0000       0.051556         1.4029

MULLIKEN ATOMIC CHARGES
-----------------------
   0 C :    0.676404
   1 C :   -0.290635
   2 C :   -0.232026
   3 C :   -0.232026
   4 C :    0.238651
   5 N :   -0.686349
   6 N :   -0.427850
   7 N :   -0.427850
   8 H :    0.434500
   9 H :    0.473591
  10 H :    0.473591
Sum of atomic charges:    0.0000000

LOEWDIN ATOMIC CHARGES
----------------------
   0 C :   -0.348252
   1 C :    0.346436
   2 C :    0.086461
   3 C :    0.086461
   4 C :   -0.734592
   5 N :    0.405505
   6 N :    0.575149
   7 N :    0.575149
   8 H :   -0.324753
   9 H :   -0.333782
  10 H :   -0.333782

  Mayer bond orders larger than 0.100000
B(  0-C ,  4-C ) :   1.3174 B(  0-C ,  5-N ) :   2.4118 B(  1-C ,  2-C ) :   1.2099
B(  1-C ,  3-C ) :   1.2099 B(  1-C ,  8-H ) :   0.8709 B(  2-C ,  6-N ) :   1.2783
B(  2-C ,  9-H ) :   0.8784 B(  3-C ,  7-N ) :   1.2783 B(  3-C , 10-H ) :   0.8784
B(  4-C ,  6-N ) :   1.1625 B(  4-C ,  7-N ) :   1.1625

MP2 TOTAL ENERGY:     -355.989811712 Eh
FINAL SINGLE POINT ENERGY      -355.989811712337

DIPOLE MOMENT
-------------
                                X             Y             Z
Electronic contribution:     -0.00000      -0.00000       4.02976
Nuclear contribution   :      0.00000       0.00000      -6.68870
                        -----------------------------------------
Total Dipole Moment    :     -0.00000      -0.00000      -2.65895
                        -----------------------------------------
Magnitude (a.u.)       :      2.65895
Magnitude (Debye)      :      6.75851

Rotational constants in cm-1:     0.203477     0.055257     0.043456
Rotational constants in MHz :  6100.078565  1656.572499  1302.781614

                             ****ORCA TERMINATED NORMALLY****
TOTAL RUN TIME: 0 days 0 hours 17 minutes 40 seconds 769 msec
