                         Program Version 5.0.4 -  RELEASE  -
|  1> !ri-mp2 aug-cc-pvqz aug-cc-pvqz/c tightscf
|  2> %pal nprocs 16 end
|  3> %maxcore 3800
|  4>
|  5> * xyz 0 1
|  6> C     -0.643755    0.451811   -0.116063
|  7> C      0.643754   -0.451811   -0.116065
|  8> C     -1.971641   -0.359225    0.109674
|  9> C      1.971641    0.359224    0.109675
| 10> C     -3.260971    0.423128   -0.322117
| 11> C      3.260972   -0.423127   -0.322118
| 12> C     -4.593120   -0.161784    0.255224
| 13> C      4.593120    0.161783    0.255225
| 14> F     -0.717886    1.087551   -1.301534
| 15> F     -0.534691    1.367522    0.866508
| 16> F      0.717886   -1.087547   -1.301538
| 17> F      0.534691   -1.367525    0.866504
| 18> F     -2.067751   -0.666456    1.418445
| 19> F     -1.915832   -1.502658   -0.602171
| 20> F      2.067750    0.666452    1.418447
| 21> F      1.915832    1.502659   -0.602167
| 22> F     -3.354065    0.399093   -1.664116
| 23> F     -3.170091    1.704673    0.088792
| 24> F      3.170091   -1.704673    0.088788
| 25> F      3.354066   -0.399089   -1.664117
| 26> F     -5.619910    0.441189   -0.347993
| 27> F     -4.668993   -1.475221    0.024297
| 28> F     -4.683604    0.056486    1.566635
| 29> F      4.668993    1.475221    0.024300
| 30> F      5.619909   -0.441188   -0.347994
| 31> F      4.683603   -0.056489    1.566635
| 32> *
| 33>
| 34>                          ****END OF INPUT****

CARTESIAN COORDINATES (ANGSTROEM)
---------------------------------
  C     -0.643755    0.451811   -0.116063
  C      0.643754   -0.451811   -0.116065
  C     -1.971641   -0.359225    0.109674
  C      1.971641    0.359224    0.109675
  C     -3.260971    0.423128   -0.322117
  C      3.260972   -0.423127   -0.322118
  C     -4.593120   -0.161784    0.255224
  C      4.593120    0.161783    0.255225
  F     -0.717886    1.087551   -1.301534
  F     -0.534691    1.367522    0.866508
  F      0.717886   -1.087547   -1.301538
  F      0.534691   -1.367525    0.866504
  F     -2.067751   -0.666456    1.418445
  F     -1.915832   -1.502658   -0.602171
  F      2.067750    0.666452    1.418447
  F      1.915832    1.502659   -0.602167
  F     -3.354065    0.399093   -1.664116
  F     -3.170091    1.704673    0.088792
  F      3.170091   -1.704673    0.088788
  F      3.354066   -0.399089   -1.664117
  F     -5.619910    0.441189   -0.347993
  F     -4.668993   -1.475221    0.024297
  F     -4.683604    0.056486    1.566635
  F      4.668993    1.475221    0.024300
  F      5.619909   -0.441188   -0.347994
  F      4.683603   -0.056489    1.566635

 Total Charge           Charge          ....    0
 Multiplicity           Mult            ....    1
 Number of Electrons    NEL             ....  210
 Basis Dimension        Dim             .... 2080

ORBITAL ENERGIES
----------------

  NO   OCC          E(Eh)            E(eV)
   0   2.0000     -26.379066      -717.8109
   1   2.0000     -26.379066      -717.8109
   2   2.0000     -26.379044      -717.8103
   3   2.0000     -26.379044      -717.8103
   4   2.0000     -26.378996      -717.8090
   5   2.0000     -26.378995      -717.8089
   6   2.0000     -26.378878      -717.8058
   7   2.0000     -26.378875      -717.8057
   8   2.0000     -26.377841      -717.7775
   9   2.0000     -26.377840      -717.7775
  10   2.0000     -26.377839      -717.7775
  11   2.0000     -26.377839      -717.7775
  12   2.0000     -26.376102      -717.7302
  13   2.0000     -26.376102      -717.7302
  14   2.0000     -26.375415      -717.7115
  15   2.0000     -26.375415      -717.7115
  16   2.0000     -26.374727      -717.6928
  17   2.0000     -26.374727      -717.6928
  18   2.0000     -11.559644      -314.5539
  19   2.0000     -11.559644      -314.5539
  20   2.0000     -11.507892      -313.1457
  21   2.0000     -11.507487      -313.1346
  22   2.0000     -11.507057      -313.1229
  23   2.0000     -11.506932      -313.1195
  24   2.0000     -11.503426      -313.0241
  25   2.0000     -11.503426      -313.0241
  26   2.0000      -1.775078       -48.3023
  27   2.0000      -1.774796       -48.2947
  28   2.0000      -1.757462       -47.8230
  29   2.0000      -1.745135       -47.4875
  30   2.0000      -1.733459       -47.1698
  31   2.0000      -1.729152       -47.0526
  32   2.0000      -1.727161       -46.9984
  33   2.0000      -1.726814       -46.9890
  34   2.0000      -1.685601       -45.8675
  35   2.0000      -1.682417       -45.7809
  36   2.0000      -1.678749       -45.6811
  37   2.0000      -1.675217       -45.5850
  38   2.0000      -1.674638       -45.5692
  39   2.0000      -1.673911       -45.5494
  40   2.0000      -1.670439       -45.4550
  41   2.0000      -1.668267       -45.3959
  42   2.0000      -1.666880       -45.3581
  43   2.0000      -1.666691       -45.3530
  44   2.0000      -1.156122       -31.4597
  45   2.0000      -1.138808       -30.9885
  46   2.0000      -1.110005       -30.2048
  47   2.0000      -1.070291       -29.1241
  48   2.0000      -1.022284       -27.8178
  49   2.0000      -0.977853       -26.6087
  50   2.0000      -0.951299       -25.8862
  51   2.0000      -0.938215       -25.5301
  52   2.0000      -0.901552       -24.5325
  53   2.0000      -0.895966       -24.3805
  54   2.0000      -0.893142       -24.3036
  55   2.0000      -0.883878       -24.0516
  56   2.0000      -0.874817       -23.8050
  57   2.0000      -0.872519       -23.7425
  58   2.0000      -0.868657       -23.6374
  59   2.0000      -0.866589       -23.5811
  60   2.0000      -0.860101       -23.4045
  61   2.0000      -0.851070       -23.1588
  62   2.0000      -0.850002       -23.1297
  63   2.0000      -0.847898       -23.0725
  64   2.0000      -0.836451       -22.7610
  65   2.0000      -0.833663       -22.6851
  66   2.0000      -0.819364       -22.2960
  67   2.0000      -0.807937       -21.9851
  68   2.0000      -0.801464       -21.8090
  69   2.0000      -0.773623       -21.0514
  70   2.0000      -0.772582       -21.0230
  71   2.0000      -0.765532       -20.8312
  72   2.0000      -0.764042       -20.7907
  73   2.0000      -0.756994       -20.5988
  74   2.0000      -0.755062       -20.5463
  75   2.0000      -0.750223       -20.4146
  76   2.0000      -0.748288       -20.3619
  77   2.0000      -0.747205       -20.3325
  78   2.0000      -0.745040       -20.2736
  79   2.0000      -0.741277       -20.1712
  80   2.0000      -0.739094       -20.1118
  81   2.0000      -0.737570       -20.0703
  82   2.0000      -0.732177       -19.9236
  83   2.0000      -0.731916       -19.9164
  84   2.0000      -0.726038       -19.7565
  85   2.0000      -0.722797       -19.6683
  86   2.0000      -0.710536       -19.3347
  87   2.0000      -0.705011       -19.1843
  88   2.0000      -0.702977       -19.1290
  89   2.0000      -0.701703       -19.0943
  90   2.0000      -0.699093       -19.0233
  91   2.0000      -0.697387       -18.9769
  92   2.0000      -0.695907       -18.9366
  93   2.0000      -0.693991       -18.8844
  94   2.0000      -0.691589       -18.8191
  95   2.0000      -0.688887       -18.7456
  96   2.0000      -0.685872       -18.6635
  97   2.0000      -0.685418       -18.6512
  98   2.0000      -0.660974       -17.9860
  99   2.0000      -0.655484       -17.8366
 100   2.0000      -0.649188       -17.6653
 101   2.0000      -0.637061       -17.3353
 102   2.0000      -0.611122       -16.6295
 103   2.0000      -0.570887       -15.5346
 104   2.0000      -0.529650       -14.4125
 105   0.0000       0.041989         1.1426
 106   0.0000       0.043858         1.1934
 107   0.0000       0.046662         1.2697
 108   0.0000       0.049032         1.3342
 109   0.0000       0.055534         1.5111

MULLIKEN ATOMIC CHARGES
-----------------------
   0 C :    1.602662
   1 C :    1.602641
   2 C :    1.569465
   3 C :    1.569479
   4 C :    1.222341
   5 C :    1.222342
   6 C :    2.002242
   7 C :    2.002246
   8 F :   -0.754581
   9 F :   -0.756546
  10 F :   -0.754582
  11 F :   -0.756544
  12 F :   -0.738364
  13 F :   -0.757827
  14 F :   -0.738363
  15 F :   -0.757826
  16 F :   -0.729126
  17 F :   -0.731728
  18 F :   -0.731728
  19 F :   -0.729128
  20 F :   -0.635218
  21 F :   -0.654492
  22 F :   -0.638827
  23 F :   -0.654492
  24 F :   -0.635218
  25 F :   -0.638828
Sum of atomic charges:   -0.0000000

LOEWDIN ATOMIC CHARGES
----------------------
   0 C :   -1.654044
   1 C :   -1.654043
   2 C :   -1.658535
   3 C :   -1.658535
   4 C :   -1.690463
   5 C :   -1.690463
   6 C :   -2.237190
   7 C :   -2.237191
   8 F :    0.825359
   9 F :    0.825010
  10 F :    0.825359
  11 F :    0.825010
  12 F :    0.820639
  13 F :    0.822413
  14 F :    0.820638
  15 F :    0.822412
  16 F :    0.810354
  17 F :    0.812091
  18 F :    0.812091
  19 F :    0.810354
  20 F :    0.771661
  21 F :    0.777451
  22 F :    0.775256
  23 F :    0.777450
  24 F :    0.771662
  25 F :    0.775257

  Mayer bond orders larger than 0.100000
B(  0-C ,  1-C ) :   0.9208 B(  0-C ,  2-C ) :   0.8795 B(  0-C ,  3-C ) :  -0.1068
B(  0-C , 10-F ) :   0.1290 B(  0-C , 11-F ) :   0.2148 B(  0-C , 12-F ) :   0.1171
B(  0-C , 13-F ) :   0.2234 B(  1-C ,  2-C ) :  -0.1068 B(  1-C ,  3-C ) :   0.8795
B(  1-C ,  8-F ) :   0.1290 B(  1-C ,  9-F ) :   0.2148 B(  1-C , 14-F ) :   0.1171
B(  1-C , 15-F ) :   0.2234 B(  2-C ,  4-C ) :   0.8127 B(  2-C ,  6-C ) :  -0.1514
B(  2-C ,  8-F ) :   0.1812 B(  2-C ,  9-F ) :   0.1174 B(  2-C , 12-F ) :   0.1406
B(  2-C , 13-F ) :   0.1272 B(  2-C , 17-F ) :   0.2146 B(  3-C ,  5-C ) :   0.8127
B(  3-C ,  7-C ) :  -0.1514 B(  3-C , 10-F ) :   0.1812 B(  3-C , 11-F ) :   0.1174
B(  3-C , 14-F ) :   0.1406 B(  3-C , 15-F ) :   0.1273 B(  3-C , 18-F ) :   0.2146
B(  4-C ,  6-C ) :   1.1051 B(  4-C , 12-F ) :   0.1178 B(  4-C , 16-F ) :   0.2551
B(  4-C , 17-F ) :   0.1958 B(  5-C ,  7-C ) :   1.1051 B(  5-C , 14-F ) :   0.1178
B(  5-C , 18-F ) :   0.1958 B(  5-C , 19-F ) :   0.2551 B(  6-C , 20-F ) :   0.4253
B(  6-C , 21-F ) :   0.4385 B(  6-C , 22-F ) :   0.4267 B(  7-C , 23-F ) :   0.4385
B(  7-C , 24-F ) :   0.4253 B(  7-C , 25-F ) :   0.4267

MP2 TOTAL ENERGY:    -2100.072035126 Eh
FINAL SINGLE POINT ENERGY     -2100.072035125538

DIPOLE MOMENT
-------------
                                X             Y             Z
Electronic contribution:      0.00000      -0.00000       0.12771
Nuclear contribution   :      0.00000      -0.00000      -0.08688
                        -----------------------------------------
Total Dipole Moment    :      0.00000      -0.00000       0.04083
                        -----------------------------------------
Magnitude (a.u.)       :      0.04083
Magnitude (Debye)      :      0.10378

Rotational constants in cm-1:     0.020324     0.003205     0.003176
Rotational constants in MHz :   609.286113    96.075565    95.223232

                             ****ORCA TERMINATED NORMALLY****
TOTAL RUN TIME: 0 days 4 hours 46 minutes 18 seconds 863 msec
