                         Program Version 5.0.4 -  RELEASE  -
|  1> !ri-mp2 aug-cc-pvqz aug-cc-pvqz/c tightscf
|  2> %pal nprocs 16 end
|  3>
|  4> * xyz 0 1
|  5> H     -1.766142   -0.526208   -1.297472
|  6> C     -1.849296    0.110726   -0.416946
|  7> C     -0.795460   -0.266086    0.634887
|  8> C      0.604920   -0.137267    0.093049
|  9> O      1.306287   -1.044919   -0.274495
| 10> O      1.008287    1.158088    0.032116
| 11> H     -2.849620   -0.014338   -0.003869
| 12> H     -1.738498    1.147718   -0.730793
| 13> H     -0.895780    0.381920    1.506215
| 14> H      1.897322    1.160106   -0.352283
| 15> H     -0.924854   -1.298789    0.951287
| 16> *
| 17>
| 18>                          ****END OF INPUT****

CARTESIAN COORDINATES (ANGSTROEM)
---------------------------------
  H     -1.766142   -0.526208   -1.297472
  C     -1.849296    0.110726   -0.416946
  C     -0.795460   -0.266086    0.634887
  C      0.604920   -0.137267    0.093049
  O      1.306287   -1.044919   -0.274495
  O      1.008287    1.158088    0.032116
  H     -2.849620   -0.014338   -0.003869
  H     -1.738498    1.147718   -0.730793
  H     -0.895780    0.381920    1.506215
  H      1.897322    1.160106   -0.352283
  H     -0.924854   -1.298789    0.951287

 Total Charge           Charge          ....    0
 Multiplicity           Mult            ....    1
 Number of Electrons    NEL             ....   40
 Basis Dimension        Dim             ....  676

ORBITAL ENERGIES
----------------

  NO   OCC          E(Eh)            E(eV)
   0   2.0000     -20.609707      -560.8186
   1   2.0000     -20.547181      -559.1172
   2   2.0000     -11.384021      -309.7750
   3   2.0000     -11.247919      -306.0714
   4   2.0000     -11.233771      -305.6865
   5   2.0000      -1.463119       -39.8135
   6   2.0000      -1.360407       -37.0186
   7   2.0000      -1.068914       -29.0866
   8   2.0000      -0.912407       -24.8279
   9   2.0000      -0.809607       -22.0305
  10   2.0000      -0.706093       -19.2138
  11   2.0000      -0.683890       -18.6096
  12   2.0000      -0.637719       -17.3532
  13   2.0000      -0.618082       -16.8189
  14   2.0000      -0.595107       -16.1937
  15   2.0000      -0.547249       -14.8914
  16   2.0000      -0.529023       -14.3955
  17   2.0000      -0.514316       -13.9952
  18   2.0000      -0.481683       -13.1073
  19   2.0000      -0.448538       -12.2053
  20   0.0000       0.024882         0.6771
  21   0.0000       0.032072         0.8727
  22   0.0000       0.036338         0.9888
  23   0.0000       0.040761         1.1092
  24   0.0000       0.052620         1.4319

MULLIKEN ATOMIC CHARGES
-----------------------
   0 H :    0.244343
   1 C :   -0.806887
   2 C :   -0.464717
   3 C :    1.049970
   4 O :   -0.774728
   5 O :   -0.670180
   6 H :    0.292345
   7 H :    0.251002
   8 H :    0.264277
   9 H :    0.316779
  10 H :    0.297797
Sum of atomic charges:    0.0000000

LOEWDIN ATOMIC CHARGES
----------------------
   0 H :   -0.282852
   1 C :    0.921341
   2 C :    0.447227
   3 C :   -1.031731
   4 O :    0.700199
   5 O :    1.249752
   6 H :   -0.284050
   7 H :   -0.289350
   8 H :   -0.298851
   9 H :   -0.817459
  10 H :   -0.314228

  Mayer bond orders larger than 0.100000
B(  0-H ,  1-C ) :   0.9204 B(  1-C ,  2-C ) :   0.9588 B(  1-C ,  6-H ) :   0.9276
B(  1-C ,  7-H ) :   0.9297 B(  2-C ,  3-C ) :   1.0007 B(  2-C ,  8-H ) :   0.9065
B(  2-C , 10-H ) :   0.9041 B(  3-C ,  4-O ) :   1.4411 B(  3-C ,  5-O ) :   0.8729
B(  5-O ,  9-H ) :   0.9228

MP2 TOTAL ENERGY:     -268.022633543 Eh
FINAL SINGLE POINT ENERGY      -268.022633543337

DIPOLE MOMENT
-------------
                                X             Y             Z
Electronic contribution:      5.77239      -0.28561       0.11082
Nuclear contribution   :     -6.32903       0.86420       0.07024
                        -----------------------------------------
Total Dipole Moment    :     -0.55665       0.57859       0.18106
                        -----------------------------------------
Magnitude (a.u.)       :      0.82305
Magnitude (Debye)      :      2.09202

Rotational constants in cm-1:     0.287145     0.130058     0.104839
Rotational constants in MHz :  8608.387936  3899.043479  3142.996277

                             ****ORCA TERMINATED NORMALLY****
TOTAL RUN TIME: 0 days 0 hours 11 minutes 51 seconds 14 msec
