                         Program Version 5.0.4 -  RELEASE  -
|  1> !ri-mp2 aug-cc-pvqz aug-cc-pvqz/c tightscf
|  2> %pal nprocs 16 end
|  3>
|  4> * xyz 0 1
|  5> C      0.136653   -2.474879        0.000000
|  6> C     -1.086113   -1.807655        0.000000
|  7> C      1.225830   -0.491905        0.000000
|  8> C      0.000000    0.176466        0.000000
|  9> C     -0.001608    1.673965        0.000000
| 10> N      1.295696   -1.820586        0.000000
| 11> N     -1.158456   -0.482162        0.000000
| 12> O      1.008915    2.334974        0.000000
| 13> O     -1.233924    2.207653        0.000000
| 14> H      0.179099   -3.557509        0.000000
| 15> H     -2.020706   -2.355520        0.000000
| 16> H      2.152353    0.065708        0.000000
| 17> H     -1.119931    3.169586        0.000000
| 18> *
| 19>
| 20>                          ****END OF INPUT****

CARTESIAN COORDINATES (ANGSTROEM)
---------------------------------
  C      0.136653   -2.474879    0.000000
  C     -1.086113   -1.807655    0.000000
  C      1.225830   -0.491905    0.000000
  C      0.000000    0.176466    0.000000
  C     -0.001608    1.673965    0.000000
  N      1.295696   -1.820586    0.000000
  N     -1.158456   -0.482162    0.000000
  O      1.008915    2.334974    0.000000
  O     -1.233924    2.207653    0.000000
  H      0.179099   -3.557509    0.000000
  H     -2.020706   -2.355520    0.000000
  H      2.152353    0.065708    0.000000
  H     -1.119931    3.169586    0.000000

 Total Charge           Charge          ....    0
 Multiplicity           Mult            ....    1
 Number of Electrons    NEL             ....   64
 Basis Dimension        Dim             ....  904

ORBITAL ENERGIES
----------------

  NO   OCC          E(Eh)            E(eV)
   0   2.0000     -20.619927      -561.0967
   1   2.0000     -20.559606      -559.4553
   2   2.0000     -15.611572      -424.8125
   3   2.0000     -15.603217      -424.5851
   4   2.0000     -11.403035      -310.2924
   5   2.0000     -11.305940      -307.6503
   6   2.0000     -11.303373      -307.5804
   7   2.0000     -11.301270      -307.5232
   8   2.0000     -11.296389      -307.3904
   9   2.0000      -1.478218       -40.2244
  10   2.0000      -1.374317       -37.3971
  11   2.0000      -1.328870       -36.1604
  12   2.0000      -1.239843       -33.7378
  13   2.0000      -1.083652       -29.4877
  14   2.0000      -0.950865       -25.8744
  15   2.0000      -0.917633       -24.9701
  16   2.0000      -0.847353       -23.0577
  17   2.0000      -0.750141       -20.4124
  18   2.0000      -0.736089       -20.0300
  19   2.0000      -0.707175       -19.2432
  20   2.0000      -0.700904       -19.0726
  21   2.0000      -0.651927       -17.7398
  22   2.0000      -0.650555       -17.7025
  23   2.0000      -0.608793       -16.5661
  24   2.0000      -0.588049       -16.0016
  25   2.0000      -0.575361       -15.6564
  26   2.0000      -0.514045       -13.9879
  27   2.0000      -0.497986       -13.5509
  28   2.0000      -0.480545       -13.0763
  29   2.0000      -0.453822       -12.3491
  30   2.0000      -0.423948       -11.5362
  31   2.0000      -0.375585       -10.2202
  32   0.0000       0.021652         0.5892
  33   0.0000       0.028940         0.7875
  34   0.0000       0.033984         0.9247
  35   0.0000       0.042186         1.1479
  36   0.0000       0.044848         1.2204

MULLIKEN ATOMIC CHARGES
-----------------------
   0 C :   -0.104883
   1 C :   -0.425086
   2 C :    0.071150
   3 C :   -0.472583
   4 C :    1.554387
   5 N :   -0.760572
   6 N :   -0.343980
   7 O :   -0.763083
   8 O :   -0.632291
   9 H :    0.537971
  10 H :    0.479789
  11 H :    0.547869
  12 H :    0.311311
Sum of atomic charges:   -0.0000000

LOEWDIN ATOMIC CHARGES
----------------------
   0 C :    0.086179
   1 C :    0.091562
   2 C :    0.054385
   3 C :   -0.426283
   4 C :   -1.070628
   5 N :    0.609827
   6 N :    0.583338
   7 O :    0.700682
   8 O :    1.239886
   9 H :   -0.346538
  10 H :   -0.349512
  11 H :   -0.361674
  12 H :   -0.811223

  Mayer bond orders larger than 0.100000
B(  0-C ,  1-C ) :   1.2384 B(  0-C ,  5-N ) :   1.2369 B(  0-C ,  9-H ) :   0.7813
B(  1-C ,  5-N ) :   0.2401 B(  1-C ,  6-N ) :   1.1440 B(  1-C ,  9-H ) :  -0.1193
B(  1-C , 10-H ) :   0.8646 B(  2-C ,  3-C ) :   1.3286 B(  2-C ,  4-C ) :  -0.2321
B(  2-C ,  5-N ) :   1.1193 B(  2-C , 11-H ) :   0.7006 B(  3-C ,  4-C ) :   1.2136
B(  3-C ,  6-N ) :   0.9319 B(  3-C ,  7-O ) :   0.3080 B(  3-C ,  8-O ) :   0.1512
B(  4-C ,  6-N ) :  -0.1339 B(  4-C ,  7-O ) :   1.2086 B(  4-C ,  8-O ) :   0.7314
B(  5-N ,  9-H ) :  -0.1234 B(  5-N , 11-H ) :  -0.1257 B(  7-O ,  8-O ) :   0.1067
B(  8-O , 12-H ) :   0.9430

MP2 TOTAL ENERGY:     -452.242199389 Eh
FINAL SINGLE POINT ENERGY      -452.242199388947

DIPOLE MOMENT
-------------
                                X             Y             Z
Electronic contribution:      0.16513       1.95841      -0.00000
Nuclear contribution   :     -0.78639      -2.53727       0.00000
                        -----------------------------------------
Total Dipole Moment    :     -0.62126      -0.57886      -0.00000
                        -----------------------------------------
Magnitude (a.u.)       :      0.84914
Magnitude (Debye)      :      2.15834

Rotational constants in cm-1:     0.135676     0.042754     0.032510
Rotational constants in MHz :  4067.459624  1281.740308   974.618077

                             ****ORCA TERMINATED NORMALLY****
TOTAL RUN TIME: 0 days 0 hours 30 minutes 20 seconds 339 msec
