                         Program Version 5.0.4 -  RELEASE  -
|  1> !ri-mp2 aug-cc-pvqz aug-cc-pvqz/c tightscf
|  2> %pal nprocs 16 end
|  3>
|  4> * xyz 0 1
|  5> C      0.000000    0.000000    1.114207
|  6> C      0.000000    1.205172    0.423331
|  7> C      0.000000    1.190132   -0.964430
|  8> C      0.000000    0.000000   -1.669598
|  9> C      0.000000   -1.190132   -0.964430
| 10> C      0.000000   -1.205172    0.423331
| 11> F      0.000000    0.000000    2.445370
| 12> F      0.000000    2.356848    1.095325
| 13> F      0.000000    2.356407   -1.619428
| 14> H      0.000000    0.000000   -2.748927
| 15> F      0.000000   -2.356407   -1.619428
| 16> F      0.000000   -2.356848    1.095325
| 17> *
| 18>
| 19>                          ****END OF INPUT****

CARTESIAN COORDINATES (ANGSTROEM)
---------------------------------
  C      0.000000    0.000000    1.114207
  C      0.000000    1.205172    0.423331
  C      0.000000    1.190132   -0.964430
  C      0.000000    0.000000   -1.669598
  C      0.000000   -1.190132   -0.964430
  C      0.000000   -1.205172    0.423331
  F      0.000000    0.000000    2.445370
  F      0.000000    2.356848    1.095325
  F      0.000000    2.356407   -1.619428
  H      0.000000    0.000000   -2.748927
  F      0.000000   -2.356407   -1.619428
  F      0.000000   -2.356848    1.095325

 Total Charge           Charge          ....    0
 Multiplicity           Mult            ....    1
 Number of Electrons    NEL             ....   82
 Basis Dimension        Dim             ....  926

ORBITAL ENERGIES
----------------

  NO   OCC          E(Eh)            E(eV)
   0   2.0000     -26.353321      -717.1103
   1   2.0000     -26.347926      -716.9635
   2   2.0000     -26.347926      -716.9635
   3   2.0000     -26.346990      -716.9380
   4   2.0000     -26.346990      -716.9380
   5   2.0000     -11.383460      -309.7597
   6   2.0000     -11.377838      -309.6067
   7   2.0000     -11.377833      -309.6066
   8   2.0000     -11.372808      -309.4698
   9   2.0000     -11.372729      -309.4677
  10   2.0000     -11.288747      -307.1824
  11   2.0000      -1.683080       -45.7989
  12   2.0000      -1.674552       -45.5669
  13   2.0000      -1.669712       -45.4352
  14   2.0000      -1.660764       -45.1917
  15   2.0000      -1.657751       -45.1097
  16   2.0000      -1.220864       -33.2214
  17   2.0000      -1.082670       -29.4609
  18   2.0000      -1.073987       -29.2247
  19   2.0000      -0.931082       -25.3360
  20   2.0000      -0.919547       -25.0221
  21   2.0000      -0.834245       -22.7010
  22   2.0000      -0.824975       -22.4487
  23   2.0000      -0.809524       -22.0283
  24   2.0000      -0.766417       -20.8553
  25   2.0000      -0.764946       -20.8152
  26   2.0000      -0.764421       -20.8009
  27   2.0000      -0.746569       -20.3152
  28   2.0000      -0.742345       -20.2002
  29   2.0000      -0.733294       -19.9540
  30   2.0000      -0.718340       -19.5470
  31   2.0000      -0.714827       -19.4514
  32   2.0000      -0.698093       -18.9961
  33   2.0000      -0.695538       -18.9265
  34   2.0000      -0.693389       -18.8681
  35   2.0000      -0.638146       -17.3648
  36   2.0000      -0.602258       -16.3883
  37   2.0000      -0.600090       -16.3293
  38   2.0000      -0.540313       -14.7027
  39   2.0000      -0.388763       -10.5788
  40   2.0000      -0.377389       -10.2693
  41   0.0000       0.023108         0.6288
  42   0.0000       0.043369         1.1801
  43   0.0000       0.047064         1.2807
  44   0.0000       0.063088         1.7167
  45   0.0000       0.064345         1.7509

MULLIKEN ATOMIC CHARGES
-----------------------
   0 C :    0.730516
   1 C :    0.741980
   2 C :    0.747315
   3 C :   -0.676547
   4 C :    0.747284
   5 C :    0.741969
   6 F :   -0.676106
   7 F :   -0.720963
   8 F :   -0.722636
   9 H :    0.530783
  10 F :   -0.722636
  11 F :   -0.720960
Sum of atomic charges:   -0.0000000

LOEWDIN ATOMIC CHARGES
----------------------
   0 C :   -0.797453
   1 C :   -0.789116
   2 C :   -0.751233
   3 C :    0.250111
   4 C :   -0.751233
   5 C :   -0.789116
   6 F :    0.798937
   7 F :    0.788725
   8 F :    0.793010
   9 H :   -0.334368
  10 F :    0.793010
  11 F :    0.788725

  Mayer bond orders larger than 0.100000
B(  0-C ,  1-C ) :   1.4747 B(  0-C ,  5-C ) :   1.4747 B(  0-C ,  6-F ) :   0.1608
B(  1-C ,  2-C ) :   1.5146 B(  1-C ,  4-C ) :   0.1502 B(  1-C ,  7-F ) :   0.1483
B(  2-C ,  3-C ) :   1.3792 B(  2-C ,  4-C ) :  -0.2121 B(  2-C ,  5-C ) :   0.1502
B(  2-C ,  8-F ) :   0.1568 B(  3-C ,  4-C ) :   1.3793 B(  3-C ,  8-F ) :   0.1155
B(  3-C ,  9-H ) :   0.6687 B(  3-C , 10-F ) :   0.1155 B(  4-C ,  5-C ) :   1.5146
B(  4-C , 10-F ) :   0.1568 B(  5-C , 11-F ) :   0.1482

MP2 TOTAL ENERGY:     -727.597802606 Eh
FINAL SINGLE POINT ENERGY      -727.597802605634

DIPOLE MOMENT
-------------
                                X             Y             Z
Electronic contribution:     -0.00000      -0.00000       3.13195
Nuclear contribution   :      0.00000      -0.00000      -3.78330
                        -----------------------------------------
Total Dipole Moment    :     -0.00000      -0.00000      -0.65135
                        -----------------------------------------
Magnitude (a.u.)       :      0.65135
Magnitude (Debye)      :      1.65559

Rotational constants in cm-1:     0.049379     0.034337     0.020253
Rotational constants in MHz :  1480.340020  1029.387036   607.174721

                             ****ORCA TERMINATED NORMALLY****
TOTAL RUN TIME: 0 days 0 hours 39 minutes 17 seconds 280 msec
