                         Program Version 5.0.4 -  RELEASE  -
|  1> !ri-mp2 aug-cc-pvqz aug-cc-pvqz/c tightscf
|  2> %pal nprocs 16 end
|  3> %maxcore 3800
|  4>
|  5> * xyz 0 1
|  6> C      0.900306   -3.825697    0.000000
|  7> C      0.901539   -3.124972    1.200332
|  8> C      0.901539   -3.124972   -1.200332
|  9> C      0.901539   -1.735317    1.197099
| 10> C      0.901539   -1.735317   -1.197099
| 11> C      0.899114   -1.017757    0.000000
| 12> C     -2.041142    4.699080    0.000000
| 13> C      0.860460    0.490669    0.000000
| 14> C     -2.015889    3.171462    0.000000
| 15> C     -0.566581    1.063132    0.000000
| 16> C     -0.600850    2.591122    0.000000
| 17> H      0.903787   -4.907472    0.000000
| 18> H      0.907522   -3.660707    2.140621
| 19> H      0.907522   -3.660707   -2.140621
| 20> H      0.909093   -1.198296    2.138067
| 21> H      0.909093   -1.198296   -2.138067
| 22> H     -1.536298    5.101628   -0.880619
| 23> H     -3.062669    5.081774    0.000000
| 24> H     -1.536298    5.101628    0.880619
| 25> H      1.394032    0.869083    0.875785
| 26> H      1.394032    0.869083   -0.875785
| 27> H     -2.557854    2.797729    0.873851
| 28> H     -2.557854    2.797729   -0.873851
| 29> H     -1.103777    0.683533    0.873971
| 30> H     -1.103777    0.683533   -0.873971
| 31> H     -0.058001    2.965583    0.874525
| 32> H     -0.058001    2.965583   -0.874525
| 33> *
| 34>
| 35>                          ****END OF INPUT****

CARTESIAN COORDINATES (ANGSTROEM)
---------------------------------
  C      0.900306   -3.825697    0.000000
  C      0.901539   -3.124972    1.200332
  C      0.901539   -3.124972   -1.200332
  C      0.901539   -1.735317    1.197099
  C      0.901539   -1.735317   -1.197099
  C      0.899114   -1.017757    0.000000
  C     -2.041142    4.699080    0.000000
  C      0.860460    0.490669    0.000000
  C     -2.015889    3.171462    0.000000
  C     -0.566581    1.063132    0.000000
  C     -0.600850    2.591122    0.000000
  H      0.903787   -4.907472    0.000000
  H      0.907522   -3.660707    2.140621
  H      0.907522   -3.660707   -2.140621
  H      0.909093   -1.198296    2.138067
  H      0.909093   -1.198296   -2.138067
  H     -1.536298    5.101628   -0.880619
  H     -3.062669    5.081774    0.000000
  H     -1.536298    5.101628    0.880619
  H      1.394032    0.869083    0.875785
  H      1.394032    0.869083   -0.875785
  H     -2.557854    2.797729    0.873851
  H     -2.557854    2.797729   -0.873851
  H     -1.103777    0.683533    0.873971
  H     -1.103777    0.683533   -0.873971
  H     -0.058001    2.965583    0.874525
  H     -0.058001    2.965583   -0.874525

 Total Charge           Charge          ....    0
 Multiplicity           Mult            ....    1
 Number of Electrons    NEL             ....   82
 Basis Dimension        Dim             .... 1616

ORBITAL ENERGIES
----------------

  NO   OCC          E(Eh)            E(eV)
   0   2.0000     -11.235209      -305.7256
   1   2.0000     -11.229873      -305.5804
   2   2.0000     -11.229689      -305.5754
   3   2.0000     -11.225949      -305.4736
   4   2.0000     -11.225502      -305.4614
   5   2.0000     -11.225390      -305.4584
   6   2.0000     -11.223436      -305.4052
   7   2.0000     -11.217389      -305.2407
   8   2.0000     -11.215970      -305.2021
   9   2.0000     -11.214830      -305.1710
  10   2.0000     -11.209480      -305.0255
  11   2.0000      -1.153598       -31.3910
  12   2.0000      -1.086446       -29.5637
  13   2.0000      -1.046340       -28.4724
  14   2.0000      -1.010759       -27.5042
  15   2.0000      -0.991568       -26.9819
  16   2.0000      -0.918570       -24.9956
  17   2.0000      -0.837870       -22.7996
  18   2.0000      -0.824114       -22.4253
  19   2.0000      -0.791310       -21.5326
  20   2.0000      -0.785154       -21.3651
  21   2.0000      -0.692224       -18.8364
  22   2.0000      -0.654792       -17.8178
  23   2.0000      -0.632297       -17.2057
  24   2.0000      -0.628313       -17.0973
  25   2.0000      -0.593008       -16.1366
  26   2.0000      -0.586786       -15.9673
  27   2.0000      -0.579837       -15.7782
  28   2.0000      -0.565879       -15.3984
  29   2.0000      -0.560831       -15.2610
  30   2.0000      -0.526451       -14.3254
  31   2.0000      -0.510675       -13.8962
  32   2.0000      -0.502519       -13.6742
  33   2.0000      -0.490507       -13.3474
  34   2.0000      -0.483685       -13.1617
  35   2.0000      -0.474168       -12.9028
  36   2.0000      -0.464496       -12.6396
  37   2.0000      -0.462214       -12.5775
  38   2.0000      -0.449218       -12.2238
  39   2.0000      -0.333871        -9.0851
  40   2.0000      -0.323079        -8.7914
  41   0.0000       0.024867         0.6767
  42   0.0000       0.026917         0.7325
  43   0.0000       0.028478         0.7749
  44   0.0000       0.031662         0.8616
  45   0.0000       0.036856         1.0029

MULLIKEN ATOMIC CHARGES
-----------------------
   0 C :   -0.299782
   1 C :   -0.302643
   2 C :   -0.303173
   3 C :   -0.632656
   4 C :   -0.632601
   5 C :    0.441177
   6 C :   -0.899977
   7 C :   -0.481540
   8 C :   -0.515353
   9 C :   -0.224766
  10 C :   -0.200051
  11 H :    0.337420
  12 H :    0.249097
  13 H :    0.248998
  14 H :    0.270978
  15 H :    0.270998
  16 H :    0.225482
  17 H :    0.267011
  18 H :    0.225474
  19 H :    0.243764
  20 H :    0.243761
  21 H :    0.227602
  22 H :    0.227618
  23 H :    0.259237
  24 H :    0.259259
  25 H :    0.247492
  26 H :    0.247173
Sum of atomic charges:   -0.0000000

LOEWDIN ATOMIC CHARGES
----------------------
   0 C :    0.333618
   1 C :    0.342817
   2 C :    0.342817
   3 C :    0.348706
   4 C :    0.348706
   5 C :   -0.069828
   6 C :    0.926707
   7 C :    0.503452
   8 C :    0.510665
   9 C :    0.530437
  10 C :    0.515174
  11 H :   -0.327016
  12 H :   -0.323246
  13 H :   -0.323246
  14 H :   -0.314804
  15 H :   -0.314804
  16 H :   -0.285561
  17 H :   -0.284665
  18 H :   -0.285561
  19 H :   -0.283319
  20 H :   -0.283319
  21 H :   -0.272743
  22 H :   -0.272743
  23 H :   -0.263796
  24 H :   -0.263796
  25 H :   -0.267325
  26 H :   -0.267325

  Mayer bond orders larger than 0.100000
B(  0-C ,  1-C ) :   1.1214 B(  0-C ,  2-C ) :   1.1215 B(  0-C , 11-H ) :   0.9927
B(  0-C , 12-H ) :  -0.1037 B(  0-C , 13-H ) :  -0.1038 B(  1-C ,  3-C ) :   1.3757
B(  1-C ,  4-C ) :   0.1552 B(  1-C ,  5-C ) :  -0.3368 B(  1-C , 12-H ) :   1.1361
B(  2-C ,  3-C ) :   0.1551 B(  2-C ,  4-C ) :   1.3764 B(  2-C ,  5-C ) :  -0.3367
B(  2-C , 13-H ) :   1.1361 B(  3-C ,  5-C ) :   0.9994 B(  3-C ,  7-C ) :  -0.1851
B(  3-C , 12-H ) :  -0.1437 B(  3-C , 14-H ) :   0.9798 B(  4-C ,  5-C ) :   0.9993
B(  4-C ,  7-C ) :  -0.1852 B(  4-C , 13-H ) :  -0.1436 B(  4-C , 15-H ) :   0.9799
B(  5-C ,  7-C ) :   1.0003 B(  6-C ,  8-C ) :   1.0412 B(  6-C , 10-C ) :  -0.1274
B(  6-C , 16-H ) :   0.9540 B(  6-C , 17-H ) :   1.0305 B(  6-C , 18-H ) :   0.9540
B(  7-C ,  9-C ) :   0.9890 B(  7-C , 19-H ) :   0.9111 B(  7-C , 20-H ) :   0.9111
B(  8-C , 10-C ) :   0.9686 B(  8-C , 17-H ) :  -0.1059 B(  8-C , 21-H ) :   0.8795
B(  8-C , 22-H ) :   0.8794 B(  9-C , 10-C ) :   0.9804 B(  9-C , 23-H ) :   0.8314
B(  9-C , 24-H ) :   0.8313 B( 10-C , 25-H ) :   0.8488 B( 10-C , 26-H ) :   0.8489

MP2 TOTAL ENERGY:     -427.997052343 Eh
FINAL SINGLE POINT ENERGY      -427.997052342920

DIPOLE MOMENT
-------------
                                X             Y             Z
Electronic contribution:      6.42482     -15.71084       0.00000
Nuclear contribution   :     -6.49196      15.88481       0.00000
                        -----------------------------------------
Total Dipole Moment    :     -0.06715       0.17397       0.00000
                        -----------------------------------------
Magnitude (a.u.)       :      0.18648
Magnitude (Debye)      :      0.47399

Rotational constants in cm-1:     0.120067     0.012418     0.011977
Rotational constants in MHz :  3599.532008   372.286641   359.051766

                             ****ORCA TERMINATED NORMALLY****
TOTAL RUN TIME: 0 days 3 hours 6 minutes 35 seconds 473 msec
