                         Program Version 5.0.4 -  RELEASE  -
|  1> !ri-mp2 aug-cc-pvqz aug-cc-pvqz/c tightscf
|  2> %pal nprocs 16 end
|  3>
|  4> * xyz 0 1
|  5> C      0.021569   -1.850874        0.000000
|  6> C     -1.183942   -1.160029        0.000000
|  7> C      1.216077   -1.136120        0.000000
|  8> C     -1.200429    0.230252        0.000000
|  9> C      1.212740    0.251632        0.000000
| 10> C      0.000000    0.935940        0.000000
| 11> O      0.048212    2.303596        0.000000
| 12> H      0.031441   -2.931667        0.000000
| 13> H     -2.120454   -1.701426        0.000000
| 14> H      2.160924   -1.662963        0.000000
| 15> H     -2.142899    0.765406        0.000000
| 16> H      2.134448    0.816335        0.000000
| 17> H     -0.845249    2.660743        0.000000
| 18> *
| 19>
| 20>                          ****END OF INPUT****

CARTESIAN COORDINATES (ANGSTROEM)
---------------------------------
  C      0.021569   -1.850874    0.000000
  C     -1.183942   -1.160029    0.000000
  C      1.216077   -1.136120    0.000000
  C     -1.200429    0.230252    0.000000
  C      1.212740    0.251632    0.000000
  C      0.000000    0.935940    0.000000
  O      0.048212    2.303596    0.000000
  H      0.031441   -2.931667    0.000000
  H     -2.120454   -1.701426    0.000000
  H      2.160924   -1.662963    0.000000
  H     -2.142899    0.765406    0.000000
  H      2.134448    0.816335    0.000000
  H     -0.845249    2.660743    0.000000

 Total Charge           Charge          ....    0
 Multiplicity           Mult            ....    1
 Number of Electrons    NEL             ....   50
 Basis Dimension        Dim             ....  836

ORBITAL ENERGIES
----------------

  NO   OCC          E(Eh)            E(eV)
   0   2.0000     -20.589189      -560.2603
   1   2.0000     -11.303023      -307.5709
   2   2.0000     -11.241238      -305.8896
   3   2.0000     -11.239255      -305.8357
   4   2.0000     -11.233131      -305.6690
   5   2.0000     -11.227184      -305.5072
   6   2.0000     -11.225931      -305.4731
   7   2.0000      -1.405442       -38.2440
   8   2.0000      -1.150040       -31.2942
   9   2.0000      -1.022064       -27.8118
  10   2.0000      -1.006889       -27.3988
  11   2.0000      -0.848359       -23.0850
  12   2.0000      -0.824813       -22.4443
  13   2.0000      -0.735689       -20.0191
  14   2.0000      -0.687059       -18.6958
  15   2.0000      -0.653651       -17.7867
  16   2.0000      -0.611813       -16.6483
  17   2.0000      -0.592953       -16.1351
  18   2.0000      -0.591836       -16.1047
  19   2.0000      -0.569976       -15.5098
  20   2.0000      -0.518248       -14.1022
  21   2.0000      -0.495289       -13.4775
  22   2.0000      -0.485737       -13.2176
  23   2.0000      -0.344396        -9.3715
  24   2.0000      -0.317329        -8.6350
  25   0.0000       0.023309         0.6343
  26   0.0000       0.028893         0.7862
  27   0.0000       0.031708         0.8628
  28   0.0000       0.042107         1.1458
  29   0.0000       0.044543         1.2121

MULLIKEN ATOMIC CHARGES
-----------------------
   0 C :   -0.324507
   1 C :   -0.335827
   2 C :   -0.400733
   3 C :   -0.530082
   4 C :   -0.436026
   5 C :    0.968772
   6 O :   -0.795836
   7 H :    0.302676
   8 H :    0.287144
   9 H :    0.251980
  10 H :    0.272978
  11 H :    0.383349
  12 H :    0.356112
Sum of atomic charges:   -0.0000000

LOEWDIN ATOMIC CHARGES
----------------------
   0 C :    0.328073
   1 C :    0.323188
   2 C :    0.322609
   3 C :    0.324378
   4 C :    0.317325
   5 C :   -0.442257
   6 O :    1.270515
   7 H :   -0.332139
   8 H :   -0.322953
   9 H :   -0.322934
  10 H :   -0.328152
  11 H :   -0.329898
  12 H :   -0.807755

  Mayer bond orders larger than 0.100000
B(  0-C ,  1-C ) :   1.1931 B(  0-C ,  2-C ) :   1.1793 B(  0-C ,  7-H ) :   1.0279
B(  1-C ,  3-C ) :   1.2540 B(  1-C ,  5-C ) :  -0.1406 B(  1-C ,  8-H ) :   1.0359
B(  2-C ,  4-C ) :   1.3038 B(  2-C ,  5-C ) :  -0.1847 B(  2-C ,  9-H ) :   1.1028
B(  3-C ,  5-C ) :   1.2810 B(  3-C ,  6-O ) :   0.2018 B(  3-C ,  8-H ) :  -0.1024
B(  3-C , 10-H ) :   1.0126 B(  4-C ,  5-C ) :   1.2695 B(  4-C ,  6-O ) :   0.2642
B(  4-C ,  9-H ) :  -0.1022 B(  4-C , 11-H ) :   0.8774 B(  5-C ,  6-O ) :   0.1226
B(  6-O , 12-H ) :   0.8942

MP2 TOTAL ENERGY:     -306.962763378 Eh
FINAL SINGLE POINT ENERGY      -306.962763378099

DIPOLE MOMENT
-------------
                                X             Y             Z
Electronic contribution:      0.25307       1.92657       0.00000
Nuclear contribution   :     -0.77929      -2.01277       0.00000
                        -----------------------------------------
Total Dipole Moment    :     -0.52623      -0.08620       0.00000
                        -----------------------------------------
Magnitude (a.u.)       :      0.53324
Magnitude (Debye)      :      1.35539

Rotational constants in cm-1:     0.189871     0.087636     0.059961
Rotational constants in MHz :  5692.198243  2627.248847  1797.573938

                             ****ORCA TERMINATED NORMALLY****
TOTAL RUN TIME: 0 days 0 hours 30 minutes 10 seconds 164 msec
