                         Program Version 5.0.4 -  RELEASE  -
|  1> !ri-mp2 aug-cc-pvqz aug-cc-pvqz/c tightscf
|  2> %pal nprocs 16 end
|  3>
|  4> * xyz 0 1
|  5> H      0.523976   -2.089870    0.151478
|  6> N     -1.558037    0.145643    0.423258
|  7> O     -2.483813    0.541713   -0.169766
|  8> O     -0.642907   -0.522944   -0.431654
|  9> C      1.780908   -0.362548   -0.207690
| 10> H      1.873022   -0.557573   -1.278447
| 11> H      2.615550   -0.879811    0.273817
| 12> C      0.501420   -1.009602    0.298749
| 13> H      0.339389   -0.803022    1.358537
| 14> H      2.807723    1.545267   -0.303725
| 15> H      1.808716    1.348492    1.134869
| 16> H      1.057381    1.676612   -0.426643
| 17> C      1.866715    1.137191    0.065387
| 18> *
| 19>
| 20>                          ****END OF INPUT****

CARTESIAN COORDINATES (ANGSTROEM)
---------------------------------
  H      0.523976   -2.089870    0.151478
  N     -1.558037    0.145643    0.423258
  O     -2.483813    0.541713   -0.169766
  O     -0.642907   -0.522944   -0.431654
  C      1.780908   -0.362548   -0.207690
  H      1.873022   -0.557573   -1.278447
  H      2.615550   -0.879811    0.273817
  C      0.501420   -1.009602    0.298749
  H      0.339389   -0.803022    1.358537
  H      2.807723    1.545267   -0.303725
  H      1.808716    1.348492    1.134869
  H      1.057381    1.676612   -0.426643
  C      1.866715    1.137191    0.065387

 Total Charge           Charge          ....    0
 Multiplicity           Mult            ....    1
 Number of Electrons    NEL             ....   48
 Basis Dimension        Dim             ....  802

ORBITAL ENERGIES
----------------

  NO   OCC          E(Eh)            E(eV)
   0   2.0000     -20.648236      -561.8671
   1   2.0000     -20.617802      -561.0389
   2   2.0000     -15.781083      -429.4251
   3   2.0000     -11.293510      -307.3120
   4   2.0000     -11.234532      -305.7072
   5   2.0000     -11.220942      -305.3373
   6   2.0000      -1.595208       -43.4078
   7   2.0000      -1.394056       -37.9342
   8   2.0000      -1.072154       -29.1748
   9   2.0000      -0.969091       -26.3703
  10   2.0000      -0.903723       -24.5915
  11   2.0000      -0.824397       -22.4330
  12   2.0000      -0.747603       -20.3433
  13   2.0000      -0.717284       -19.5183
  14   2.0000      -0.689543       -18.7634
  15   2.0000      -0.628222       -17.0948
  16   2.0000      -0.620557       -16.8862
  17   2.0000      -0.590313       -16.0632
  18   2.0000      -0.552807       -15.0426
  19   2.0000      -0.534276       -14.5384
  20   2.0000      -0.505047       -13.7430
  21   2.0000      -0.493647       -13.4328
  22   2.0000      -0.459948       -12.5158
  23   2.0000      -0.442389       -12.0380
  24   0.0000       0.024610         0.6697
  25   0.0000       0.031541         0.8583
  26   0.0000       0.034437         0.9371
  27   0.0000       0.041080         1.1178
  28   0.0000       0.053110         1.4452

MULLIKEN ATOMIC CHARGES
-----------------------
   0 H :    0.318149
   1 N :    0.453603
   2 O :   -0.424084
   3 O :   -0.597475
   4 C :   -0.481963
   5 H :    0.260691
   6 H :    0.284922
   7 C :   -0.037494
   8 H :    0.282964
   9 H :    0.308462
  10 H :    0.218225
  11 H :    0.232741
  12 C :   -0.818738
Sum of atomic charges:   -0.0000000

LOEWDIN ATOMIC CHARGES
----------------------
   0 H :   -0.313044
   1 N :   -0.328093
   2 O :    0.364204
   3 O :    0.565696
   4 C :    0.481468
   5 H :   -0.283604
   6 H :   -0.283214
   7 C :    0.107595
   8 H :   -0.356408
   9 H :   -0.284307
  10 H :   -0.287045
  11 H :   -0.295205
  12 C :    0.911958

  Mayer bond orders larger than 0.100000
B(  0-H ,  7-C ) :   0.8535 B(  1-N ,  2-O ) :   1.7536 B(  1-N ,  3-O ) :   1.0336
B(  1-N ,  7-C ) :  -0.1047 B(  3-O ,  7-C ) :   0.6982 B(  4-C ,  5-H ) :   0.8690
B(  4-C ,  6-H ) :   0.8722 B(  4-C ,  7-C ) :   0.9941 B(  4-C , 12-C ) :   0.9361
B(  7-C ,  8-H ) :   0.9227 B(  9-H , 12-C ) :   0.9405 B( 10-H , 12-C ) :   0.9561
B( 11-H , 12-C ) :   0.9430

MP2 TOTAL ENERGY:     -323.175870454 Eh
FINAL SINGLE POINT ENERGY      -323.175870453665

DIPOLE MOMENT
-------------
                                X             Y             Z
Electronic contribution:    -10.12381      -0.57753      -0.50681
Nuclear contribution   :     11.09701       0.24410       0.91356
                        -----------------------------------------
Total Dipole Moment    :      0.97320      -0.33343       0.40675
                        -----------------------------------------
Magnitude (a.u.)       :      1.10623
Magnitude (Debye)      :      2.81181

Rotational constants in cm-1:     0.260837     0.065599     0.056933
Rotational constants in MHz :  7819.683806  1966.604605  1706.799256

                             ****ORCA TERMINATED NORMALLY****
TOTAL RUN TIME: 0 days 0 hours 16 minutes 49 seconds 333 msec
