                         Program Version 5.0.4 -  RELEASE  -
|  1> !ri-mp2 aug-cc-pvqz aug-cc-pvqz/c tightscf
|  2> %pal nprocs 16 end
|  3>
|  4> * xyz 0 1
|  5> C      0.644121    1.194052   -0.006494
|  6> C      0.662041   -1.191017   -0.006314
|  7> C     -0.747351    1.189109   -0.001233
|  8> C     -0.724096   -1.215100   -0.001196
|  9> C      1.376677    0.009928   -0.007134
| 10> C     -1.435402   -0.018408    0.002343
| 11> C      2.883482    0.016860    0.008658
| 12> O     -2.803606   -0.093184    0.005561
| 13> H      1.164240    2.143785   -0.011774
| 14> H      1.201078   -2.130513   -0.011627
| 15> H     -1.293225    2.125496   -0.002769
| 16> H     -1.266997   -2.150003   -0.002681
| 17> H      3.293415   -0.687622   -0.716746
| 18> H      3.277225    1.005159   -0.226732
| 19> H      3.273067   -0.266943    0.989489
| 20> H     -3.176785    0.793560    0.006570
| 21> *
| 22>
| 23>                          ****END OF INPUT****

CARTESIAN COORDINATES (ANGSTROEM)
---------------------------------
  C      0.644121    1.194052   -0.006494
  C      0.662041   -1.191017   -0.006314
  C     -0.747351    1.189109   -0.001233
  C     -0.724096   -1.215100   -0.001196
  C      1.376677    0.009928   -0.007134
  C     -1.435402   -0.018408    0.002343
  C      2.883482    0.016860    0.008658
  O     -2.803606   -0.093184    0.005561
  H      1.164240    2.143785   -0.011774
  H      1.201078   -2.130513   -0.011627
  H     -1.293225    2.125496   -0.002769
  H     -1.266997   -2.150003   -0.002681
  H      3.293415   -0.687622   -0.716746
  H      3.277225    1.005159   -0.226732
  H      3.273067   -0.266943    0.989489
  H     -3.176785    0.793560    0.006570

 Total Charge           Charge          ....    0
 Multiplicity           Mult            ....    1
 Number of Electrons    NEL             ....   58
 Basis Dimension        Dim             .... 1008

ORBITAL ENERGIES
----------------

  NO   OCC          E(Eh)            E(eV)
   0   2.0000     -20.585206      -560.1519
   1   2.0000     -11.296724      -307.3995
   2   2.0000     -11.234678      -305.7111
   3   2.0000     -11.233255      -305.6724
   4   2.0000     -11.231645      -305.6286
   5   2.0000     -11.230338      -305.5930
   6   2.0000     -11.225507      -305.4616
   7   2.0000     -11.220814      -305.3339
   8   2.0000      -1.400768       -38.1168
   9   2.0000      -1.151743       -31.3405
  10   2.0000      -1.037949       -28.2440
  11   2.0000      -1.018161       -27.7056
  12   2.0000      -0.928199       -25.2576
  13   2.0000      -0.845245       -23.0003
  14   2.0000      -0.803580       -21.8665
  15   2.0000      -0.732126       -19.9222
  16   2.0000      -0.671655       -18.2767
  17   2.0000      -0.643505       -17.5107
  18   2.0000      -0.606292       -16.4981
  19   2.0000      -0.590134       -16.0584
  20   2.0000      -0.587559       -15.9883
  21   2.0000      -0.575149       -15.6506
  22   2.0000      -0.570812       -15.5326
  23   2.0000      -0.532188       -14.4816
  24   2.0000      -0.504460       -13.7271
  25   2.0000      -0.487042       -13.2531
  26   2.0000      -0.471580       -12.8323
  27   2.0000      -0.341496        -9.2926
  28   2.0000      -0.306165        -8.3312
  29   0.0000       0.023706         0.6451
  30   0.0000       0.027564         0.7500
  31   0.0000       0.031425         0.8551
  32   0.0000       0.040973         1.1149
  33   0.0000       0.042657         1.1608

MULLIKEN ATOMIC CHARGES
-----------------------
   0 C :   -0.311474
   1 C :   -0.392034
   2 C :   -0.561906
   3 C :   -0.573046
   4 C :    0.420054
   5 C :    0.973297
   6 C :   -0.784413
   7 O :   -0.812360
   8 H :    0.227267
   9 H :    0.267069
  10 H :    0.181115
  11 H :    0.300092
  12 H :    0.214189
  13 H :    0.221342
  14 H :    0.265810
  15 H :    0.364999
Sum of atomic charges:    0.0000000

LOEWDIN ATOMIC CHARGES
----------------------
   0 C :    0.335635
   1 C :    0.333328
   2 C :    0.335698
   3 C :    0.328630
   4 C :   -0.080322
   5 C :   -0.437541
   6 C :    0.899743
   7 O :    1.268206
   8 H :   -0.321432
   9 H :   -0.315750
  10 H :   -0.325744
  11 H :   -0.327199
  12 H :   -0.292557
  13 H :   -0.309415
  14 H :   -0.281903
  15 H :   -0.809376

  Mayer bond orders larger than 0.100000
B(  0-C ,  2-C ) :   1.2456 B(  0-C ,  3-C ) :   0.1090 B(  0-C ,  4-C ) :   1.0100
B(  0-C ,  8-H ) :   1.0331 B(  0-C , 10-H ) :  -0.1518 B(  1-C ,  3-C ) :   1.3511
B(  1-C ,  4-C ) :   1.0254 B(  1-C ,  5-C ) :  -0.1038 B(  1-C ,  9-H ) :   1.0155
B(  1-C , 11-H ) :  -0.1268 B(  2-C ,  4-C ) :  -0.2337 B(  2-C ,  5-C ) :   1.2866
B(  2-C ,  7-O ) :   0.2134 B(  2-C ,  8-H ) :  -0.1336 B(  2-C , 10-H ) :   1.1245
B(  3-C ,  4-C ) :  -0.1775 B(  3-C ,  5-C ) :   1.3252 B(  3-C ,  7-O ) :   0.3330
B(  3-C ,  9-H ) :  -0.1120 B(  3-C , 11-H ) :   0.9736 B(  4-C ,  6-C ) :   0.7088
B(  4-C , 12-H ) :  -0.1081 B(  4-C , 13-H ) :  -0.1143 B(  5-C , 10-H ) :  -0.1025
B(  5-C , 15-H ) :  -0.1131 B(  6-C , 12-H ) :   1.0362 B(  6-C , 13-H ) :   1.0418
B(  6-C , 14-H ) :   0.9659 B(  7-O , 15-H ) :   0.8950

MP2 TOTAL ENERGY:     -346.202822776 Eh
FINAL SINGLE POINT ENERGY      -346.202822776145

DIPOLE MOMENT
-------------
                                X             Y             Z
Electronic contribution:     -6.24673      -0.32494      -0.01754
Nuclear contribution   :      6.47467       0.83751       0.02399
                        -----------------------------------------
Total Dipole Moment    :      0.22794       0.51258       0.00645
                        -----------------------------------------
Magnitude (a.u.)       :      0.56101
Magnitude (Debye)      :      1.42598

Rotational constants in cm-1:     0.184880     0.048659     0.038797
Rotational constants in MHz :  5542.548324  1458.756747  1163.109589

                             ****ORCA TERMINATED NORMALLY****
TOTAL RUN TIME: 0 days 0 hours 49 minutes 24 seconds 34 msec
