                         Program Version 5.0.4 -  RELEASE  -
|  1> !ri-mp2 aug-cc-pvqz aug-cc-pvqz/c tightscf
|  2> %pal nprocs 16 end
|  3> %maxcore 3800
|  4>
|  5> * xyz 0 1
|  6> C     -1.760775    2.179912    0.000000
|  7> C     -3.257433    2.344694    0.000000
|  8> C      3.309060   -3.268875    0.000000
|  9> C      1.838693   -2.855555    0.000000
| 10> C      1.639526   -1.339018    0.000000
| 11> C      0.167821   -0.923390    0.000000
| 12> C      0.000000    0.582801    0.000000
| 13> O     -0.959601    3.081295    0.000000
| 14> O     -1.416146    0.876019    0.000000
| 15> H     -3.685781    1.861519    0.878050
| 16> H     -3.685781    1.861519   -0.878050
| 17> H     -3.506083    3.401176    0.000000
| 18> H      3.827078   -2.884132   -0.880810
| 19> H      3.827078   -2.884132    0.880810
| 20> H      3.417166   -4.354194    0.000000
| 21> H      1.339037   -3.283396    0.874078
| 22> H      1.339037   -3.283396   -0.874078
| 23> H      2.140097   -0.911420    0.874802
| 24> H      2.140097   -0.911420   -0.874802
| 25> H     -0.335676   -1.338585    0.876781
| 26> H     -0.335676   -1.338585   -0.876781
| 27> H      0.452021    1.041556   -0.880361
| 28> H      0.452021    1.041556    0.880361
| 29> *
| 30>
| 31>                          ****END OF INPUT****

CARTESIAN COORDINATES (ANGSTROEM)
---------------------------------
  C     -1.760775    2.179912    0.000000
  C     -3.257433    2.344694    0.000000
  C      3.309060   -3.268875    0.000000
  C      1.838693   -2.855555    0.000000
  C      1.639526   -1.339018    0.000000
  C      0.167821   -0.923390    0.000000
  C      0.000000    0.582801    0.000000
  O     -0.959601    3.081295    0.000000
  O     -1.416146    0.876019    0.000000
  H     -3.685781    1.861519    0.878050
  H     -3.685781    1.861519   -0.878050
  H     -3.506083    3.401176    0.000000
  H      3.827078   -2.884132   -0.880810
  H      3.827078   -2.884132    0.880810
  H      3.417166   -4.354194    0.000000
  H      1.339037   -3.283396    0.874078
  H      1.339037   -3.283396   -0.874078
  H      2.140097   -0.911420    0.874802
  H      2.140097   -0.911420   -0.874802
  H     -0.335676   -1.338585    0.876781
  H     -0.335676   -1.338585   -0.876781
  H      0.452021    1.041556   -0.880361
  H      0.452021    1.041556    0.880361

 Total Charge           Charge          ....    0
 Multiplicity           Mult            ....    1
 Number of Electrons    NEL             ....   72
 Basis Dimension        Dim             .... 1364

ORBITAL ENERGIES
----------------

  NO   OCC          E(Eh)            E(eV)
   0   2.0000     -20.594425      -560.4028
   1   2.0000     -20.537819      -558.8625
   2   2.0000     -11.375611      -309.5461
   3   2.0000     -11.283329      -307.0350
   4   2.0000     -11.237082      -305.7766
   5   2.0000     -11.224872      -305.4443
   6   2.0000     -11.223595      -305.4096
   7   2.0000     -11.221622      -305.3559
   8   2.0000     -11.213348      -305.1307
   9   2.0000      -1.453436       -39.5500
  10   2.0000      -1.353892       -36.8413
  11   2.0000      -1.092277       -29.7224
  12   2.0000      -1.040250       -28.3066
  13   2.0000      -1.003805       -27.3149
  14   2.0000      -0.926770       -25.2187
  15   2.0000      -0.837684       -22.7945
  16   2.0000      -0.799898       -21.7663
  17   2.0000      -0.772679       -21.0257
  18   2.0000      -0.687443       -18.7063
  19   2.0000      -0.686662       -18.6850
  20   2.0000      -0.664864       -18.0919
  21   2.0000      -0.644556       -17.5393
  22   2.0000      -0.604323       -16.4445
  23   2.0000      -0.588273       -16.0077
  24   2.0000      -0.583047       -15.8655
  25   2.0000      -0.563797       -15.3417
  26   2.0000      -0.559102       -15.2139
  27   2.0000      -0.539778       -14.6881
  28   2.0000      -0.521927       -14.2023
  29   2.0000      -0.506053       -13.7704
  30   2.0000      -0.490643       -13.3511
  31   2.0000      -0.478288       -13.0149
  32   2.0000      -0.469956       -12.7882
  33   2.0000      -0.467570       -12.7232
  34   2.0000      -0.456537       -12.4230
  35   2.0000      -0.442893       -12.0517
  36   0.0000       0.024150         0.6572
  37   0.0000       0.025920         0.7053
  38   0.0000       0.032471         0.8836
  39   0.0000       0.033446         0.9101
  40   0.0000       0.038741         1.0542

MULLIKEN ATOMIC CHARGES
-----------------------
   0 C :    0.851546
   1 C :   -0.747535
   2 C :   -0.910698
   3 C :   -0.503763
   4 C :   -0.244143
   5 C :   -0.534932
   6 C :    0.028056
   7 O :   -0.751037
   8 O :   -0.762147
   9 H :    0.287787
  10 H :    0.287792
  11 H :    0.315432
  12 H :    0.224572
  13 H :    0.224576
  14 H :    0.267777
  15 H :    0.222568
  16 H :    0.222517
  17 H :    0.232762
  18 H :    0.232790
  19 H :    0.281158
  20 H :    0.281179
  21 H :    0.246779
  22 H :    0.246964
Sum of atomic charges:    0.0000000

LOEWDIN ATOMIC CHARGES
----------------------
   0 C :   -1.064805
   1 C :    0.870033
   2 C :    0.928212
   3 C :    0.509567
   4 C :    0.507154
   5 C :    0.507497
   6 C :    0.170302
   7 O :    0.707143
   8 O :    0.863753
   9 H :   -0.302027
  10 H :   -0.302027
  11 H :   -0.324291
  12 H :   -0.284652
  13 H :   -0.284652
  14 H :   -0.284050
  15 H :   -0.272782
  16 H :   -0.272782
  17 H :   -0.267161
  18 H :   -0.267161
  19 H :   -0.270924
  20 H :   -0.270924
  21 H :   -0.297712
  22 H :   -0.297712

  Mayer bond orders larger than 0.100000
B(  0-C ,  1-C ) :   0.8947 B(  0-C ,  7-O ) :   1.3463 B(  0-C ,  8-O ) :   1.0483
B(  1-C ,  9-H ) :   0.9202 B(  1-C , 10-H ) :   0.9202 B(  1-C , 11-H ) :   0.9699
B(  2-C ,  3-C ) :   1.0446 B(  2-C ,  4-C ) :  -0.1265 B(  2-C , 12-H ) :   0.9541
B(  2-C , 13-H ) :   0.9541 B(  2-C , 14-H ) :   1.0213 B(  3-C ,  4-C ) :   0.9911
B(  3-C , 15-H ) :   0.8865 B(  3-C , 16-H ) :   0.8865 B(  4-C ,  5-C ) :   1.0198
B(  4-C ,  6-C ) :  -0.1243 B(  4-C , 17-H ) :   0.8605 B(  4-C , 18-H ) :   0.8604
B(  5-C ,  6-C ) :   1.3146 B(  5-C ,  8-O ) :   0.1777 B(  5-C , 19-H ) :   0.8108
B(  5-C , 20-H ) :   0.8109 B(  6-C ,  7-O ) :   0.2282 B(  6-C ,  8-O ) :   0.5384
B(  6-C , 21-H ) :   0.8828 B(  6-C , 22-H ) :   0.8826

MP2 TOTAL ENERGY:     -424.954829784 Eh
FINAL SINGLE POINT ENERGY      -424.954829784152

DIPOLE MOMENT
-------------
                                X             Y             Z
Electronic contribution:     -7.93962      11.50146       0.00000
Nuclear contribution   :      7.63129     -12.38047       0.00000
                        -----------------------------------------
Total Dipole Moment    :     -0.30832      -0.87901       0.00000
                        -----------------------------------------
Magnitude (a.u.)       :      0.93152
Magnitude (Debye)      :      2.36774

Rotational constants in cm-1:     0.218133     0.015554     0.014755
Rotational constants in MHz :  6539.456344   466.287824   442.349090

                             ****ORCA TERMINATED NORMALLY****
TOTAL RUN TIME: 0 days 1 hours 38 minutes 33 seconds 492 msec
