                         Program Version 5.0.4 -  RELEASE  -
|  1> !ri-mp2 aug-cc-pvqz aug-cc-pvqz/c tightscf
|  2> %pal nprocs 16 end
|  3> %maxcore 3800
|  4>
|  5> * xyz 0 1
|  6> C      0.000000    0.612118    0.000000
|  7> C      3.008130    3.090722    0.000000
|  8> C     -2.513916   -3.581102    0.000000
|  9> C      1.428318    1.107953    0.000000
| 10> C      1.552590    2.627842    0.000000
| 11> C     -1.172950   -2.848444    0.000000
| 12> C     -1.353001   -1.343669    0.000000
| 13> O     -0.985991    1.306773    0.000000
| 14> O     -0.041603   -0.736721    0.000000
| 15> H      3.073746    4.179115    0.000000
| 16> H      3.541696    2.727258    0.880860
| 17> H      3.541696    2.727258   -0.880860
| 18> H     -3.106341   -3.328029   -0.881190
| 19> H     -2.366530   -4.660890    0.000000
| 20> H     -3.106341   -3.328029    0.881190
| 21> H      1.929119    0.673098    0.869456
| 22> H      1.929119    0.673098   -0.869456
| 23> H      1.031923    3.030231   -0.870409
| 24> H      1.031923    3.030231    0.870409
| 25> H     -0.587970   -3.136322   -0.876168
| 26> H     -0.587970   -3.136322    0.876168
| 27> H     -1.899180   -1.001821   -0.880481
| 28> H     -1.899180   -1.001821    0.880481
| 29> *
| 30>
| 31>                          ****END OF INPUT****

CARTESIAN COORDINATES (ANGSTROEM)
---------------------------------
  C      0.000000    0.612118    0.000000
  C      3.008130    3.090722    0.000000
  C     -2.513916   -3.581102    0.000000
  C      1.428318    1.107953    0.000000
  C      1.552590    2.627842    0.000000
  C     -1.172950   -2.848444    0.000000
  C     -1.353001   -1.343669    0.000000
  O     -0.985991    1.306773    0.000000
  O     -0.041603   -0.736721    0.000000
  H      3.073746    4.179115    0.000000
  H      3.541696    2.727258    0.880860
  H      3.541696    2.727258   -0.880860
  H     -3.106341   -3.328029   -0.881190
  H     -2.366530   -4.660890    0.000000
  H     -3.106341   -3.328029    0.881190
  H      1.929119    0.673098    0.869456
  H      1.929119    0.673098   -0.869456
  H      1.031923    3.030231   -0.870409
  H      1.031923    3.030231    0.870409
  H     -0.587970   -3.136322   -0.876168
  H     -0.587970   -3.136322    0.876168
  H     -1.899180   -1.001821   -0.880481
  H     -1.899180   -1.001821    0.880481

 Total Charge           Charge          ....    0
 Multiplicity           Mult            ....    1
 Number of Electrons    NEL             ....   72
 Basis Dimension        Dim             .... 1364

ORBITAL ENERGIES
----------------

  NO   OCC          E(Eh)            E(eV)
   0   2.0000     -20.592653      -560.3546
   1   2.0000     -20.536700      -558.8320
   2   2.0000     -11.371949      -309.4465
   3   2.0000     -11.282734      -307.0188
   4   2.0000     -11.238066      -305.8033
   5   2.0000     -11.226976      -305.5015
   6   2.0000     -11.222113      -305.3692
   7   2.0000     -11.220441      -305.3237
   8   2.0000     -11.215192      -305.1809
   9   2.0000      -1.452037       -39.5119
  10   2.0000      -1.352822       -36.8122
  11   2.0000      -1.083716       -29.4894
  12   2.0000      -1.063761       -28.9464
  13   2.0000      -0.979832       -26.6626
  14   2.0000      -0.928836       -25.2749
  15   2.0000      -0.835312       -22.7300
  16   2.0000      -0.811738       -22.0885
  17   2.0000      -0.765577       -20.8324
  18   2.0000      -0.689819       -18.7709
  19   2.0000      -0.686693       -18.6859
  20   2.0000      -0.666945       -18.1485
  21   2.0000      -0.644734       -17.5441
  22   2.0000      -0.605353       -16.4725
  23   2.0000      -0.597209       -16.2509
  24   2.0000      -0.573220       -15.5981
  25   2.0000      -0.558343       -15.1933
  26   2.0000      -0.543938       -14.8013
  27   2.0000      -0.520839       -14.1728
  28   2.0000      -0.520363       -14.1598
  29   2.0000      -0.499701       -13.5975
  30   2.0000      -0.489060       -13.3080
  31   2.0000      -0.485998       -13.2247
  32   2.0000      -0.485705       -13.2167
  33   2.0000      -0.477611       -12.9965
  34   2.0000      -0.454829       -12.3765
  35   2.0000      -0.440081       -11.9752
  36   0.0000       0.024331         0.6621
  37   0.0000       0.025989         0.7072
  38   0.0000       0.033068         0.8998
  39   0.0000       0.034054         0.9266
  40   0.0000       0.039287         1.0690

MULLIKEN ATOMIC CHARGES
-----------------------
   0 C :    1.077280
   1 C :   -0.865113
   2 C :   -0.886258
   3 C :   -0.349096
   4 C :   -0.389156
   5 C :   -0.459183
   6 C :    0.064293
   7 O :   -0.856160
   8 O :   -0.805946
   9 H :    0.262522
  10 H :    0.224173
  11 H :    0.224177
  12 H :    0.232165
  13 H :    0.277674
  14 H :    0.232170
  15 H :    0.292256
  16 H :    0.292229
  17 H :    0.230959
  18 H :    0.230988
  19 H :    0.224826
  20 H :    0.224874
  21 H :    0.260180
  22 H :    0.260148
Sum of atomic charges:    0.0000000

LOEWDIN ATOMIC CHARGES
----------------------
   0 C :   -1.038416
   1 C :    0.926704
   2 C :    0.922986
   3 C :    0.449611
   4 C :    0.479143
   5 C :    0.491658
   6 C :    0.157691
   7 O :    0.733906
   8 O :    0.873209
   9 H :   -0.283401
  10 H :   -0.284747
  11 H :   -0.284747
  12 H :   -0.283556
  13 H :   -0.284254
  14 H :   -0.283556
  15 H :   -0.286558
  16 H :   -0.286558
  17 H :   -0.280281
  18 H :   -0.280281
  19 H :   -0.279323
  20 H :   -0.279323
  21 H :   -0.299953
  22 H :   -0.299953

  Mayer bond orders larger than 0.100000
B(  0-C ,  3-C ) :   1.0402 B(  0-C ,  4-C ) :  -0.1659 B(  0-C ,  7-O ) :   1.0362
B(  0-C ,  8-O ) :   0.9992 B(  1-C ,  4-C ) :   1.0378 B(  1-C ,  9-H ) :   1.0110
B(  1-C , 10-H ) :   0.9510 B(  1-C , 11-H ) :   0.9510 B(  2-C ,  5-C ) :   1.0348
B(  2-C , 12-H ) :   0.9435 B(  2-C , 13-H ) :   0.9994 B(  2-C , 14-H ) :   0.9435
B(  3-C ,  4-C ) :   1.0119 B(  3-C ,  7-O ) :   0.1119 B(  3-C ,  8-O ) :   0.1112
B(  3-C , 15-H ) :   0.8521 B(  3-C , 16-H ) :   0.8521 B(  4-C , 17-H ) :   0.8801
B(  4-C , 18-H ) :   0.8801 B(  5-C ,  6-C ) :   0.9567 B(  5-C , 13-H ) :  -0.1053
B(  5-C , 19-H ) :   0.8875 B(  5-C , 20-H ) :   0.8874 B(  6-C ,  7-O ) :   0.1615
B(  6-C ,  8-O ) :   0.7902 B(  6-C , 21-H ) :   0.8735 B(  6-C , 22-H ) :   0.8736
B(  7-O ,  8-O ) :   0.1186

MP2 TOTAL ENERGY:     -424.954766770 Eh
FINAL SINGLE POINT ENERGY      -424.954766770115

DIPOLE MOMENT
-------------
                                X             Y             Z
Electronic contribution:     -2.12378       1.99712      -0.00000
Nuclear contribution   :      2.60656      -2.64233       0.00000
                        -----------------------------------------
Total Dipole Moment    :      0.48277      -0.64521      -0.00000
                        -----------------------------------------
Magnitude (a.u.)       :      0.80584
Magnitude (Debye)      :      2.04827

Rotational constants in cm-1:     0.202414     0.017762     0.016629
Rotational constants in MHz :  6068.227886   532.496059   498.511835

                             ****ORCA TERMINATED NORMALLY****
TOTAL RUN TIME: 0 days 1 hours 50 minutes 18 seconds 83 msec
