                         Program Version 5.0.4 -  RELEASE  -
|  1> !ri-mp2 aug-cc-pvqz aug-cc-pvqz/c tightscf
|  2> %pal nprocs 16 end
|  3>
|  4> * xyz 0 1
|  5> F      1.053714    1.101216    0.000007
|  6> O      1.153455   -1.111284    0.000013
|  7> C      0.490920   -0.130271   -0.000038
|  8> C     -0.939398   -0.040028   -0.000063
|  9> C     -2.136840   -0.004245    0.000046
| 10> H     -3.199160    0.026597    0.000161
| 11> *
| 12>
| 13>                          ****END OF INPUT****

CARTESIAN COORDINATES (ANGSTROEM)
---------------------------------
  F      1.053714    1.101216    0.000007
  O      1.153455   -1.111284    0.000013
  C      0.490920   -0.130271   -0.000038
  C     -0.939398   -0.040028   -0.000063
  C     -2.136840   -0.004245    0.000046
  H     -3.199160    0.026597    0.000161

 Total Charge           Charge          ....    0
 Multiplicity           Mult            ....    1
 Number of Electrons    NEL             ....   36
 Basis Dimension        Dim             ....  446

ORBITAL ENERGIES
----------------

  NO   OCC          E(Eh)            E(eV)
   0   2.0000     -26.344105      -716.8595
   1   2.0000     -20.602118      -560.6121
   2   2.0000     -11.461065      -311.8714
   3   2.0000     -11.295182      -307.3575
   4   2.0000     -11.283168      -307.0306
   5   2.0000      -1.669561       -45.4311
   6   2.0000      -1.451824       -39.5061
   7   2.0000      -1.098035       -29.8791
   8   2.0000      -0.949176       -25.8284
   9   2.0000      -0.821756       -22.3611
  10   2.0000      -0.757064       -20.6008
  11   2.0000      -0.737401       -20.0657
  12   2.0000      -0.736152       -20.0317
  13   2.0000      -0.657461       -17.8904
  14   2.0000      -0.574214       -15.6251
  15   2.0000      -0.530998       -14.4492
  16   2.0000      -0.453612       -12.3434
  17   2.0000      -0.452011       -12.2999
  18   0.0000       0.019133         0.5206
  19   0.0000       0.050367         1.3706
  20   0.0000       0.050573         1.3762
  21   0.0000       0.059479         1.6185
  22   0.0000       0.069310         1.8860

MULLIKEN ATOMIC CHARGES
-----------------------
   0 F :   -0.519832
   1 O :   -0.567308
   2 C :    1.395358
   3 C :   -0.321808
   4 C :   -0.570972
   5 H :    0.584562
Sum of atomic charges:    0.0000000

LOEWDIN ATOMIC CHARGES
----------------------
   0 F :    0.698730
   1 O :    0.617840
   2 C :   -1.398623
   3 C :   -0.039848
   4 C :    0.556932
   5 H :   -0.435030

  Mayer bond orders larger than 0.100000
B(  0-F ,  2-C ) :   0.6385 B(  1-O ,  2-C ) :   1.6914 B(  2-C ,  3-C ) :   0.9544
B(  3-C ,  4-C ) :   2.8397 B(  4-C ,  5-H ) :   0.7062

MP2 TOTAL ENERGY:     -289.549745560 Eh
FINAL SINGLE POINT ENERGY      -289.549745559555

DIPOLE MOMENT
-------------
                                X             Y             Z
Electronic contribution:      2.58983       1.30590      -0.00013
Nuclear contribution   :     -3.96216      -1.01219       0.00014
                        -----------------------------------------
Total Dipole Moment    :     -1.37233       0.29371       0.00002
                        -----------------------------------------
Magnitude (a.u.)       :      1.40341
Magnitude (Debye)      :      3.56718

Rotational constants in cm-1:     0.392161     0.139542     0.102920
Rotational constants in MHz : 11756.685955  4183.360058  3085.464776

                             ****ORCA TERMINATED NORMALLY****
TOTAL RUN TIME: 0 days 0 hours 11 minutes 44 seconds 921 msec
