                         Program Version 5.0.4 -  RELEASE  -
|  1> !ri-mp2 aug-cc-pvqz aug-cc-pvqz/c tightscf
|  2> %pal nprocs 16 end
|  3>
|  4> * xyz 0 1
|  5> C      1.101422    1.086436    0.000000
|  6> C      0.000000    0.612760    0.000000
|  7> C     -1.353510   -1.424068    0.000000
|  8> C      2.441080    1.653556    0.000000
|  9> C     -1.345349    0.043042    0.000000
| 10> N     -1.379143   -2.572655    0.000000
| 11> H      2.603677    2.273574    0.882742
| 12> H      3.194285    0.864356    0.000000
| 13> H      2.603677    2.273574   -0.882742
| 14> H     -1.904748    0.383361   -0.875875
| 15> H     -1.904748    0.383361    0.875875
| 16> *
| 17>
| 18>                          ****END OF INPUT****

CARTESIAN COORDINATES (ANGSTROEM)
---------------------------------
  C      1.101422    1.086436    0.000000
  C      0.000000    0.612760    0.000000
  C     -1.353510   -1.424068    0.000000
  C      2.441080    1.653556    0.000000
  C     -1.345349    0.043042    0.000000
  N     -1.379143   -2.572655    0.000000
  H      2.603677    2.273574    0.882742
  H      3.194285    0.864356    0.000000
  H      2.603677    2.273574   -0.882742
  H     -1.904748    0.383361   -0.875875
  H     -1.904748    0.383361    0.875875

 Total Charge           Charge          ....    0
 Multiplicity           Mult            ....    1
 Number of Electrons    NEL             ....   42
 Basis Dimension        Dim             ....  710

ORBITAL ENERGIES
----------------

  NO   OCC          E(Eh)            E(eV)
   0   2.0000     -15.571607      -423.7250
   1   2.0000     -11.313574      -307.8580
   2   2.0000     -11.278535      -306.9045
   3   2.0000     -11.258221      -306.3518
   4   2.0000     -11.247913      -306.0713
   5   2.0000     -11.241167      -305.8877
   6   2.0000      -1.227076       -33.3904
   7   2.0000      -1.106873       -30.1195
   8   2.0000      -1.049186       -28.5498
   9   2.0000      -0.956408       -26.0252
  10   2.0000      -0.735121       -20.0037
  11   2.0000      -0.687663       -18.7123
  12   2.0000      -0.654234       -17.8026
  13   2.0000      -0.635492       -17.2926
  14   2.0000      -0.601261       -16.3612
  15   2.0000      -0.600841       -16.3497
  16   2.0000      -0.561082       -15.2678
  17   2.0000      -0.473364       -12.8809
  18   2.0000      -0.470410       -12.8005
  19   2.0000      -0.397255       -10.8099
  20   2.0000      -0.392511       -10.6808
  21   0.0000       0.020129         0.5477
  22   0.0000       0.025562         0.6956
  23   0.0000       0.033735         0.9180
  24   0.0000       0.041742         1.1359
  25   0.0000       0.047519         1.2931

MULLIKEN ATOMIC CHARGES
-----------------------
   0 C :   -0.058781
   1 C :   -0.101836
   2 C :    0.403634
   3 C :   -0.586980
   4 C :   -0.213069
   5 N :   -0.642727
   6 H :    0.209759
   7 H :    0.216905
   8 H :    0.209759
   9 H :    0.281668
  10 H :    0.281668
Sum of atomic charges:   -0.0000000

LOEWDIN ATOMIC CHARGES
----------------------
   0 C :    0.165550
   1 C :    0.136159
   2 C :   -0.284254
   3 C :    0.843660
   4 C :    0.340534
   5 N :    0.404637
   6 H :   -0.316492
   7 H :   -0.315370
   8 H :   -0.316492
   9 H :   -0.328966
  10 H :   -0.328966

  Mayer bond orders larger than 0.100000
B(  0-C ,  1-C ) :   3.0177 B(  0-C ,  3-C ) :   0.6799 B(  1-C ,  2-C ) :  -0.2383
B(  1-C ,  4-C ) :   0.6980 B(  2-C ,  4-C ) :   1.1625 B(  2-C ,  5-N ) :   2.5498
B(  3-C ,  6-H ) :   1.0183 B(  3-C ,  7-H ) :   1.0142 B(  3-C ,  8-H ) :   1.0183
B(  4-C ,  9-H ) :   0.9107 B(  4-C , 10-H ) :   0.9107

MP2 TOTAL ENERGY:     -247.776651419 Eh
FINAL SINGLE POINT ENERGY      -247.776651419346

DIPOLE MOMENT
-------------
                                X             Y             Z
Electronic contribution:     -4.25222      -4.42549       0.00000
Nuclear contribution   :      4.57113       6.14576       0.00000
                        -----------------------------------------
Total Dipole Moment    :      0.31891       1.72027       0.00000
                        -----------------------------------------
Magnitude (a.u.)       :      1.74958
Magnitude (Debye)      :      4.44708

Rotational constants in cm-1:     0.435199     0.050375     0.045916
Rotational constants in MHz : 13046.935561  1510.210654  1376.522600

                             ****ORCA TERMINATED NORMALLY****
TOTAL RUN TIME: 0 days 0 hours 9 minutes 54 seconds 12 msec
