                         Program Version 5.0.4 -  RELEASE  -
|  1> !ri-mp2 aug-cc-pvqz aug-cc-pvqz/c tightscf
|  2> %pal nprocs 16 end
|  3>
|  4> * xyz 0 1
|  5> C     1.340358     1.082599       0.000000
|  6> C     2.159435    -0.166489       0.000000
|  7> C     1.340358    -1.239684       0.000000
|  8> C    -1.340358    -1.082599       0.000000
|  9> C    -2.159435     0.166489       0.000000
| 10> C    -1.340358     1.239684       0.000000
| 11> C     0.038329     0.726381       0.000000
| 12> C    -0.038329    -0.726381       0.000000
| 13> H     1.756064     2.079976       0.000000
| 14> H     3.238150    -0.182744       0.000000
| 15> H     1.637830    -2.276002       0.000000
| 16> H    -1.756064    -2.079976       0.000000
| 17> H    -3.238150     0.182744       0.000000
| 18> H    -1.637830     2.276002       0.000000
| 19> *
| 20>
| 21>                          ****END OF INPUT****

CARTESIAN COORDINATES (ANGSTROEM)
---------------------------------
  C      1.340358    1.082599    0.000000
  C      2.159435   -0.166489    0.000000
  C      1.340358   -1.239684    0.000000
  C     -1.340358   -1.082599    0.000000
  C     -2.159435    0.166489    0.000000
  C     -1.340358    1.239684    0.000000
  C      0.038329    0.726381    0.000000
  C     -0.038329   -0.726381    0.000000
  H      1.756064    2.079976    0.000000
  H      3.238150   -0.182744    0.000000
  H      1.637830   -2.276002    0.000000
  H     -1.756064   -2.079976    0.000000
  H     -3.238150    0.182744    0.000000
  H     -1.637830    2.276002    0.000000

 Total Charge           Charge          ....    0
 Multiplicity           Mult            ....    1
 Number of Electrons    NEL             ....   54
 Basis Dimension        Dim             ....  916

ORBITAL ENERGIES
----------------

  NO   OCC          E(Eh)            E(eV)
   0   2.0000     -11.251415      -306.1666
   1   2.0000     -11.251411      -306.1665
   2   2.0000     -11.238166      -305.8060
   3   2.0000     -11.238165      -305.8060
   4   2.0000     -11.234834      -305.7154
   5   2.0000     -11.234833      -305.7154
   6   2.0000     -11.223825      -305.4158
   7   2.0000     -11.222924      -305.3913
   8   2.0000      -1.190920       -32.4066
   9   2.0000      -1.098623       -29.8950
  10   2.0000      -0.992935       -27.0191
  11   2.0000      -0.943895       -25.6847
  12   2.0000      -0.883761       -24.0483
  13   2.0000      -0.773143       -21.0383
  14   2.0000      -0.749436       -20.3932
  15   2.0000      -0.703604       -19.1460
  16   2.0000      -0.685223       -18.6459
  17   2.0000      -0.613207       -16.6862
  18   2.0000      -0.567429       -15.4405
  19   2.0000      -0.562246       -15.2995
  20   2.0000      -0.536022       -14.5859
  21   2.0000      -0.531307       -14.4576
  22   2.0000      -0.505752       -13.7622
  23   2.0000      -0.480701       -13.0805
  24   2.0000      -0.413229       -11.2445
  25   2.0000      -0.333926        -9.0866
  26   2.0000      -0.277106        -7.5404
  27   0.0000       0.024295         0.6611
  28   0.0000       0.026385         0.7180
  29   0.0000       0.027315         0.7433
  30   0.0000       0.029217         0.7950
  31   0.0000       0.039945         1.0870

MULLIKEN ATOMIC CHARGES
-----------------------
   0 C :   -0.358679
   1 C :   -0.615218
   2 C :   -0.397083
   3 C :   -0.358701
   4 C :   -0.615278
   5 C :   -0.397033
   6 C :    0.286071
   7 C :    0.286069
   8 H :    0.336284
   9 H :    0.393197
  10 H :    0.355444
  11 H :    0.336262
  12 H :    0.393197
  13 H :    0.355469
Sum of atomic charges:    0.0000000

LOEWDIN ATOMIC CHARGES
----------------------
   0 C :    0.393757
   1 C :    0.356090
   2 C :    0.373768
   3 C :    0.393757
   4 C :    0.356090
   5 C :    0.373768
   6 C :   -0.178413
   7 C :   -0.178413
   8 H :   -0.306975
   9 H :   -0.323620
  10 H :   -0.314607
  11 H :   -0.306975
  12 H :   -0.323620
  13 H :   -0.314607

  Mayer bond orders larger than 0.100000
B(  0-C ,  1-C ) :   1.0470 B(  0-C ,  6-C ) :   1.3980 B(  0-C ,  7-C ) :  -0.2388
B(  0-C ,  8-H ) :   1.0026 B(  1-C ,  2-C ) :   1.6514 B(  1-C ,  6-C ) :  -0.1257
B(  1-C ,  7-C ) :  -0.1222 B(  1-C ,  9-H ) :   0.9114 B(  2-C ,  6-C ) :  -0.1681
B(  2-C ,  7-C ) :   0.9134 B(  2-C , 10-H ) :   0.9734 B(  3-C ,  4-C ) :   1.0470
B(  3-C ,  6-C ) :  -0.2388 B(  3-C ,  7-C ) :   1.3981 B(  3-C , 11-H ) :   1.0027
B(  4-C ,  5-C ) :   1.6515 B(  4-C ,  6-C ) :  -0.1222 B(  4-C ,  7-C ) :  -0.1256
B(  4-C , 12-H ) :   0.9114 B(  5-C ,  6-C ) :   0.9133 B(  5-C ,  7-C ) :  -0.1681
B(  5-C , 13-H ) :   0.9734 B(  6-C ,  7-C ) :   0.5057 B(  6-C ,  8-H ) :  -0.1307
B(  7-C , 11-H ) :  -0.1307

MP2 TOTAL ENERGY:     -307.797407182 Eh
FINAL SINGLE POINT ENERGY      -307.797407181735

DIPOLE MOMENT
-------------
                                X             Y             Z
Electronic contribution:     -0.00000      -0.00000       0.00000
Nuclear contribution   :     -0.00000       0.00000       0.00000
                        -----------------------------------------
Total Dipole Moment    :     -0.00000      -0.00000       0.00000
                        -----------------------------------------
Magnitude (a.u.)       :      0.00000
Magnitude (Debye)      :      0.00000

Rotational constants in cm-1:     0.175390     0.072456     0.051274
Rotational constants in MHz :  5258.057428  2172.173080  1537.154303

                             ****ORCA TERMINATED NORMALLY****
TOTAL RUN TIME: 0 days 0 hours 54 minutes 14 seconds 963 msec
