                         Program Version 5.0.4 -  RELEASE  -
|  1> !ri-mp2 aug-cc-pvqz aug-cc-pvqz/c tightscf
|  2> %pal nprocs 16 end
|  3> %maxcore 3800
|  4>
|  5> * xyz 0 1
|  6> O      1.182952    0.463928    2.029051
|  7> S      0.000000    0.000000    1.311979
|  8> O     -1.182952   -0.463928    2.029051
|  9> C     -0.520392    1.327106    0.212950
| 10> C      0.409097    2.277935   -0.192069
| 11> C      0.000000    3.304743   -1.033775
| 12> C     -1.322848    3.373603   -1.458638
| 13> C     -2.245249    2.421077   -1.037808
| 14> C     -1.847361    1.389895   -0.196106
| 15> C      0.520392   -1.327106    0.212950
| 16> C     -0.409097   -2.277935   -0.192069
| 17> C      0.000000   -3.304743   -1.033775
| 18> C      1.322848   -3.373603   -1.458638
| 19> C      2.245249   -2.421077   -1.037808
| 20> C      1.847361   -1.389895   -0.196106
| 21> H      1.426580    2.222201    0.166269
| 22> H      0.711915    4.054300   -1.350886
| 23> H     -1.637459    4.175977   -2.112088
| 24> H     -3.276080    2.484727   -1.358041
| 25> H     -2.555114    0.655284    0.159175
| 26> H     -1.426580   -2.222201    0.166269
| 27> H     -0.711915   -4.054300   -1.350886
| 28> H      1.637459   -4.175977   -2.112088
| 29> H      3.276080   -2.484727   -1.358041
| 30> H      2.555114   -0.655284    0.159175
| 31> *
| 32>
| 33>                          ****END OF INPUT****

CARTESIAN COORDINATES (ANGSTROEM)
---------------------------------
  O      1.182952    0.463928    2.029051
  S      0.000000    0.000000    1.311979
  O     -1.182952   -0.463928    2.029051
  C     -0.520392    1.327106    0.212950
  C      0.409097    2.277935   -0.192069
  C      0.000000    3.304743   -1.033775
  C     -1.322848    3.373603   -1.458638
  C     -2.245249    2.421077   -1.037808
  C     -1.847361    1.389895   -0.196106
  C      0.520392   -1.327106    0.212950
  C     -0.409097   -2.277935   -0.192069
  C      0.000000   -3.304743   -1.033775
  C      1.322848   -3.373603   -1.458638
  C      2.245249   -2.421077   -1.037808
  C      1.847361   -1.389895   -0.196106
  H      1.426580    2.222201    0.166269
  H      0.711915    4.054300   -1.350886
  H     -1.637459    4.175977   -2.112088
  H     -3.276080    2.484727   -1.358041
  H     -2.555114    0.655284    0.159175
  H     -1.426580   -2.222201    0.166269
  H     -0.711915   -4.054300   -1.350886
  H      1.637459   -4.175977   -2.112088
  H      3.276080   -2.484727   -1.358041
  H      2.555114   -0.655284    0.159175

 Total Charge           Charge          ....    0
 Multiplicity           Mult            ....    1
 Number of Electrons    NEL             ....  114
 Basis Dimension        Dim             .... 1664

ORBITAL ENERGIES
----------------

  NO   OCC          E(Eh)            E(eV)
   0   2.0000     -92.175859     -2508.2326
   1   2.0000     -20.540256      -558.9288
   2   2.0000     -20.540237      -558.9283
   3   2.0000     -11.276460      -306.8481
   4   2.0000     -11.276447      -306.8477
   5   2.0000     -11.262351      -306.4642
   6   2.0000     -11.262351      -306.4641
   7   2.0000     -11.262280      -306.4622
   8   2.0000     -11.262278      -306.4622
   9   2.0000     -11.259457      -306.3854
  10   2.0000     -11.259457      -306.3854
  11   2.0000     -11.253652      -306.2274
  12   2.0000     -11.253652      -306.2274
  13   2.0000     -11.253511      -306.2236
  14   2.0000     -11.253511      -306.2236
  15   2.0000      -9.144439      -248.8328
  16   2.0000      -6.829716      -185.8460
  17   2.0000      -6.829491      -185.8399
  18   2.0000      -6.828963      -185.8255
  19   2.0000      -1.440223       -39.1905
  20   2.0000      -1.331299       -36.2265
  21   2.0000      -1.183310       -32.1995
  22   2.0000      -1.179476       -32.0952
  23   2.0000      -1.065783       -29.0014
  24   2.0000      -1.043765       -28.4023
  25   2.0000      -1.041809       -28.3491
  26   2.0000      -1.041048       -28.3284
  27   2.0000      -0.922816       -25.1111
  28   2.0000      -0.855027       -23.2665
  29   2.0000      -0.852627       -23.2012
  30   2.0000      -0.851355       -23.1666
  31   2.0000      -0.800114       -21.7722
  32   2.0000      -0.744609       -20.2618
  33   2.0000      -0.724741       -19.7212
  34   2.0000      -0.679579       -18.4923
  35   2.0000      -0.663808       -18.0631
  36   2.0000      -0.663083       -18.0434
  37   2.0000      -0.650988       -17.7143
  38   2.0000      -0.639089       -17.3905
  39   2.0000      -0.635684       -17.2978
  40   2.0000      -0.618716       -16.8361
  41   2.0000      -0.614882       -16.7318
  42   2.0000      -0.612219       -16.6593
  43   2.0000      -0.546924       -14.8826
  44   2.0000      -0.545434       -14.8420
  45   2.0000      -0.537909       -14.6372
  46   2.0000      -0.522254       -14.2113
  47   2.0000      -0.520711       -14.1693
  48   2.0000      -0.519992       -14.1497
  49   2.0000      -0.497365       -13.5340
  50   2.0000      -0.491305       -13.3691
  51   2.0000      -0.470517       -12.8034
  52   2.0000      -0.438221       -11.9246
  53   2.0000      -0.383430       -10.4337
  54   2.0000      -0.362052        -9.8519
  55   2.0000      -0.356913        -9.7121
  56   2.0000      -0.352834        -9.6011
  57   0.0000       0.018939         0.5154
  58   0.0000       0.021296         0.5795
  59   0.0000       0.024770         0.6740
  60   0.0000       0.032665         0.8889
  61   0.0000       0.033827         0.9205

MULLIKEN ATOMIC CHARGES
-----------------------
   0 O :   -1.440755
   1 S :    3.579662
   2 O :   -1.440805
   3 C :   -0.074863
   4 C :   -0.428154
   5 C :   -0.328590
   6 C :   -0.316750
   7 C :   -0.327615
   8 C :   -0.429485
   9 C :   -0.074287
  10 C :   -0.428761
  11 C :   -0.328522
  12 C :   -0.316918
  13 C :   -0.327430
  14 C :   -0.430071
  15 H :    0.355787
  16 H :    0.234060
  17 H :    0.377458
  18 H :    0.234452
  19 H :    0.354870
  20 H :    0.355624
  21 H :    0.234192
  22 H :    0.377436
  23 H :    0.234753
  24 H :    0.354715
Sum of atomic charges:    0.0000000

LOEWDIN ATOMIC CHARGES
----------------------
   0 O :    0.326302
   1 S :   -0.198300
   2 O :    0.326302
   3 C :   -0.222992
   4 C :    0.287901
   5 C :    0.357248
   6 C :    0.350030
   7 C :    0.357260
   8 C :    0.287946
   9 C :   -0.222991
  10 C :    0.287901
  11 C :    0.357248
  12 C :    0.350030
  13 C :    0.357260
  14 C :    0.287946
  15 H :   -0.344626
  16 H :   -0.319424
  17 H :   -0.316678
  18 H :   -0.319418
  19 H :   -0.344399
  20 H :   -0.344626
  21 H :   -0.319424
  22 H :   -0.316678
  23 H :   -0.319418
  24 H :   -0.344399

  Mayer bond orders larger than 0.100000
B(  0-O ,  1-S ) :   0.6544 B(  0-O ,  2-O ) :   0.1151 B(  0-O ,  3-C ) :  -0.1046
B(  0-O ,  4-C ) :   0.1094 B(  0-O ,  9-C ) :  -0.1050 B(  0-O , 14-C ) :   0.1096
B(  1-S ,  2-O ) :   0.6542 B(  1-S ,  3-C ) :   0.8177 B(  1-S ,  4-C ) :  -0.1531
B(  1-S ,  8-C ) :  -0.1528 B(  1-S ,  9-C ) :   0.8180 B(  1-S , 10-C ) :  -0.1532
B(  1-S , 14-C ) :  -0.1531 B(  2-O ,  3-C ) :  -0.1048 B(  2-O ,  8-C ) :   0.1093
B(  2-O ,  9-C ) :  -0.1047 B(  2-O , 10-C ) :   0.1096 B(  3-C ,  4-C ) :   0.9861
B(  3-C ,  5-C ) :  -0.3968 B(  3-C ,  7-C ) :  -0.3969 B(  3-C ,  8-C ) :   0.9869
B(  4-C ,  5-C ) :   1.4052 B(  4-C ,  7-C ) :   0.1215 B(  4-C , 15-H ) :   0.8856
B(  4-C , 16-H ) :  -0.1207 B(  5-C ,  6-C ) :   1.1555 B(  5-C ,  8-C ) :   0.1216
B(  5-C , 16-H ) :   1.1417 B(  6-C ,  7-C ) :   1.1551 B(  6-C , 16-H ) :  -0.1024
B(  6-C , 17-H ) :   0.9552 B(  6-C , 18-H ) :  -0.1025 B(  7-C ,  8-C ) :   1.4046
B(  7-C , 18-H ) :   1.1413 B(  8-C , 18-H ) :  -0.1206 B(  8-C , 19-H ) :   0.8875
B(  9-C , 10-C ) :   0.9866 B(  9-C , 11-C ) :  -0.3969 B(  9-C , 13-C ) :  -0.3972
B(  9-C , 14-C ) :   0.9869 B( 10-C , 11-C ) :   1.4050 B( 10-C , 13-C ) :   0.1215
B( 10-C , 20-H ) :   0.8858 B( 10-C , 21-H ) :  -0.1207 B( 11-C , 12-C ) :   1.1554
B( 11-C , 14-C ) :   0.1218 B( 11-C , 21-H ) :   1.1416 B( 12-C , 13-C ) :   1.1554
B( 12-C , 21-H ) :  -0.1024 B( 12-C , 22-H ) :   0.9552 B( 12-C , 23-H ) :  -0.1023
B( 13-C , 14-C ) :   1.4047 B( 13-C , 23-H ) :   1.1409 B( 14-C , 23-H ) :  -0.1206
B( 14-C , 24-H ) :   0.8877

MP2 TOTAL ENERGY:    -1010.466081526 Eh
FINAL SINGLE POINT ENERGY     -1010.466081525836

DIPOLE MOMENT
-------------
                                X             Y             Z
Electronic contribution:     -0.00000      -0.00000       6.48614
Nuclear contribution   :      0.00000      -0.00000      -8.79634
                        -----------------------------------------
Total Dipole Moment    :     -0.00000      -0.00000      -2.31020
                        -----------------------------------------
Magnitude (a.u.)       :      2.31020
Magnitude (Debye)      :      5.87207

Rotational constants in cm-1:     0.031346     0.012636     0.011926
Rotational constants in MHz :   939.719137   378.811425   357.527925

                             ****ORCA TERMINATED NORMALLY****
TOTAL RUN TIME: 0 days 4 hours 45 minutes 46 seconds 73 msec
