                         Program Version 5.0.4 -  RELEASE  -
|  1> !ri-mp2 aug-cc-pvqz aug-cc-pvqz/c tightscf
|  2> %pal nprocs 16 end
|  3>
|  4> * xyz 0 1
|  5> C     -2.302046    0.304648    0.048681
|  6> C     -1.844743   -1.009740    0.055890
|  7> C     -1.374107    1.337593   -0.016270
|  8> C     -0.487064   -1.284841   -0.001073
|  9> C     -0.010704    1.076510   -0.076066
| 10> C      0.447055   -0.243648   -0.073095
| 11> N      2.746630    0.431456    0.133713
| 12> N      1.804819   -0.563693   -0.195804
| 13> H     -3.360760    0.517610    0.095676
| 14> H     -2.549315   -1.829261    0.110144
| 15> H     -1.711935    2.365825   -0.020205
| 16> H     -0.143401   -2.312664    0.003216
| 17> H      0.705591    1.881657   -0.126272
| 18> H      3.542157    0.355481   -0.484296
| 19> H      3.057771    0.357060    1.097408
| 20> H      2.029412   -1.493179    0.130559
| 21> *
| 22>
| 23>                          ****END OF INPUT****

CARTESIAN COORDINATES (ANGSTROEM)
---------------------------------
  C     -2.302046    0.304648    0.048681
  C     -1.844743   -1.009740    0.055890
  C     -1.374107    1.337593   -0.016270
  C     -0.487064   -1.284841   -0.001073
  C     -0.010704    1.076510   -0.076066
  C      0.447055   -0.243648   -0.073095
  N      2.746630    0.431456    0.133713
  N      1.804819   -0.563693   -0.195804
  H     -3.360760    0.517610    0.095676
  H     -2.549315   -1.829261    0.110144
  H     -1.711935    2.365825   -0.020205
  H     -0.143401   -2.312664    0.003216
  H      0.705591    1.881657   -0.126272
  H      3.542157    0.355481   -0.484296
  H      3.057771    0.357060    1.097408
  H      2.029412   -1.493179    0.130559

 Total Charge           Charge          ....    0
 Multiplicity           Mult            ....    1
 Number of Electrons    NEL             ....   58
 Basis Dimension        Dim             .... 1008

ORBITAL ENERGIES
----------------

  NO   OCC          E(Eh)            E(eV)
   0   2.0000     -15.590519      -424.2396
   1   2.0000     -15.583935      -424.0604
   2   2.0000     -11.270565      -306.6877
   3   2.0000     -11.228802      -305.5512
   4   2.0000     -11.226666      -305.4931
   5   2.0000     -11.219446      -305.2966
   6   2.0000     -11.212945      -305.1197
   7   2.0000     -11.212516      -305.1081
   8   2.0000      -1.298698       -35.3394
   9   2.0000      -1.147087       -31.2138
  10   2.0000      -1.070607       -29.1327
  11   2.0000      -1.006972       -27.4011
  12   2.0000      -0.963301       -26.2128
  13   2.0000      -0.827326       -22.5127
  14   2.0000      -0.802650       -21.8412
  15   2.0000      -0.711794       -19.3689
  16   2.0000      -0.698072       -18.9955
  17   2.0000      -0.680648       -18.5214
  18   2.0000      -0.648266       -17.6402
  19   2.0000      -0.599129       -16.3031
  20   2.0000      -0.594526       -16.1779
  21   2.0000      -0.577034       -15.7019
  22   2.0000      -0.521414       -14.1884
  23   2.0000      -0.503012       -13.6877
  24   2.0000      -0.485382       -13.2079
  25   2.0000      -0.437352       -11.9010
  26   2.0000      -0.429113       -11.6768
  27   2.0000      -0.331811        -9.0290
  28   2.0000      -0.290215        -7.8972
  29   0.0000       0.020635         0.5615
  30   0.0000       0.030066         0.8181
  31   0.0000       0.031679         0.8620
  32   0.0000       0.041432         1.1274
  33   0.0000       0.041580         1.1314

MULLIKEN ATOMIC CHARGES
-----------------------
   0 C :   -0.317347
   1 C :   -0.345608
   2 C :   -0.313066
   3 C :   -0.459111
   4 C :   -0.251657
   5 C :    0.597761
   6 N :   -0.533665
   7 N :   -0.554951
   8 H :    0.315207
   9 H :    0.248168
  10 H :    0.230407
  11 H :    0.268570
  12 H :    0.355862
  13 H :    0.246487
  14 H :    0.241003
  15 H :    0.271938
Sum of atomic charges:    0.0000000

LOEWDIN ATOMIC CHARGES
----------------------
   0 C :    0.326510
   1 C :    0.323898
   2 C :    0.327215
   3 C :    0.326702
   4 C :    0.330115
   5 C :   -0.257843
   6 N :    1.128062
   7 N :    0.705946
   8 H :   -0.334687
   9 H :   -0.324577
  10 H :   -0.324377
  11 H :   -0.326936
  12 H :   -0.351810
  13 H :   -0.518935
  14 H :   -0.498788
  15 H :   -0.530493

  Mayer bond orders larger than 0.100000
B(  0-C ,  1-C ) :   1.1895 B(  0-C ,  2-C ) :   1.1740 B(  0-C ,  8-H ) :   1.0119
B(  1-C ,  3-C ) :   1.3737 B(  1-C ,  4-C ) :   0.1174 B(  1-C ,  5-C ) :  -0.2871
B(  1-C ,  9-H ) :   1.1090 B(  2-C ,  3-C ) :   0.1195 B(  2-C ,  4-C ) :   1.2443
B(  2-C ,  5-C ) :  -0.2767 B(  2-C , 10-H ) :   1.1467 B(  3-C ,  5-C ) :   1.1206
B(  3-C ,  9-H ) :  -0.1186 B(  3-C , 11-H ) :   0.9698 B(  4-C ,  5-C ) :   1.1973
B(  4-C , 10-H ) :  -0.1372 B(  4-C , 12-H ) :   0.8968 B(  5-C ,  7-N ) :   0.7860
B(  6-N ,  7-N ) :   0.8566 B(  6-N , 13-H ) :   0.9638 B(  6-N , 14-H ) :   0.9460
B(  7-N , 15-H ) :   0.8904

MP2 TOTAL ENERGY:     -342.334991602 Eh
FINAL SINGLE POINT ENERGY      -342.334991601508

DIPOLE MOMENT
-------------
                                X             Y             Z
Electronic contribution:     -0.81353      -0.29005      -0.42496
Nuclear contribution   :      1.60781      -0.15940       0.81171
                        -----------------------------------------
Total Dipole Moment    :      0.79428      -0.44944       0.38675
                        -----------------------------------------
Magnitude (a.u.)       :      0.99119
Magnitude (Debye)      :      2.51940

Rotational constants in cm-1:     0.169250     0.050494     0.039342
Rotational constants in MHz :  5073.990679  1513.786211  1179.451737

                             ****ORCA TERMINATED NORMALLY****
TOTAL RUN TIME: 0 days 0 hours 40 minutes 52 seconds 796 msec
