                         Program Version 5.0.4 -  RELEASE  -
|  1> !ri-mp2 aug-cc-pvqz aug-cc-pvqz/c tightscf
|  2> %pal nprocs 16 end
|  3>
|  4> * xyz 0 1
|  5> C      0.000000    0.710696   -0.980035
|  6> C      0.000000   -0.710696   -0.980035
|  7> C      0.000000    1.121982    0.330484
|  8> C      0.000000   -1.121982    0.330484
|  9> N      0.000000    0.000000    1.118833
| 10> H      0.000000    1.356378   -1.841340
| 11> H      0.000000   -1.356378   -1.841340
| 12> H      0.000000    2.107246    0.761724
| 13> H      0.000000   -2.107246    0.761724
| 14> H      0.000000    0.000000    2.121999
| 15> *
| 16>
| 17>                          ****END OF INPUT****

CARTESIAN COORDINATES (ANGSTROEM)
---------------------------------
  C      0.000000    0.710696   -0.980035
  C      0.000000   -0.710696   -0.980035
  C      0.000000    1.121982    0.330484
  C      0.000000   -1.121982    0.330484
  N      0.000000    0.000000    1.118833
  H      0.000000    1.356378   -1.841340
  H      0.000000   -1.356378   -1.841340
  H      0.000000    2.107246    0.761724
  H      0.000000   -2.107246    0.761724
  H      0.000000    0.000000    2.121999

 Total Charge           Charge          ....    0
 Multiplicity           Mult            ....    1
 Number of Electrons    NEL             ....   36
 Basis Dimension        Dim             ....  630

ORBITAL ENERGIES
----------------

  NO   OCC          E(Eh)            E(eV)
   0   2.0000     -15.603695      -424.5981
   1   2.0000     -11.250723      -306.1477
   2   2.0000     -11.250681      -306.1466
   3   2.0000     -11.207976      -304.9845
   4   2.0000     -11.206927      -304.9560
   5   2.0000      -1.290934       -35.1281
   6   2.0000      -1.042234       -28.3606
   7   2.0000      -0.977356       -26.5952
   8   2.0000      -0.793118       -21.5818
   9   2.0000      -0.767275       -20.8786
  10   2.0000      -0.736967       -20.0539
  11   2.0000      -0.592956       -16.1352
  12   2.0000      -0.582905       -15.8616
  13   2.0000      -0.567908       -15.4536
  14   2.0000      -0.548186       -14.9169
  15   2.0000      -0.528287       -14.3754
  16   2.0000      -0.347526        -9.4567
  17   2.0000      -0.298719        -8.1285
  18   0.0000       0.022675         0.6170
  19   0.0000       0.031424         0.8551
  20   0.0000       0.033735         0.9180
  21   0.0000       0.044804         1.2192
  22   0.0000       0.049272         1.3408

MULLIKEN ATOMIC CHARGES
-----------------------
   0 C :   -0.375628
   1 C :   -0.375628
   2 C :   -0.334770
   3 C :   -0.334770
   4 N :   -0.354130
   5 H :    0.368695
   6 H :    0.368696
   7 H :    0.471306
   8 H :    0.471306
   9 H :    0.094925
Sum of atomic charges:    0.0000000

LOEWDIN ATOMIC CHARGES
----------------------
   0 C :    0.291960
   1 C :    0.291960
   2 C :    0.192845
   3 C :    0.192845
   4 N :    0.778843
   5 H :   -0.335567
   6 H :   -0.335567
   7 H :   -0.312115
   8 H :   -0.312115
   9 H :   -0.453089

  Mayer bond orders larger than 0.100000
B(  0-C ,  1-C ) :   1.1690 B(  0-C ,  2-C ) :   1.4702 B(  0-C ,  5-H ) :   0.9227
B(  1-C ,  3-C ) :   1.4702 B(  1-C ,  6-H ) :   0.9227 B(  2-C ,  4-N ) :   0.9870
B(  2-C ,  7-H ) :   0.8351 B(  3-C ,  4-N ) :   0.9870 B(  3-C ,  8-H ) :   0.8351
B(  4-N ,  9-H ) :   1.1745

MP2 TOTAL ENERGY:     -209.807679638 Eh
FINAL SINGLE POINT ENERGY      -209.807679637827

DIPOLE MOMENT
-------------
                                X             Y             Z
Electronic contribution:      0.00000       0.00000       0.75937
Nuclear contribution   :      0.00000       0.00000      -0.03090
                        -----------------------------------------
Total Dipole Moment    :      0.00000       0.00000       0.72846
                        -----------------------------------------
Magnitude (a.u.)       :      0.72846
Magnitude (Debye)      :      1.85161

Rotational constants in cm-1:     0.306312     0.302250     0.152134
Rotational constants in MHz :  9183.013936  9061.239325  4560.860113

                             ****ORCA TERMINATED NORMALLY****
TOTAL RUN TIME: 0 days 0 hours 10 minutes 4 seconds 925 msec
