                         Program Version 5.0.4 -  RELEASE  -
|  1> !ri-mp2 aug-cc-pvqz aug-cc-pvqz/c tightscf
|  2> %pal nprocs 16 end
|  3>
|  4> * xyz 0 1
|  5> C      0.669588    1.190338   -0.009937
|  6> C      0.669666   -1.190178   -0.009924
|  7> C     -0.718186    1.198300    0.003054
|  8> C     -0.717909   -1.198256    0.003081
|  9> C      1.396835    0.000223   -0.013482
| 10> C     -1.437175    0.000049    0.010600
| 11> C      2.903547   -0.000073    0.006732
| 12> N     -2.833422   -0.000219    0.080437
| 13> H      1.197270    2.136416   -0.020466
| 14> H      1.197417   -2.136238   -0.020449
| 15> H     -1.250749    2.141644    0.007895
| 16> H     -1.250429   -2.141628    0.007947
| 17> H      3.308495   -0.870548   -0.510365
| 18> H      3.307829    0.891793   -0.472804
| 19> H      3.289746   -0.021962    1.029503
| 20> H     -3.281770   -0.834223   -0.262806
| 21> H     -3.282044    0.833864   -0.262259
| 22> *
| 23>
| 24>                          ****END OF INPUT****

CARTESIAN COORDINATES (ANGSTROEM)
---------------------------------
  C      0.669588    1.190338   -0.009937
  C      0.669666   -1.190178   -0.009924
  C     -0.718186    1.198300    0.003054
  C     -0.717909   -1.198256    0.003081
  C      1.396835    0.000223   -0.013482
  C     -1.437175    0.000049    0.010600
  C      2.903547   -0.000073    0.006732
  N     -2.833422   -0.000219    0.080437
  H      1.197270    2.136416   -0.020466
  H      1.197417   -2.136238   -0.020449
  H     -1.250749    2.141644    0.007895
  H     -1.250429   -2.141628    0.007947
  H      3.308495   -0.870548   -0.510365
  H      3.307829    0.891793   -0.472804
  H      3.289746   -0.021962    1.029503
  H     -3.281770   -0.834223   -0.262806
  H     -3.282044    0.833864   -0.262259

 Total Charge           Charge          ....    0
 Multiplicity           Mult            ....    1
 Number of Electrons    NEL             ....   58
 Basis Dimension        Dim             .... 1054

ORBITAL ENERGIES
----------------

  NO   OCC          E(Eh)            E(eV)
   0   2.0000     -15.559584      -423.3978
   1   2.0000     -11.270730      -306.6922
   2   2.0000     -11.226667      -305.4931
   3   2.0000     -11.226489      -305.4883
   4   2.0000     -11.222546      -305.3810
   5   2.0000     -11.219325      -305.2934
   6   2.0000     -11.219230      -305.2908
   7   2.0000     -11.215379      -305.1860
   8   2.0000      -1.220308       -33.2063
   9   2.0000      -1.131127       -30.7795
  10   2.0000      -1.020165       -27.7601
  11   2.0000      -1.008652       -27.4468
  12   2.0000      -0.916018       -24.9261
  13   2.0000      -0.831543       -22.6274
  14   2.0000      -0.791531       -21.5387
  15   2.0000      -0.695986       -18.9387
  16   2.0000      -0.687561       -18.7095
  17   2.0000      -0.634493       -17.2654
  18   2.0000      -0.604473       -16.4485
  19   2.0000      -0.587185       -15.9781
  20   2.0000      -0.577808       -15.7230
  21   2.0000      -0.568807       -15.4780
  22   2.0000      -0.530862       -14.4455
  23   2.0000      -0.525218       -14.2919
  24   2.0000      -0.495276       -13.4771
  25   2.0000      -0.479685       -13.0529
  26   2.0000      -0.437171       -11.8960
  27   2.0000      -0.334363        -9.0985
  28   2.0000      -0.285226        -7.7614
  29   0.0000       0.023547         0.6407
  30   0.0000       0.029184         0.7941
  31   0.0000       0.029465         0.8018
  32   0.0000       0.041240         1.1222
  33   0.0000       0.041764         1.1365

MULLIKEN ATOMIC CHARGES
-----------------------
   0 C :   -0.343976
   1 C :   -0.338693
   2 C :   -0.351246
   3 C :   -0.353435
   4 C :    0.317089
   5 C :    0.501529
   6 C :   -0.789095
   7 N :   -0.846149
   8 H :    0.232447
   9 H :    0.238264
  10 H :    0.230848
  11 H :    0.230169
  12 H :    0.214604
  13 H :    0.215749
  14 H :    0.285830
  15 H :    0.278557
  16 H :    0.277508
Sum of atomic charges:   -0.0000000

LOEWDIN ATOMIC CHARGES
----------------------
   0 C :    0.336374
   1 C :    0.336238
   2 C :    0.343495
   3 C :    0.343471
   4 C :   -0.080870
   5 C :   -0.245063
   6 C :    0.896896
   7 N :    1.267389
   8 H :   -0.319314
   9 H :   -0.318834
  10 H :   -0.324209
  11 H :   -0.324197
  12 H :   -0.302013
  13 H :   -0.303381
  14 H :   -0.281532
  15 H :   -0.512225
  16 H :   -0.512225

  Mayer bond orders larger than 0.100000
B(  0-C ,  2-C ) :   1.3088 B(  0-C ,  3-C ) :   0.1215 B(  0-C ,  4-C ) :   1.0553
B(  0-C ,  5-C ) :  -0.1062 B(  0-C ,  8-H ) :   1.0589 B(  0-C , 10-H ) :  -0.1432
B(  1-C ,  2-C ) :   0.1192 B(  1-C ,  3-C ) :   1.3118 B(  1-C ,  4-C ) :   1.0543
B(  1-C ,  5-C ) :  -0.1098 B(  1-C ,  9-H ) :   1.0531 B(  1-C , 11-H ) :  -0.1423
B(  2-C ,  4-C ) :  -0.1674 B(  2-C ,  5-C ) :   1.1775 B(  2-C ,  8-H ) :  -0.1428
B(  2-C , 10-H ) :   1.0263 B(  3-C ,  4-C ) :  -0.1623 B(  3-C ,  5-C ) :   1.1761
B(  3-C ,  9-H ) :  -0.1412 B(  3-C , 11-H ) :   1.0255 B(  4-C ,  6-C ) :   0.7203
B(  4-C , 12-H ) :  -0.1097 B(  4-C , 13-H ) :  -0.1108 B(  5-C ,  7-N ) :   0.6767
B(  5-C , 10-H ) :  -0.1170 B(  5-C , 11-H ) :  -0.1166 B(  6-C , 12-H ) :   1.0413
B(  6-C , 13-H ) :   1.0414 B(  6-C , 14-H ) :   0.9343 B(  7-N , 15-H ) :   0.9304
B(  7-N , 16-H ) :   0.9318

MP2 TOTAL ENERGY:     -326.336490322 Eh
FINAL SINGLE POINT ENERGY      -326.336490321552

DIPOLE MOMENT
-------------
                                X             Y             Z
Electronic contribution:     -3.54895      -0.00021       0.13691
Nuclear contribution   :      3.27237      -0.00090      -0.51166
                        -----------------------------------------
Total Dipole Moment    :     -0.27658      -0.00111      -0.37475
                        -----------------------------------------
Magnitude (a.u.)       :      0.46576
Magnitude (Debye)      :      1.18387

Rotational constants in cm-1:     0.183789     0.048506     0.038691
Rotational constants in MHz :  5509.860351  1454.172697  1159.936061

                             ****ORCA TERMINATED NORMALLY****
TOTAL RUN TIME: 0 days 0 hours 45 minutes 28 seconds 782 msec
