                         Program Version 5.0.4 -  RELEASE  -
|  1> !ri-mp2 aug-cc-pvqz aug-cc-pvqz/c tightscf
|  2> %pal nprocs 16 end
|  3> %maxcore 3800
|  4>
|  5> * xyz 0 1
|  6> C      0.386271   -2.839243    0.000000
|  7> C      0.387351   -2.138596    1.200339
|  8> C      0.387351   -2.138596   -1.200339
|  9> C      0.387351   -0.748944    1.197148
| 10> C      0.387351   -0.748944   -1.197148
| 11> C      0.385210   -0.031430    0.000000
| 12> C     -1.108485    3.575531    0.000000
| 13> C      0.345445    1.476802    0.000000
| 14> C     -1.082048    2.048572    0.000000
| 15> H      0.389739   -3.921015    0.000000
| 16> H      0.393022   -2.674365    2.140600
| 17> H      0.393022   -2.674365   -2.140600
| 18> H      0.394621   -0.211935    2.138121
| 19> H      0.394621   -0.211935   -2.138121
| 20> H     -0.604834    3.979341    0.880742
| 21> H     -0.604834    3.979341   -0.880742
| 22> H     -2.131197    3.954700    0.000000
| 23> H      0.878157    1.856658    0.875883
| 24> H      0.878157    1.856658   -0.875883
| 25> H     -1.617623    1.668007   -0.873416
| 26> H     -1.617623    1.668007    0.873416
| 27> *
| 28>
| 29>                          ****END OF INPUT****

CARTESIAN COORDINATES (ANGSTROEM)
---------------------------------
  C      0.386271   -2.839243    0.000000
  C      0.387351   -2.138596    1.200339
  C      0.387351   -2.138596   -1.200339
  C      0.387351   -0.748944    1.197148
  C      0.387351   -0.748944   -1.197148
  C      0.385210   -0.031430    0.000000
  C     -1.108485    3.575531    0.000000
  C      0.345445    1.476802    0.000000
  C     -1.082048    2.048572    0.000000
  H      0.389739   -3.921015    0.000000
  H      0.393022   -2.674365    2.140600
  H      0.393022   -2.674365   -2.140600
  H      0.394621   -0.211935    2.138121
  H      0.394621   -0.211935   -2.138121
  H     -0.604834    3.979341    0.880742
  H     -0.604834    3.979341   -0.880742
  H     -2.131197    3.954700    0.000000
  H      0.878157    1.856658    0.875883
  H      0.878157    1.856658   -0.875883
  H     -1.617623    1.668007   -0.873416
  H     -1.617623    1.668007    0.873416

 Total Charge           Charge          ....    0
 Multiplicity           Mult            ....    1
 Number of Electrons    NEL             ....   66
 Basis Dimension        Dim             .... 1272

ORBITAL ENERGIES
----------------

  NO   OCC          E(Eh)            E(eV)
   0   2.0000     -11.235456      -305.7323
   1   2.0000     -11.230136      -305.5875
   2   2.0000     -11.229950      -305.5825
   3   2.0000     -11.226252      -305.4819
   4   2.0000     -11.225823      -305.4702
   5   2.0000     -11.225709      -305.4671
   6   2.0000     -11.223812      -305.4155
   7   2.0000     -11.220071      -305.3136
   8   2.0000     -11.212006      -305.0942
   9   2.0000      -1.153849       -31.3978
  10   2.0000      -1.073725       -29.2175
  11   2.0000      -1.012450       -27.5502
  12   2.0000      -1.011051       -27.5121
  13   2.0000      -0.922848       -25.1120
  14   2.0000      -0.824405       -22.4332
  15   2.0000      -0.822678       -22.3862
  16   2.0000      -0.785117       -21.3641
  17   2.0000      -0.693338       -18.8667
  18   2.0000      -0.647007       -17.6060
  19   2.0000      -0.633621       -17.2417
  20   2.0000      -0.607100       -16.5200
  21   2.0000      -0.589222       -16.0335
  22   2.0000      -0.582087       -15.8394
  23   2.0000      -0.566120       -15.4049
  24   2.0000      -0.530152       -14.4262
  25   2.0000      -0.526366       -14.3232
  26   2.0000      -0.498920       -13.5763
  27   2.0000      -0.488500       -13.2928
  28   2.0000      -0.475493       -12.9388
  29   2.0000      -0.469503       -12.7758
  30   2.0000      -0.466572       -12.6961
  31   2.0000      -0.334145        -9.0925
  32   2.0000      -0.323595        -8.8055
  33   0.0000       0.025764         0.7011
  34   0.0000       0.028395         0.7727
  35   0.0000       0.029328         0.7980
  36   0.0000       0.034918         0.9502
  37   0.0000       0.039693         1.0801

MULLIKEN ATOMIC CHARGES
-----------------------
   0 C :   -0.312774
   1 C :   -0.283127
   2 C :   -0.283145
   3 C :   -0.579907
   4 C :   -0.579897
   5 C :    0.481502
   6 C :   -0.820035
   7 C :   -0.221216
   8 C :   -0.365748
   9 H :    0.333583
  10 H :    0.243288
  11 H :    0.243301
  12 H :    0.260976
  13 H :    0.261003
  14 H :    0.221331
  15 H :    0.221358
  16 H :    0.262128
  17 H :    0.225692
  18 H :    0.225794
  19 H :    0.232910
  20 H :    0.232982
Sum of atomic charges:   -0.0000000

LOEWDIN ATOMIC CHARGES
----------------------
   0 C :    0.333614
   1 C :    0.342712
   2 C :    0.342712
   3 C :    0.347572
   4 C :    0.347572
   5 C :   -0.073601
   6 C :    0.929581
   7 C :    0.487880
   8 C :    0.514565
   9 H :   -0.326988
  10 H :   -0.323242
  11 H :   -0.323242
  12 H :   -0.315001
  13 H :   -0.315001
  14 H :   -0.284468
  15 H :   -0.284468
  16 H :   -0.283599
  17 H :   -0.286670
  18 H :   -0.286670
  19 H :   -0.271628
  20 H :   -0.271628

  Mayer bond orders larger than 0.100000
B(  0-C ,  1-C ) :   1.1244 B(  0-C ,  2-C ) :   1.1243 B(  0-C ,  9-H ) :   0.9977
B(  0-C , 10-H ) :  -0.1037 B(  0-C , 11-H ) :  -0.1036 B(  1-C ,  3-C ) :   1.3817
B(  1-C ,  4-C ) :   0.1556 B(  1-C ,  5-C ) :  -0.3289 B(  1-C , 10-H ) :   1.1339
B(  2-C ,  3-C ) :   0.1557 B(  2-C ,  4-C ) :   1.3817 B(  2-C ,  5-C ) :  -0.3289
B(  2-C , 11-H ) :   1.1339 B(  3-C ,  5-C ) :   0.9857 B(  3-C ,  7-C ) :  -0.2341
B(  3-C , 10-H ) :  -0.1332 B(  3-C , 12-H ) :   0.9869 B(  4-C ,  5-C ) :   0.9857
B(  4-C ,  7-C ) :  -0.2342 B(  4-C , 11-H ) :  -0.1332 B(  4-C , 13-H ) :   0.9869
B(  5-C ,  7-C ) :   0.8984 B(  6-C ,  8-C ) :   0.9368 B(  6-C , 14-H ) :   0.9633
B(  6-C , 15-H ) :   0.9633 B(  6-C , 16-H ) :   0.9973 B(  7-C ,  8-C ) :   0.8997
B(  7-C , 17-H ) :   0.9389 B(  7-C , 18-H ) :   0.9389 B(  8-C , 19-H ) :   0.8818
B(  8-C , 20-H ) :   0.8817

MP2 TOTAL ENERGY:     -349.524397538 Eh
FINAL SINGLE POINT ENERGY      -349.524397538126

DIPOLE MOMENT
-------------
                                X             Y             Z
Electronic contribution:      2.88745      -9.39564       0.00000
Nuclear contribution   :     -2.94403       9.55889       0.00000
                        -----------------------------------------
Total Dipole Moment    :     -0.05658       0.16325       0.00000
                        -----------------------------------------
Magnitude (a.u.)       :      0.17278
Magnitude (Debye)      :      0.43917

Rotational constants in cm-1:     0.147018     0.028391     0.025411
Rotational constants in MHz :  4407.492306   851.129989   761.810186

                             ****ORCA TERMINATED NORMALLY****
TOTAL RUN TIME: 0 days 1 hours 40 minutes 37 seconds 92 msec
