                         Program Version 5.0.4 -  RELEASE  -
|  1> !ri-mp2 aug-cc-pvqz aug-cc-pvqz/c tightscf
|  2> %pal nprocs 16 end
|  3>
|  4> * xyz 0 1
|  5> C      0.000000    0.000000    0.592096
|  6> C      0.000000    0.000000    2.018067
|  7> C      0.000000    1.207433   -0.119647
|  8> C      0.000000   -1.207433   -0.119647
|  9> C      0.000000    1.203152   -1.506425
| 10> C      0.000000   -1.203152   -1.506425
| 11> C      0.000000    0.000000   -2.204188
| 12> C      0.000000    0.000000    3.219986
| 13> H      0.000000    0.000000    4.280998
| 14> H      0.000000    2.140945    0.425266
| 15> H      0.000000   -2.140945    0.425266
| 16> H      0.000000    2.141685   -2.044307
| 17> H      0.000000   -2.141685   -2.044307
| 18> H      0.000000    0.000000   -3.285824
| 19> *
| 20>
| 21>                          ****END OF INPUT****

CARTESIAN COORDINATES (ANGSTROEM)
---------------------------------
  C      0.000000    0.000000    0.592096
  C      0.000000    0.000000    2.018067
  C      0.000000    1.207433   -0.119647
  C      0.000000   -1.207433   -0.119647
  C      0.000000    1.203152   -1.506425
  C      0.000000   -1.203152   -1.506425
  C      0.000000    0.000000   -2.204188
  C      0.000000    0.000000    3.219986
  H      0.000000    0.000000    4.280998
  H      0.000000    2.140945    0.425266
  H      0.000000   -2.140945    0.425266
  H      0.000000    2.141685   -2.044307
  H      0.000000   -2.141685   -2.044307
  H      0.000000    0.000000   -3.285824

 Total Charge           Charge          ....    0
 Multiplicity           Mult            ....    1
 Number of Electrons    NEL             ....   54
 Basis Dimension        Dim             ....  916

ORBITAL ENERGIES
----------------

  NO   OCC          E(Eh)            E(eV)
   0   2.0000     -11.264507      -306.5228
   1   2.0000     -11.245897      -306.0164
   2   2.0000     -11.245851      -306.0152
   3   2.0000     -11.244000      -305.9648
   4   2.0000     -11.241293      -305.8911
   5   2.0000     -11.241007      -305.8833
   6   2.0000     -11.237898      -305.7988
   7   2.0000     -11.227805      -305.5241
   8   2.0000      -1.169541       -31.8248
   9   2.0000      -1.067956       -29.0606
  10   2.0000      -1.026793       -27.9405
  11   2.0000      -0.998343       -27.1663
  12   2.0000      -0.856036       -23.2939
  13   2.0000      -0.837659       -22.7939
  14   2.0000      -0.748751       -20.3746
  15   2.0000      -0.705440       -19.1960
  16   2.0000      -0.666833       -18.1454
  17   2.0000      -0.639599       -17.4044
  18   2.0000      -0.611323       -16.6350
  19   2.0000      -0.597623       -16.2621
  20   2.0000      -0.527313       -14.3489
  21   2.0000      -0.520041       -14.1510
  22   2.0000      -0.507037       -13.7972
  23   2.0000      -0.431293       -11.7361
  24   2.0000      -0.398895       -10.8545
  25   2.0000      -0.347745        -9.4626
  26   2.0000      -0.321807        -8.7568
  27   0.0000       0.024195         0.6584
  28   0.0000       0.027169         0.7393
  29   0.0000       0.029893         0.8134
  30   0.0000       0.038123         1.0374
  31   0.0000       0.043874         1.1939

MULLIKEN ATOMIC CHARGES
-----------------------
   0 C :    0.287767
   1 C :   -0.189686
   2 C :   -0.176723
   3 C :   -0.176700
   4 C :   -0.310363
   5 C :   -0.310336
   6 C :   -0.312985
   7 C :   -0.779840
   8 H :    0.377122
   9 H :    0.347937
  10 H :    0.347909
  11 H :    0.274508
  12 H :    0.274511
  13 H :    0.346879
Sum of atomic charges:   -0.0000000

LOEWDIN ATOMIC CHARGES
----------------------
   0 C :   -0.208714
   1 C :    0.039539
   2 C :    0.315648
   3 C :    0.315648
   4 C :    0.343885
   5 C :    0.343885
   6 C :    0.340468
   7 C :    0.577481
   8 H :   -0.460926
   9 H :   -0.319700
  10 H :   -0.319700
  11 H :   -0.322782
  12 H :   -0.322782
  13 H :   -0.321949

  Mayer bond orders larger than 0.100000
B(  0-C ,  1-C ) :   1.0299 B(  0-C ,  2-C ) :   1.0889 B(  0-C ,  3-C ) :   1.0889
B(  0-C ,  4-C ) :  -0.1820 B(  0-C ,  5-C ) :  -0.1820 B(  0-C ,  6-C ) :   0.1539
B(  0-C ,  7-C ) :  -0.3940 B(  1-C ,  2-C ) :  -0.3330 B(  1-C ,  3-C ) :  -0.3330
B(  1-C ,  7-C ) :   2.7633 B(  1-C ,  8-H ) :  -0.1348 B(  2-C ,  4-C ) :   1.3022
B(  2-C ,  5-C ) :   0.1222 B(  2-C ,  9-H ) :   0.9027 B(  2-C , 11-H ) :  -0.1101
B(  3-C ,  4-C ) :   0.1222 B(  3-C ,  5-C ) :   1.3022 B(  3-C , 10-H ) :   0.9028
B(  3-C , 12-H ) :  -0.1101 B(  4-C ,  6-C ) :   1.2070 B(  4-C , 11-H ) :   1.0819
B(  5-C ,  6-C ) :   1.2070 B(  5-C , 12-H ) :   1.0819 B(  6-C , 13-H ) :   0.9612
B(  7-C ,  8-H ) :   1.0617

MP2 TOTAL ENERGY:     -307.823635610 Eh
FINAL SINGLE POINT ENERGY      -307.823635610120

DIPOLE MOMENT
-------------
                                X             Y             Z
Electronic contribution:     -0.00000      -0.00000       1.92480
Nuclear contribution   :      0.00000       0.00000      -2.22709
                        -----------------------------------------
Total Dipole Moment    :     -0.00000      -0.00000      -0.30229
                        -----------------------------------------
Magnitude (a.u.)       :      0.30229
Magnitude (Debye)      :      0.76837

Rotational constants in cm-1:     0.190950     0.051244     0.040401
Rotational constants in MHz :  5724.550164  1536.245876  1211.205567

                             ****ORCA TERMINATED NORMALLY****
TOTAL RUN TIME: 0 days 0 hours 41 minutes 6 seconds 658 msec
