                         Program Version 5.0.4 -  RELEASE  -
|  1> !ri-mp2 aug-cc-pvqz aug-cc-pvqz/c tightscf
|  2> %pal nprocs 16 end
|  3>
|  4> * xyz 0 1
|  5> S     -1.415690   -0.626525   -0.000006
|  6> O     -0.221616    1.707573    0.000000
|  7> C     -0.028547    0.519090    0.000000
|  8> C      1.281666   -0.084082    0.000004
|  9> C      2.374298   -0.580157    0.000009
| 10> H     -0.687542   -1.757741   -0.000004
| 11> H      3.347002   -1.007548    0.000013
| 12> *
| 13>
| 14>                          ****END OF INPUT****

CARTESIAN COORDINATES (ANGSTROEM)
---------------------------------
  S     -1.415690   -0.626525   -0.000006
  O     -0.221616    1.707573    0.000000
  C     -0.028547    0.519090    0.000000
  C      1.281666   -0.084082    0.000004
  C      2.374298   -0.580157    0.000009
  H     -0.687542   -1.757741   -0.000004
  H      3.347002   -1.007548    0.000013

 Total Charge           Charge          ....    0
 Multiplicity           Mult            ....    1
 Number of Electrons    NEL             ....   44
 Basis Dimension        Dim             ....  496

ORBITAL ENERGIES
----------------

  NO   OCC          E(Eh)            E(eV)
   0   2.0000     -91.994765     -2503.3048
   1   2.0000     -20.580211      -560.0160
   2   2.0000     -11.403593      -310.3075
   3   2.0000     -11.280463      -306.9570
   4   2.0000     -11.271393      -306.7102
   5   2.0000      -8.997312      -244.8293
   6   2.0000      -6.678578      -181.7334
   7   2.0000      -6.677699      -181.7094
   8   2.0000      -6.676832      -181.6858
   9   2.0000      -1.428086       -38.8602
  10   2.0000      -1.093684       -29.7607
  11   2.0000      -1.031014       -28.0553
  12   2.0000      -0.885759       -24.1027
  13   2.0000      -0.751681       -20.4543
  14   2.0000      -0.708628       -19.2828
  15   2.0000      -0.653545       -17.7839
  16   2.0000      -0.592932       -16.1345
  17   2.0000      -0.543359       -14.7856
  18   2.0000      -0.455321       -12.3899
  19   2.0000      -0.438221       -11.9246
  20   2.0000      -0.434583       -11.8256
  21   2.0000      -0.403599       -10.9825
  22   0.0000       0.019535         0.5316
  23   0.0000       0.031991         0.8705
  24   0.0000       0.050451         1.3729
  25   0.0000       0.056294         1.5318
  26   0.0000       0.062334         1.6962

MULLIKEN ATOMIC CHARGES
-----------------------
   0 S :    0.060840
   1 O :   -0.634199
   2 C :    0.624684
   3 C :   -0.131896
   4 C :   -0.548442
   5 H :    0.086718
   6 H :    0.542296
Sum of atomic charges:    0.0000000

LOEWDIN ATOMIC CHARGES
----------------------
   0 S :    1.534607
   1 O :    0.564500
   2 C :   -1.282039
   3 C :   -0.119598
   4 C :    0.554120
   5 H :   -0.811354
   6 H :   -0.440236

  Mayer bond orders larger than 0.100000
B(  0-S ,  2-C ) :   1.1383 B(  0-S ,  3-C ) :  -0.1046 B(  0-S ,  5-H ) :   1.0034
B(  1-O ,  2-C ) :   1.3887 B(  1-O ,  3-C ) :   0.1353 B(  2-C ,  3-C ) :   0.8587
B(  2-C ,  4-C ) :  -0.1091 B(  3-C ,  4-C ) :   2.7604 B(  4-C ,  6-H ) :   0.7670

MP2 TOTAL ENERGY:     -588.111681233 Eh
FINAL SINGLE POINT ENERGY      -588.111681233018

DIPOLE MOMENT
-------------
                                X             Y             Z
Electronic contribution:     -1.80700       1.22513      -0.00001
Nuclear contribution   :      2.59077      -2.60938       0.00001
                        -----------------------------------------
Total Dipole Moment    :      0.78377      -1.38425       0.00000
                        -----------------------------------------
Magnitude (a.u.)       :      1.59073
Magnitude (Debye)      :      4.04332

Rotational constants in cm-1:     0.238789     0.102647     0.071788
Rotational constants in MHz :  7158.703903  3077.285482  2152.149124

                             ****ORCA TERMINATED NORMALLY****
TOTAL RUN TIME: 0 days 0 hours 5 minutes 56 seconds 694 msec
