                         Program Version 5.0.4 -  RELEASE  -
|  1> !ri-mp2 aug-cc-pvqz aug-cc-pvqz/c tightscf
|  2> %pal nprocs 16 end
|  3>
|  4> * xyz 0 1
|  5> O     -0.000002    1.727755    0.000063
|  6> C      0.000000    0.513409   -0.000056
|  7> C     -1.221816   -0.263144   -0.000092
|  8> C      1.221818   -0.263140   -0.000093
|  9> C     -2.237923   -0.902147    0.000052
| 10> C      2.237924   -0.902146    0.000041
| 11> H     -3.142391   -1.459515    0.000203
| 12> H      3.142392   -1.459515    0.000184
| 13> *
| 14>
| 15>                          ****END OF INPUT****

CARTESIAN COORDINATES (ANGSTROEM)
---------------------------------
  O     -0.000002    1.727755    0.000063
  C      0.000000    0.513409   -0.000056
  C     -1.221816   -0.263144   -0.000092
  C      1.221818   -0.263140   -0.000093
  C     -2.237923   -0.902147    0.000052
  C      2.237924   -0.902146    0.000041
  H     -3.142391   -1.459515    0.000203
  H      3.142392   -1.459515    0.000184

 Total Charge           Charge          ....    0
 Multiplicity           Mult            ....    1
 Number of Electrons    NEL             ....   40
 Basis Dimension        Dim             ....  572

ORBITAL ENERGIES
----------------

  NO   OCC          E(Eh)            E(eV)
   0   2.0000     -20.582735      -560.0847
   1   2.0000     -11.395939      -310.0993
   2   2.0000     -11.273962      -306.7801
   3   2.0000     -11.273959      -306.7800
   4   2.0000     -11.264196      -306.5143
   5   2.0000     -11.264182      -306.5140
   6   2.0000      -1.422220       -38.7006
   7   2.0000      -1.095282       -29.8041
   8   2.0000      -1.059715       -28.8363
   9   2.0000      -0.944575       -25.7032
  10   2.0000      -0.807422       -21.9711
  11   2.0000      -0.743767       -20.2389
  12   2.0000      -0.724290       -19.7089
  13   2.0000      -0.678573       -18.4649
  14   2.0000      -0.588750       -16.0207
  15   2.0000      -0.487478       -13.2650
  16   2.0000      -0.452787       -12.3210
  17   2.0000      -0.431058       -11.7297
  18   2.0000      -0.428694       -11.6654
  19   2.0000      -0.419903       -11.4262
  20   0.0000       0.021460         0.5839
  21   0.0000       0.023141         0.6297
  22   0.0000       0.035020         0.9530
  23   0.0000       0.055484         1.5098
  24   0.0000       0.062681         1.7056

MULLIKEN ATOMIC CHARGES
-----------------------
   0 O :   -0.667852
   1 C :    1.352384
   2 C :   -0.238329
   3 C :   -0.238344
   4 C :   -0.628976
   5 C :   -0.628973
   6 H :    0.525042
   7 H :    0.525048
Sum of atomic charges:    0.0000000

LOEWDIN ATOMIC CHARGES
----------------------
   0 O :    0.669630
   1 C :   -0.906253
   2 C :   -0.012649
   3 C :   -0.012649
   4 C :    0.570964
   5 C :    0.570964
   6 H :   -0.440004
   7 H :   -0.440003

  Mayer bond orders larger than 0.100000
B(  0-O ,  1-C ) :   1.0065 B(  0-O ,  2-C ) :   0.2330 B(  0-O ,  3-C ) :   0.2330
B(  1-C ,  2-C ) :   0.9476 B(  1-C ,  3-C ) :   0.9476 B(  1-C ,  4-C ) :  -0.1109
B(  1-C ,  5-C ) :  -0.1109 B(  2-C ,  3-C ) :  -0.1294 B(  2-C ,  4-C ) :   2.6973
B(  3-C ,  5-C ) :   2.6973 B(  4-C ,  6-H ) :   0.8081 B(  5-C ,  7-H ) :   0.8081

MP2 TOTAL ENERGY:     -266.367560069 Eh
FINAL SINGLE POINT ENERGY      -266.367560068748

DIPOLE MOMENT
-------------
                                X             Y             Z
Electronic contribution:      0.00000       1.37088      -0.00029
Nuclear contribution   :      0.00000      -2.78263       0.00037
                        -----------------------------------------
Total Dipole Moment    :      0.00000      -1.41176       0.00009
                        -----------------------------------------
Magnitude (a.u.)       :      1.41176
Magnitude (Debye)      :      3.58840

Rotational constants in cm-1:     0.220858     0.095740     0.066788
Rotational constants in MHz :  6621.159046  2870.208993  2002.251965

                             ****ORCA TERMINATED NORMALLY****
TOTAL RUN TIME: 0 days 0 hours 7 minutes 38 seconds 523 msec
