                         Program Version 5.0.4 -  RELEASE  -
|  1> !ri-mp2 aug-cc-pvqz aug-cc-pvqz/c tightscf
|  2> %pal nprocs 16 end
|  3>
|  4> * xyz 0 1
|  5> C      0.000000    0.000000    0.712293
|  6> N      0.000000    1.158741    1.413954
|  7> N      0.000000   -1.158741    1.413954
|  8> C      0.000000   -2.261085    0.709672
|  9> C      0.000000    2.261085    0.709672
| 10> C      0.000000   -2.261085   -0.709672
| 11> N      0.000000   -1.158741   -1.413954
| 12> C      0.000000    0.000000   -0.712293
| 13> N      0.000000    1.158741   -1.413954
| 14> C      0.000000    2.261085   -0.709672
| 15> H      0.000000    3.201418   -1.250194
| 16> H      0.000000   -3.201418    1.250194
| 17> H      0.000000    3.201418    1.250194
| 18> H      0.000000   -3.201418   -1.250194
| 19> *
| 20>
| 21>                          ****END OF INPUT****

CARTESIAN COORDINATES (ANGSTROEM)
---------------------------------
  C      0.000000    0.000000    0.712293
  N      0.000000    1.158741    1.413954
  N      0.000000   -1.158741    1.413954
  C      0.000000   -2.261085    0.709672
  C      0.000000    2.261085    0.709672
  C      0.000000   -2.261085   -0.709672
  N      0.000000   -1.158741   -1.413954
  C      0.000000    0.000000   -0.712293
  N      0.000000    1.158741   -1.413954
  C      0.000000    2.261085   -0.709672
  H      0.000000    3.201418   -1.250194
  H      0.000000   -3.201418    1.250194
  H      0.000000    3.201418    1.250194
  H      0.000000   -3.201418   -1.250194

 Total Charge           Charge          ....    0
 Multiplicity           Mult            ....    1
 Number of Electrons    NEL             ....   68
 Basis Dimension        Dim             ....  984

ORBITAL ENERGIES
----------------

  NO   OCC          E(Eh)            E(eV)
   0   2.0000     -15.600489      -424.5109
   1   2.0000     -15.600473      -424.5104
   2   2.0000     -15.600473      -424.5104
   3   2.0000     -15.600464      -424.5102
   4   2.0000     -11.324954      -308.1677
   5   2.0000     -11.323894      -308.1388
   6   2.0000     -11.302888      -307.5672
   7   2.0000     -11.302887      -307.5672
   8   2.0000     -11.301828      -307.5384
   9   2.0000     -11.301827      -307.5383
  10   2.0000      -1.356118       -36.9018
  11   2.0000      -1.284295       -34.9474
  12   2.0000      -1.270570       -34.5740
  13   2.0000      -1.204742       -32.7827
  14   2.0000      -1.067352       -29.0441
  15   2.0000      -0.956989       -26.0410
  16   2.0000      -0.928585       -25.2681
  17   2.0000      -0.886137       -24.1130
  18   2.0000      -0.795337       -21.6422
  19   2.0000      -0.761751       -20.7283
  20   2.0000      -0.746599       -20.3160
  21   2.0000      -0.671523       -18.2731
  22   2.0000      -0.649921       -17.6852
  23   2.0000      -0.642394       -17.4804
  24   2.0000      -0.628049       -17.0901
  25   2.0000      -0.575435       -15.6584
  26   2.0000      -0.529832       -14.4175
  27   2.0000      -0.523288       -14.2394
  28   2.0000      -0.499271       -13.5859
  29   2.0000      -0.496507       -13.5106
  30   2.0000      -0.465925       -12.6785
  31   2.0000      -0.402930       -10.9643
  32   2.0000      -0.401589       -10.9278
  33   2.0000      -0.351638        -9.5685
  34   0.0000       0.018540         0.5045
  35   0.0000       0.022910         0.6234
  36   0.0000       0.023385         0.6363
  37   0.0000       0.034253         0.9321
  38   0.0000       0.038378         1.0443

MULLIKEN ATOMIC CHARGES
-----------------------
   0 C :    0.850527
   1 N :   -0.593444
   2 N :   -0.593404
   3 C :   -0.337960
   4 C :   -0.337842
   5 C :   -0.337880
   6 N :   -0.593442
   7 C :    0.850615
   8 N :   -0.593417
   9 C :   -0.337967
  10 H :    0.506035
  11 H :    0.506064
  12 H :    0.506062
  13 H :    0.506053
Sum of atomic charges:    0.0000000

LOEWDIN ATOMIC CHARGES
----------------------
   0 C :   -0.657830
   1 N :    0.589458
   2 N :    0.589458
   3 C :    0.089405
   4 C :    0.089405
   5 C :    0.089405
   6 N :    0.589458
   7 C :   -0.657830
   8 N :    0.589458
   9 C :    0.089405
  10 H :   -0.349948
  11 H :   -0.349948
  12 H :   -0.349948
  13 H :   -0.349948

  Mayer bond orders larger than 0.100000
B(  0-C ,  1-N ) :   0.7158 B(  0-C ,  2-N ) :   0.7158 B(  0-C ,  6-N ) :   0.1691
B(  0-C ,  7-C ) :   1.2770 B(  0-C ,  8-N ) :   0.1691 B(  1-N ,  2-N ) :   0.1173
B(  1-N ,  4-C ) :   1.4548 B(  1-N ,  7-C ) :   0.1691 B(  2-N ,  3-C ) :   1.4548
B(  2-N ,  7-C ) :   0.1691 B(  3-C ,  5-C ) :   1.0967 B(  3-C , 11-H ) :   0.8252
B(  4-C ,  9-C ) :   1.0968 B(  4-C , 12-H ) :   0.8252 B(  5-C ,  6-N ) :   1.4548
B(  5-C , 13-H ) :   0.8252 B(  6-N ,  7-C ) :   0.7158 B(  6-N ,  8-N ) :   0.1173
B(  7-C ,  8-N ) :   0.7158 B(  8-N ,  9-C ) :   1.4548 B(  9-C , 10-H ) :   0.8252

MP2 TOTAL ENERGY:     -449.317110548 Eh
FINAL SINGLE POINT ENERGY      -449.317110547971

DIPOLE MOMENT
-------------
                                X             Y             Z
Electronic contribution:      0.00000      -0.00000       0.00000
Nuclear contribution   :      0.00000       0.00000      -0.00000
                        -----------------------------------------
Total Dipole Moment    :      0.00000      -0.00000       0.00000
                        -----------------------------------------
Magnitude (a.u.)       :      0.00000
Magnitude (Debye)      :      0.00000

Rotational constants in cm-1:     0.108969     0.046545     0.032614
Rotational constants in MHz :  3266.808893  1395.392854   977.753008

                             ****ORCA TERMINATED NORMALLY****
TOTAL RUN TIME: 0 days 0 hours 44 minutes 55 seconds 237 msec
