                         Program Version 5.0.4 -  RELEASE  -
|  1> !ri-mp2 aug-cc-pvqz aug-cc-pvqz/c tightscf
|  2> %pal nprocs 16 end
|  3>
|  4> * xyz 0 1
|  5> C     -1.178117   -1.374042    0.000000
|  6> C      0.000000    0.710936    0.000000
|  7> C      0.054673   -2.002123    0.000000
|  8> C     -1.206605    0.023456    0.000000
|  9> C      1.184142   -0.028878    0.000000
| 10> N      1.224295   -1.357495    0.000000
| 11> S     -2.784231    0.826539    0.000000
| 12> S      2.727524    0.857050    0.000000
| 13> H     -2.088791   -1.955558    0.000000
| 14> H      0.031617    1.791274    0.000000
| 15> H      0.111277   -3.084243    0.000000
| 16> H     -2.326622    2.090660    0.000000
| 17> H      3.485210   -0.253177    0.000000
| 18> *
| 19>
| 20>                          ****END OF INPUT****

CARTESIAN COORDINATES (ANGSTROEM)
---------------------------------
  C     -1.178117   -1.374042    0.000000
  C      0.000000    0.710936    0.000000
  C      0.054673   -2.002123    0.000000
  C     -1.206605    0.023456    0.000000
  C      1.184142   -0.028878    0.000000
  N      1.224295   -1.357495    0.000000
  S     -2.784231    0.826539    0.000000
  S      2.727524    0.857050    0.000000
  H     -2.088791   -1.955558    0.000000
  H      0.031617    1.791274    0.000000
  H      0.111277   -3.084243    0.000000
  H     -2.326622    2.090660    0.000000
  H      3.485210   -0.253177    0.000000

 Total Charge           Charge          ....    0
 Multiplicity           Mult            ....    1
 Number of Electrons    NEL             ....   74
 Basis Dimension        Dim             ....  878

ORBITAL ENERGIES
----------------

  NO   OCC          E(Eh)            E(eV)
   0   2.0000     -91.985546     -2503.0540
   1   2.0000     -91.970159     -2502.6353
   2   2.0000     -15.569942      -423.6797
   3   2.0000     -11.323626      -308.1315
   4   2.0000     -11.308854      -307.7296
   5   2.0000     -11.289052      -307.1907
   6   2.0000     -11.252909      -306.2072
   7   2.0000     -11.246753      -306.0397
   8   2.0000      -8.987905      -244.5733
   9   2.0000      -8.972959      -244.1666
  10   2.0000      -6.669484      -181.4859
  11   2.0000      -6.668521      -181.4597
  12   2.0000      -6.667624      -181.4353
  13   2.0000      -6.654563      -181.0799
  14   2.0000      -6.653608      -181.0539
  15   2.0000      -6.652750      -181.0305
  16   2.0000      -1.279652       -34.8211
  17   2.0000      -1.131379       -30.7864
  18   2.0000      -1.076031       -29.2803
  19   2.0000      -0.995035       -27.0763
  20   2.0000      -0.972466       -26.4621
  21   2.0000      -0.868465       -23.6321
  22   2.0000      -0.817699       -22.2507
  23   2.0000      -0.702096       -19.1050
  24   2.0000      -0.697841       -18.9892
  25   2.0000      -0.651984       -17.7414
  26   2.0000      -0.598224       -16.2785
  27   2.0000      -0.574992       -15.6463
  28   2.0000      -0.574713       -15.6387
  29   2.0000      -0.548757       -14.9324
  30   2.0000      -0.500417       -13.6170
  31   2.0000      -0.494253       -13.4493
  32   2.0000      -0.465980       -12.6800
  33   2.0000      -0.425961       -11.5910
  34   2.0000      -0.417396       -11.3579
  35   2.0000      -0.348991        -9.4965
  36   2.0000      -0.328312        -8.9338
  37   0.0000       0.024637         0.6704
  38   0.0000       0.028094         0.7645
  39   0.0000       0.033849         0.9211
  40   0.0000       0.044663         1.2153
  41   0.0000       0.047366         1.2889

MULLIKEN ATOMIC CHARGES
-----------------------
   0 C :   -0.187766
   1 C :   -0.027273
   2 C :   -0.255658
   3 C :   -0.026137
   4 C :    0.017797
   5 N :   -0.481047
   6 S :   -0.157574
   7 S :   -0.121699
   8 H :    0.352822
   9 H :    0.385925
  10 H :    0.469795
  11 H :    0.007239
  12 H :    0.023576
Sum of atomic charges:    0.0000000

LOEWDIN ATOMIC CHARGES
----------------------
   0 C :    0.208314
   1 C :    0.104073
   2 C :    0.064595
   3 C :   -0.583694
   4 C :   -0.848371
   5 N :    0.494119
   6 S :    1.631370
   7 S :    1.584698
   8 H :   -0.354013
   9 H :   -0.384435
  10 H :   -0.347275
  11 H :   -0.774732
  12 H :   -0.794649

  Mayer bond orders larger than 0.100000
B(  0-C ,  2-C ) :   1.2671 B(  0-C ,  3-C ) :   1.0253 B(  0-C ,  6-S ) :  -0.1734
B(  0-C ,  8-H ) :   0.9152 B(  1-C ,  2-C ) :   0.1273 B(  1-C ,  3-C ) :   1.1172
B(  1-C ,  4-C ) :   0.9324 B(  1-C ,  6-S ) :  -0.2349 B(  1-C ,  7-S ) :  -0.2669
B(  1-C ,  9-H ) :   0.8604 B(  2-C ,  3-C ) :  -0.1590 B(  2-C ,  5-N ) :   1.1363
B(  2-C , 10-H ) :   0.9056 B(  3-C ,  4-C ) :  -0.3290 B(  3-C ,  6-S ) :   0.9035
B(  4-C ,  5-N ) :   1.0819 B(  4-C ,  7-S ) :   0.9844 B(  5-N ,  7-S ) :  -0.1382
B(  5-N , 10-H ) :  -0.1077 B(  6-S , 11-H ) :   1.1300 B(  7-S , 12-H ) :   1.1570

MP2 TOTAL ENERGY:    -1043.331200375 Eh
FINAL SINGLE POINT ENERGY     -1043.331200374560

DIPOLE MOMENT
-------------
                                X             Y             Z
Electronic contribution:      0.28111       1.55055      -0.00000
Nuclear contribution   :     -0.75530      -1.42737       0.00000
                        -----------------------------------------
Total Dipole Moment    :     -0.47420       0.12318      -0.00000
                        -----------------------------------------
Magnitude (a.u.)       :      0.48994
Magnitude (Debye)      :      1.24532

Rotational constants in cm-1:     0.099633     0.029001     0.022463
Rotational constants in MHz :  2986.917925   869.423564   673.409457

                             ****ORCA TERMINATED NORMALLY****
TOTAL RUN TIME: 0 days 0 hours 30 minutes 58 seconds 264 msec
