                         Program Version 5.0.4 -  RELEASE  -
|  1> !ri-mp2 aug-cc-pvqz aug-cc-pvqz/c tightscf
|  2> %pal nprocs 16 end
|  3>
|  4> * xyz 0 1
|  5> O      0.219214   -0.692487    0.000002
|  6> O     -1.737049   -1.731787    0.000000
|  7> C     -1.131002   -0.695733    0.000000
|  8> C     -1.795334    0.594519   -0.000001
|  9> C      0.941706    0.562529    0.000002
| 10> C      2.364687    0.276671    0.000000
| 11> C     -2.399277    1.630600   -0.000004
| 12> C      3.545311    0.077874    0.000000
| 13> H      0.670540    1.140839    0.884807
| 14> H      0.670539    1.140839   -0.884803
| 15> H     -2.945518    2.542080   -0.000006
| 16> H      4.590571   -0.108328   -0.000001
| 17> *
| 18>
| 19>                          ****END OF INPUT****

CARTESIAN COORDINATES (ANGSTROEM)
---------------------------------
  O      0.219214   -0.692487    0.000002
  O     -1.737049   -1.731787    0.000000
  C     -1.131002   -0.695733    0.000000
  C     -1.795334    0.594519   -0.000001
  C      0.941706    0.562529    0.000002
  C      2.364687    0.276671    0.000000
  C     -2.399277    1.630600   -0.000004
  C      3.545311    0.077874    0.000000
  H      0.670540    1.140839    0.884807
  H      0.670539    1.140839   -0.884803
  H     -2.945518    2.542080   -0.000006
  H      4.590571   -0.108328   -0.000001

 Total Charge           Charge          ....    0
 Multiplicity           Mult            ....    1
 Number of Electrons    NEL             ....   56
 Basis Dimension        Dim             ....  824

ORBITAL ENERGIES
----------------

  NO   OCC          E(Eh)            E(eV)
   0   2.0000     -20.623351      -561.1899
   1   2.0000     -20.561697      -559.5122
   2   2.0000     -11.419974      -310.7533
   3   2.0000     -11.340720      -308.5967
   4   2.0000     -11.282637      -307.0162
   5   2.0000     -11.273204      -306.7595
   6   2.0000     -11.252095      -306.1851
   7   2.0000     -11.245787      -306.0134
   8   2.0000      -1.478230       -40.2247
   9   2.0000      -1.384112       -37.6636
  10   2.0000      -1.087227       -29.5849
  11   2.0000      -1.079291       -29.3690
  12   2.0000      -0.988005       -26.8850
  13   2.0000      -0.907205       -24.6863
  14   2.0000      -0.781425       -21.2636
  15   2.0000      -0.752482       -20.4761
  16   2.0000      -0.741004       -20.1637
  17   2.0000      -0.704539       -19.1715
  18   2.0000      -0.699009       -19.0210
  19   2.0000      -0.650113       -17.6905
  20   2.0000      -0.600796       -16.3485
  21   2.0000      -0.566799       -15.4234
  22   2.0000      -0.493426       -13.4268
  23   2.0000      -0.488494       -13.2926
  24   2.0000      -0.440981       -11.9997
  25   2.0000      -0.439512       -11.9597
  26   2.0000      -0.418349       -11.3838
  27   2.0000      -0.408538       -11.1169
  28   0.0000       0.017491         0.4760
  29   0.0000       0.024356         0.6628
  30   0.0000       0.036762         1.0004
  31   0.0000       0.036970         1.0060
  32   0.0000       0.053427         1.4538

MULLIKEN ATOMIC CHARGES
-----------------------
   0 O :   -0.740541
   1 O :   -0.748339
   2 C :    1.391289
   3 C :   -0.263778
   4 C :    0.201100
   5 C :   -0.187246
   6 C :   -0.662718
   7 C :   -0.586865
   8 H :    0.325045
   9 H :    0.325044
  10 H :    0.492561
  11 H :    0.454448
Sum of atomic charges:    0.0000000

LOEWDIN ATOMIC CHARGES
----------------------
   0 O :    0.800644
   1 O :    0.644629
   2 C :   -1.174519
   3 C :   -0.017778
   4 C :    0.058930
   5 C :    0.091976
   6 C :    0.584935
   7 C :    0.574675
   8 H :   -0.338263
   9 H :   -0.338264
  10 H :   -0.430300
  11 H :   -0.456665

  Mayer bond orders larger than 0.100000
B(  0-O ,  1-O ) :   0.1256 B(  0-O ,  2-C ) :   0.8706 B(  0-O ,  3-C ) :   0.1222
B(  0-O ,  4-C ) :   0.6455 B(  1-O ,  2-C ) :   1.2714 B(  1-O ,  3-C ) :   0.1334
B(  2-C ,  3-C ) :   1.1286 B(  2-C ,  6-C ) :  -0.1078 B(  3-C ,  6-C ) :   2.5573
B(  4-C ,  5-C ) :   0.8239 B(  4-C ,  7-C ) :  -0.3590 B(  4-C ,  8-H ) :   0.8371
B(  4-C ,  9-H ) :   0.8371 B(  5-C ,  7-C ) :   2.8311 B(  6-C , 10-H ) :   0.8866
B(  7-C , 11-H ) :   0.8762

MP2 TOTAL ENERGY:     -380.757867665 Eh
FINAL SINGLE POINT ENERGY      -380.757867664744

DIPOLE MOMENT
-------------
                                X             Y             Z
Electronic contribution:     -2.45292      -2.60433       0.00000
Nuclear contribution   :      2.88208       4.55070      -0.00000
                        -----------------------------------------
Total Dipole Moment    :      0.42916       1.94637      -0.00000
                        -----------------------------------------
Magnitude (a.u.)       :      1.99312
Magnitude (Debye)      :      5.06611

Rotational constants in cm-1:     0.149383     0.038882     0.031031
Rotational constants in MHz :  4478.387388  1165.651576   930.286207

                             ****ORCA TERMINATED NORMALLY****
TOTAL RUN TIME: 0 days 0 hours 23 minutes 54 seconds 133 msec
