                         Program Version 5.0.4 -  RELEASE  -
|  1> !ri-mp2 aug-cc-pvqz aug-cc-pvqz/c tightscf
|  2> %pal nprocs 16 end
|  3>
|  4> * xyz 0 1
|  5> N     -1.521190   -0.514806   -0.120022
|  6> C     -0.579874    0.602125    0.038950
|  7> C      0.805281    0.144140   -0.003594
|  8> C      1.943561   -0.232193   -0.014649
|  9> H     -1.375309   -1.207070    0.604410
| 10> H     -2.473718   -0.181419   -0.036708
| 11> H     -0.745639    1.300834   -0.784742
| 12> H     -0.721665    1.172303    0.967186
| 13> H      2.950856   -0.565445   -0.034238
| 14> *
| 15>
| 16>                          ****END OF INPUT****

CARTESIAN COORDINATES (ANGSTROEM)
---------------------------------
  N     -1.521190   -0.514806   -0.120022
  C     -0.579874    0.602125    0.038950
  C      0.805281    0.144140   -0.003594
  C      1.943561   -0.232193   -0.014649
  H     -1.375309   -1.207070    0.604410
  H     -2.473718   -0.181419   -0.036708
  H     -0.745639    1.300834   -0.784742
  H     -0.721665    1.172303    0.967186
  H      2.950856   -0.565445   -0.034238

 Total Charge           Charge          ....    0
 Multiplicity           Mult            ....    1
 Number of Electrons    NEL             ....   30
 Basis Dimension        Dim             ....  550

ORBITAL ENERGIES
----------------

  NO   OCC          E(Eh)            E(eV)
   0   2.0000     -15.551687      -423.1829
   1   2.0000     -11.282464      -307.0114
   2   2.0000     -11.232236      -305.6447
   3   2.0000     -11.221505      -305.3527
   4   2.0000      -1.192899       -32.4604
   5   2.0000      -1.036548       -28.2059
   6   2.0000      -0.927412       -25.2362
   7   2.0000      -0.726563       -19.7708
   8   2.0000      -0.682899       -18.5826
   9   2.0000      -0.637253       -17.3405
  10   2.0000      -0.604217       -16.4416
  11   2.0000      -0.566908       -15.4264
  12   2.0000      -0.415983       -11.3195
  13   2.0000      -0.394389       -10.7319
  14   2.0000      -0.382362       -10.4046
  15   0.0000       0.024096         0.6557
  16   0.0000       0.030332         0.8254
  17   0.0000       0.038856         1.0573
  18   0.0000       0.041290         1.1236
  19   0.0000       0.052830         1.4376

MULLIKEN ATOMIC CHARGES
-----------------------
   0 N :   -0.635639
   1 C :   -0.073352
   2 C :   -0.035180
   3 C :   -0.832552
   4 H :    0.267430
   5 H :    0.227142
   6 H :    0.314441
   7 H :    0.284999
   8 H :    0.482708
Sum of atomic charges:    0.0000000

LOEWDIN ATOMIC CHARGES
----------------------
   0 N :    1.257179
   1 C :    0.245959
   2 C :    0.076149
   3 C :    0.563947
   4 H :   -0.522825
   5 H :   -0.514782
   6 H :   -0.327434
   7 H :   -0.308557
   8 H :   -0.469636

  Mayer bond orders larger than 0.100000
B(  0-N ,  1-C ) :   0.9490 B(  0-N ,  4-H ) :   0.8949 B(  0-N ,  5-H ) :   0.9605
B(  1-C ,  2-C ) :   0.8512 B(  1-C ,  3-C ) :  -0.1564 B(  1-C ,  6-H ) :   0.8775
B(  1-C ,  7-H ) :   0.9050 B(  2-C ,  3-C ) :   2.7508 B(  3-C ,  8-H ) :   0.8518

MP2 TOTAL ENERGY:     -171.700919941 Eh
FINAL SINGLE POINT ENERGY      -171.700919940773

DIPOLE MOMENT
-------------
                                X             Y             Z
Electronic contribution:      2.10382      -0.26332      -0.25235
Nuclear contribution   :     -2.42881       0.52801       0.73159
                        -----------------------------------------
Total Dipole Moment    :     -0.32499       0.26469       0.47924
                        -----------------------------------------
Magnitude (a.u.)       :      0.63667
Magnitude (Debye)      :      1.61829

Rotational constants in cm-1:     1.054091     0.153827     0.138909
Rotational constants in MHz : 31600.842316  4611.614958  4164.372862

                             ****ORCA TERMINATED NORMALLY****
TOTAL RUN TIME: 0 days 0 hours 4 minutes 37 seconds 561 msec
