                         Program Version 5.0.4 -  RELEASE  -
|  1> !ri-mp2 aug-cc-pvqz aug-cc-pvqz/c tightscf
|  2> %pal nprocs 16 end
|  3>
|  4> * xyz 0 1
|  5> C     0.000000     0.000000    0.584601
|  6> C     0.000000     1.273888   -0.259060
|  7> C     0.000000    -1.273888   -0.259060
|  8> H     0.880629     1.318580   -0.903482
|  9> H    -0.880629     1.318580   -0.903482
| 10> H    -0.880629    -1.318580   -0.903482
| 11> H     0.000000     2.168536    0.365318
| 12> H     0.880629    -1.318580   -0.903482
| 13> H     0.000000    -2.168536    0.365318
| 14> H     0.873365     0.000000    1.242204
| 15> H    -0.873365     0.000000    1.242204
| 16> *
| 17>
| 18>                          ****END OF INPUT****

CARTESIAN COORDINATES (ANGSTROEM)
---------------------------------
  C      0.000000    0.000000    0.584601
  C      0.000000    1.273888   -0.259060
  C      0.000000   -1.273888   -0.259060
  H      0.880629    1.318580   -0.903482
  H     -0.880629    1.318580   -0.903482
  H     -0.880629   -1.318580   -0.903482
  H      0.000000    2.168536    0.365318
  H      0.880629   -1.318580   -0.903482
  H      0.000000   -2.168536    0.365318
  H      0.873365    0.000000    1.242204
  H     -0.873365    0.000000    1.242204

 Total Charge           Charge          ....    0
 Multiplicity           Mult            ....    1
 Number of Electrons    NEL             ....   26
 Basis Dimension        Dim             ....  608

ORBITAL ENERGIES
----------------

  NO   OCC          E(Eh)            E(eV)
   0   2.0000     -11.215879      -305.1996
   1   2.0000     -11.207904      -304.9826
   2   2.0000     -11.207870      -304.9816
   3   2.0000      -1.051506       -28.6129
   4   2.0000      -0.924951       -25.1692
   5   2.0000      -0.799823       -21.7643
   6   2.0000      -0.622864       -16.9490
   7   2.0000      -0.596669       -16.2362
   8   2.0000      -0.549857       -14.9624
   9   2.0000      -0.530548       -14.4370
  10   2.0000      -0.475674       -12.9438
  11   2.0000      -0.475001       -12.9254
  12   2.0000      -0.467583       -12.7236
  13   0.0000       0.028601         0.7783
  14   0.0000       0.035123         0.9557
  15   0.0000       0.036649         0.9973
  16   0.0000       0.037477         1.0198
  17   0.0000       0.057396         1.5618

MULLIKEN ATOMIC CHARGES
-----------------------
   0 C :   -0.360638
   1 C :   -0.816226
   2 C :   -0.816226
   3 H :    0.232638
   4 H :    0.232638
   5 H :    0.232638
   6 H :    0.284675
   7 H :    0.232638
   8 H :    0.284675
   9 H :    0.246594
  10 H :    0.246594
Sum of atomic charges:    0.0000000

LOEWDIN ATOMIC CHARGES
----------------------
   0 C :    0.485747
   1 C :    0.908184
   2 C :    0.908184
   3 H :   -0.289766
   4 H :   -0.289766
   5 H :   -0.289766
   6 H :   -0.287699
   7 H :   -0.289766
   8 H :   -0.287699
   9 H :   -0.283827
  10 H :   -0.283827

  Mayer bond orders larger than 0.100000
B(  0-C ,  1-C ) :   0.9497 B(  0-C ,  2-C ) :   0.9497 B(  0-C ,  9-H ) :   0.8801
B(  0-C , 10-H ) :   0.8801 B(  1-C ,  3-H ) :   0.9466 B(  1-C ,  4-H ) :   0.9466
B(  1-C ,  6-H ) :   0.9425 B(  2-C ,  5-H ) :   0.9466 B(  2-C ,  7-H ) :   0.9466
B(  2-C ,  8-H ) :   0.9425

MP2 TOTAL ENERGY:     -118.895761410 Eh
FINAL SINGLE POINT ENERGY      -118.895761410040

DIPOLE MOMENT
-------------
                                X             Y             Z
Electronic contribution:      0.00000      -0.00000       0.47467
Nuclear contribution   :      0.00000      -0.00000      -0.44170
                        -----------------------------------------
Total Dipole Moment    :      0.00000      -0.00000       0.03298
                        -----------------------------------------
Magnitude (a.u.)       :      0.03298
Magnitude (Debye)      :      0.08382

Rotational constants in cm-1:     0.988767     0.280317     0.248426
Rotational constants in MHz : 29642.476322  8403.684274  7447.620398

                             ****ORCA TERMINATED NORMALLY****
TOTAL RUN TIME: 0 days 0 hours 8 minutes 12 seconds 321 msec
