                         Program Version 5.0.4 -  RELEASE  -
|  1> !ri-mp2 aug-cc-pvqz aug-cc-pvqz/c tightscf
|  2> %pal nprocs 16 end
|  3>
|  4> * xyz 0 1
|  5> O      2.762394   -1.105018    0.003022
|  6> C      2.156561    0.114744    0.002536
|  7> O      2.803915    1.137760    0.005269
|  8> C      0.686414    0.034495   -0.001330
|  9> C     -0.049953    1.223608   -0.002784
| 10> C     -1.429416    1.203832   -0.004972
| 11> C     -2.123979   -0.016126   -0.004799
| 12> N     -3.503279   -0.040515   -0.054095
| 13> C     -1.386039   -1.209122   -0.004321
| 14> C     -0.004739   -1.181360   -0.002372
| 15> H      3.714017   -0.931351    0.005078
| 16> H      0.483823    2.163304   -0.001130
| 17> H     -1.984440    2.133422   -0.009930
| 18> H     -3.992208    0.795011    0.217353
| 19> H     -3.962914   -0.892079    0.218605
| 20> H     -1.907089   -2.158183   -0.008827
| 21> H      0.548189   -2.108876   -0.000570
| 22> *
| 23>
| 24>                          ****END OF INPUT****

CARTESIAN COORDINATES (ANGSTROEM)
---------------------------------
  O      2.762394   -1.105018    0.003022
  C      2.156561    0.114744    0.002536
  O      2.803915    1.137760    0.005269
  C      0.686414    0.034495   -0.001330
  C     -0.049953    1.223608   -0.002784
  C     -1.429416    1.203832   -0.004972
  C     -2.123979   -0.016126   -0.004799
  N     -3.503279   -0.040515   -0.054095
  C     -1.386039   -1.209122   -0.004321
  C     -0.004739   -1.181360   -0.002372
  H      3.714017   -0.931351    0.005078
  H      0.483823    2.163304   -0.001130
  H     -1.984440    2.133422   -0.009930
  H     -3.992208    0.795011    0.217353
  H     -3.962914   -0.892079    0.218605
  H     -1.907089   -2.158183   -0.008827
  H      0.548189   -2.108876   -0.000570

 Total Charge           Charge          ....    0
 Multiplicity           Mult            ....    1
 Number of Electrons    NEL             ....   72
 Basis Dimension        Dim             .... 1122

ORBITAL ENERGIES
----------------

  NO   OCC          E(Eh)            E(eV)
   0   2.0000     -20.600265      -560.5617
   1   2.0000     -20.532635      -558.7214
   2   2.0000     -15.582418      -424.0192
   3   2.0000     -11.378443      -309.6232
   4   2.0000     -11.302333      -307.5521
   5   2.0000     -11.254171      -306.2416
   6   2.0000     -11.251272      -306.1627
   7   2.0000     -11.235519      -305.7340
   8   2.0000     -11.233422      -305.6769
   9   2.0000     -11.232993      -305.6653
  10   2.0000      -1.452586       -39.5269
  11   2.0000      -1.347496       -36.6672
  12   2.0000      -1.246652       -33.9231
  13   2.0000      -1.149836       -31.2886
  14   2.0000      -1.030319       -28.0364
  15   2.0000      -1.023395       -27.8480
  16   2.0000      -0.885503       -24.0958
  17   2.0000      -0.851574       -23.1725
  18   2.0000      -0.798877       -21.7385
  19   2.0000      -0.729515       -19.8511
  20   2.0000      -0.716711       -19.5027
  21   2.0000      -0.693041       -18.8586
  22   2.0000      -0.687082       -18.6964
  23   2.0000      -0.631835       -17.1931
  24   2.0000      -0.624284       -16.9876
  25   2.0000      -0.607863       -16.5408
  26   2.0000      -0.600042       -16.3280
  27   2.0000      -0.590257       -16.0617
  28   2.0000      -0.555029       -15.1031
  29   2.0000      -0.544405       -14.8140
  30   2.0000      -0.501259       -13.6400
  31   2.0000      -0.485324       -13.2063
  32   2.0000      -0.456968       -12.4347
  33   2.0000      -0.447558       -12.1787
  34   2.0000      -0.353553        -9.6207
  35   2.0000      -0.310963        -8.4617
  36   0.0000       0.017419         0.4740
  37   0.0000       0.026901         0.7320
  38   0.0000       0.031296         0.8516
  39   0.0000       0.040205         1.0940
  40   0.0000       0.045245         1.2312

MULLIKEN ATOMIC CHARGES
-----------------------
   0 O :   -0.679995
   1 C :    1.631102
   2 O :   -0.824160
   3 C :   -0.806373
   4 C :   -0.079120
   5 C :   -0.306244
   6 C :    0.623797
   7 N :   -0.840932
   8 C :   -0.349641
   9 C :   -0.207361
  10 H :    0.314049
  11 H :    0.244779
  12 H :    0.243094
  13 H :    0.275732
  14 H :    0.277159
  15 H :    0.234075
  16 H :    0.250038
Sum of atomic charges:    0.0000000

LOEWDIN ATOMIC CHARGES
----------------------
   0 O :    1.239852
   1 C :   -1.052290
   2 O :    0.696825
   3 C :   -0.159468
   4 C :    0.315750
   5 C :    0.362249
   6 C :   -0.231350
   7 N :    1.278999
   8 C :    0.359017
   9 C :    0.323940
  10 H :   -0.822313
  11 H :   -0.330950
  12 H :   -0.323517
  13 H :   -0.497594
  14 H :   -0.497551
  15 H :   -0.324420
  16 H :   -0.337178

  Mayer bond orders larger than 0.100000
B(  0-O ,  1-C ) :   0.7096 B(  0-O ,  3-C ) :   0.2105 B(  0-O , 10-H ) :   0.9328
B(  1-C ,  2-O ) :   1.0370 B(  1-C ,  3-C ) :   1.2833 B(  1-C ,  4-C ) :  -0.3332
B(  1-C ,  9-C ) :  -0.2381 B(  2-O ,  3-C ) :   0.5946 B(  2-O ,  4-C ) :  -0.1441
B(  3-C ,  4-C ) :   1.0870 B(  3-C ,  5-C ) :  -0.2497 B(  3-C ,  8-C ) :  -0.2221
B(  3-C ,  9-C ) :   1.0828 B(  4-C ,  5-C ) :   1.2682 B(  4-C ,  6-C ) :  -0.1662
B(  4-C , 11-H ) :   1.0150 B(  4-C , 12-H ) :  -0.1406 B(  5-C ,  6-C ) :   1.1577
B(  5-C , 11-H ) :  -0.1389 B(  5-C , 12-H ) :   1.0177 B(  6-C ,  7-N ) :   0.7356
B(  6-C ,  8-C ) :   1.1615 B(  6-C ,  9-C ) :  -0.1562 B(  6-C , 12-H ) :  -0.1011
B(  6-C , 15-H ) :  -0.1045 B(  7-N , 13-H ) :   0.9465 B(  7-N , 14-H ) :   0.9467
B(  8-C ,  9-C ) :   1.2386 B(  8-C , 15-H ) :   1.0311 B(  8-C , 16-H ) :  -0.1380
B(  9-C , 15-H ) :  -0.1598 B(  9-C , 16-H ) :   1.0282

MP2 TOTAL ENERGY:     -475.467820832 Eh
FINAL SINGLE POINT ENERGY      -475.467820832054

DIPOLE MOMENT
-------------
                                X             Y             Z
Electronic contribution:      5.45845       0.36792      -0.10614
Nuclear contribution   :     -6.93513      -0.98452       0.41452
                        -----------------------------------------
Total Dipole Moment    :     -1.47668      -0.61660       0.30837
                        -----------------------------------------
Magnitude (a.u.)       :      1.62968
Magnitude (Debye)      :      4.14232

Rotational constants in cm-1:     0.128627     0.026468     0.021959
Rotational constants in MHz :  3856.131661   793.495688   658.307173

                             ****ORCA TERMINATED NORMALLY****
TOTAL RUN TIME: 0 days 0 hours 59 minutes 38 seconds 222 msec
