                         Program Version 5.0.4 -  RELEASE  -
|  1> !ri-mp2 aug-cc-pvqz aug-cc-pvqz/c tightscf
|  2> %pal nprocs 16 end
|  3>
|  4> * xyz 0 1
|  5> N      0.636602   -1.058123    0.492208
|  6> C     -0.121601    0.212497    0.582235
|  7> C     -1.541645    0.060070    0.027611
|  8> O     -2.347827    0.951873    0.041962
|  9> O     -1.796324   -1.151121   -0.486153
| 10> C      0.698716    1.255847   -0.214727
| 11> C      2.124667    0.698806   -0.171428
| 12> C      1.890352   -0.811433   -0.258644
| 13> H     -0.226886    0.531260    1.620367
| 14> H      0.341413    1.305448   -1.244399
| 15> H      0.600663    2.251274    0.210253
| 16> H      2.751505    1.078563   -0.977576
| 17> H      2.605897    0.951778    0.776149
| 18> H      1.755051   -1.114676   -1.299508
| 19> H      2.701458   -1.409225    0.154057
| 20> H      0.836365   -1.421455    1.412453
| 21> H     -0.971410   -1.666847   -0.334004
| 22> *
| 23>
| 24>                          ****END OF INPUT****

CARTESIAN COORDINATES (ANGSTROEM)
---------------------------------
  N      0.636602   -1.058123    0.492208
  C     -0.121601    0.212497    0.582235
  C     -1.541645    0.060070    0.027611
  O     -2.347827    0.951873    0.041962
  O     -1.796324   -1.151121   -0.486153
  C      0.698716    1.255847   -0.214727
  C      2.124667    0.698806   -0.171428
  C      1.890352   -0.811433   -0.258644
  H     -0.226886    0.531260    1.620367
  H      0.341413    1.305448   -1.244399
  H      0.600663    2.251274    0.210253
  H      2.751505    1.078563   -0.977576
  H      2.605897    0.951778    0.776149
  H      1.755051   -1.114676   -1.299508
  H      2.701458   -1.409225    0.154057
  H      0.836365   -1.421455    1.412453
  H     -0.971410   -1.666847   -0.334004

 Total Charge           Charge          ....    0
 Multiplicity           Mult            ....    1
 Number of Electrons    NEL             ....   62
 Basis Dimension        Dim             .... 1054

ORBITAL ENERGIES
----------------

  NO   OCC          E(Eh)            E(eV)
   0   2.0000     -20.589947      -560.2809
   1   2.0000     -20.528252      -558.6021
   2   2.0000     -15.577257      -423.8787
   3   2.0000     -11.368793      -309.3606
   4   2.0000     -11.286034      -307.1086
   5   2.0000     -11.272690      -306.7455
   6   2.0000     -11.244241      -305.9713
   7   2.0000     -11.241188      -305.8883
   8   2.0000      -1.445955       -39.3464
   9   2.0000      -1.350456       -36.7478
  10   2.0000      -1.249852       -34.0102
  11   2.0000      -1.058291       -28.7976
  12   2.0000      -1.021652       -27.8006
  13   2.0000      -0.870525       -23.6882
  14   2.0000      -0.826416       -22.4879
  15   2.0000      -0.794801       -21.6276
  16   2.0000      -0.729860       -19.8605
  17   2.0000      -0.725317       -19.7369
  18   2.0000      -0.653898       -17.7935
  19   2.0000      -0.643500       -17.5105
  20   2.0000      -0.621691       -16.9171
  21   2.0000      -0.600004       -16.3269
  22   2.0000      -0.574873       -15.6431
  23   2.0000      -0.568159       -15.4604
  24   2.0000      -0.529893       -14.4191
  25   2.0000      -0.516492       -14.0545
  26   2.0000      -0.504459       -13.7270
  27   2.0000      -0.498534       -13.5658
  28   2.0000      -0.461396       -12.5552
  29   2.0000      -0.444359       -12.0916
  30   2.0000      -0.404456       -11.0058
  31   0.0000       0.015857         0.4315
  32   0.0000       0.026151         0.7116
  33   0.0000       0.028579         0.7777
  34   0.0000       0.034759         0.9458
  35   0.0000       0.046198         1.2571

MULLIKEN ATOMIC CHARGES
-----------------------
   0 N :   -0.521653
   1 C :   -0.151173
   2 C :    1.288495
   3 O :   -0.830638
   4 O :   -0.921251
   5 C :   -0.574644
   6 C :   -0.515140
   7 C :   -0.487529
   8 H :    0.374227
   9 H :    0.243898
  10 H :    0.332252
  11 H :    0.346085
  12 H :    0.209940
  13 H :    0.218600
  14 H :    0.376144
  15 H :    0.231535
  16 H :    0.380850
Sum of atomic charges:   -0.0000000

LOEWDIN ATOMIC CHARGES
----------------------
   0 N :    0.920669
   1 C :   -0.047427
   2 C :   -1.020675
   3 O :    0.670120
   4 O :    1.254840
   5 C :    0.532899
   6 C :    0.544823
   7 C :    0.416542
   8 H :   -0.280051
   9 H :   -0.266723
  10 H :   -0.249822
  11 H :   -0.255839
  12 H :   -0.262063
  13 H :   -0.270053
  14 H :   -0.265330
  15 H :   -0.473209
  16 H :   -0.948702

  Mayer bond orders larger than 0.100000
B(  0-N ,  1-C ) :   0.8559 B(  0-N ,  7-C ) :   0.9852 B(  0-N , 15-H ) :   0.9800
B(  0-N , 16-H ) :   0.1345 B(  1-C ,  2-C ) :   1.0774 B(  1-C ,  3-O ) :   0.2491
B(  1-C ,  4-O ) :   0.1013 B(  1-C ,  5-C ) :   0.9377 B(  1-C ,  8-H ) :   0.8118
B(  2-C ,  3-O ) :   1.2986 B(  2-C ,  4-O ) :   0.7004 B(  3-O ,  4-O ) :   0.1262
B(  4-O , 16-H ) :   0.7354 B(  5-C ,  6-C ) :   0.9673 B(  5-C ,  9-H ) :   0.9296
B(  5-C , 10-H ) :   0.8352 B(  6-C ,  7-C ) :   1.0193 B(  6-C , 11-H ) :   0.8237
B(  6-C , 12-H ) :   0.9529 B(  7-C , 13-H ) :   0.9658 B(  7-C , 14-H ) :   0.8271

MP2 TOTAL ENERGY:     -400.569604389 Eh
FINAL SINGLE POINT ENERGY      -400.569604388691

DIPOLE MOMENT
-------------
                                X             Y             Z
Electronic contribution:     -8.12358      -0.97364       0.23019
Nuclear contribution   :     10.44990       0.50241       0.31724
                        -----------------------------------------
Total Dipole Moment    :      2.32632      -0.47123       0.54743
                        -----------------------------------------
Magnitude (a.u.)       :      2.43588
Magnitude (Debye)      :      6.19152

Rotational constants in cm-1:     0.135287     0.051694     0.041581
Rotational constants in MHz :  4055.791452  1549.743368  1246.565096

                             ****ORCA TERMINATED NORMALLY****
TOTAL RUN TIME: 0 days 0 hours 47 minutes 47 seconds 361 msec
