                         Program Version 5.0.4 -  RELEASE  -
|  1> !ri-mp2 aug-cc-pvqz aug-cc-pvqz/c tightscf
|  2> %pal nprocs 16 end
|  3>
|  4> * xyz 0 1
|  5> C     -0.834927    0.310226   -1.120699
|  6> C     -0.863686   -1.052974   -0.441012
|  7> C      0.863686    1.052974    0.441012
|  8> C      0.834927   -0.310226    1.120699
|  9> N     -0.450116    1.325039   -0.140555
| 10> N      0.450116   -1.325039    0.140555
| 11> H     -0.136260    0.260567   -1.970344
| 12> H     -1.825522    0.552488   -1.508068
| 13> H     -1.664933   -1.048703    0.314250
| 14> H     -1.091286   -1.828069   -1.174163
| 15> H      1.091286    1.828069    1.174163
| 16> H      1.664933    1.048703   -0.314250
| 17> H      1.825522   -0.552488    1.508068
| 18> H      0.136260   -0.260567    1.970344
| 19> H     -0.474735    2.247690   -0.552801
| 20> H      0.474735   -2.247690    0.552801
| 21> *
| 22>
| 23>                          ****END OF INPUT****

CARTESIAN COORDINATES (ANGSTROEM)
---------------------------------
  C     -0.834927    0.310226   -1.120699
  C     -0.863686   -1.052974   -0.441012
  C      0.863686    1.052974    0.441012
  C      0.834927   -0.310226    1.120699
  N     -0.450116    1.325039   -0.140555
  N      0.450116   -1.325039    0.140555
  H     -0.136260    0.260567   -1.970344
  H     -1.825522    0.552488   -1.508068
  H     -1.664933   -1.048703    0.314250
  H     -1.091286   -1.828069   -1.174163
  H      1.091286    1.828069    1.174163
  H      1.664933    1.048703   -0.314250
  H      1.825522   -0.552488    1.508068
  H      0.136260   -0.260567    1.970344
  H     -0.474735    2.247690   -0.552801
  H      0.474735   -2.247690    0.552801

 Total Charge           Charge          ....    0
 Multiplicity           Mult            ....    1
 Number of Electrons    NEL             ....   48
 Basis Dimension        Dim             ....  940

ORBITAL ENERGIES
----------------

  NO   OCC          E(Eh)            E(eV)
   0   2.0000     -15.535488      -422.7421
   1   2.0000     -15.535485      -422.7420
   2   2.0000     -11.240635      -305.8732
   3   2.0000     -11.240616      -305.8727
   4   2.0000     -11.239995      -305.8558
   5   2.0000     -11.239985      -305.8555
   6   2.0000      -1.232257       -33.5314
   7   2.0000      -1.165299       -31.7094
   8   2.0000      -1.019748       -27.7488
   9   2.0000      -0.908127       -24.7114
  10   2.0000      -0.851945       -23.1826
  11   2.0000      -0.758736       -20.6463
  12   2.0000      -0.701656       -19.0930
  13   2.0000      -0.639641       -17.4055
  14   2.0000      -0.617965       -16.8157
  15   2.0000      -0.598313       -16.2809
  16   2.0000      -0.574487       -15.6326
  17   2.0000      -0.569881       -15.5073
  18   2.0000      -0.534573       -14.5465
  19   2.0000      -0.488890       -13.3034
  20   2.0000      -0.470457       -12.8018
  21   2.0000      -0.460651       -12.5350
  22   2.0000      -0.372043       -10.1238
  23   2.0000      -0.360477        -9.8091
  24   0.0000       0.026707         0.7267
  25   0.0000       0.031580         0.8593
  26   0.0000       0.032354         0.8804
  27   0.0000       0.036540         0.9943
  28   0.0000       0.047644         1.2965

MULLIKEN ATOMIC CHARGES
-----------------------
   0 C :   -0.393060
   1 C :   -0.392974
   2 C :   -0.392974
   3 C :   -0.393060
   4 N :   -0.498980
   5 N :   -0.498980
   6 H :    0.223336
   7 H :    0.355285
   8 H :    0.223414
   9 H :    0.355218
  10 H :    0.355217
  11 H :    0.223414
  12 H :    0.355285
  13 H :    0.223336
  14 H :    0.127761
  15 H :    0.127761
Sum of atomic charges:    0.0000000

LOEWDIN ATOMIC CHARGES
----------------------
   0 C :    0.350048
   1 C :    0.349907
   2 C :    0.349907
   3 C :    0.350048
   4 N :    0.903123
   5 N :    0.903123
   6 H :   -0.267847
   7 H :   -0.281994
   8 H :   -0.267795
   9 H :   -0.282061
  10 H :   -0.282061
  11 H :   -0.267795
  12 H :   -0.281994
  13 H :   -0.267847
  14 H :   -0.503380
  15 H :   -0.503380

  Mayer bond orders larger than 0.100000
B(  0-C ,  1-C ) :   1.0948 B(  0-C ,  4-N ) :   0.8747 B(  0-C ,  6-H ) :   0.9415
B(  0-C ,  7-H ) :   0.8503 B(  1-C ,  5-N ) :   0.8745 B(  1-C ,  8-H ) :   0.9414
B(  1-C ,  9-H ) :   0.8504 B(  2-C ,  3-C ) :   1.0948 B(  2-C ,  4-N ) :   0.8745
B(  2-C , 10-H ) :   0.8504 B(  2-C , 11-H ) :   0.9414 B(  3-C ,  5-N ) :   0.8747
B(  3-C , 12-H ) :   0.8503 B(  3-C , 13-H ) :   0.9415 B(  4-N , 14-H ) :   1.0061
B(  5-N , 15-H ) :   1.0061

MP2 TOTAL ENERGY:     -267.474235880 Eh
FINAL SINGLE POINT ENERGY      -267.474235879797

DIPOLE MOMENT
-------------
                                X             Y             Z
Electronic contribution:     -0.00000      -0.00000       0.00000
Nuclear contribution   :      0.00000       0.00000      -0.00000
                        -----------------------------------------
Total Dipole Moment    :     -0.00000      -0.00000       0.00000
                        -----------------------------------------
Magnitude (a.u.)       :      0.00000
Magnitude (Debye)      :      0.00000

Rotational constants in cm-1:     0.158508     0.152888     0.087202
Rotational constants in MHz :  4751.947453  4583.470386  2614.241366

                             ****ORCA TERMINATED NORMALLY****
TOTAL RUN TIME: 0 days 0 hours 34 minutes 33 seconds 979 msec
