                         Program Version 5.0.4 -  RELEASE  -
|  1> !ri-mp2 aug-cc-pvqz aug-cc-pvqz/c tightscf
|  2> %pal nprocs 16 end
|  3>
|  4> * xyz 0 1
|  5> C     -0.428305   -0.603318    0.292946
|  6> C     -1.730980    0.145991    0.048752
|  7> C      0.804689    0.186857   -0.143412
|  8> N     -2.798137   -0.632363   -0.294446
|  9> O     -1.831047    1.353253    0.169304
| 10> C      2.116704   -0.509009    0.218058
| 11> C      3.349645    0.278591   -0.221813
| 12> H     -0.378232   -0.797219    1.369502
| 13> H     -0.452804   -1.579947   -0.197097
| 14> H      0.763288    0.351634   -1.223970
| 15> H      0.764447    1.175441    0.315734
| 16> H     -3.696408   -0.193737   -0.404160
| 17> H     -2.730511   -1.629614   -0.375823
| 18> H      2.153180   -0.667921    1.300253
| 19> H      2.140943   -1.504976   -0.235220
| 20> H      4.270724   -0.237101    0.052854
| 21> H      3.359798    0.422536   -1.304049
| 22> H      3.370399    1.266751    0.241480
| 23> *
| 24>
| 25>                          ****END OF INPUT****

CARTESIAN COORDINATES (ANGSTROEM)
---------------------------------
  C     -0.428305   -0.603318    0.292946
  C     -1.730980    0.145991    0.048752
  C      0.804689    0.186857   -0.143412
  N     -2.798137   -0.632363   -0.294446
  O     -1.831047    1.353253    0.169304
  C      2.116704   -0.509009    0.218058
  C      3.349645    0.278591   -0.221813
  H     -0.378232   -0.797219    1.369502
  H     -0.452804   -1.579947   -0.197097
  H      0.763288    0.351634   -1.223970
  H      0.764447    1.175441    0.315734
  H     -3.696408   -0.193737   -0.404160
  H     -2.730511   -1.629614   -0.375823
  H      2.153180   -0.667921    1.300253
  H      2.140943   -1.504976   -0.235220
  H      4.270724   -0.237101    0.052854
  H      3.359798    0.422536   -1.304049
  H      3.370399    1.266751    0.241480

 Total Charge           Charge          ....    0
 Multiplicity           Mult            ....    1
 Number of Electrons    NEL             ....   56
 Basis Dimension        Dim             .... 1066

ORBITAL ENERGIES
----------------

  NO   OCC          E(Eh)            E(eV)
   0   2.0000     -20.512498      -558.1734
   1   2.0000     -15.582272      -424.0152
   2   2.0000     -11.348177      -308.7996
   3   2.0000     -11.238246      -305.8082
   4   2.0000     -11.220797      -305.3334
   5   2.0000     -11.219682      -305.3031
   6   2.0000     -11.211144      -305.0707
   7   2.0000      -1.377762       -37.4908
   8   2.0000      -1.209327       -32.9075
   9   2.0000      -1.083188       -29.4750
  10   2.0000      -1.006381       -27.3850
  11   2.0000      -0.896388       -24.3920
  12   2.0000      -0.807408       -21.9707
  13   2.0000      -0.781195       -21.2574
  14   2.0000      -0.721565       -19.6348
  15   2.0000      -0.670008       -18.2319
  16   2.0000      -0.646061       -17.5802
  17   2.0000      -0.603404       -16.4195
  18   2.0000      -0.593848       -16.1594
  19   2.0000      -0.580973       -15.8091
  20   2.0000      -0.550820       -14.9886
  21   2.0000      -0.529259       -14.4019
  22   2.0000      -0.500211       -13.6114
  23   2.0000      -0.477898       -13.0043
  24   2.0000      -0.475197       -12.9308
  25   2.0000      -0.468632       -12.7521
  26   2.0000      -0.418924       -11.3995
  27   2.0000      -0.413788       -11.2597
  28   0.0000       0.018959         0.5159
  29   0.0000       0.027655         0.7525
  30   0.0000       0.034781         0.9464
  31   0.0000       0.035642         0.9699
  32   0.0000       0.043881         1.1941

MULLIKEN ATOMIC CHARGES
-----------------------
   0 C :   -0.365300
   1 C :    0.872285
   2 C :   -0.174470
   3 N :   -0.765928
   4 O :   -0.850354
   5 C :   -0.443066
   6 C :   -0.893035
   7 H :    0.296209
   8 H :    0.179859
   9 H :    0.229669
  10 H :    0.213261
  11 H :    0.207271
  12 H :    0.319417
  13 H :    0.221347
  14 H :    0.234071
  15 H :    0.261390
  16 H :    0.225632
  17 H :    0.231744
Sum of atomic charges:   -0.0000000

LOEWDIN ATOMIC CHARGES
----------------------
   0 C :    0.475289
   1 C :   -0.820638
   2 C :    0.491238
   3 N :    1.243098
   4 O :    0.699990
   5 C :    0.507537
   6 C :    0.928907
   7 H :   -0.274487
   8 H :   -0.296436
   9 H :   -0.263693
  10 H :   -0.289952
  11 H :   -0.499355
  12 H :   -0.501936
  13 H :   -0.274069
  14 H :   -0.273300
  15 H :   -0.284127
  16 H :   -0.284422
  17 H :   -0.283646

  Mayer bond orders larger than 0.100000
B(  0-C ,  1-C ) :   1.1476 B(  0-C ,  2-C ) :   0.9416 B(  0-C ,  3-N ) :  -0.1245
B(  0-C ,  4-O ) :   0.1785 B(  0-C ,  7-H ) :   0.7953 B(  0-C ,  8-H ) :   0.9741
B(  1-C ,  2-C ) :  -0.1702 B(  1-C ,  3-N ) :   1.1351 B(  1-C ,  4-O ) :   1.1970
B(  2-C ,  5-C ) :   0.9309 B(  2-C ,  9-H ) :   0.8921 B(  2-C , 10-H ) :   0.8793
B(  3-N ,  4-O ) :   0.1356 B(  3-N , 11-H ) :   1.0508 B(  3-N , 12-H ) :   0.8737
B(  5-C ,  6-C ) :   0.9997 B(  5-C , 13-H ) :   0.8870 B(  5-C , 14-H ) :   0.8772
B(  6-C , 15-H ) :   1.0159 B(  6-C , 16-H ) :   0.9541 B(  6-C , 17-H ) :   0.9535

MP2 TOTAL ENERGY:     -326.622854306 Eh
FINAL SINGLE POINT ENERGY      -326.622854305571

DIPOLE MOMENT
-------------
                                X             Y             Z
Electronic contribution:     -9.94086       1.96349       0.32015
Nuclear contribution   :      9.89816      -3.51083      -0.47783
                        -----------------------------------------
Total Dipole Moment    :     -0.04270      -1.54734      -0.15769
                        -----------------------------------------
Magnitude (a.u.)       :      1.55594
Magnitude (Debye)      :      3.95490

Rotational constants in cm-1:     0.250632     0.034980     0.032038
Rotational constants in MHz :  7513.758794  1048.684376   960.487371

                             ****ORCA TERMINATED NORMALLY****
TOTAL RUN TIME: 0 days 0 hours 37 minutes 37 seconds 567 msec
