                         Program Version 5.0.4 -  RELEASE  -
|  1> !ri-mp2 aug-cc-pvqz aug-cc-pvqz/c tightscf
|  2> %pal nprocs 16 end
|  3>
|  4> * xyz 0 1
|  5> C      1.288205    0.152169    0.000000
|  6> C      0.000000    0.471192    0.000000
|  7> C     -1.134493   -0.504884    0.000000
|  8> H      2.059749    0.910251    0.000000
|  9> H      1.617497   -0.880355    0.000000
| 10> H     -0.276862    1.521647    0.000000
| 11> H     -1.772629   -0.363826    0.876178
| 12> H     -0.777400   -1.534749    0.000000
| 13> H     -1.772629   -0.363826   -0.876178
| 14> *
| 15>
| 16>                          ****END OF INPUT****

CARTESIAN COORDINATES (ANGSTROEM)
---------------------------------
  C      1.288205    0.152169    0.000000
  C      0.000000    0.471192    0.000000
  C     -1.134493   -0.504884    0.000000
  H      2.059749    0.910251    0.000000
  H      1.617497   -0.880355    0.000000
  H     -0.276862    1.521647    0.000000
  H     -1.772629   -0.363826    0.876178
  H     -0.777400   -1.534749    0.000000
  H     -1.772629   -0.363826   -0.876178

 Total Charge           Charge          ....    0
 Multiplicity           Mult            ....    1
 Number of Electrons    NEL             ....   24
 Basis Dimension        Dim             ....  516

ORBITAL ENERGIES
----------------

  NO   OCC          E(Eh)            E(eV)
   0   2.0000     -11.232298      -305.6464
   1   2.0000     -11.220451      -305.3240
   2   2.0000     -11.215629      -305.1928
   3   2.0000      -1.065307       -28.9885
   4   2.0000      -0.933819       -25.4105
   5   2.0000      -0.757570       -20.6145
   6   2.0000      -0.639772       -17.4091
   7   2.0000      -0.584517       -15.9055
   8   2.0000      -0.567308       -15.4372
   9   2.0000      -0.524433       -14.2705
  10   2.0000      -0.490487       -13.3468
  11   2.0000      -0.360345        -9.8055
  12   0.0000       0.028204         0.7675
  13   0.0000       0.034602         0.9416
  14   0.0000       0.036715         0.9991
  15   0.0000       0.043311         1.1785
  16   0.0000       0.051660         1.4058

MULLIKEN ATOMIC CHARGES
-----------------------
   0 C :   -0.924898
   1 C :   -0.384069
   2 C :   -0.630300
   3 H :    0.363382
   4 H :    0.393908
   5 H :    0.470640
   6 H :    0.225688
   7 H :    0.259962
   8 H :    0.225688
Sum of atomic charges:   -0.0000000

LOEWDIN ATOMIC CHARGES
----------------------
   0 C :    0.776283
   1 C :    0.339104
   2 C :    0.869147
   3 H :   -0.365611
   4 H :   -0.362452
   5 H :   -0.338185
   6 H :   -0.299390
   7 H :   -0.319505
   8 H :   -0.299390

  Mayer bond orders larger than 0.100000
B(  0-C ,  1-C ) :   1.8736 B(  0-C ,  3-H ) :   0.9447 B(  0-C ,  4-H ) :   0.8296
B(  1-C ,  2-C ) :   0.8277 B(  1-C ,  5-H ) :   0.7396 B(  2-C ,  6-H ) :   0.9669
B(  2-C ,  7-H ) :   0.9377 B(  2-C ,  8-H ) :   0.9669

MP2 TOTAL ENERGY:     -117.668375840 Eh
FINAL SINGLE POINT ENERGY      -117.668375839813

DIPOLE MOMENT
-------------
                                X             Y             Z
Electronic contribution:      0.82539       0.74154      -0.00000
Nuclear contribution   :     -0.98786      -0.76141       0.00000
                        -----------------------------------------
Total Dipole Moment    :     -0.16247      -0.01988      -0.00000
                        -----------------------------------------
Magnitude (a.u.)       :      0.16368
Magnitude (Debye)      :      0.41605

Rotational constants in cm-1:     1.576218     0.310497     0.272372
Rotational constants in MHz : 47253.827815  9308.479906  8165.498749

                             ****ORCA TERMINATED NORMALLY****
TOTAL RUN TIME: 0 days 0 hours 5 minutes 17 seconds 793 msec
