                         Program Version 5.0.4 -  RELEASE  -
|  1> !ri-mp2 aug-cc-pvqz aug-cc-pvqz/c tightscf
|  2> %pal nprocs 16 end
|  3>
|  4> * xyz 0 1
|  5> C      1.610317   -1.209436        0.000000
|  6> C      1.329993    0.147978        0.000000
|  7> C      0.543915   -2.101297        0.000000
|  8> C     -0.997140   -0.422562        0.000000
|  9> C      0.000000    0.559527        0.000000
| 10> C     -0.339161    1.998058        0.000000
| 11> N     -0.739333   -1.725611        0.000000
| 12> O     -1.461675    2.444254        0.000000
| 13> H      2.627285   -1.575291        0.000000
| 14> H      2.126453    0.882601        0.000000
| 15> H      0.725761   -3.169850        0.000000
| 16> H     -2.037530   -0.121485        0.000000
| 17> H      0.539218    2.675668        0.000000
| 18> *
| 19>
| 20>                          ****END OF INPUT****

CARTESIAN COORDINATES (ANGSTROEM)
---------------------------------
  C      1.610317   -1.209436    0.000000
  C      1.329993    0.147978    0.000000
  C      0.543915   -2.101297    0.000000
  C     -0.997140   -0.422562    0.000000
  C      0.000000    0.559527    0.000000
  C     -0.339161    1.998058    0.000000
  N     -0.739333   -1.725611    0.000000
  O     -1.461675    2.444254    0.000000
  H      2.627285   -1.575291    0.000000
  H      2.126453    0.882601    0.000000
  H      0.725761   -3.169850    0.000000
  H     -2.037530   -0.121485    0.000000
  H      0.539218    2.675668    0.000000

 Total Charge           Charge          ....    0
 Multiplicity           Mult            ....    1
 Number of Electrons    NEL             ....   56
 Basis Dimension        Dim             ....  870

ORBITAL ENERGIES
----------------

  NO   OCC          E(Eh)            E(eV)
   0   2.0000     -20.561598      -559.5095
   1   2.0000     -15.579787      -423.9475
   2   2.0000     -11.344119      -308.6892
   3   2.0000     -11.297036      -307.4080
   4   2.0000     -11.295113      -307.3556
   5   2.0000     -11.283827      -307.0485
   6   2.0000     -11.259792      -306.3945
   7   2.0000     -11.257569      -306.3340
   8   2.0000      -1.401372       -38.1333
   9   2.0000      -1.279575       -34.8190
  10   2.0000      -1.120770       -30.4977
  11   2.0000      -1.062934       -28.9239
  12   2.0000      -0.919126       -25.0107
  13   2.0000      -0.883164       -24.0321
  14   2.0000      -0.817394       -22.2424
  15   2.0000      -0.736812       -20.0497
  16   2.0000      -0.701887       -19.0993
  17   2.0000      -0.674037       -18.3415
  18   2.0000      -0.642249       -17.4765
  19   2.0000      -0.628173       -17.0935
  20   2.0000      -0.597895       -16.2696
  21   2.0000      -0.578086       -15.7305
  22   2.0000      -0.550225       -14.9724
  23   2.0000      -0.532994       -14.5035
  24   2.0000      -0.453675       -12.3451
  25   2.0000      -0.423265       -11.5176
  26   2.0000      -0.405343       -11.0300
  27   2.0000      -0.365106        -9.9350
  28   0.0000       0.017606         0.4791
  29   0.0000       0.026452         0.7198
  30   0.0000       0.034422         0.9367
  31   0.0000       0.043084         1.1724
  32   0.0000       0.048854         1.3294

MULLIKEN ATOMIC CHARGES
-----------------------
   0 C :   -0.338763
   1 C :   -0.231570
   2 C :   -0.381698
   3 C :   -0.005891
   4 C :   -0.055523
   5 C :    0.469455
   6 N :   -0.657642
   7 O :   -0.751393
   8 H :    0.322378
   9 H :    0.324639
  10 H :    0.513154
  11 H :    0.487617
  12 H :    0.305237
Sum of atomic charges:    0.0000000

LOEWDIN ATOMIC CHARGES
----------------------
   0 C :    0.349706
   1 C :    0.311747
   2 C :    0.087289
   3 C :    0.063532
   4 C :   -0.145009
   5 C :   -0.281637
   6 N :    0.609724
   7 O :    0.704148
   8 H :   -0.326136
   9 H :   -0.310986
  10 H :   -0.345689
  11 H :   -0.351322
  12 H :   -0.365367

  Mayer bond orders larger than 0.100000
B(  0-C ,  1-C ) :   1.2314 B(  0-C ,  2-C ) :   1.2509 B(  0-C ,  4-C ) :  -0.2314
B(  0-C ,  8-H ) :   1.0063 B(  1-C ,  4-C ) :   0.9167 B(  1-C ,  5-C ) :  -0.1389
B(  1-C ,  8-H ) :  -0.1100 B(  1-C ,  9-H ) :   0.9403 B(  2-C ,  6-N ) :   1.3471
B(  2-C , 10-H ) :   0.8005 B(  3-C ,  4-C ) :   1.1265 B(  3-C ,  5-C ) :  -0.1398
B(  3-C ,  6-N ) :   1.2973 B(  3-C , 11-H ) :   0.7757 B(  4-C ,  5-C ) :   0.9044
B(  4-C ,  7-O ) :   0.1713 B(  4-C , 11-H ) :  -0.1009 B(  4-C , 12-H ) :  -0.2088
B(  5-C ,  7-O ) :   1.3392 B(  5-C , 12-H ) :   1.0143 B(  6-N , 11-H ) :  -0.1200

MP2 TOTAL ENERGY:     -361.025039624 Eh
FINAL SINGLE POINT ENERGY      -361.025039624463

DIPOLE MOMENT
-------------
                                X             Y             Z
Electronic contribution:     -2.16098       0.91024       0.00000
Nuclear contribution   :      3.88220      -1.25677       0.00000
                        -----------------------------------------
Total Dipole Moment    :      1.72122      -0.34653       0.00000
                        -----------------------------------------
Magnitude (a.u.)       :      1.75575
Magnitude (Debye)      :      4.46277

Rotational constants in cm-1:     0.180010     0.053265     0.041103
Rotational constants in MHz :  5396.571316  1596.847660  1232.230231

                             ****ORCA TERMINATED NORMALLY****
TOTAL RUN TIME: 0 days 0 hours 26 minutes 24 seconds 377 msec
