                         Program Version 5.0.4 -  RELEASE  -
|  1> !ri-mp2 aug-cc-pvqz aug-cc-pvqz/c tightscf
|  2> %pal nprocs 16 end
|  3>
|  4> * xyz 0 1
|  5> C      0.000000    0.705485   -0.012772
|  6> C      0.000000    1.324526   -1.289733
|  7> C      0.000000   -0.705485   -0.012772
|  8> N      0.000000    0.681794   -2.426927
|  9> C      0.000000   -1.324526   -1.289733
| 10> N      0.000000   -0.681794   -2.426927
| 11> C      0.000000    1.404939    1.211306
| 12> C      0.000000    0.705423    2.392790
| 13> C      0.000000   -0.705423    2.392790
| 14> C      0.000000   -1.404939    1.211306
| 15> H      0.000000   -2.407381   -1.364362
| 16> H      0.000000    2.407381   -1.364362
| 17> H      0.000000   -1.235415    3.335672
| 18> H      0.000000    1.235415    3.335672
| 19> H      0.000000   -2.487234    1.207629
| 20> H      0.000000    2.487234    1.207629
| 21> *
| 22>
| 23>                          ****END OF INPUT****

CARTESIAN COORDINATES (ANGSTROEM)
---------------------------------
  C      0.000000    0.705485   -0.012772
  C      0.000000    1.324526   -1.289733
  C      0.000000   -0.705485   -0.012772
  N      0.000000    0.681794   -2.426927
  C      0.000000   -1.324526   -1.289733
  N      0.000000   -0.681794   -2.426927
  C      0.000000    1.404939    1.211306
  C      0.000000    0.705423    2.392790
  C      0.000000   -0.705423    2.392790
  C      0.000000   -1.404939    1.211306
  H      0.000000   -2.407381   -1.364362
  H      0.000000    2.407381   -1.364362
  H      0.000000   -1.235415    3.335672
  H      0.000000    1.235415    3.335672
  H      0.000000   -2.487234    1.207629
  H      0.000000    2.487234    1.207629

 Total Charge           Charge          ....    0
 Multiplicity           Mult            ....    1
 Number of Electrons    NEL             ....   68
 Basis Dimension        Dim             .... 1076

ORBITAL ENERGIES
----------------

  NO   OCC          E(Eh)            E(eV)
   0   2.0000     -15.598720      -424.4628
   1   2.0000     -15.598023      -424.4438
   2   2.0000     -11.282987      -307.0257
   3   2.0000     -11.282965      -307.0251
   4   2.0000     -11.269611      -306.6617
   5   2.0000     -11.268484      -306.6310
   6   2.0000     -11.263997      -306.5089
   7   2.0000     -11.263478      -306.4948
   8   2.0000     -11.262547      -306.4695
   9   2.0000     -11.261961      -306.4535
  10   2.0000      -1.333403       -36.2837
  11   2.0000      -1.186301       -32.2809
  12   2.0000      -1.127667       -30.6854
  13   2.0000      -1.071434       -29.1552
  14   2.0000      -1.046259       -28.4702
  15   2.0000      -0.905019       -24.6268
  16   2.0000      -0.892928       -24.2978
  17   2.0000      -0.849582       -23.1183
  18   2.0000      -0.741488       -20.1769
  19   2.0000      -0.737012       -20.0551
  20   2.0000      -0.705493       -19.1974
  21   2.0000      -0.651860       -17.7380
  22   2.0000      -0.642875       -17.4935
  23   2.0000      -0.613781       -16.7018
  24   2.0000      -0.612170       -16.6580
  25   2.0000      -0.585585       -15.9346
  26   2.0000      -0.553837       -15.0707
  27   2.0000      -0.527226       -14.3466
  28   2.0000      -0.506856       -13.7923
  29   2.0000      -0.461696       -12.5634
  30   2.0000      -0.422029       -11.4840
  31   2.0000      -0.406935       -11.0733
  32   2.0000      -0.365689        -9.9509
  33   2.0000      -0.333612        -9.0780
  34   0.0000       0.018161         0.4942
  35   0.0000       0.023248         0.6326
  36   0.0000       0.030536         0.8309
  37   0.0000       0.038291         1.0419
  38   0.0000       0.046314         1.2603

MULLIKEN ATOMIC CHARGES
-----------------------
   0 C :    0.487094
   1 C :   -0.034736
   2 C :    0.487153
   3 N :   -0.525430
   4 C :   -0.034845
   5 N :   -0.525424
   6 C :   -0.458879
   7 C :   -0.410683
   8 C :   -0.410730
   9 C :   -0.458919
  10 H :    0.392119
  11 H :    0.392140
  12 H :    0.258300
  13 H :    0.258325
  14 H :    0.292289
  15 H :    0.292227
Sum of atomic charges:   -0.0000000

LOEWDIN ATOMIC CHARGES
----------------------
   0 C :   -0.140144
   1 C :    0.056938
   2 C :   -0.140144
   3 N :    0.346832
   4 C :    0.056938
   5 N :    0.346832
   6 C :    0.364576
   7 C :    0.362555
   8 C :    0.362555
   9 C :    0.364576
  10 H :   -0.358252
  11 H :   -0.358252
  12 H :   -0.318619
  13 H :   -0.318619
  14 H :   -0.313886
  15 H :   -0.313886

  Mayer bond orders larger than 0.100000
B(  0-C ,  1-C ) :   0.9343 B(  0-C ,  2-C ) :   1.0388 B(  0-C ,  4-C ) :  -0.3620
B(  0-C ,  6-C ) :   0.6286 B(  0-C ,  7-C ) :  -0.2964 B(  0-C ,  9-C ) :  -0.1584
B(  0-C , 11-H ) :  -0.1781 B(  0-C , 15-H ) :  -0.1565 B(  1-C ,  2-C ) :  -0.3620
B(  1-C ,  3-N ) :   1.2429 B(  1-C ,  6-C ) :  -0.1758 B(  1-C , 11-H ) :   0.9705
B(  2-C ,  4-C ) :   0.9341 B(  2-C ,  6-C ) :  -0.1585 B(  2-C ,  8-C ) :  -0.2965
B(  2-C ,  9-C ) :   0.6286 B(  2-C , 10-H ) :  -0.1781 B(  2-C , 14-H ) :  -0.1565
B(  3-N ,  5-N ) :   0.6469 B(  3-N , 11-H ) :  -0.1219 B(  4-C ,  5-N ) :   1.2429
B(  4-C ,  9-C ) :  -0.1757 B(  4-C , 10-H ) :   0.9706 B(  5-N , 10-H ) :  -0.1219
B(  6-C ,  7-C ) :   1.3499 B(  6-C ,  9-C ) :   0.1277 B(  6-C , 13-H ) :  -0.1720
B(  6-C , 15-H ) :   0.9749 B(  7-C ,  8-C ) :   1.1638 B(  7-C , 13-H ) :   1.1346
B(  8-C ,  9-C ) :   1.3498 B(  8-C , 12-H ) :   1.1346 B(  9-C , 12-H ) :  -0.1720
B(  9-C , 14-H ) :   0.9748

MP2 TOTAL ENERGY:     -417.218233715 Eh
FINAL SINGLE POINT ENERGY      -417.218233714830

DIPOLE MOMENT
-------------
                                X             Y             Z
Electronic contribution:     -0.00000       0.00000      -4.08408
Nuclear contribution   :      0.00000      -0.00000       6.21068
                        -----------------------------------------
Total Dipole Moment    :     -0.00000       0.00000       2.12659
                        -----------------------------------------
Magnitude (a.u.)       :      2.12659
Magnitude (Debye)      :      5.40537

Rotational constants in cm-1:     0.109662     0.041463     0.030087
Rotational constants in MHz :  3287.586032  1243.039360   901.994423

                             ****ORCA TERMINATED NORMALLY****
TOTAL RUN TIME: 0 days 1 hours 4 minutes 21 seconds 477 msec
