                         Program Version 5.0.4 -  RELEASE  -
|  1> !ri-mp2 aug-cc-pvqz aug-cc-pvqz/c tightscf
|  2> %pal nprocs 16 end
|  3>
|  4> * xyz 0 1
|  5> C      1.317704    0.115038        0.000000
|  6> C     -1.022687   -0.385775        0.000000
|  7> C      1.558392   -1.254677        0.000000
|  8> C     -0.677231   -1.728443        0.000000
|  9> C      0.000000    0.561086        0.000000
| 10> C     -0.292864    2.016587        0.000000
| 11> N      0.586424   -2.165062        0.000000
| 12> O     -1.402646    2.490215        0.000000
| 13> H      2.141104    0.817975        0.000000
| 14> H     -2.055648   -0.068068        0.000000
| 15> H      2.573168   -1.634741        0.000000
| 16> H     -1.445137   -2.492744        0.000000
| 17> H      0.602825    2.668397        0.000000
| 18> *
| 19>
| 20>                          ****END OF INPUT****

CARTESIAN COORDINATES (ANGSTROEM)
---------------------------------
  C      1.317704    0.115038    0.000000
  C     -1.022687   -0.385775    0.000000
  C      1.558392   -1.254677    0.000000
  C     -0.677231   -1.728443    0.000000
  C      0.000000    0.561086    0.000000
  C     -0.292864    2.016587    0.000000
  N      0.586424   -2.165062    0.000000
  O     -1.402646    2.490215    0.000000
  H      2.141104    0.817975    0.000000
  H     -2.055648   -0.068068    0.000000
  H      2.573168   -1.634741    0.000000
  H     -1.445137   -2.492744    0.000000
  H      0.602825    2.668397    0.000000

 Total Charge           Charge          ....    0
 Multiplicity           Mult            ....    1
 Number of Electrons    NEL             ....   56
 Basis Dimension        Dim             ....  870

ORBITAL ENERGIES
----------------

  NO   OCC          E(Eh)            E(eV)
   0   2.0000     -20.572915      -559.8175
   1   2.0000     -15.584276      -424.0697
   2   2.0000     -11.350179      -308.8541
   3   2.0000     -11.290082      -307.2188
   4   2.0000     -11.287346      -307.1443
   5   2.0000     -11.276682      -306.8541
   6   2.0000     -11.265519      -306.5503
   7   2.0000     -11.258568      -306.3612
   8   2.0000      -1.411057       -38.3968
   9   2.0000      -1.277848       -34.7720
  10   2.0000      -1.122712       -30.5506
  11   2.0000      -1.053812       -28.6757
  12   2.0000      -0.931160       -25.3381
  13   2.0000      -0.879315       -23.9274
  14   2.0000      -0.815578       -22.1930
  15   2.0000      -0.733949       -19.9718
  16   2.0000      -0.697873       -18.9901
  17   2.0000      -0.671518       -18.2729
  18   2.0000      -0.647661       -17.6237
  19   2.0000      -0.626727       -17.0541
  20   2.0000      -0.615704       -16.7542
  21   2.0000      -0.578378       -15.7385
  22   2.0000      -0.538290       -14.6476
  23   2.0000      -0.536353       -14.5949
  24   2.0000      -0.454157       -12.3582
  25   2.0000      -0.432946       -11.7811
  26   2.0000      -0.399827       -10.8799
  27   2.0000      -0.364839        -9.9278
  28   0.0000       0.020790         0.5657
  29   0.0000       0.028741         0.7821
  30   0.0000       0.031619         0.8604
  31   0.0000       0.039987         1.0881
  32   0.0000       0.044812         1.2194

MULLIKEN ATOMIC CHARGES
-----------------------
   0 C :   -0.356724
   1 C :   -0.160727
   2 C :   -0.176803
   3 C :   -0.236936
   4 C :    0.044915
   5 C :    0.387956
   6 N :   -0.621158
   7 O :   -0.736559
   8 H :    0.268436
   9 H :    0.301219
  10 H :    0.491066
  11 H :    0.479013
  12 H :    0.316301
Sum of atomic charges:    0.0000000

LOEWDIN ATOMIC CHARGES
----------------------
   0 C :    0.314074
   1 C :    0.316250
   2 C :    0.090249
   3 C :    0.095160
   4 C :   -0.151157
   5 C :   -0.262672
   6 N :    0.599821
   7 O :    0.714354
   8 H :   -0.325324
   9 H :   -0.328874
  10 H :   -0.349607
  11 H :   -0.349315
  12 H :   -0.362958

  Mayer bond orders larger than 0.100000
B(  0-C ,  2-C ) :   1.2663 B(  0-C ,  4-C ) :   1.0367 B(  0-C ,  5-C ) :  -0.1488
B(  0-C ,  8-H ) :   1.0008 B(  0-C , 10-H ) :  -0.1216 B(  1-C ,  3-C ) :   1.2377
B(  1-C ,  4-C ) :   1.1154 B(  1-C ,  5-C ) :  -0.1750 B(  1-C ,  9-H ) :   0.9202
B(  1-C , 11-H ) :  -0.1213 B(  2-C ,  4-C ) :  -0.3070 B(  2-C ,  6-N ) :   1.2126
B(  2-C , 10-H ) :   0.8704 B(  3-C ,  4-C ) :  -0.2405 B(  3-C ,  6-N ) :   1.1211
B(  3-C , 11-H ) :   0.8905 B(  4-C ,  5-C ) :   0.9376 B(  4-C ,  7-O ) :   0.2289
B(  4-C , 12-H ) :  -0.2223 B(  5-C ,  7-O ) :   1.3575 B(  5-C , 12-H ) :   1.0008
B(  6-N , 10-H ) :  -0.1222 B(  6-N , 11-H ) :  -0.1238

MP2 TOTAL ENERGY:     -361.025662035 Eh
FINAL SINGLE POINT ENERGY      -361.025662035204

DIPOLE MOMENT
-------------
                                X             Y             Z
Electronic contribution:     -0.94429       0.68983       0.00000
Nuclear contribution   :      1.76509      -0.67027       0.00000
                        -----------------------------------------
Total Dipole Moment    :      0.82080       0.01956       0.00000
                        -----------------------------------------
Magnitude (a.u.)       :      0.82103
Magnitude (Debye)      :      2.08689

Rotational constants in cm-1:     0.185488     0.052098     0.040674
Rotational constants in MHz :  5560.782827  1561.858890  1219.373154

                             ****ORCA TERMINATED NORMALLY****
TOTAL RUN TIME: 0 days 0 hours 29 minutes 31 seconds 789 msec
