                         Program Version 5.0.4 -  RELEASE  -
|  1> !ri-mp2 aug-cc-pvqz aug-cc-pvqz/c tightscf
|  2> %pal nprocs 16 end
|  3>
|  4> * xyz 0 1
|  5> C      1.264505    0.437243        0.000000
|  6> C     -1.134314    0.204052        0.000000
|  7> C      1.405404   -0.941236        0.000000
|  8> C     -1.007552   -1.169144        0.000000
|  9> C      0.000000    1.026568        0.000000
| 10> C      0.266706   -1.745847        0.000000
| 11> C     -0.123034    2.491555        0.000000
| 12> O     -1.167015    3.105905        0.000000
| 13> O      0.332247   -3.103791        0.000000
| 14> H      2.146215    1.066352        0.000000
| 15> H     -2.110754    0.668386        0.000000
| 16> H      2.389487   -1.394063        0.000000
| 17> H     -1.872992   -1.816544        0.000000
| 18> H      0.845206    3.032775        0.000000
| 19> H      1.250697   -3.392963        0.000000
| 20> *
| 21>
| 22>                          ****END OF INPUT****

CARTESIAN COORDINATES (ANGSTROEM)
---------------------------------
  C      1.264505    0.437243    0.000000
  C     -1.134314    0.204052    0.000000
  C      1.405404   -0.941236    0.000000
  C     -1.007552   -1.169144    0.000000
  C      0.000000    1.026568    0.000000
  C      0.266706   -1.745847    0.000000
  C     -0.123034    2.491555    0.000000
  O     -1.167015    3.105905    0.000000
  O      0.332247   -3.103791    0.000000
  H      2.146215    1.066352    0.000000
  H     -2.110754    0.668386    0.000000
  H      2.389487   -1.394063    0.000000
  H     -1.872992   -1.816544    0.000000
  H      0.845206    3.032775    0.000000
  H      1.250697   -3.392963    0.000000

 Total Charge           Charge          ....    0
 Multiplicity           Mult            ....    1
 Number of Electrons    NEL             ....   64
 Basis Dimension        Dim             ....  996

ORBITAL ENERGIES
----------------

  NO   OCC          E(Eh)            E(eV)
   0   2.0000     -20.610293      -560.8346
   1   2.0000     -20.546517      -559.0992
   2   2.0000     -11.330177      -308.3098
   3   2.0000     -11.330027      -308.3057
   4   2.0000     -11.268393      -306.6286
   5   2.0000     -11.259330      -306.3819
   6   2.0000     -11.250207      -306.1337
   7   2.0000     -11.243998      -305.9647
   8   2.0000     -11.243538      -305.9522
   9   2.0000      -1.429199       -38.8905
  10   2.0000      -1.385377       -37.6980
  11   2.0000      -1.173870       -31.9426
  12   2.0000      -1.047131       -28.4939
  13   2.0000      -1.041386       -28.3376
  14   2.0000      -0.897531       -24.4231
  15   2.0000      -0.862257       -23.4632
  16   2.0000      -0.803941       -21.8764
  17   2.0000      -0.757282       -20.6067
  18   2.0000      -0.695580       -18.9277
  19   2.0000      -0.690231       -18.7821
  20   2.0000      -0.641278       -17.4501
  21   2.0000      -0.625777       -17.0282
  22   2.0000      -0.613534       -16.6951
  23   2.0000      -0.612943       -16.6790
  24   2.0000      -0.588569       -16.0158
  25   2.0000      -0.562626       -15.3098
  26   2.0000      -0.549582       -14.9549
  27   2.0000      -0.511957       -13.9311
  28   2.0000      -0.488583       -13.2950
  29   2.0000      -0.425534       -11.5794
  30   2.0000      -0.364476        -9.9179
  31   2.0000      -0.335427        -9.1274
  32   0.0000       0.016243         0.4420
  33   0.0000       0.027259         0.7418
  34   0.0000       0.031756         0.8641
  35   0.0000       0.041993         1.1427
  36   0.0000       0.046644         1.2692

MULLIKEN ATOMIC CHARGES
-----------------------
   0 C :   -0.135018
   1 C :   -0.120134
   2 C :   -0.539503
   3 C :   -0.594925
   4 C :   -0.167590
   5 C :    0.988687
   6 C :    0.433936
   7 O :   -0.791378
   8 O :   -0.804737
   9 H :    0.263025
  10 H :    0.280902
  11 H :    0.209200
  12 H :    0.325503
  13 H :    0.281178
  14 H :    0.370854
Sum of atomic charges:   -0.0000000

LOEWDIN ATOMIC CHARGES
----------------------
   0 C :    0.314753
   1 C :    0.320263
   2 C :    0.349804
   3 C :    0.346683
   4 C :   -0.141120
   5 C :   -0.426761
   6 C :   -0.288114
   7 O :    0.696909
   8 O :    1.283716
   9 H :   -0.319237
  10 H :   -0.322646
  11 H :   -0.324783
  12 H :   -0.325170
  13 H :   -0.368911
  14 H :   -0.795386

  Mayer bond orders larger than 0.100000
B(  0-C ,  2-C ) :   1.2159 B(  0-C ,  4-C ) :   0.9404 B(  0-C ,  6-C ) :  -0.3020
B(  0-C ,  9-H ) :   1.0048 B(  0-C , 11-H ) :  -0.1341 B(  1-C ,  3-C ) :   1.2791
B(  1-C ,  4-C ) :   1.0412 B(  1-C ,  5-C ) :  -0.1017 B(  1-C ,  6-C ) :  -0.1599
B(  1-C , 10-H ) :   0.9578 B(  1-C , 12-H ) :  -0.1274 B(  2-C ,  4-C ) :  -0.2479
B(  2-C ,  5-C ) :   1.2512 B(  2-C ,  8-O ) :   0.2228 B(  2-C ,  9-H ) :  -0.1204
B(  2-C , 11-H ) :   1.0806 B(  3-C ,  4-C ) :  -0.1695 B(  3-C ,  5-C ) :   1.3415
B(  3-C ,  8-O ) :   0.3207 B(  3-C , 10-H ) :  -0.1029 B(  3-C , 12-H ) :   0.9493
B(  4-C ,  6-C ) :   1.0433 B(  4-C ,  7-O ) :   0.2674 B(  4-C , 13-H ) :  -0.2552
B(  5-C , 11-H ) :  -0.1086 B(  5-C , 14-H ) :  -0.1072 B(  6-C ,  7-O ) :   1.2859
B(  6-C , 13-H ) :   1.0670 B(  8-O , 14-H ) :   0.8873

MP2 TOTAL ENERGY:     -420.146572364 Eh
FINAL SINGLE POINT ENERGY      -420.146572364076

DIPOLE MOMENT
-------------
                                X             Y             Z
Electronic contribution:     -1.12314       0.64085       0.00000
Nuclear contribution   :      2.59314      -1.80706       0.00000
                        -----------------------------------------
Total Dipole Moment    :      1.47000      -1.16621       0.00000
                        -----------------------------------------
Magnitude (a.u.)       :      1.87642
Magnitude (Debye)      :      4.76948

Rotational constants in cm-1:     0.171126     0.033237     0.027831
Rotational constants in MHz :  5130.218801   996.407384   834.356094

                             ****ORCA TERMINATED NORMALLY****
TOTAL RUN TIME: 0 days 0 hours 58 minutes 47 seconds 334 msec
