                         Program Version 5.0.4 -  RELEASE  -
|  1> !ri-mp2 aug-cc-pvqz aug-cc-pvqz/c tightscf
|  2> %pal nprocs 16 end
|  3>
|  4> * xyz 0 1
|  5> C     -1.003940   -0.403757    0.000000
|  6> C     -3.525526   -0.680888    0.000000
|  7> C      3.764809    0.667909    0.000000
|  8> C     -2.349682    0.286562    0.000000
|  9> C      2.310162    1.136229    0.000000
| 10> C      1.344509   -0.032085    0.000000
| 11> O     -0.826705   -1.596688    0.000000
| 12> O      0.000000    0.497494    0.000000
| 13> H     -3.504242   -1.325262    0.877722
| 14> H     -4.466982   -0.131692    0.000000
| 15> H     -3.504242   -1.325262   -0.877722
| 16> H      3.988516    0.063792   -0.881154
| 17> H      4.446920    1.517824    0.000000
| 18> H      3.988516    0.063792    0.881154
| 19> H     -2.378363    0.948115    0.869070
| 20> H     -2.378363    0.948115   -0.869070
| 21> H      2.115703    1.758242   -0.876284
| 22> H      2.115703    1.758242    0.876284
| 23> H      1.474239   -0.663085   -0.880525
| 24> H      1.474239   -0.663085    0.880525
| 25> *
| 26>
| 27>                          ****END OF INPUT****

CARTESIAN COORDINATES (ANGSTROEM)
---------------------------------
  C     -1.003940   -0.403757    0.000000
  C     -3.525526   -0.680888    0.000000
  C      3.764809    0.667909    0.000000
  C     -2.349682    0.286562    0.000000
  C      2.310162    1.136229    0.000000
  C      1.344509   -0.032085    0.000000
  O     -0.826705   -1.596688    0.000000
  O      0.000000    0.497494    0.000000
  H     -3.504242   -1.325262    0.877722
  H     -4.466982   -0.131692    0.000000
  H     -3.504242   -1.325262   -0.877722
  H      3.988516    0.063792   -0.881154
  H      4.446920    1.517824    0.000000
  H      3.988516    0.063792    0.881154
  H     -2.378363    0.948115    0.869070
  H     -2.378363    0.948115   -0.869070
  H      2.115703    1.758242   -0.876284
  H      2.115703    1.758242    0.876284
  H      1.474239   -0.663085   -0.880525
  H      1.474239   -0.663085    0.880525

 Total Charge           Charge          ....    0
 Multiplicity           Mult            ....    1
 Number of Electrons    NEL             ....   64
 Basis Dimension        Dim             .... 1192

ORBITAL ENERGIES
----------------

  NO   OCC          E(Eh)            E(eV)
   0   2.0000     -20.593179      -560.3689
   1   2.0000     -20.537235      -558.8466
   2   2.0000     -11.372133      -309.4515
   3   2.0000     -11.283086      -307.0284
   4   2.0000     -11.240944      -305.8816
   5   2.0000     -11.227269      -305.5095
   6   2.0000     -11.220654      -305.3295
   7   2.0000     -11.217172      -305.2348
   8   2.0000      -1.452583       -39.5268
   9   2.0000      -1.353388       -36.8276
  10   2.0000      -1.077452       -29.3190
  11   2.0000      -1.050728       -28.5918
  12   2.0000      -0.951591       -25.8941
  13   2.0000      -0.881747       -23.9935
  14   2.0000      -0.816965       -22.2308
  15   2.0000      -0.767075       -20.8732
  16   2.0000      -0.692648       -18.8479
  17   2.0000      -0.686587       -18.6830
  18   2.0000      -0.665112       -18.0986
  19   2.0000      -0.635199       -17.2846
  20   2.0000      -0.599452       -16.3119
  21   2.0000      -0.594592       -16.1797
  22   2.0000      -0.555275       -15.1098
  23   2.0000      -0.536705       -14.6045
  24   2.0000      -0.528895       -14.3920
  25   2.0000      -0.519343       -14.1320
  26   2.0000      -0.510479       -13.8908
  27   2.0000      -0.497237       -13.5305
  28   2.0000      -0.488976       -13.3057
  29   2.0000      -0.485018       -13.1980
  30   2.0000      -0.455873       -12.4049
  31   2.0000      -0.441264       -12.0074
  32   0.0000       0.024480         0.6661
  33   0.0000       0.026110         0.7105
  34   0.0000       0.033739         0.9181
  35   0.0000       0.035195         0.9577
  36   0.0000       0.041270         1.1230

MULLIKEN ATOMIC CHARGES
-----------------------
   0 C :    0.983626
   1 C :   -0.836145
   2 C :   -0.872078
   3 C :   -0.357668
   4 C :   -0.475656
   5 C :    0.066246
   6 O :   -0.813921
   7 O :   -0.767586
   8 H :    0.232917
   9 H :    0.309883
  10 H :    0.232918
  11 H :    0.230833
  12 H :    0.269974
  13 H :    0.230832
  14 H :    0.286583
  15 H :    0.286580
  16 H :    0.240362
  17 H :    0.240342
  18 H :    0.255971
  19 H :    0.255986
Sum of atomic charges:    0.0000000

LOEWDIN ATOMIC CHARGES
----------------------
   0 C :   -1.053171
   1 C :    0.897255
   2 C :    0.922948
   3 C :    0.446451
   4 C :    0.492058
   5 C :    0.157142
   6 O :    0.729006
   7 O :    0.870763
   8 H :   -0.290682
   9 H :   -0.285828
  10 H :   -0.290682
  11 H :   -0.283607
  12 H :   -0.284098
  13 H :   -0.283607
  14 H :   -0.292556
  15 H :   -0.292556
  16 H :   -0.279272
  17 H :   -0.279272
  18 H :   -0.300146
  19 H :   -0.300146

  Mayer bond orders larger than 0.100000
B(  0-C ,  1-C ) :  -0.1179 B(  0-C ,  3-C ) :   0.8824 B(  0-C ,  6-O ) :   1.2199
B(  0-C ,  7-O ) :   1.1074 B(  1-C ,  3-C ) :   1.0364 B(  1-C ,  8-H ) :   0.9543
B(  1-C ,  9-H ) :   0.9596 B(  1-C , 10-H ) :   0.9543 B(  2-C ,  4-C ) :   1.0352
B(  2-C , 11-H ) :   0.9444 B(  2-C , 12-H ) :   1.0014 B(  2-C , 13-H ) :   0.9444
B(  3-C , 14-H ) :   0.8683 B(  3-C , 15-H ) :   0.8683 B(  4-C ,  5-C ) :   0.9626
B(  4-C , 12-H ) :  -0.1030 B(  4-C , 16-H ) :   0.8762 B(  4-C , 17-H ) :   0.8763
B(  5-C ,  6-O ) :   0.1726 B(  5-C ,  7-O ) :   0.7669 B(  5-C , 18-H ) :   0.8779
B(  5-C , 19-H ) :   0.8779

MP2 TOTAL ENERGY:     -385.718795499 Eh
FINAL SINGLE POINT ENERGY      -385.718795498983

DIPOLE MOMENT
-------------
                                X             Y             Z
Electronic contribution:     -3.31828      -2.20128      -0.00000
Nuclear contribution   :      3.47533       3.03431       0.00000
                        -----------------------------------------
Total Dipole Moment    :      0.15705       0.83303      -0.00000
                        -----------------------------------------
Magnitude (a.u.)       :      0.84771
Magnitude (Debye)      :      2.15470

Rotational constants in cm-1:     0.247795     0.025830     0.023906
Rotational constants in MHz :  7428.718624   774.360411   716.680170

                             ****ORCA TERMINATED NORMALLY****
TOTAL RUN TIME: 0 days 1 hours 11 minutes 28 seconds 951 msec
