                         Program Version 5.0.4 -  RELEASE  -
|  1> !ri-mp2 aug-cc-pvqz aug-cc-pvqz/c tightscf
|  2> %pal nprocs 16 end
|  3>
|  4> * xyz 0 1
|  5> N      0.000000    0.000000    1.892411
|  6> C      0.000000    0.000000    0.737350
|  7> C      0.000000    0.000000   -0.631058
|  8> C      0.000000    0.000000   -1.831727
|  9> H      0.000000    0.000000   -2.894266
| 10> *
| 11>
| 12>                          ****END OF INPUT****

CARTESIAN COORDINATES (ANGSTROEM)
---------------------------------
  N      0.000000    0.000000    1.892411
  C      0.000000    0.000000    0.737350
  C      0.000000    0.000000   -0.631058
  C      0.000000    0.000000   -1.831727
  H      0.000000    0.000000   -2.894266

 Total Charge           Charge          ....    0
 Multiplicity           Mult            ....    1
 Number of Electrons    NEL             ....   26
 Basis Dimension        Dim             ....  366

ORBITAL ENERGIES
----------------

  NO   OCC          E(Eh)            E(eV)
   0   2.0000     -15.604623      -424.6234
   1   2.0000     -11.310276      -307.7683
   2   2.0000     -11.300976      -307.5152
   3   2.0000     -11.296424      -307.3913
   4   2.0000      -1.249071       -33.9889
   5   2.0000      -1.097933       -29.8763
   6   2.0000      -0.909788       -24.7566
   7   2.0000      -0.757703       -20.6181
   8   2.0000      -0.590298       -16.0628
   9   2.0000      -0.549519       -14.9532
  10   2.0000      -0.549519       -14.9532
  11   2.0000      -0.429281       -11.6813
  12   2.0000      -0.429281       -11.6813
  13   0.0000       0.017538         0.4772
  14   0.0000       0.051043         1.3890
  15   0.0000       0.052660         1.4329
  16   0.0000       0.052660         1.4329
  17   0.0000       0.070503         1.9185

MULLIKEN ATOMIC CHARGES
-----------------------
   0 N :   -0.681049
   1 C :    0.711765
   2 C :   -0.341568
   3 C :   -0.227323
   4 H :    0.538175
Sum of atomic charges:   -0.0000000

LOEWDIN ATOMIC CHARGES
----------------------
   0 N :    0.381360
   1 C :   -0.435394
   2 C :   -0.063564
   3 C :    0.550461
   4 H :   -0.432862

  Mayer bond orders larger than 0.100000
B(  0-N ,  1-C ) :   2.4232 B(  0-N ,  2-C ) :   0.1040 B(  1-C ,  2-C ) :   1.2866
B(  1-C ,  3-C ) :  -0.1735 B(  2-C ,  3-C ) :   2.5017 B(  2-C ,  4-H ) :  -0.1328
B(  3-C ,  4-H ) :   0.8430

MP2 TOTAL ENERGY:     -169.295635975 Eh
FINAL SINGLE POINT ENERGY      -169.295635975342

DIPOLE MOMENT
-------------
                                X             Y             Z
Electronic contribution:     -0.00000       0.00000       1.11734
Nuclear contribution   :      0.00000       0.00000      -2.75788
                        -----------------------------------------
Total Dipole Moment    :     -0.00000       0.00000      -1.64054
                        -----------------------------------------
Magnitude (a.u.)       :      1.64054
Magnitude (Debye)      :      4.16993

Rotational constants in cm-1:     0.000000     0.153170     0.153170
Rotational constants in MHz :     0.000000  4591.934458  4591.934458

                             ****ORCA TERMINATED NORMALLY****
TOTAL RUN TIME: 0 days 0 hours 1 minutes 26 seconds 14 msec
