                         Program Version 5.0.4 -  RELEASE  -
|  1> !ri-mp2 aug-cc-pvqz aug-cc-pvqz/c tightscf
|  2> %pal nprocs 16 end
|  3>
|  4> * xyz 0 1
|  5> Cl    -1.342896   -0.692618   -0.000002
|  6> O     -0.259567    1.696079    0.000019
|  7> C     -0.024306    0.532850   -0.000069
|  8> C      1.265435   -0.081591   -0.000088
|  9> C      2.355970   -0.580206    0.000092
| 10> H      3.323175   -1.020441    0.000275
| 11> *
| 12>
| 13>                          ****END OF INPUT****

CARTESIAN COORDINATES (ANGSTROEM)
---------------------------------
  Cl    -1.342896   -0.692618   -0.000002
  O     -0.259567    1.696079    0.000019
  C     -0.024306    0.532850   -0.000069
  C      1.265435   -0.081591   -0.000088
  C      2.355970   -0.580206    0.000092
  H      3.323175   -1.020441    0.000275

 Total Charge           Charge          ....    0
 Multiplicity           Mult            ....    1
 Number of Electrons    NEL             ....   44
 Basis Dimension        Dim             ....  450

ORBITAL ENERGIES
----------------

  NO   OCC          E(Eh)            E(eV)
   0   2.0000    -104.862249     -2853.4469
   1   2.0000     -20.608749      -560.7926
   2   2.0000     -11.440402      -311.3092
   3   2.0000     -11.292321      -307.2797
   4   2.0000     -11.281487      -306.9849
   5   2.0000     -10.587626      -288.1040
   6   2.0000      -8.054480      -219.1736
   7   2.0000      -8.052799      -219.1278
   8   2.0000      -8.052709      -219.1254
   9   2.0000      -1.463232       -39.8166
  10   2.0000      -1.150969       -31.3194
  11   2.0000      -1.083960       -29.4961
  12   2.0000      -0.918977       -25.0066
  13   2.0000      -0.762346       -20.7445
  14   2.0000      -0.723533       -19.6883
  15   2.0000      -0.681082       -18.5332
  16   2.0000      -0.622643       -16.9430
  17   2.0000      -0.499447       -13.5906
  18   2.0000      -0.481869       -13.1123
  19   2.0000      -0.478744       -13.0273
  20   2.0000      -0.448667       -12.2089
  21   2.0000      -0.441357       -12.0099
  22   0.0000       0.019921         0.5421
  23   0.0000       0.043280         1.1777
  24   0.0000       0.050540         1.3752
  25   0.0000       0.057117         1.5542
  26   0.0000       0.069374         1.8877

MULLIKEN ATOMIC CHARGES
-----------------------
   0 Cl:   -0.112636
   1 O :   -0.556919
   2 C :    0.774157
   3 C :   -0.163657
   4 C :   -0.528216
   5 H :    0.587270
Sum of atomic charges:    0.0000000

LOEWDIN ATOMIC CHARGES
----------------------
   0 Cl:    1.022004
   1 O :    0.558736
   2 C :   -1.528554
   3 C :   -0.163294
   4 C :    0.546622
   5 H :   -0.435513

  Mayer bond orders larger than 0.100000
B(  0-Cl,  2-C ) :   1.0822 B(  0-Cl,  3-C ) :  -0.1368 B(  1-O ,  2-C ) :   1.6228
B(  2-C ,  3-C ) :   0.8837 B(  3-C ,  4-C ) :   2.8495 B(  4-C ,  5-H ) :   0.6922

MP2 TOTAL ENERGY:     -649.514463490 Eh
FINAL SINGLE POINT ENERGY      -649.514463489838

DIPOLE MOMENT
-------------
                                X             Y             Z
Electronic contribution:     -3.86532      -0.80443      -0.00021
Nuclear contribution   :      4.89342      -0.00262       0.00026
                        -----------------------------------------
Total Dipole Moment    :      1.02811      -0.80705       0.00005
                        -----------------------------------------
Magnitude (a.u.)       :      1.30703
Magnitude (Debye)      :      3.32220

Rotational constants in cm-1:     0.236199     0.104065     0.072238
Rotational constants in MHz :  7081.078228  3119.793234  2165.648306

                             ****ORCA TERMINATED NORMALLY****
TOTAL RUN TIME: 0 days 0 hours 5 minutes 46 seconds 235 msec
