                         Program Version 5.0.4 -  RELEASE  -
|  1> !ri-mp2 aug-cc-pvqz aug-cc-pvqz/c tightscf
|  2> %pal nprocs 16 end
|  3>
|  4> * xyz 0 1
|  5> C      0.000000    1.096648        0.000000
|  6> C      1.231022    0.361916        0.000000
|  7> C     -1.183818    0.424873        0.000000
|  8> O      1.286331   -0.874778        0.000000
|  9> O     -1.283038   -0.888616        0.000000
| 10> H     -0.346283   -1.239665        0.000000
| 11> H      0.009428    2.175177        0.000000
| 12> H      2.168876    0.938076        0.000000
| 13> H     -2.141591    0.932940        0.000000
| 14> *
| 15>
| 16>                          ****END OF INPUT****

CARTESIAN COORDINATES (ANGSTROEM)
---------------------------------
  C      0.000000    1.096648    0.000000
  C      1.231022    0.361916    0.000000
  C     -1.183818    0.424873    0.000000
  O      1.286331   -0.874778    0.000000
  O     -1.283038   -0.888616    0.000000
  H     -0.346283   -1.239665    0.000000
  H      0.009428    2.175177    0.000000
  H      2.168876    0.938076    0.000000
  H     -2.141591    0.932940    0.000000

 Total Charge           Charge          ....    0
 Multiplicity           Mult            ....    1
 Number of Electrons    NEL             ....   38
 Basis Dimension        Dim             ....  584

ORBITAL ENERGIES
----------------

  NO   OCC          E(Eh)            E(eV)
   0   2.0000     -20.603287      -560.6439
   1   2.0000     -20.556648      -559.3748
   2   2.0000     -11.346924      -308.7655
   3   2.0000     -11.344020      -308.6865
   4   2.0000     -11.230644      -305.6014
   5   2.0000      -1.439215       -39.1630
   6   2.0000      -1.385714       -37.7072
   7   2.0000      -1.069189       -29.0941
   8   2.0000      -0.904566       -24.6145
   9   2.0000      -0.826965       -22.5029
  10   2.0000      -0.721346       -19.6288
  11   2.0000      -0.675951       -18.3936
  12   2.0000      -0.648135       -17.6366
  13   2.0000      -0.619786       -16.8652
  14   2.0000      -0.606444       -16.5022
  15   2.0000      -0.561679       -15.2841
  16   2.0000      -0.540031       -14.6950
  17   2.0000      -0.437650       -11.9091
  18   2.0000      -0.367085        -9.9889
  19   0.0000       0.021991         0.5984
  20   0.0000       0.029686         0.8078
  21   0.0000       0.040105         1.0913
  22   0.0000       0.051269         1.3951
  23   0.0000       0.061068         1.6618

MULLIKEN ATOMIC CHARGES
-----------------------
   0 C :   -0.738680
   1 C :    0.302404
   2 C :    0.230649
   3 O :   -0.731235
   4 O :   -0.731446
   5 H :    0.383750
   6 H :    0.353263
   7 H :    0.435635
   8 H :    0.495660
Sum of atomic charges:   -0.0000000

LOEWDIN ATOMIC CHARGES
----------------------
   0 C :    0.316355
   1 C :   -0.216240
   2 C :    0.001439
   3 O :    0.827293
   4 O :    1.270400
   5 H :   -1.134056
   6 H :   -0.380642
   7 H :   -0.352149
   8 H :   -0.332399

  Mayer bond orders larger than 0.100000
B(  0-C ,  1-C ) :   1.0228 B(  0-C ,  2-C ) :   1.4648 B(  0-C ,  3-O ) :   0.1234
B(  0-C ,  4-O ) :   0.1314 B(  0-C ,  6-H ) :   0.9338 B(  1-C ,  2-C ) :  -0.1001
B(  1-C ,  3-O ) :   1.4553 B(  1-C ,  7-H ) :   0.8546 B(  2-C ,  4-O ) :   0.9159
B(  2-C ,  8-H ) :   0.8019 B(  3-O ,  5-H ) :   0.1277 B(  4-O ,  5-H ) :   0.7442

MP2 TOTAL ENERGY:     -266.778982585 Eh
FINAL SINGLE POINT ENERGY      -266.778982584804

DIPOLE MOMENT
-------------
                                X             Y             Z
Electronic contribution:      0.06712      -1.54263      -0.00000
Nuclear contribution   :     -0.30653       2.75188       0.00000
                        -----------------------------------------
Total Dipole Moment    :     -0.23940       1.20925      -0.00000
                        -----------------------------------------
Magnitude (a.u.)       :      1.23272
Magnitude (Debye)      :      3.13333

Rotational constants in cm-1:     0.330286     0.173203     0.113620
Rotational constants in MHz :  9901.725413  5192.503665  3406.251835

                             ****ORCA TERMINATED NORMALLY****
TOTAL RUN TIME: 0 days 0 hours 9 minutes 23 seconds 464 msec
