                         Program Version 5.0.4 -  RELEASE  -
|  1> !ri-mp2 aug-cc-pvqz aug-cc-pvqz/c tightscf
|  2> %pal nprocs 16 end
|  3>
|  4> * xyz 0 1
|  5> C     0.000000     2.488837    0.088743
|  6> C     0.000000    -2.488837    0.088743
|  7> C     0.000000     1.264960   -0.705030
|  8> C     0.000000    -1.264960   -0.705030
|  9> C     0.000000     0.000000    0.168023
| 10> N     0.000000     3.444883    0.727024
| 11> N     0.000000    -3.444883    0.727024
| 12> H    -0.877475     1.279493   -1.355740
| 13> H     0.877475     1.279493   -1.355740
| 14> H     0.877475    -1.279493   -1.355740
| 15> H    -0.877475    -1.279493   -1.355740
| 16> H    -0.875721     0.000000    0.815966
| 17> H     0.875721     0.000000    0.815966
| 18> *
| 19>
| 20>                          ****END OF INPUT****

CARTESIAN COORDINATES (ANGSTROEM)
---------------------------------
  C      0.000000    2.488837    0.088743
  C      0.000000   -2.488837    0.088743
  C      0.000000    1.264960   -0.705030
  C      0.000000   -1.264960   -0.705030
  C      0.000000    0.000000    0.168023
  N      0.000000    3.444883    0.727024
  N      0.000000   -3.444883    0.727024
  H     -0.877475    1.279493   -1.355740
  H      0.877475    1.279493   -1.355740
  H      0.877475   -1.279493   -1.355740
  H     -0.877475   -1.279493   -1.355740
  H     -0.875721    0.000000    0.815966
  H      0.875721    0.000000    0.815966

 Total Charge           Charge          ....    0
 Multiplicity           Mult            ....    1
 Number of Electrons    NEL             ....   50
 Basis Dimension        Dim             ....  836

ORBITAL ENERGIES
----------------

  NO   OCC          E(Eh)            E(eV)
   0   2.0000     -15.580837      -423.9761
   1   2.0000     -15.580837      -423.9761
   2   2.0000     -11.305907      -307.6494
   3   2.0000     -11.305907      -307.6494
   4   2.0000     -11.285604      -307.0969
   5   2.0000     -11.285264      -307.0877
   6   2.0000     -11.285263      -307.0876
   7   2.0000      -1.237421       -33.6719
   8   2.0000      -1.235068       -33.6079
   9   2.0000      -1.139472       -31.0066
  10   2.0000      -1.045653       -28.4537
  11   2.0000      -0.901914       -24.5423
  12   2.0000      -0.750496       -20.4220
  13   2.0000      -0.709814       -19.3150
  14   2.0000      -0.688205       -18.7270
  15   2.0000      -0.636753       -17.3269
  16   2.0000      -0.618945       -16.8424
  17   2.0000      -0.577728       -15.7208
  18   2.0000      -0.564220       -15.3532
  19   2.0000      -0.561438       -15.2775
  20   2.0000      -0.552199       -15.0261
  21   2.0000      -0.483057       -13.1447
  22   2.0000      -0.476094       -12.9552
  23   2.0000      -0.472942       -12.8694
  24   2.0000      -0.466539       -12.6952
  25   0.0000       0.012898         0.3510
  26   0.0000       0.025463         0.6929
  27   0.0000       0.033766         0.9188
  28   0.0000       0.033877         0.9218
  29   0.0000       0.049471         1.3462

MULLIKEN ATOMIC CHARGES
-----------------------
   0 C :    0.362487
   1 C :    0.362486
   2 C :   -0.439591
   3 C :   -0.439591
   4 C :   -0.149932
   5 N :   -0.675534
   6 N :   -0.675534
   7 H :    0.285701
   8 H :    0.285701
   9 H :    0.285701
  10 H :    0.285701
  11 H :    0.256203
  12 H :    0.256203
Sum of atomic charges:    0.0000000

LOEWDIN ATOMIC CHARGES
----------------------
   0 C :   -0.247804
   1 C :   -0.247804
   2 C :    0.438822
   3 C :    0.438822
   4 C :    0.492474
   5 N :    0.418168
   6 N :    0.418168
   7 H :   -0.294374
   8 H :   -0.294374
   9 H :   -0.294374
  10 H :   -0.294374
  11 H :   -0.266676
  12 H :   -0.266676

  Mayer bond orders larger than 0.100000
B(  0-C ,  2-C ) :   1.2565 B(  0-C ,  4-C ) :  -0.2169 B(  0-C ,  5-N ) :   2.4669
B(  1-C ,  3-C ) :   1.2565 B(  1-C ,  4-C ) :  -0.2169 B(  1-C ,  6-N ) :   2.4669
B(  2-C ,  4-C ) :   0.9505 B(  2-C ,  7-H ) :   0.8616 B(  2-C ,  8-H ) :   0.8616
B(  3-C ,  4-C ) :   0.9505 B(  3-C ,  9-H ) :   0.8616 B(  3-C , 10-H ) :   0.8616
B(  4-C , 11-H ) :   0.8577 B(  4-C , 12-H ) :   0.8577

MP2 TOTAL ENERGY:     -303.112271873 Eh
FINAL SINGLE POINT ENERGY      -303.112271872832

DIPOLE MOMENT
-------------
                                X             Y             Z
Electronic contribution:      0.00000      -0.00000       2.10919
Nuclear contribution   :      0.00000       0.00000      -3.77392
                        -----------------------------------------
Total Dipole Moment    :      0.00000      -0.00000      -1.66473
                        -----------------------------------------
Magnitude (a.u.)       :      1.66473
Magnitude (Debye)      :      4.23141

Rotational constants in cm-1:     0.415934     0.031751     0.029987
Rotational constants in MHz : 12469.394487   951.862507   898.986197

                             ****ORCA TERMINATED NORMALLY****
TOTAL RUN TIME: 0 days 0 hours 17 minutes 31 seconds 770 msec
