                         Program Version 5.0.4 -  RELEASE  -
|  1> !ri-mp2 aug-cc-pvqz aug-cc-pvqz/c tightscf
|  2> %pal nprocs 16 end
|  3>
|  4> * xyz 0 1
|  5> C     -1.391545    0.000201   -0.000002
|  6> C     -2.595600    0.000392   -0.000004
|  7> C      2.836362   -0.000147    0.000002
|  8> C      2.137248    1.202242    0.000001
|  9> C      2.137077   -1.202403    0.000001
| 10> C      0.750328    1.206082   -0.000001
| 11> C      0.750116   -1.206050   -0.000001
| 12> C      0.034638    0.000067   -0.000002
| 13> C     -4.050167   -0.000024    0.000003
| 14> H      3.918041   -0.000216    0.000003
| 15> H      2.674572    2.141336    0.000001
| 16> H      2.674269   -2.141571    0.000002
| 17> H      0.206696    2.140516   -0.000001
| 18> H      0.206275   -2.140361   -0.000001
| 19> H     -4.443661   -0.509666    0.881896
| 20> H     -4.443259    1.018099   -0.000365
| 21> H     -4.443669   -0.510309   -0.881514
| 22> *
| 23>
| 24>                          ****END OF INPUT****

CARTESIAN COORDINATES (ANGSTROEM)
---------------------------------
  C     -1.391545    0.000201   -0.000002
  C     -2.595600    0.000392   -0.000004
  C      2.836362   -0.000147    0.000002
  C      2.137248    1.202242    0.000001
  C      2.137077   -1.202403    0.000001
  C      0.750328    1.206082   -0.000001
  C      0.750116   -1.206050   -0.000001
  C      0.034638    0.000067   -0.000002
  C     -4.050167   -0.000024    0.000003
  H      3.918041   -0.000216    0.000003
  H      2.674572    2.141336    0.000001
  H      2.674269   -2.141571    0.000002
  H      0.206696    2.140516   -0.000001
  H      0.206275   -2.140361   -0.000001
  H     -4.443661   -0.509666    0.881896
  H     -4.443259    1.018099   -0.000365
  H     -4.443669   -0.510309   -0.881514

 Total Charge           Charge          ....    0
 Multiplicity           Mult            ....    1
 Number of Electrons    NEL             ....   62
 Basis Dimension        Dim             .... 1088

ORBITAL ENERGIES
----------------

  NO   OCC          E(Eh)            E(eV)
   0   2.0000     -11.258268      -306.3530
   1   2.0000     -11.246346      -306.0286
   2   2.0000     -11.238521      -305.8157
   3   2.0000     -11.238502      -305.8152
   4   2.0000     -11.237397      -305.7851
   5   2.0000     -11.235750      -305.7403
   6   2.0000     -11.235308      -305.7283
   7   2.0000     -11.227287      -305.5100
   8   2.0000     -11.218845      -305.2803
   9   2.0000      -1.162467       -31.6323
  10   2.0000      -1.070326       -29.1251
  11   2.0000      -1.027521       -27.9603
  12   2.0000      -1.020221       -27.7616
  13   2.0000      -0.949033       -25.8245
  14   2.0000      -0.841691       -22.9036
  15   2.0000      -0.831029       -22.6135
  16   2.0000      -0.730178       -19.8692
  17   2.0000      -0.670927       -18.2568
  18   2.0000      -0.633271       -17.2322
  19   2.0000      -0.630571       -17.1587
  20   2.0000      -0.602014       -16.3816
  21   2.0000      -0.591220       -16.0879
  22   2.0000      -0.589208       -16.0332
  23   2.0000      -0.588124       -16.0037
  24   2.0000      -0.518737       -14.1155
  25   2.0000      -0.513677       -13.9779
  26   2.0000      -0.499997       -13.6056
  27   2.0000      -0.415381       -11.3031
  28   2.0000      -0.376907       -10.2562
  29   2.0000      -0.341891        -9.3033
  30   2.0000      -0.309355        -8.4180
  31   0.0000       0.024056         0.6546
  32   0.0000       0.025587         0.6963
  33   0.0000       0.030435         0.8282
  34   0.0000       0.038654         1.0518
  35   0.0000       0.040948         1.1143

MULLIKEN ATOMIC CHARGES
-----------------------
   0 C :   -0.253741
   1 C :   -0.123306
   2 C :   -0.357872
   3 C :   -0.346476
   4 C :   -0.336721
   5 C :   -0.309993
   6 C :   -0.301906
   7 C :    0.423840
   8 C :   -0.635988
   9 H :    0.358601
  10 H :    0.256029
  11 H :    0.253136
  12 H :    0.351667
  13 H :    0.364546
  14 H :    0.223984
  15 H :    0.210224
  16 H :    0.223976
Sum of atomic charges:   -0.0000000

LOEWDIN ATOMIC CHARGES
----------------------
   0 C :    0.105660
   1 C :    0.172828
   2 C :    0.337290
   3 C :    0.340481
   4 C :    0.340488
   5 C :    0.316509
   6 C :    0.316522
   7 C :   -0.199370
   8 C :    0.836926
   9 H :   -0.323762
  10 H :   -0.323723
  11 H :   -0.323735
  12 H :   -0.320454
  13 H :   -0.320741
  14 H :   -0.318180
  15 H :   -0.318560
  16 H :   -0.318180

  Mayer bond orders larger than 0.100000
B(  0-C ,  1-C ) :   3.1327 B(  0-C ,  5-C ) :  -0.4280 B(  0-C ,  6-C ) :  -0.4235
B(  0-C ,  7-C ) :   0.8381 B(  1-C ,  7-C ) :  -0.2005 B(  1-C ,  8-C ) :   0.7093
B(  1-C , 14-H ) :  -0.1202 B(  1-C , 15-H ) :  -0.1282 B(  1-C , 16-H ) :  -0.1202
B(  2-C ,  3-C ) :   1.2084 B(  2-C ,  4-C ) :   1.2040 B(  2-C ,  7-C ) :   0.1091
B(  2-C ,  9-H ) :   0.9528 B(  3-C ,  4-C ) :  -0.1216 B(  3-C ,  5-C ) :   1.3437
B(  3-C ,  6-C ) :   0.1590 B(  3-C ,  7-C ) :  -0.2340 B(  3-C , 10-H ) :   1.1128
B(  4-C ,  5-C ) :   0.1443 B(  4-C ,  6-C ) :   1.3556 B(  4-C ,  7-C ) :  -0.2384
B(  4-C , 11-H ) :   1.1135 B(  5-C ,  7-C ) :   1.1082 B(  5-C , 10-H ) :  -0.1155
B(  5-C , 12-H ) :   0.9006 B(  6-C ,  7-C ) :   1.0908 B(  6-C , 11-H ) :  -0.1126
B(  6-C , 13-H ) :   0.8824 B(  8-C , 14-H ) :   1.0243 B(  8-C , 15-H ) :   1.0464
B(  8-C , 16-H ) :   1.0243

MP2 TOTAL ENERGY:     -347.068725007 Eh
FINAL SINGLE POINT ENERGY      -347.068725007186

DIPOLE MOMENT
-------------
                                X             Y             Z
Electronic contribution:      3.51637       0.00207      -0.00002
Nuclear contribution   :     -3.65946      -0.00218       0.00002
                        -----------------------------------------
Total Dipole Moment    :     -0.14309      -0.00011       0.00000
                        -----------------------------------------
Magnitude (a.u.)       :      0.14309
Magnitude (Debye)      :      0.36369

Rotational constants in cm-1:     0.184669     0.027535     0.024069
Rotational constants in MHz :  5536.240898   825.474886   721.579014

                             ****ORCA TERMINATED NORMALLY****
TOTAL RUN TIME: 0 days 1 hours 3 minutes 5 seconds 125 msec
