                         Program Version 5.0.4 -  RELEASE  -
|  1> !ri-mp2 aug-cc-pvqz aug-cc-pvqz/c tightscf
|  2> %pal nprocs 16 end
|  3>
|  4> * xyz 0 1
|  5> C      0.098831    1.023382    0.776623
|  6> C      0.098831    1.023382   -0.776623
|  7> C      0.098831   -0.465440    1.163404
|  8> C      0.098831   -0.465440   -1.163404
|  9> N     -0.516767   -1.106166    0.000000
| 10> H      0.959997    1.544372    1.192744
| 11> H     -0.795896    1.513765    1.157193
| 12> H     -0.795896    1.513765   -1.157193
| 13> H      0.959997    1.544372   -1.192744
| 14> H      1.132013   -0.807155    1.332694
| 15> H     -0.473545   -0.671624    2.067900
| 16> H     -0.473545   -0.671624   -2.067900
| 17> H      1.132013   -0.807155   -1.332694
| 18> H     -0.399708   -2.110863    0.000000
| 19> *
| 20>
| 21>                          ****END OF INPUT****

CARTESIAN COORDINATES (ANGSTROEM)
---------------------------------
  C      0.098831    1.023382    0.776623
  C      0.098831    1.023382   -0.776623
  C      0.098831   -0.465440    1.163404
  C      0.098831   -0.465440   -1.163404
  N     -0.516767   -1.106166    0.000000
  H      0.959997    1.544372    1.192744
  H     -0.795896    1.513765    1.157193
  H     -0.795896    1.513765   -1.157193
  H      0.959997    1.544372   -1.192744
  H      1.132013   -0.807155    1.332694
  H     -0.473545   -0.671624    2.067900
  H     -0.473545   -0.671624   -2.067900
  H      1.132013   -0.807155   -1.332694
  H     -0.399708   -2.110863    0.000000

 Total Charge           Charge          ....    0
 Multiplicity           Mult            ....    1
 Number of Electrons    NEL             ....   40
 Basis Dimension        Dim             ....  814

ORBITAL ENERGIES
----------------

  NO   OCC          E(Eh)            E(eV)
   0   2.0000     -15.533616      -422.6912
   1   2.0000     -11.240250      -305.8628
   2   2.0000     -11.240232      -305.8623
   3   2.0000     -11.213945      -305.1470
   4   2.0000     -11.213389      -305.1318
   5   2.0000      -1.214338       -33.0438
   6   2.0000      -1.019107       -27.7313
   7   2.0000      -0.970870       -26.4187
   8   2.0000      -0.804809       -21.9000
   9   2.0000      -0.781131       -21.2556
  10   2.0000      -0.686208       -18.6727
  11   2.0000      -0.655025       -17.8241
  12   2.0000      -0.587048       -15.9744
  13   2.0000      -0.554729       -15.0949
  14   2.0000      -0.512017       -13.9327
  15   2.0000      -0.511579       -13.9208
  16   2.0000      -0.478887       -13.0312
  17   2.0000      -0.471107       -12.8195
  18   2.0000      -0.455607       -12.3977
  19   2.0000      -0.365550        -9.9471
  20   0.0000       0.026979         0.7341
  21   0.0000       0.034683         0.9438
  22   0.0000       0.035171         0.9571
  23   0.0000       0.036327         0.9885
  24   0.0000       0.050002         1.3606

MULLIKEN ATOMIC CHARGES
-----------------------
   0 C :   -0.534937
   1 C :   -0.534936
   2 C :   -0.450857
   3 C :   -0.450858
   4 N :   -0.548063
   5 H :    0.298676
   6 H :    0.269142
   7 H :    0.269143
   8 H :    0.298676
   9 H :    0.196308
  10 H :    0.394426
  11 H :    0.394426
  12 H :    0.196308
  13 H :    0.202546
Sum of atomic charges:    0.0000000

LOEWDIN ATOMIC CHARGES
----------------------
   0 C :    0.533011
   1 C :    0.533011
   2 C :    0.357545
   3 C :    0.357545
   4 N :    0.894488
   5 H :   -0.270636
   6 H :   -0.274765
   7 H :   -0.274765
   8 H :   -0.270636
   9 H :   -0.266373
  10 H :   -0.276978
  11 H :   -0.276978
  12 H :   -0.266373
  13 H :   -0.498094

  Mayer bond orders larger than 0.100000
B(  0-C ,  1-C ) :   1.0119 B(  0-C ,  2-C ) :   1.0581 B(  0-C ,  5-H ) :   0.8791
B(  0-C ,  6-H ) :   0.8871 B(  1-C ,  3-C ) :   1.0581 B(  1-C ,  7-H ) :   0.8871
B(  1-C ,  8-H ) :   0.8791 B(  2-C ,  4-N ) :   0.9015 B(  2-C ,  9-H ) :   0.9912
B(  2-C , 10-H ) :   0.8172 B(  3-C ,  4-N ) :   0.9015 B(  3-C , 11-H ) :   0.8172
B(  3-C , 12-H ) :   0.9912 B(  4-N , 13-H ) :   0.9385

MP2 TOTAL ENERGY:     -212.199079622 Eh
FINAL SINGLE POINT ENERGY      -212.199079622269

DIPOLE MOMENT
-------------
                                X             Y             Z
Electronic contribution:     -0.90256      -1.17406       0.00000
Nuclear contribution   :      1.31227       1.09993      -0.00000
                        -----------------------------------------
Total Dipole Moment    :      0.40970      -0.07413       0.00000
                        -----------------------------------------
Magnitude (a.u.)       :      0.41636
Magnitude (Debye)      :      1.05829

Rotational constants in cm-1:     0.228933     0.227350     0.129618
Rotational constants in MHz :  6863.244699  6815.777351  3885.850447

                             ****ORCA TERMINATED NORMALLY****
TOTAL RUN TIME: 0 days 0 hours 19 minutes 34 seconds 68 msec
