                         Program Version 5.0.4 -  RELEASE  -
|  1> !ri-mp2 aug-cc-pvqz aug-cc-pvqz/c tightscf
|  2> %pal nprocs 16 end
|  3>
|  4> * xyz 0 1
|  5> C      0.834198   -0.936571   -0.030495
|  6> C     -1.402371   -0.269951    0.991854
|  7> C      0.042139    0.149384    0.691781
|  8> S      2.619734   -0.495778   -0.173755
|  9> S     -2.501238   -0.563857   -0.452043
| 10> S      0.149502    1.790968   -0.137745
| 11> H      0.429951   -1.103433   -1.026573
| 12> H      0.765825   -1.867304    0.532760
| 13> H     -1.408866   -1.167657    1.610121
| 14> H     -1.897031    0.521267    1.550558
| 15> H      0.520127    0.338062    1.655473
| 16> H      3.083147   -1.750169   -0.026735
| 17> H     -2.037822   -1.781895   -0.783799
| 18> H     -0.587096    1.452627   -1.213971
| 19> *
| 20>
| 21>                          ****END OF INPUT****

CARTESIAN COORDINATES (ANGSTROEM)
---------------------------------
  C      0.834198   -0.936571   -0.030495
  C     -1.402371   -0.269951    0.991854
  C      0.042139    0.149384    0.691781
  S      2.619734   -0.495778   -0.173755
  S     -2.501238   -0.563857   -0.452043
  S      0.149502    1.790968   -0.137745
  H      0.429951   -1.103433   -1.026573
  H      0.765825   -1.867304    0.532760
  H     -1.408866   -1.167657    1.610121
  H     -1.897031    0.521267    1.550558
  H      0.520127    0.338062    1.655473
  H      3.083147   -1.750169   -0.026735
  H     -2.037822   -1.781895   -0.783799
  H     -0.587096    1.452627   -1.213971

 Total Charge           Charge          ....    0
 Multiplicity           Mult            ....    1
 Number of Electrons    NEL             ....   74
 Basis Dimension        Dim             ....  860

ORBITAL ENERGIES
----------------

  NO   OCC          E(Eh)            E(eV)
   0   2.0000     -91.964543     -2502.4824
   1   2.0000     -91.955680     -2502.2413
   2   2.0000     -91.953816     -2502.1906
   3   2.0000     -11.288551      -307.1771
   4   2.0000     -11.281289      -306.9795
   5   2.0000     -11.275469      -306.8211
   6   2.0000      -8.966721      -243.9969
   7   2.0000      -8.957558      -243.7476
   8   2.0000      -8.956378      -243.7154
   9   2.0000      -6.648265      -180.9085
  10   2.0000      -6.647331      -180.8831
  11   2.0000      -6.646463      -180.8595
  12   2.0000      -6.639015      -180.6568
  13   2.0000      -6.638140      -180.6330
  14   2.0000      -6.637877      -180.6258
  15   2.0000      -6.637168      -180.6065
  16   2.0000      -6.636983      -180.6015
  17   2.0000      -6.636108      -180.5777
  18   2.0000      -1.131317       -30.7847
  19   2.0000      -1.038929       -28.2707
  20   2.0000      -0.988027       -26.8856
  21   2.0000      -0.919737       -25.0273
  22   2.0000      -0.874626       -23.7998
  23   2.0000      -0.782305       -21.2876
  24   2.0000      -0.649865       -17.6837
  25   2.0000      -0.636241       -17.3130
  26   2.0000      -0.622557       -16.9406
  27   2.0000      -0.588650       -16.0180
  28   2.0000      -0.540738       -14.7142
  29   2.0000      -0.518574       -14.1111
  30   2.0000      -0.510843       -13.9007
  31   2.0000      -0.473424       -12.8825
  32   2.0000      -0.457839       -12.4584
  33   2.0000      -0.443081       -12.0569
  34   2.0000      -0.377383       -10.2691
  35   2.0000      -0.369769       -10.0619
  36   2.0000      -0.355997        -9.6872
  37   0.0000       0.021084         0.5737
  38   0.0000       0.029940         0.8147
  39   0.0000       0.033904         0.9226
  40   0.0000       0.038043         1.0352
  41   0.0000       0.049343         1.3427

MULLIKEN ATOMIC CHARGES
-----------------------
   0 C :   -0.414217
   1 C :   -0.542544
   2 C :   -0.012053
   3 S :   -0.193388
   4 S :   -0.206447
   5 S :   -0.148407
   6 H :    0.257194
   7 H :    0.234018
   8 H :    0.259258
   9 H :    0.313500
  10 H :    0.326931
  11 H :    0.021946
  12 H :    0.045001
  13 H :    0.059208
Sum of atomic charges:    0.0000000

LOEWDIN ATOMIC CHARGES
----------------------
   0 C :   -0.005126
   1 C :    0.047552
   2 C :   -0.458439
   3 S :    1.555256
   4 S :    1.583689
   5 S :    1.578692
   6 H :   -0.406000
   7 H :   -0.368415
   8 H :   -0.361679
   9 H :   -0.402553
  10 H :   -0.415486
  11 H :   -0.785080
  12 H :   -0.770081
  13 H :   -0.792329

  Mayer bond orders larger than 0.100000
B(  0-C ,  2-C ) :   0.8627 B(  0-C ,  3-S ) :   0.7917 B(  0-C ,  6-H ) :   0.9330
B(  0-C ,  7-H ) :   0.9210 B(  1-C ,  2-C ) :   0.9085 B(  1-C ,  4-S ) :   0.8906
B(  1-C ,  8-H ) :   0.9123 B(  1-C ,  9-H ) :   0.9073 B(  2-C ,  5-S ) :   0.8281
B(  2-C , 10-H ) :   0.8049 B(  3-S , 11-H ) :   1.0704 B(  4-S , 12-H ) :   1.0441
B(  5-S , 13-H ) :   1.0444

MP2 TOTAL ENERGY:    -1312.105648484 Eh
FINAL SINGLE POINT ENERGY     -1312.105648484423

DIPOLE MOMENT
-------------
                                X             Y             Z
Electronic contribution:      0.87812       4.23298      -1.83776
Nuclear contribution   :     -1.12947      -5.33122       2.29989
                        -----------------------------------------
Total Dipole Moment    :     -0.25135      -1.09824       0.46213
                        -----------------------------------------
Magnitude (a.u.)       :      1.21773
Magnitude (Debye)      :      3.09523

Rotational constants in cm-1:     0.091533     0.032986     0.027127
Rotational constants in MHz :  2744.093580   988.891133   813.261360

                             ****ORCA TERMINATED NORMALLY****
TOTAL RUN TIME: 0 days 0 hours 30 minutes 10 seconds 898 msec
