                         Program Version 5.0.4 -  RELEASE  -
|  1> !ri-mp2 aug-cc-pvqz aug-cc-pvqz/c tightscf
|  2> %pal nprocs 16 end
|  3>
|  4> * xyz 0 1
|  5> O     -2.423172   -0.167625    0.000000
|  6> N     -1.229268    0.011793   -0.000004
|  7> C     -0.078874    0.155417   -0.000002
|  8> C      1.300610    0.480348    0.000003
|  9> C      2.286856   -0.419406    0.000002
| 10> H      1.529592    1.540379    0.000009
| 11> H      2.091078   -1.482044   -0.000004
| 12> H      3.318032   -0.098033    0.000007
| 13> *
| 14>
| 15>                          ****END OF INPUT****

CARTESIAN COORDINATES (ANGSTROEM)
---------------------------------
  O     -2.423172   -0.167625    0.000000
  N     -1.229268    0.011793   -0.000004
  C     -0.078874    0.155417   -0.000002
  C      1.300610    0.480348    0.000003
  C      2.286856   -0.419406    0.000002
  H      1.529592    1.540379    0.000009
  H      2.091078   -1.482044   -0.000004
  H      3.318032   -0.098033    0.000007

 Total Charge           Charge          ....    0
 Multiplicity           Mult            ....    1
 Number of Electrons    NEL             ....   36
 Basis Dimension        Dim             ....  538

ORBITAL ENERGIES
----------------

  NO   OCC          E(Eh)            E(eV)
   0   2.0000     -20.567895      -559.6809
   1   2.0000     -15.738284      -428.2605
   2   2.0000     -11.310302      -307.7690
   3   2.0000     -11.300731      -307.5085
   4   2.0000     -11.281809      -306.9936
   5   2.0000      -1.492039       -40.6005
   6   2.0000      -1.223341       -33.2888
   7   2.0000      -1.104378       -30.0517
   8   2.0000      -0.894511       -24.3409
   9   2.0000      -0.741857       -20.1870
  10   2.0000      -0.715911       -19.4809
  11   2.0000      -0.680855       -18.5270
  12   2.0000      -0.669701       -18.2235
  13   2.0000      -0.643224       -17.5030
  14   2.0000      -0.578910       -15.7529
  15   2.0000      -0.474719       -12.9177
  16   2.0000      -0.392784       -10.6882
  17   2.0000      -0.360432        -9.8079
  18   0.0000       0.017185         0.4676
  19   0.0000       0.029215         0.7950
  20   0.0000       0.036196         0.9849
  21   0.0000       0.053327         1.4511
  22   0.0000       0.065975         1.7953

MULLIKEN ATOMIC CHARGES
-----------------------
   0 O :   -0.665264
   1 N :   -0.013578
   2 C :    0.597201
   3 C :   -0.409736
   4 C :   -0.827325
   5 H :    0.518666
   6 H :    0.467186
   7 H :    0.332850
Sum of atomic charges:   -0.0000000

LOEWDIN ATOMIC CHARGES
----------------------
   0 O :    0.345003
   1 N :   -0.258728
   2 C :   -0.074068
   3 C :    0.267622
   4 C :    0.780751
   5 H :   -0.371146
   6 H :   -0.343979
   7 H :   -0.345454

  Mayer bond orders larger than 0.100000
B(  0-O ,  1-N ) :   1.1677 B(  0-O ,  2-C ) :   0.2592 B(  1-N ,  2-C ) :   2.4126
B(  2-C ,  3-C ) :   0.9256 B(  2-C ,  4-C ) :  -0.1946 B(  3-C ,  4-C ) :   1.7957
B(  3-C ,  5-H ) :   0.7103 B(  4-C ,  6-H ) :   0.7545 B(  4-C ,  7-H ) :   0.9905

MP2 TOTAL ENERGY:     -245.613064493 Eh
FINAL SINGLE POINT ENERGY      -245.613064492755

DIPOLE MOMENT
-------------
                                X             Y             Z
Electronic contribution:     -4.63708       0.24211      -0.00001
Nuclear contribution   :      6.74832      -0.04138       0.00001
                        -----------------------------------------
Total Dipole Moment    :      2.11124       0.20073       0.00000
                        -----------------------------------------
Magnitude (a.u.)       :      2.12076
Magnitude (Debye)      :      5.39055

Rotational constants in cm-1:     1.646950     0.078224     0.074677
Rotational constants in MHz : 49374.304000  2345.105002  2238.771276

                             ****ORCA TERMINATED NORMALLY****
TOTAL RUN TIME: 0 days 0 hours 5 minutes 3 seconds 144 msec
