                         Program Version 5.0.4 -  RELEASE  -
|  1> !ri-mp2 aug-cc-pvqz aug-cc-pvqz/c tightscf
|  2> %pal nprocs 16 end
|  3>
|  4> * xyz 0 1
|  5> C      0.088227   -0.640097    0.000000
|  6> C     -0.628654    0.743753    0.000000
|  7> Cl     1.853861   -0.454917    0.000000
|  8> F     -0.297556   -1.321635    1.086547
|  9> F     -0.297556   -1.321635   -1.086547
| 10> F     -1.951228    0.550467    0.000000
| 11> F     -0.297556    1.441493    1.086607
| 12> F     -0.297556    1.441493   -1.086607
| 13> *
| 14>
| 15>                          ****END OF INPUT****

CARTESIAN COORDINATES (ANGSTROEM)
---------------------------------
  C      0.088227   -0.640097    0.000000
  C     -0.628654    0.743753    0.000000
  Cl     1.853861   -0.454917    0.000000
  F     -0.297556   -1.321635    1.086547
  F     -0.297556   -1.321635   -1.086547
  F     -1.951228    0.550467    0.000000
  F     -0.297556    1.441493    1.086607
  F     -0.297556    1.441493   -1.086607

 Total Charge           Charge          ....    0
 Multiplicity           Mult            ....    1
 Number of Electrons    NEL             ....   74
 Basis Dimension        Dim             ....  644

ORBITAL ENERGIES
----------------

  NO   OCC          E(Eh)            E(eV)
   0   2.0000    -104.887337     -2854.1295
   1   2.0000     -26.372331      -717.6276
   2   2.0000     -26.372311      -717.6271
   3   2.0000     -26.371328      -717.6003
   4   2.0000     -26.371308      -717.5998
   5   2.0000     -26.370242      -717.5708
   6   2.0000     -11.553722      -314.3928
   7   2.0000     -11.529385      -313.7305
   8   2.0000     -10.612971      -288.7936
   9   2.0000      -8.079997      -219.8679
  10   2.0000      -8.078003      -219.8136
  11   2.0000      -8.078003      -219.8136
  12   2.0000      -1.769230       -48.1432
  13   2.0000      -1.730566       -47.0911
  14   2.0000      -1.674816       -45.5741
  15   2.0000      -1.669421       -45.4272
  16   2.0000      -1.663931       -45.2779
  17   2.0000      -1.192671       -32.4542
  18   2.0000      -1.062558       -28.9137
  19   2.0000      -0.951377       -25.8883
  20   2.0000      -0.883245       -24.0343
  21   2.0000      -0.866983       -23.5918
  22   2.0000      -0.860653       -23.4196
  23   2.0000      -0.822679       -22.3862
  24   2.0000      -0.800771       -21.7901
  25   2.0000      -0.754889       -20.5416
  26   2.0000      -0.741634       -20.1809
  27   2.0000      -0.737588       -20.0708
  28   2.0000      -0.727530       -19.7971
  29   2.0000      -0.701488       -19.0885
  30   2.0000      -0.698243       -19.0002
  31   2.0000      -0.687711       -18.7136
  32   2.0000      -0.682473       -18.5710
  33   2.0000      -0.650672       -17.7057
  34   2.0000      -0.570656       -15.5283
  35   2.0000      -0.509754       -13.8711
  36   2.0000      -0.507708       -13.8154
  37   0.0000       0.046744         1.2720
  38   0.0000       0.053802         1.4640
  39   0.0000       0.058156         1.5825
  40   0.0000       0.066607         1.8125
  41   0.0000       0.081175         2.2089

MULLIKEN ATOMIC CHARGES
-----------------------
   0 C :    1.192844
   1 C :    1.795550
   2 Cl:   -0.117600
   3 F :   -0.565782
   4 F :   -0.565782
   5 F :   -0.580176
   6 F :   -0.579527
   7 F :   -0.579527
Sum of atomic charges:   -0.0000000

LOEWDIN ATOMIC CHARGES
----------------------
   0 C :   -2.388997
   1 C :   -2.378273
   2 Cl:    1.113641
   3 F :    0.701532
   4 F :    0.701532
   5 F :    0.754617
   6 F :    0.747974
   7 F :    0.747974

  Mayer bond orders larger than 0.100000
B(  0-C ,  1-C ) :   0.9439 B(  0-C ,  2-Cl) :   0.9497 B(  0-C ,  3-F ) :   0.5376
B(  0-C ,  4-F ) :   0.5376 B(  1-C ,  5-F ) :   0.5016 B(  1-C ,  6-F ) :   0.5227
B(  1-C ,  7-F ) :   0.5227

MP2 TOTAL ENERGY:    -1034.643180347 Eh
FINAL SINGLE POINT ENERGY     -1034.643180347191

DIPOLE MOMENT
-------------
                                X             Y             Z
Electronic contribution:     -0.14860       0.11807      -0.00000
Nuclear contribution   :      0.40509      -0.11656       0.00000
                        -----------------------------------------
Total Dipole Moment    :      0.25649       0.00152      -0.00000
                        -----------------------------------------
Magnitude (a.u.)       :      0.25650
Magnitude (Debye)      :      0.65196

Rotational constants in cm-1:     0.077710     0.049841     0.044867
Rotational constants in MHz :  2329.677006  1494.184545  1345.087955

                             ****ORCA TERMINATED NORMALLY****
TOTAL RUN TIME: 0 days 0 hours 29 minutes 20 seconds 438 msec
