                         Program Version 5.0.4 -  RELEASE  -
|  1> !ri-mp2 aug-cc-pvqz aug-cc-pvqz/c tightscf
|  2> %pal nprocs 16 end
|  3>
|  4> * xyz 0 1
|  5> O     -0.463972    1.384052   -0.155574
|  6> H      0.450340    1.692749   -0.148928
|  7> O      1.955994   -0.044939    0.007682
|  8> H      2.204193   -0.174878    0.928152
|  9> C      0.719569   -0.720388   -0.243068
| 10> H      0.626152   -0.767914   -1.328484
| 11> H      0.743413   -1.741843    0.148870
| 12> C     -0.461734    0.047680    0.337446
| 13> H     -0.352342    0.067485    1.432972
| 14> C     -1.793602   -0.587521   -0.016562
| 15> H     -1.917072   -0.637100   -1.099209
| 16> H     -1.865467   -1.596382    0.392217
| 17> H     -2.610789    0.006348    0.390648
| 18> *
| 19>
| 20>                          ****END OF INPUT****

CARTESIAN COORDINATES (ANGSTROEM)
---------------------------------
  O     -0.463972    1.384052   -0.155574
  H      0.450340    1.692749   -0.148928
  O      1.955994   -0.044939    0.007682
  H      2.204193   -0.174878    0.928152
  C      0.719569   -0.720388   -0.243068
  H      0.626152   -0.767914   -1.328484
  H      0.743413   -1.741843    0.148870
  C     -0.461734    0.047680    0.337446
  H     -0.352342    0.067485    1.432972
  C     -1.793602   -0.587521   -0.016562
  H     -1.917072   -0.637100   -1.099209
  H     -1.865467   -1.596382    0.392217
  H     -2.610789    0.006348    0.390648

 Total Charge           Charge          ....    0
 Multiplicity           Mult            ....    1
 Number of Electrons    NEL             ....   42
 Basis Dimension        Dim             ....  768

ORBITAL ENERGIES
----------------

  NO   OCC          E(Eh)            E(eV)
   0   2.0000     -20.569736      -559.7310
   1   2.0000     -20.548208      -559.1452
   2   2.0000     -11.281778      -306.9928
   3   2.0000     -11.281011      -306.9719
   4   2.0000     -11.217197      -305.2354
   5   2.0000      -1.378221       -37.5033
   6   2.0000      -1.347360       -36.6635
   7   2.0000      -1.042391       -28.3649
   8   2.0000      -0.931076       -25.3359
   9   2.0000      -0.812929       -22.1209
  10   2.0000      -0.711683       -19.3659
  11   2.0000      -0.687104       -18.6970
  12   2.0000      -0.659442       -17.9443
  13   2.0000      -0.607215       -16.5231
  14   2.0000      -0.563926       -15.3452
  15   2.0000      -0.542661       -14.7666
  16   2.0000      -0.536812       -14.6074
  17   2.0000      -0.520638       -14.1673
  18   2.0000      -0.504662       -13.7326
  19   2.0000      -0.464809       -12.6481
  20   2.0000      -0.429765       -11.6945
  21   0.0000       0.022941         0.6243
  22   0.0000       0.032115         0.8739
  23   0.0000       0.035433         0.9642
  24   0.0000       0.038702         1.0531
  25   0.0000       0.053880         1.4661

MULLIKEN ATOMIC CHARGES
-----------------------
   0 O :   -0.889587
   1 H :    0.320352
   2 O :   -0.838551
   3 H :    0.348051
   4 C :   -0.106781
   5 H :    0.291675
   6 H :    0.281401
   7 C :    0.454090
   8 H :    0.299747
   9 C :   -0.888358
  10 H :    0.220981
  11 H :    0.231752
  12 H :    0.275227
Sum of atomic charges:    0.0000000

LOEWDIN ATOMIC CHARGES
----------------------
   0 O :    1.282682
   1 H :   -0.838488
   2 O :    1.277265
   3 H :   -0.779475
   4 C :    0.177618
   5 H :   -0.314807
   6 H :   -0.288784
   7 C :   -0.258806
   8 H :   -0.297749
   9 C :    0.897807
  10 H :   -0.287051
  11 H :   -0.284484
  12 H :   -0.285729

  Mayer bond orders larger than 0.100000
B(  0-O ,  1-H ) :   0.9096 B(  0-O ,  7-C ) :   0.4384 B(  2-O ,  3-H ) :   0.8653
B(  2-O ,  4-C ) :   0.6905 B(  4-C ,  5-H ) :   0.8805 B(  4-C ,  6-H ) :   0.9036
B(  4-C ,  7-C ) :   0.9122 B(  7-C ,  8-H ) :   0.8576 B(  7-C ,  9-C ) :   0.7754
B(  9-C , 10-H ) :   0.9563 B(  9-C , 11-H ) :   0.9900 B(  9-C , 12-H ) :   0.9607

MP2 TOTAL ENERGY:     -269.191784203 Eh
FINAL SINGLE POINT ENERGY      -269.191784202809

DIPOLE MOMENT
-------------
                                X             Y             Z
Electronic contribution:      2.94677       2.48002      -0.10143
Nuclear contribution   :     -2.79676      -3.24496       0.74003
                        -----------------------------------------
Total Dipole Moment    :      0.15000      -0.76493       0.63860
                        -----------------------------------------
Magnitude (a.u.)       :      1.00769
Magnitude (Debye)      :      2.56134

Rotational constants in cm-1:     0.284965     0.119486     0.092234
Rotational constants in MHz :  8543.042916  3582.092841  2765.091920

                             ****ORCA TERMINATED NORMALLY****
TOTAL RUN TIME: 0 days 0 hours 18 minutes 27 seconds 486 msec
