                         Program Version 5.0.4 -  RELEASE  -
|  1> !ri-mp2 aug-cc-pvqz aug-cc-pvqz/c tightscf
|  2> %pal nprocs 16 end
|  3>
|  4> * xyz 0 1
|  5> O     -1.069401   -1.177081   -0.114653
|  6> O     -1.069399    1.177108   -0.114381
|  7> C     -0.471048   -0.000047    0.382369
|  8> C      0.979054   -0.000017    0.143241
|  9> C      2.155246    0.000008   -0.089537
| 10> H     -0.691133   -1.390931   -0.974818
| 11> H     -0.691105    1.391185   -0.974478
| 12> H     -0.685912   -0.000169    1.449763
| 13> H      3.199039    0.000030   -0.284622
| 14> *
| 15>
| 16>                          ****END OF INPUT****

CARTESIAN COORDINATES (ANGSTROEM)
---------------------------------
  O     -1.069401   -1.177081   -0.114653
  O     -1.069399    1.177108   -0.114381
  C     -0.471048   -0.000047    0.382369
  C      0.979054   -0.000017    0.143241
  C      2.155246    0.000008   -0.089537
  H     -0.691133   -1.390931   -0.974818
  H     -0.691105    1.391185   -0.974478
  H     -0.685912   -0.000169    1.449763
  H      3.199039    0.000030   -0.284622

 Total Charge           Charge          ....    0
 Multiplicity           Mult            ....    1
 Number of Electrons    NEL             ....   38
 Basis Dimension        Dim             ....  584

ORBITAL ENERGIES
----------------

  NO   OCC          E(Eh)            E(eV)
   0   2.0000     -20.578432      -559.9676
   1   2.0000     -20.578414      -559.9671
   2   2.0000     -11.373751      -309.4955
   3   2.0000     -11.253382      -306.2201
   4   2.0000     -11.249441      -306.1128
   5   2.0000      -1.423814       -38.7439
   6   2.0000      -1.350601       -36.7517
   7   2.0000      -1.061611       -28.8879
   8   2.0000      -0.944281       -25.6952
   9   2.0000      -0.788655       -21.4604
  10   2.0000      -0.721993       -19.6464
  11   2.0000      -0.717705       -19.5297
  12   2.0000      -0.674312       -18.3490
  13   2.0000      -0.593399       -16.1472
  14   2.0000      -0.543981       -14.8025
  15   2.0000      -0.513848       -13.9825
  16   2.0000      -0.494704       -13.4616
  17   2.0000      -0.419353       -11.4112
  18   2.0000      -0.418705       -11.3935
  19   0.0000       0.020993         0.5712
  20   0.0000       0.031694         0.8625
  21   0.0000       0.038539         1.0487
  22   0.0000       0.043378         1.1804
  23   0.0000       0.070944         1.9305

MULLIKEN ATOMIC CHARGES
-----------------------
   0 O :   -0.788085
   1 O :   -0.788084
   2 C :    1.232791
   3 C :   -0.342660
   4 C :   -0.889512
   5 H :    0.328561
   6 H :    0.328563
   7 H :    0.428679
   8 H :    0.489746
Sum of atomic charges:   -0.0000000

LOEWDIN ATOMIC CHARGES
----------------------
   0 O :    1.250299
   1 O :    1.250298
   2 C :   -0.658545
   3 C :    0.051040
   4 C :    0.572470
   5 H :   -0.808244
   6 H :   -0.808246
   7 H :   -0.392248
   8 H :   -0.456825

  Mayer bond orders larger than 0.100000
B(  0-O ,  2-C ) :   0.5687 B(  0-O ,  3-C ) :   0.1595 B(  0-O ,  5-H ) :   0.8834
B(  1-O ,  2-C ) :   0.5687 B(  1-O ,  3-C ) :   0.1595 B(  1-O ,  6-H ) :   0.8834
B(  2-C ,  3-C ) :   0.6143 B(  2-C ,  4-C ) :  -0.1866 B(  2-C ,  7-H ) :   0.8175
B(  3-C ,  4-C ) :   2.7550 B(  3-C ,  7-H ) :  -0.1151 B(  4-C ,  8-H ) :   0.8408

MP2 TOTAL ENERGY:     -266.724419738 Eh
FINAL SINGLE POINT ENERGY      -266.724419738408

DIPOLE MOMENT
-------------
                                X             Y             Z
Electronic contribution:     -0.13126      -0.00003       0.14424
Nuclear contribution   :      1.08657       0.00011      -0.78016
                        -----------------------------------------
Total Dipole Moment    :      0.95531       0.00008      -0.63592
                        -----------------------------------------
Magnitude (a.u.)       :      1.14761
Magnitude (Debye)      :      2.91700

Rotational constants in cm-1:     0.307294     0.134942     0.101223
Rotational constants in MHz :  9212.453849  4045.449334  3034.601794

                             ****ORCA TERMINATED NORMALLY****
TOTAL RUN TIME: 0 days 0 hours 8 minutes 30 seconds 738 msec
