                         Program Version 5.0.4 -  RELEASE  -
|  1> !ri-mp2 aug-cc-pvqz aug-cc-pvqz/c tightscf
|  2> %pal nprocs 16 end
|  3>
|  4> * xyz 0 1
|  5> C      0.000000    1.138944    0.719367
|  6> N      0.000000    0.000000    1.412722
|  7> C      0.000000    1.193219   -0.669712
|  8> C      0.000000   -1.138944    0.719367
|  9> C      0.000000   -1.193219   -0.669712
| 10> C      0.000000    0.000000   -1.378970
| 11> H      0.000000   -2.147907   -1.177548
| 12> H      0.000000    2.053255    1.302467
| 13> H      0.000000    2.147907   -1.177548
| 14> H      0.000000   -2.053255    1.302467
| 15> H      0.000000    0.000000   -2.460925
| 16> *
| 17>
| 18>                          ****END OF INPUT****

CARTESIAN COORDINATES (ANGSTROEM)
---------------------------------
  C      0.000000    1.138944    0.719367
  N      0.000000    0.000000    1.412722
  C      0.000000    1.193219   -0.669712
  C      0.000000   -1.138944    0.719367
  C      0.000000   -1.193219   -0.669712
  C      0.000000    0.000000   -1.378970
  H      0.000000   -2.147907   -1.177548
  H      0.000000    2.053255    1.302467
  H      0.000000    2.147907   -1.177548
  H      0.000000   -2.053255    1.302467
  H      0.000000    0.000000   -2.460925

 Total Charge           Charge          ....    0
 Multiplicity           Mult            ....    1
 Number of Electrons    NEL             ....   42
 Basis Dimension        Dim             ....  710

ORBITAL ENERGIES
----------------

  NO   OCC          E(Eh)            E(eV)
   0   2.0000     -15.563228      -423.4970
   1   2.0000     -11.273298      -306.7620
   2   2.0000     -11.273281      -306.7616
   3   2.0000     -11.258413      -306.3570
   4   2.0000     -11.240532      -305.8704
   5   2.0000     -11.240477      -305.8689
   6   2.0000      -1.260178       -34.2912
   7   2.0000      -1.090863       -29.6839
   8   2.0000      -1.034917       -28.1615
   9   2.0000      -0.859293       -23.3826
  10   2.0000      -0.857479       -23.3332
  11   2.0000      -0.723008       -19.6741
  12   2.0000      -0.662809       -18.0359
  13   2.0000      -0.653850       -17.7922
  14   2.0000      -0.599175       -16.3044
  15   2.0000      -0.577112       -15.7040
  16   2.0000      -0.543805       -14.7977
  17   2.0000      -0.521084       -14.1794
  18   2.0000      -0.418346       -11.3838
  19   2.0000      -0.385359       -10.4861
  20   2.0000      -0.348740        -9.4897
  21   0.0000       0.023040         0.6269
  22   0.0000       0.028877         0.7858
  23   0.0000       0.033237         0.9044
  24   0.0000       0.043068         1.1719
  25   0.0000       0.047152         1.2831

MULLIKEN ATOMIC CHARGES
-----------------------
   0 C :   -0.304391
   1 N :   -0.460251
   2 C :   -0.305293
   3 C :   -0.304391
   4 C :   -0.305294
   5 C :   -0.242811
   6 H :    0.351798
   7 H :    0.444385
   8 H :    0.351799
   9 H :    0.444386
  10 H :    0.330064
Sum of atomic charges:   -0.0000000

LOEWDIN ATOMIC CHARGES
----------------------
   0 C :    0.063940
   1 N :    0.585020
   2 C :    0.324243
   3 C :    0.063940
   4 C :    0.324243
   5 C :    0.321127
   6 H :   -0.329857
   7 H :   -0.353887
   8 H :   -0.329857
   9 H :   -0.353887
  10 H :   -0.315025

  Mayer bond orders larger than 0.100000
B(  0-C ,  1-N ) :   1.3095 B(  0-C ,  2-C ) :   1.2410 B(  0-C ,  4-C ) :   0.1048
B(  0-C ,  7-H ) :   0.8837 B(  1-N ,  3-C ) :   1.3095 B(  2-C ,  3-C ) :   0.1048
B(  2-C ,  5-C ) :   1.1840 B(  2-C ,  8-H ) :   0.9571 B(  3-C ,  4-C ) :   1.2410
B(  3-C ,  9-H ) :   0.8837 B(  4-C ,  5-C ) :   1.1840 B(  4-C ,  6-H ) :   0.9571
B(  5-C , 10-H ) :   0.9847

MP2 TOTAL ENERGY:     -247.846027331 Eh
FINAL SINGLE POINT ENERGY      -247.846027330778

DIPOLE MOMENT
-------------
                                X             Y             Z
Electronic contribution:     -0.00000       0.00000       1.28958
Nuclear contribution   :      0.00000      -0.00000      -2.19659
                        -----------------------------------------
Total Dipole Moment    :     -0.00000       0.00000      -0.90701
                        -----------------------------------------
Magnitude (a.u.)       :      0.90701
Magnitude (Debye)      :      2.30543

Rotational constants in cm-1:     0.202706     0.195430     0.099501
Rotational constants in MHz :  6076.974175  5858.840487  2982.957037

                             ****ORCA TERMINATED NORMALLY****
TOTAL RUN TIME: 0 days 0 hours 14 minutes 6 seconds 992 msec
