                         Program Version 5.0.4 -  RELEASE  -
|  1> !ri-mp2 aug-cc-pvqz aug-cc-pvqz/c tightscf
|  2> %pal nprocs 16 end
|  3>
|  4> * xyz 0 1
|  5> C      1.133555    1.224172   -0.194407
|  6> C      1.181841   -1.187001   -0.202712
|  7> C     -0.343283    1.191042    0.180257
|  8> C     -0.292244   -1.224360    0.177403
|  9> N      1.789141    0.030617    0.328985
| 10> N     -0.969018   -0.030842   -0.322800
| 11> N     -2.357848   -0.114512   -0.018199
| 12> H      1.212514    1.304089   -1.289776
| 13> H      1.599464    2.108612    0.242171
| 14> H      1.688428   -2.052619    0.225623
| 15> H      1.262640   -1.252758   -1.298708
| 16> H     -0.442955    1.259930    1.277609
| 17> H     -0.857002    2.046876   -0.260956
| 18> H     -0.780392   -2.092624   -0.261687
| 19> H     -0.379815   -1.300473    1.273848
| 20> H      2.781405    0.052276    0.136985
| 21> H     -2.540805    0.215439    0.932435
| 22> H     -2.858621    0.491294   -0.656692
| 23> *
| 24>
| 25>                          ****END OF INPUT****

CARTESIAN COORDINATES (ANGSTROEM)
---------------------------------
  C      1.133555    1.224172   -0.194407
  C      1.181841   -1.187001   -0.202712
  C     -0.343283    1.191042    0.180257
  C     -0.292244   -1.224360    0.177403
  N      1.789141    0.030617    0.328985
  N     -0.969018   -0.030842   -0.322800
  N     -2.357848   -0.114512   -0.018199
  H      1.212514    1.304089   -1.289776
  H      1.599464    2.108612    0.242171
  H      1.688428   -2.052619    0.225623
  H      1.262640   -1.252758   -1.298708
  H     -0.442955    1.259930    1.277609
  H     -0.857002    2.046876   -0.260956
  H     -0.780392   -2.092624   -0.261687
  H     -0.379815   -1.300473    1.273848
  H      2.781405    0.052276    0.136985
  H     -2.540805    0.215439    0.932435
  H     -2.858621    0.491294   -0.656692

 Total Charge           Charge          ....    0
 Multiplicity           Mult            ....    1
 Number of Electrons    NEL             ....   56
 Basis Dimension        Dim             .... 1066

ORBITAL ENERGIES
----------------

  NO   OCC          E(Eh)            E(eV)
   0   2.0000     -15.569322      -423.6628
   1   2.0000     -15.564695      -423.5369
   2   2.0000     -15.539587      -422.8537
   3   2.0000     -11.247069      -306.0483
   4   2.0000     -11.245273      -305.9994
   5   2.0000     -11.243262      -305.9447
   6   2.0000     -11.237658      -305.7922
   7   2.0000      -1.287560       -35.0363
   8   2.0000      -1.206348       -32.8264
   9   2.0000      -1.064191       -28.9581
  10   2.0000      -1.024919       -27.8895
  11   2.0000      -0.887167       -24.1410
  12   2.0000      -0.862012       -23.4565
  13   2.0000      -0.764218       -20.7954
  14   2.0000      -0.697868       -18.9899
  15   2.0000      -0.669402       -18.2153
  16   2.0000      -0.638473       -17.3737
  17   2.0000      -0.623035       -16.9536
  18   2.0000      -0.605608       -16.4794
  19   2.0000      -0.587728       -15.9929
  20   2.0000      -0.558692       -15.2028
  21   2.0000      -0.539622       -14.6839
  22   2.0000      -0.494774       -13.4635
  23   2.0000      -0.483827       -13.1656
  24   2.0000      -0.472072       -12.8457
  25   2.0000      -0.404922       -11.0185
  26   2.0000      -0.371964       -10.1217
  27   2.0000      -0.364511        -9.9189
  28   0.0000       0.025346         0.6897
  29   0.0000       0.029747         0.8094
  30   0.0000       0.033323         0.9068
  31   0.0000       0.035071         0.9543
  32   0.0000       0.047485         1.2921

MULLIKEN ATOMIC CHARGES
-----------------------
   0 C :   -0.355219
   1 C :   -0.360930
   2 C :   -0.436103
   3 C :   -0.424187
   4 N :   -0.507611
   5 N :   -0.040879
   6 N :   -0.738791
   7 H :    0.183781
   8 H :    0.336775
   9 H :    0.336494
  10 H :    0.199147
  11 H :    0.214227
  12 H :    0.386433
  13 H :    0.366452
  14 H :    0.227310
  15 H :    0.116832
  16 H :    0.244475
  17 H :    0.251796
Sum of atomic charges:   -0.0000000

LOEWDIN ATOMIC CHARGES
----------------------
   0 C :    0.358676
   1 C :    0.357198
   2 C :    0.324931
   3 C :    0.316457
   4 N :    0.906611
   5 N :    0.349334
   6 N :    1.136295
   7 H :   -0.264706
   8 H :   -0.279592
   9 H :   -0.280129
  10 H :   -0.265529
  11 H :   -0.268874
  12 H :   -0.286198
  13 H :   -0.292058
  14 H :   -0.267277
  15 H :   -0.500749
  16 H :   -0.517952
  17 H :   -0.526438

  Mayer bond orders larger than 0.100000
B(  0-C ,  2-C ) :   1.0348 B(  0-C ,  4-N ) :   0.8664 B(  0-C ,  7-H ) :   0.9898
B(  0-C ,  8-H ) :   0.8802 B(  1-C ,  3-C ) :   1.0340 B(  1-C ,  4-N ) :   0.8666
B(  1-C ,  9-H ) :   0.8810 B(  1-C , 10-H ) :   0.9796 B(  2-C ,  5-N ) :   0.8073
B(  2-C , 11-H ) :   0.9187 B(  2-C , 12-H ) :   0.8508 B(  3-C ,  5-N ) :   0.8376
B(  3-C , 13-H ) :   0.8612 B(  3-C , 14-H ) :   0.9416 B(  4-N , 15-H ) :   1.0131
B(  5-N ,  6-N ) :   0.4805 B(  6-N , 16-H ) :   0.9212 B(  6-N , 17-H ) :   0.9297

MP2 TOTAL ENERGY:     -322.723288659 Eh
FINAL SINGLE POINT ENERGY      -322.723288658745

DIPOLE MOMENT
-------------
                                X             Y             Z
Electronic contribution:     -0.41732      -0.30426      -0.35049
Nuclear contribution   :      0.70269       0.81033       0.33353
                        -----------------------------------------
Total Dipole Moment    :      0.28537       0.50608      -0.01697
                        -----------------------------------------
Magnitude (a.u.)       :      0.58124
Magnitude (Debye)      :      1.47739

Rotational constants in cm-1:     0.157150     0.077951     0.056613
Rotational constants in MHz :  4711.251420  2336.924308  1697.208065

                             ****ORCA TERMINATED NORMALLY****
TOTAL RUN TIME: 0 days 0 hours 49 minutes 6 seconds 43 msec
