                         Program Version 5.0.4 -  RELEASE  -
|  1> !ri-mp2 aug-cc-pvqz aug-cc-pvqz/c tightscf
|  2> %pal nprocs 16 end
|  3>
|  4> * xyz 0 1
|  5> C     -3.193395    0.219196    0.022962
|  6> C     -1.870687   -0.543222   -0.031096
|  7> C     -0.644306    0.369108    0.017163
|  8> C      0.681934   -0.388325   -0.039089
|  9> C      1.902025    0.524730    0.012238
| 10> N      3.142821   -0.252296   -0.075802
| 11> H     -4.046943   -0.459069   -0.014935
| 12> H     -3.274969    0.803363    0.942009
| 13> H     -3.283672    0.912302   -0.816050
| 14> H     -1.834066   -1.145994   -0.943292
| 15> H     -1.824205   -1.251686    0.801403
| 16> H     -0.682799    0.973279    0.929858
| 17> H     -0.692022    1.077721   -0.816618
| 18> H      0.733834   -0.987957   -0.951398
| 19> H      0.730562   -1.095733    0.796545
| 20> H      1.844936    1.150237    0.914816
| 21> H      1.879005    1.205826   -0.842025
| 22> H      3.244316   -0.859616    0.728902
| 23> H      3.952849    0.354475   -0.091672
| 24> *
| 25>
| 26>                          ****END OF INPUT****

CARTESIAN COORDINATES (ANGSTROEM)
---------------------------------
  C     -3.193395    0.219196    0.022962
  C     -1.870687   -0.543222   -0.031096
  C     -0.644306    0.369108    0.017163
  C      0.681934   -0.388325   -0.039089
  C      1.902025    0.524730    0.012238
  N      3.142821   -0.252296   -0.075802
  H     -4.046943   -0.459069   -0.014935
  H     -3.274969    0.803363    0.942009
  H     -3.283672    0.912302   -0.816050
  H     -1.834066   -1.145994   -0.943292
  H     -1.824205   -1.251686    0.801403
  H     -0.682799    0.973279    0.929858
  H     -0.692022    1.077721   -0.816618
  H      0.733834   -0.987957   -0.951398
  H      0.730562   -1.095733    0.796545
  H      1.844936    1.150237    0.914816
  H      1.879005    1.205826   -0.842025
  H      3.244316   -0.859616    0.728902
  H      3.952849    0.354475   -0.091672

 Total Charge           Charge          ....    0
 Multiplicity           Mult            ....    1
 Number of Electrons    NEL             ....   50
 Basis Dimension        Dim             .... 1078

ORBITAL ENERGIES
----------------

  NO   OCC          E(Eh)            E(eV)
   0   2.0000     -15.534305      -422.7099
   1   2.0000     -11.242563      -305.9257
   2   2.0000     -11.214426      -305.1601
   3   2.0000     -11.213211      -305.1270
   4   2.0000     -11.210917      -305.0646
   5   2.0000     -11.208211      -304.9909
   6   2.0000      -1.173333       -31.9280
   7   2.0000      -1.072320       -29.1793
   8   2.0000      -0.997969       -27.1561
   9   2.0000      -0.899504       -24.4767
  10   2.0000      -0.811649       -22.0861
  11   2.0000      -0.787470       -21.4282
  12   2.0000      -0.662788       -18.0354
  13   2.0000      -0.640965       -17.4415
  14   2.0000      -0.616073       -16.7642
  15   2.0000      -0.588165       -16.0048
  16   2.0000      -0.564141       -15.3510
  17   2.0000      -0.549068       -14.9409
  18   2.0000      -0.529695       -14.4137
  19   2.0000      -0.498430       -13.5630
  20   2.0000      -0.479948       -13.0601
  21   2.0000      -0.465385       -12.6638
  22   2.0000      -0.460547       -12.5321
  23   2.0000      -0.452381       -12.3099
  24   2.0000      -0.386471       -10.5164
  25   0.0000       0.025568         0.6958
  26   0.0000       0.028967         0.7882
  27   0.0000       0.033194         0.9033
  28   0.0000       0.035802         0.9742
  29   0.0000       0.044929         1.2226

MULLIKEN ATOMIC CHARGES
-----------------------
   0 C :   -0.897486
   1 C :   -0.480703
   2 C :   -0.247349
   3 C :   -0.434988
   4 C :   -0.196576
   5 N :   -0.802208
   6 H :    0.261826
   7 H :    0.223865
   8 H :    0.225086
   9 H :    0.226521
  10 H :    0.230694
  11 H :    0.227881
  12 H :    0.227907
  13 H :    0.264038
  14 H :    0.246898
  15 H :    0.208062
  16 H :    0.260559
  17 H :    0.268408
  18 H :    0.187565
Sum of atomic charges:    0.0000000

LOEWDIN ATOMIC CHARGES
----------------------
   0 C :    0.925817
   1 C :    0.507357
   2 C :    0.504750
   3 C :    0.501347
   4 C :    0.351875
   5 N :    1.283420
   6 H :   -0.284979
   7 H :   -0.285736
   8 H :   -0.285616
   9 H :   -0.273287
  10 H :   -0.273869
  11 H :   -0.270127
  12 H :   -0.268897
  13 H :   -0.271401
  14 H :   -0.270982
  15 H :   -0.271483
  16 H :   -0.290758
  17 H :   -0.515780
  18 H :   -0.511650

  Mayer bond orders larger than 0.100000
B(  0-C ,  1-C ) :   1.0126 B(  0-C ,  6-H ) :   1.0271 B(  0-C ,  7-H ) :   0.9565
B(  0-C ,  8-H ) :   0.9584 B(  1-C ,  2-C ) :   0.9589 B(  1-C ,  9-H ) :   0.8887
B(  1-C , 10-H ) :   0.8871 B(  2-C ,  3-C ) :   0.9517 B(  2-C , 11-H ) :   0.8845
B(  2-C , 12-H ) :   0.8703 B(  3-C ,  4-C ) :   1.1417 B(  3-C , 13-H ) :   0.8353
B(  3-C , 14-H ) :   0.8447 B(  4-C ,  5-N ) :   0.9250 B(  4-C , 15-H ) :   0.9211
B(  4-C , 16-H ) :   0.8781 B(  5-N , 17-H ) :   0.8852 B(  5-N , 18-H ) :   1.0035

MP2 TOTAL ENERGY:     -252.643173394 Eh
FINAL SINGLE POINT ENERGY      -252.643173393549

DIPOLE MOMENT
-------------
                                X             Y             Z
Electronic contribution:      3.49468      -0.46876      -0.27035
Nuclear contribution   :     -3.48476       0.72789       0.68634
                        -----------------------------------------
Total Dipole Moment    :      0.00992       0.25914       0.41600
                        -----------------------------------------
Magnitude (a.u.)       :      0.49021
Magnitude (Debye)      :      1.24601

Rotational constants in cm-1:     0.514341     0.037839     0.036530
Rotational constants in MHz : 15419.563996  1134.391417  1095.154997

                             ****ORCA TERMINATED NORMALLY****
TOTAL RUN TIME: 0 days 0 hours 34 minutes 59 seconds 23 msec
