                         Program Version 5.0.4 -  RELEASE  -
|  1> !ri-mp2 aug-cc-pvqz aug-cc-pvqz/c tightscf
|  2> %pal nprocs 16 end
|  3>
|  4> * xyz 0 1
|  5> C     0.000000     0.000000    0.590836
|  6> C     0.000000     1.321706   -0.236848
|  7> C     0.000000    -1.321706   -0.236848
|  8> F     1.097195     0.000000    1.372804
|  9> F    -1.097195     0.000000    1.372804
| 10> F     0.000000     2.356688    0.605533
| 11> F     0.000000    -2.356688    0.605533
| 12> F     1.086235     1.396250   -1.008692
| 13> F    -1.086235     1.396250   -1.008692
| 14> F    -1.086235    -1.396250   -1.008692
| 15> F     1.086235    -1.396250   -1.008692
| 16> *
| 17>
| 18>                          ****END OF INPUT****

CARTESIAN COORDINATES (ANGSTROEM)
---------------------------------
  C      0.000000    0.000000    0.590836
  C      0.000000    1.321706   -0.236848
  C      0.000000   -1.321706   -0.236848
  F      1.097195    0.000000    1.372804
  F     -1.097195    0.000000    1.372804
  F      0.000000    2.356688    0.605533
  F      0.000000   -2.356688    0.605533
  F      1.086235    1.396250   -1.008692
  F     -1.086235    1.396250   -1.008692
  F     -1.086235   -1.396250   -1.008692
  F      1.086235   -1.396250   -1.008692

 Total Charge           Charge          ....    0
 Multiplicity           Mult            ....    1
 Number of Electrons    NEL             ....   90
 Basis Dimension        Dim             ....  880

ORBITAL ENERGIES
----------------

  NO   OCC          E(Eh)            E(eV)
   0   2.0000     -26.377524      -717.7689
   1   2.0000     -26.377522      -717.7689
   2   2.0000     -26.377504      -717.7684
   3   2.0000     -26.377502      -717.7683
   4   2.0000     -26.375373      -717.7104
   5   2.0000     -26.375373      -717.7104
   6   2.0000     -26.375052      -717.7016
   7   2.0000     -26.375034      -717.7012
   8   2.0000     -11.559878      -314.5603
   9   2.0000     -11.559869      -314.5600
  10   2.0000     -11.499876      -312.9275
  11   2.0000      -1.778595       -48.3980
  12   2.0000      -1.769145       -48.1409
  13   2.0000      -1.728097       -47.0239
  14   2.0000      -1.682345       -45.7789
  15   2.0000      -1.675658       -45.5970
  16   2.0000      -1.674972       -45.5783
  17   2.0000      -1.674156       -45.5561
  18   2.0000      -1.665764       -45.3277
  19   2.0000      -1.127387       -30.6778
  20   2.0000      -1.030798       -28.0494
  21   2.0000      -0.959514       -26.1097
  22   2.0000      -0.904039       -24.6002
  23   2.0000      -0.886446       -24.1214
  24   2.0000      -0.876590       -23.8532
  25   2.0000      -0.864014       -23.5110
  26   2.0000      -0.856277       -23.3005
  27   2.0000      -0.853673       -23.2296
  28   2.0000      -0.817751       -22.2521
  29   2.0000      -0.766848       -20.8670
  30   2.0000      -0.758798       -20.6480
  31   2.0000      -0.753618       -20.5070
  32   2.0000      -0.742795       -20.2125
  33   2.0000      -0.740695       -20.1553
  34   2.0000      -0.737703       -20.0739
  35   2.0000      -0.731871       -19.9152
  36   2.0000      -0.711636       -19.3646
  37   2.0000      -0.709629       -19.3100
  38   2.0000      -0.696036       -18.9401
  39   2.0000      -0.695242       -18.9185
  40   2.0000      -0.695181       -18.9168
  41   2.0000      -0.686454       -18.6794
  42   2.0000      -0.684730       -18.6324
  43   2.0000      -0.644651       -17.5419
  44   2.0000      -0.574297       -15.6274
  45   0.0000       0.049174         1.3381
  46   0.0000       0.049721         1.3530
  47   0.0000       0.053914         1.4671
  48   0.0000       0.060795         1.6543
  49   0.0000       0.079007         2.1499

MULLIKEN ATOMIC CHARGES
-----------------------
   0 C :    1.235457
   1 C :    1.879756
   2 C :    1.879756
   3 F :   -0.675856
   4 F :   -0.675856
   5 F :   -0.608398
   6 F :   -0.608398
   7 F :   -0.606615
   8 F :   -0.606615
   9 F :   -0.606615
  10 F :   -0.606615
Sum of atomic charges:   -0.0000000

LOEWDIN ATOMIC CHARGES
----------------------
   0 C :   -1.731493
   1 C :   -2.244241
   2 C :   -2.244241
   3 F :    0.796449
   4 F :    0.796449
   5 F :    0.770366
   6 F :    0.770366
   7 F :    0.771586
   8 F :    0.771586
   9 F :    0.771586
  10 F :    0.771586

  Mayer bond orders larger than 0.100000
B(  0-C ,  1-C ) :   0.9413 B(  0-C ,  2-C ) :   0.9413 B(  0-C ,  3-F ) :   0.3619
B(  0-C ,  4-F ) :   0.3619 B(  1-C ,  5-F ) :   0.4921 B(  1-C ,  7-F ) :   0.5035
B(  1-C ,  8-F ) :   0.5035 B(  2-C ,  6-F ) :   0.4921 B(  2-C ,  9-F ) :   0.5035
B(  2-C , 10-F ) :   0.5035

MP2 TOTAL ENERGY:     -912.249143666 Eh
FINAL SINGLE POINT ENERGY      -912.249143665959

DIPOLE MOMENT
-------------
                                X             Y             Z
Electronic contribution:      0.00000       0.00000      -0.13009
Nuclear contribution   :      0.00000       0.00000       0.06933
                        -----------------------------------------
Total Dipole Moment    :      0.00000       0.00000      -0.06075
                        -----------------------------------------
Magnitude (a.u.)       :      0.06075
Magnitude (Debye)      :      0.15442

Rotational constants in cm-1:     0.055489     0.031419     0.029599
Rotational constants in MHz :  1663.512932   941.914318   887.348727

                             ****ORCA TERMINATED NORMALLY****
TOTAL RUN TIME: 0 days 0 hours 24 minutes 55 seconds 604 msec
