                         Program Version 5.0.4 -  RELEASE  -
|  1> !ri-mp2 aug-cc-pvqz aug-cc-pvqz/c tightscf
|  2> %pal nprocs 16 end
|  3>
|  4> * xyz 0 1
|  5> C      1.070710   -0.368234    0.146305
|  6> C     -1.282848    0.323971   -0.320122
|  7> C      0.020532    0.716170    0.346563
|  8> O      2.179848   -0.153436   -0.260150
|  9> O     -1.960910   -0.597247    0.054811
| 10> H      0.734564   -1.388064    0.407927
| 11> H     -1.572330    0.919367   -1.206311
| 12> H      0.403972    1.666523   -0.018102
| 13> H     -0.168069    0.776197    1.422723
| 14> *
| 15>
| 16>                          ****END OF INPUT****

CARTESIAN COORDINATES (ANGSTROEM)
---------------------------------
  C      1.070710   -0.368234    0.146305
  C     -1.282848    0.323971   -0.320122
  C      0.020532    0.716170    0.346563
  O      2.179848   -0.153436   -0.260150
  O     -1.960910   -0.597247    0.054811
  H      0.734564   -1.388064    0.407927
  H     -1.572330    0.919367   -1.206311
  H      0.403972    1.666523   -0.018102
  H     -0.168069    0.776197    1.422723

 Total Charge           Charge          ....    0
 Multiplicity           Mult            ....    1
 Number of Electrons    NEL             ....   38
 Basis Dimension        Dim             ....  584

ORBITAL ENERGIES
----------------

  NO   OCC          E(Eh)            E(eV)
   0   2.0000     -20.582025      -560.0654
   1   2.0000     -20.576624      -559.9184
   2   2.0000     -11.358928      -309.0922
   3   2.0000     -11.353870      -308.9545
   4   2.0000     -11.269322      -306.6538
   5   2.0000      -1.423103       -38.7246
   6   2.0000      -1.416181       -38.5362
   7   2.0000      -1.071040       -29.1445
   8   2.0000      -0.865093       -23.5404
   9   2.0000      -0.800065       -21.7709
  10   2.0000      -0.717930       -19.5359
  11   2.0000      -0.675536       -18.3823
  12   2.0000      -0.654397       -17.8070
  13   2.0000      -0.651956       -17.7406
  14   2.0000      -0.591034       -16.0828
  15   2.0000      -0.543779       -14.7970
  16   2.0000      -0.533547       -14.5186
  17   2.0000      -0.459861       -12.5135
  18   2.0000      -0.431306       -11.7364
  19   0.0000       0.023357         0.6356
  20   0.0000       0.031263         0.8507
  21   0.0000       0.036751         1.0000
  22   0.0000       0.042698         1.1619
  23   0.0000       0.062157         1.6914

MULLIKEN ATOMIC CHARGES
-----------------------
   0 C :    0.250062
   1 C :    0.163504
   2 C :   -0.535323
   3 O :   -0.701492
   4 O :   -0.720096
   5 H :    0.455501
   6 H :    0.509879
   7 H :    0.282666
   8 H :    0.295298
Sum of atomic charges:    0.0000000

LOEWDIN ATOMIC CHARGES
----------------------
   0 C :   -0.256704
   1 C :   -0.259083
   2 C :    0.436767
   3 O :    0.710252
   4 O :    0.714162
   5 H :   -0.350500
   6 H :   -0.340416
   7 H :   -0.336370
   8 H :   -0.318109

  Mayer bond orders larger than 0.100000
B(  0-C ,  2-C ) :   1.0354 B(  0-C ,  3-O ) :   1.6395 B(  0-C ,  5-H ) :   0.7334
B(  1-C ,  2-C ) :   1.0335 B(  1-C ,  4-O ) :   1.6461 B(  1-C ,  6-H ) :   0.6864
B(  2-C ,  7-H ) :   0.8907 B(  2-C ,  8-H ) :   0.8587

MP2 TOTAL ENERGY:     -266.766456420 Eh
FINAL SINGLE POINT ENERGY      -266.766456420168

DIPOLE MOMENT
-------------
                                X             Y             Z
Electronic contribution:      0.21964      -1.17786      -0.45054
Nuclear contribution   :     -0.59263       1.94323       0.59717
                        -----------------------------------------
Total Dipole Moment    :     -0.37299       0.76537       0.14663
                        -----------------------------------------
Magnitude (a.u.)       :      0.86395
Magnitude (Debye)      :      2.19599

Rotational constants in cm-1:     0.581957     0.092606     0.086168
Rotational constants in MHz : 17446.623915  2776.266398  2583.244406

                             ****ORCA TERMINATED NORMALLY****
TOTAL RUN TIME: 0 days 0 hours 18 minutes 15 seconds 989 msec
