                         Program Version 5.0.4 -  RELEASE  -
|  1> !ri-mp2 aug-cc-pvqz aug-cc-pvqz/c tightscf
|  2> %pal nprocs 16 end
|  3>
|  4> * xyz 0 1
|  5> C     -0.013757   -1.316234    0.197329
|  6> C      0.083647    1.251840    0.325748
|  7> C      0.646705   -0.029651   -0.312805
|  8> N     -1.467041   -1.338650   -0.018105
|  9> N     -1.231706    1.613642   -0.202973
| 10> N      2.093096   -0.186523   -0.116420
| 11> H      0.508805   -2.160172   -0.265080
| 12> H      0.158200   -1.387214    1.276005
| 13> H      0.104816    1.127108    1.421032
| 14> H      0.771050    2.067989    0.090551
| 15> H      0.474190    0.042447   -1.391124
| 16> H     -1.874954   -2.159342    0.411086
| 17> H     -1.678612   -1.389398   -1.008104
| 18> H     -1.536048    2.505919    0.164381
| 19> H     -1.910296    0.908416    0.058611
| 20> H      2.324036   -0.198746    0.871269
| 21> H      2.598800    0.587978   -0.527778
| 22> *
| 23>
| 24>                          ****END OF INPUT****

CARTESIAN COORDINATES (ANGSTROEM)
---------------------------------
  C     -0.013757   -1.316234    0.197329
  C      0.083647    1.251840    0.325748
  C      0.646705   -0.029651   -0.312805
  N     -1.467041   -1.338650   -0.018105
  N     -1.231706    1.613642   -0.202973
  N      2.093096   -0.186523   -0.116420
  H      0.508805   -2.160172   -0.265080
  H      0.158200   -1.387214    1.276005
  H      0.104816    1.127108    1.421032
  H      0.771050    2.067989    0.090551
  H      0.474190    0.042447   -1.391124
  H     -1.874954   -2.159342    0.411086
  H     -1.678612   -1.389398   -1.008104
  H     -1.536048    2.505919    0.164381
  H     -1.910296    0.908416    0.058611
  H      2.324036   -0.198746    0.871269
  H      2.598800    0.587978   -0.527778

 Total Charge           Charge          ....    0
 Multiplicity           Mult            ....    1
 Number of Electrons    NEL             ....   50
 Basis Dimension        Dim             ....  986

ORBITAL ENERGIES
----------------

  NO   OCC          E(Eh)            E(eV)
   0   2.0000     -15.541454      -422.9045
   1   2.0000     -15.536115      -422.7592
   2   2.0000     -15.521516      -422.3619
   3   2.0000     -11.247078      -306.0485
   4   2.0000     -11.244787      -305.9862
   5   2.0000     -11.238631      -305.8187
   6   2.0000      -1.202995       -32.7352
   7   2.0000      -1.163384       -31.6573
   8   2.0000      -1.151598       -31.3366
   9   2.0000      -0.966633       -26.3034
  10   2.0000      -0.885588       -24.0981
  11   2.0000      -0.784840       -21.3566
  12   2.0000      -0.675616       -18.3844
  13   2.0000      -0.662416       -18.0253
  14   2.0000      -0.656290       -17.8586
  15   2.0000      -0.607170       -16.5219
  16   2.0000      -0.604233       -16.4420
  17   2.0000      -0.559805       -15.2331
  18   2.0000      -0.549011       -14.9393
  19   2.0000      -0.538323       -14.6485
  20   2.0000      -0.496756       -13.5174
  21   2.0000      -0.470447       -12.8015
  22   2.0000      -0.400442       -10.8966
  23   2.0000      -0.389628       -10.6023
  24   2.0000      -0.371813       -10.1175
  25   0.0000       0.025063         0.6820
  26   0.0000       0.029792         0.8107
  27   0.0000       0.034210         0.9309
  28   0.0000       0.035173         0.9571
  29   0.0000       0.049041         1.3345

MULLIKEN ATOMIC CHARGES
-----------------------
   0 C :   -0.404974
   1 C :   -0.293542
   2 C :    0.356452
   3 N :   -0.652255
   4 N :   -0.785818
   5 N :   -0.878492
   6 H :    0.308614
   7 H :    0.224834
   8 H :    0.158539
   9 H :    0.318263
  10 H :    0.379638
  11 H :    0.125931
  12 H :    0.251227
  13 H :    0.141105
  14 H :    0.336860
  15 H :    0.237811
  16 H :    0.175806
Sum of atomic charges:    0.0000000

LOEWDIN ATOMIC CHARGES
----------------------
   0 C :    0.356128
   1 C :    0.351985
   2 C :   -0.056015
   3 N :    1.289058
   4 N :    1.289876
   5 N :    1.292591
   6 H :   -0.278158
   7 H :   -0.292780
   8 H :   -0.270890
   9 H :   -0.304020
  10 H :   -0.293905
  11 H :   -0.493094
  12 H :   -0.490649
  13 H :   -0.504304
  14 H :   -0.589890
  15 H :   -0.503175
  16 H :   -0.502758

  Mayer bond orders larger than 0.100000
B(  0-C ,  2-C ) :   0.8465 B(  0-C ,  3-N ) :   0.9104 B(  0-C ,  5-N ) :   0.1639
B(  0-C ,  6-H ) :   0.8887 B(  0-C ,  7-H ) :   0.9422 B(  1-C ,  2-C ) :   0.8230
B(  1-C ,  4-N ) :   0.7742 B(  1-C ,  5-N ) :   0.1092 B(  1-C ,  8-H ) :   0.9864
B(  1-C ,  9-H ) :   0.8935 B(  2-C ,  5-N ) :   0.3824 B(  2-C , 10-H ) :   0.8126
B(  3-N , 11-H ) :   1.0672 B(  3-N , 12-H ) :   0.9055 B(  4-N , 13-H ) :   1.0483
B(  4-N , 14-H ) :   0.8185 B(  5-N , 15-H ) :   0.9135 B(  5-N , 16-H ) :   1.0301

MP2 TOTAL ENERGY:     -284.726132009 Eh
FINAL SINGLE POINT ENERGY      -284.726132008596

DIPOLE MOMENT
-------------
                                X             Y             Z
Electronic contribution:      0.00935      -0.04765      -0.67612
Nuclear contribution   :     -0.06696      -0.05741       1.15757
                        -----------------------------------------
Total Dipole Moment    :     -0.05761      -0.10506       0.48145
                        -----------------------------------------
Magnitude (a.u.)       :      0.49613
Magnitude (Debye)      :      1.26107

Rotational constants in cm-1:     0.120876     0.108304     0.062014
Rotational constants in MHz :  3623.779238  3246.869086  1859.139616

                             ****ORCA TERMINATED NORMALLY****
TOTAL RUN TIME: 0 days 0 hours 31 minutes 45 seconds 470 msec
