                         Program Version 5.0.4 -  RELEASE  -
|  1> !ri-mp2 aug-cc-pvqz aug-cc-pvqz/c tightscf
|  2> %pal nprocs 16 end
|  3>
|  4> * xyz 0 1
|  5> C      0.000000    0.000000    0.314636
|  6> C      0.000000    1.305048    0.357543
|  7> C      0.000000   -1.305048    0.357543
|  8> O      0.776928    2.146963   -0.393553
|  9> O     -0.776928   -2.146963   -0.393553
| 10> H     -0.646254    1.874974    1.014469
| 11> H      0.646254   -1.874974    1.014469
| 12> H      1.357245    1.618777   -0.955207
| 13> H     -1.357245   -1.618777   -0.955207
| 14> *
| 15>
| 16>                          ****END OF INPUT****

CARTESIAN COORDINATES (ANGSTROEM)
---------------------------------
  C      0.000000    0.000000    0.314636
  C      0.000000    1.305048    0.357543
  C      0.000000   -1.305048    0.357543
  O      0.776928    2.146963   -0.393553
  O     -0.776928   -2.146963   -0.393553
  H     -0.646254    1.874974    1.014469
  H      0.646254   -1.874974    1.014469
  H      1.357245    1.618777   -0.955207
  H     -1.357245   -1.618777   -0.955207

 Total Charge           Charge          ....    0
 Multiplicity           Mult            ....    1
 Number of Electrons    NEL             ....   38
 Basis Dimension        Dim             ....  584

ORBITAL ENERGIES
----------------

  NO   OCC          E(Eh)            E(eV)
   0   2.0000     -20.594180      -560.3961
   1   2.0000     -20.594180      -560.3961
   2   2.0000     -11.316865      -307.9475
   3   2.0000     -11.316863      -307.9475
   4   2.0000     -11.224597      -305.4368
   5   2.0000      -1.406888       -38.2834
   6   2.0000      -1.404562       -38.2201
   7   2.0000      -1.058985       -28.8164
   8   2.0000      -0.943408       -25.6714
   9   2.0000      -0.812065       -22.0974
  10   2.0000      -0.759221       -20.6594
  11   2.0000      -0.656599       -17.8670
  12   2.0000      -0.656552       -17.8657
  13   2.0000      -0.590446       -16.0668
  14   2.0000      -0.582853       -15.8602
  15   2.0000      -0.582035       -15.8380
  16   2.0000      -0.560817       -15.2606
  17   2.0000      -0.361736        -9.8433
  18   2.0000      -0.361046        -9.8245
  19   0.0000       0.023894         0.6502
  20   0.0000       0.034438         0.9371
  21   0.0000       0.037052         1.0082
  22   0.0000       0.039539         1.0759
  23   0.0000       0.072329         1.9682

MULLIKEN ATOMIC CHARGES
-----------------------
   0 C :   -0.621719
   1 C :    0.222754
   2 C :    0.222754
   3 O :   -0.742145
   4 O :   -0.742145
   5 H :    0.468306
   6 H :    0.468306
   7 H :    0.361946
   8 H :    0.361946
Sum of atomic charges:   -0.0000000

LOEWDIN ATOMIC CHARGES
----------------------
   0 C :    0.148797
   1 C :   -0.068623
   2 C :   -0.068623
   3 O :    1.215016
   4 O :    1.215016
   5 H :   -0.400732
   6 H :   -0.400732
   7 H :   -0.820060
   8 H :   -0.820060

  Mayer bond orders larger than 0.100000
B(  0-C ,  1-C ) :   1.9537 B(  0-C ,  2-C ) :   1.9537 B(  0-C ,  3-O ) :   0.1478
B(  0-C ,  4-O ) :   0.1478 B(  1-C ,  3-O ) :   0.6710 B(  1-C ,  5-H ) :   0.7437
B(  2-C ,  4-O ) :   0.6710 B(  2-C ,  6-H ) :   0.7437 B(  3-O ,  7-H ) :   0.8484
B(  4-O ,  8-H ) :   0.8484

MP2 TOTAL ENERGY:     -266.722200922 Eh
FINAL SINGLE POINT ENERGY      -266.722200921752

DIPOLE MOMENT
-------------
                                X             Y             Z
Electronic contribution:     -0.00000      -0.00000      -0.28938
Nuclear contribution   :      0.00000       0.00000       0.10509
                        -----------------------------------------
Total Dipole Moment    :     -0.00000      -0.00000      -0.18429
                        -----------------------------------------
Magnitude (a.u.)       :      0.18429
Magnitude (Debye)      :      0.46844

Rotational constants in cm-1:     0.798779     0.075041     0.073357
Rotational constants in MHz : 23946.788837  2249.664668  2199.193026

                             ****ORCA TERMINATED NORMALLY****
TOTAL RUN TIME: 0 days 0 hours 16 minutes 35 seconds 216 msec
