                         Program Version 5.0.4 -  RELEASE  -
|  1> !ri-mp2 aug-cc-pvqz aug-cc-pvqz/c tightscf
|  2> %pal nprocs 16 end
|  3>
|  4> * xyz 0 1
|  5> N      0.000000    1.175961   -0.636160
|  6> N      0.000000    1.151724    0.677844
|  7> N      0.000000    0.000000    1.324042
|  8> N      0.000000   -1.151724    0.677844
|  9> N      0.000000   -1.175961   -0.636160
| 10> C      0.000000    0.000000   -1.252774
| 11> H      0.000000    0.000000   -2.335236
| 12> *
| 13>
| 14>                          ****END OF INPUT****

CARTESIAN COORDINATES (ANGSTROEM)
---------------------------------
  N      0.000000    1.175961   -0.636160
  N      0.000000    1.151724    0.677844
  N      0.000000    0.000000    1.324042
  N      0.000000   -1.151724    0.677844
  N      0.000000   -1.175961   -0.636160
  C      0.000000    0.000000   -1.252774
  H      0.000000    0.000000   -2.335236

 Total Charge           Charge          ....    0
 Multiplicity           Mult            ....    1
 Number of Electrons    NEL             ....   42
 Basis Dimension        Dim             ....  526

ORBITAL ENERGIES
----------------

  NO   OCC          E(Eh)            E(eV)
   0   2.0000     -15.717066      -427.6831
   1   2.0000     -15.717053      -427.6828
   2   2.0000     -15.693907      -427.0529
   3   2.0000     -15.674483      -426.5244
   4   2.0000     -15.674462      -426.5238
   5   2.0000     -11.373609      -309.4916
   6   2.0000      -1.513902       -41.1954
   7   2.0000      -1.368253       -37.2320
   8   2.0000      -1.292554       -35.1722
   9   2.0000      -1.063778       -28.9469
  10   2.0000      -1.024150       -27.8685
  11   2.0000      -0.837972       -22.8024
  12   2.0000      -0.771562       -20.9953
  13   2.0000      -0.687603       -18.7106
  14   2.0000      -0.664391       -18.0790
  15   2.0000      -0.587259       -15.9801
  16   2.0000      -0.575437       -15.6584
  17   2.0000      -0.520382       -14.1603
  18   2.0000      -0.487170       -13.2566
  19   2.0000      -0.481663       -13.1067
  20   2.0000      -0.445607       -12.1256
  21   0.0000       0.013629         0.3709
  22   0.0000       0.021230         0.5777
  23   0.0000       0.034279         0.9328
  24   0.0000       0.052916         1.4399
  25   0.0000       0.058754         1.5988

MULLIKEN ATOMIC CHARGES
-----------------------
   0 N :   -0.293721
   1 N :   -0.006196
   2 N :   -0.077297
   3 N :   -0.006196
   4 N :   -0.293721
   5 C :    0.038073
   6 H :    0.639057
Sum of atomic charges:   -0.0000000

LOEWDIN ATOMIC CHARGES
----------------------
   0 N :    0.286660
   1 N :    0.032166
   2 N :    0.015972
   3 N :    0.032166
   4 N :    0.286660
   5 C :   -0.268215
   6 H :   -0.385409

  Mayer bond orders larger than 0.100000
B(  0-N ,  1-N ) :   1.2183 B(  0-N ,  3-N ) :   0.1023 B(  0-N ,  5-C ) :   1.3723
B(  1-N ,  2-N ) :   1.2256 B(  1-N ,  4-N ) :   0.1023 B(  2-N ,  3-N ) :   1.2256
B(  3-N ,  4-N ) :   1.2183 B(  4-N ,  5-C ) :   1.3723 B(  5-C ,  6-H ) :   0.6012

MP2 TOTAL ENERGY:     -311.872191111 Eh
FINAL SINGLE POINT ENERGY      -311.872191110863

DIPOLE MOMENT
-------------
                                X             Y             Z
Electronic contribution:      0.00000       0.00000       1.10885
Nuclear contribution   :      0.00000       0.00000      -2.21000
                        -----------------------------------------
Total Dipole Moment    :      0.00000       0.00000      -1.10116
                        -----------------------------------------
Magnitude (a.u.)       :      1.10116
Magnitude (Debye)      :      2.79892

Rotational constants in cm-1:     0.230776     0.222104     0.113179
Rotational constants in MHz :  6918.500595  6658.508765  3393.007667

                             ****ORCA TERMINATED NORMALLY****
TOTAL RUN TIME: 0 days 0 hours 5 minutes 28 seconds 3 msec
