                         Program Version 5.0.4 -  RELEASE  -
|  1> !ri-mp2 aug-cc-pvqz aug-cc-pvqz/c tightscf
|  2> %pal nprocs 16 end
|  3>
|  4> * xyz 0 1
|  5> H     -2.592675   -0.045641   -0.145798
|  6> H     -1.757839   -1.561246   -0.123394
|  7> N     -1.728931   -0.558727   -0.107702
|  8> O     -0.540022    1.352356    0.063774
|  9> C     -0.562261    0.136158    0.032402
| 10> H      0.704554   -1.095974    1.200102
| 11> H      0.596109   -1.605295   -0.469148
| 12> C      0.688051   -0.724248    0.170792
| 13> H      2.841756   -0.595111    0.039596
| 14> H      1.993138    0.372041   -1.170851
| 15> H      2.052216    0.921934    0.496008
| 16> C      1.971783    0.038345   -0.133659
| 17> *
| 18>
| 19>                          ****END OF INPUT****

CARTESIAN COORDINATES (ANGSTROEM)
---------------------------------
  H     -2.592675   -0.045641   -0.145798
  H     -1.757839   -1.561246   -0.123394
  N     -1.728931   -0.558727   -0.107702
  O     -0.540022    1.352356    0.063774
  C     -0.562261    0.136158    0.032402
  H      0.704554   -1.095974    1.200102
  H      0.596109   -1.605295   -0.469148
  C      0.688051   -0.724248    0.170792
  H      2.841756   -0.595111    0.039596
  H      1.993138    0.372041   -1.170851
  H      2.052216    0.921934    0.496008
  C      1.971783    0.038345   -0.133659

 Total Charge           Charge          ....    0
 Multiplicity           Mult            ....    1
 Number of Electrons    NEL             ....   40
 Basis Dimension        Dim             ....  722

ORBITAL ENERGIES
----------------

  NO   OCC          E(Eh)            E(eV)
   0   2.0000     -20.514521      -558.2285
   1   2.0000     -15.581656      -423.9984
   2   2.0000     -11.348689      -308.8135
   3   2.0000     -11.241563      -305.8985
   4   2.0000     -11.215582      -305.1915
   5   2.0000      -1.379228       -37.5307
   6   2.0000      -1.209537       -32.9132
   7   2.0000      -1.049944       -28.5704
   8   2.0000      -0.893265       -24.3070
   9   2.0000      -0.783048       -21.3078
  10   2.0000      -0.720046       -19.5934
  11   2.0000      -0.671811       -18.2809
  12   2.0000      -0.634563       -17.2673
  13   2.0000      -0.601134       -16.3577
  14   2.0000      -0.555398       -15.1132
  15   2.0000      -0.526899       -14.3377
  16   2.0000      -0.516652       -14.0588
  17   2.0000      -0.494289       -13.4503
  18   2.0000      -0.422090       -11.4857
  19   2.0000      -0.414463       -11.2781
  20   0.0000       0.018937         0.5153
  21   0.0000       0.030265         0.8236
  22   0.0000       0.036771         1.0006
  23   0.0000       0.039351         1.0708
  24   0.0000       0.051402         1.3987

MULLIKEN ATOMIC CHARGES
-----------------------
   0 H :    0.230966
   1 H :    0.321707
   2 N :   -0.700041
   3 O :   -0.789059
   4 C :    0.863222
   5 H :    0.303744
   6 H :    0.227567
   7 C :   -0.431503
   8 H :    0.271912
   9 H :    0.217161
  10 H :    0.240720
  11 C :   -0.756397
Sum of atomic charges:    0.0000000

LOEWDIN ATOMIC CHARGES
----------------------
   0 H :   -0.500484
   1 H :   -0.500260
   2 N :    1.235689
   3 O :    0.695644
   4 C :   -0.836454
   5 H :   -0.282205
   6 H :   -0.298189
   7 C :    0.456398
   8 H :   -0.285363
   9 H :   -0.283823
  10 H :   -0.300750
  11 C :    0.899797

  Mayer bond orders larger than 0.100000
B(  0-H ,  2-N ) :   1.0051 B(  1-H ,  2-N ) :   0.8815 B(  2-N ,  3-O ) :   0.1033
B(  2-N ,  4-C ) :   1.1303 B(  3-O ,  4-C ) :   1.3586 B(  3-O ,  7-C ) :   0.1142
B(  4-C ,  7-C ) :   0.9816 B(  5-H ,  7-C ) :   0.8158 B(  6-H ,  7-C ) :   0.9442
B(  7-C , 11-C ) :   0.9868 B(  8-H , 11-C ) :   0.9723 B(  9-H , 11-C ) :   0.9666
B( 10-H , 11-C ) :   0.9405

MP2 TOTAL ENERGY:     -248.150471727 Eh
FINAL SINGLE POINT ENERGY      -248.150471727477

DIPOLE MOMENT
-------------
                                X             Y             Z
Electronic contribution:     -4.16353       2.12626       0.15907
Nuclear contribution   :      3.92454      -3.69089      -0.17792
                        -----------------------------------------
Total Dipole Moment    :     -0.23899      -1.56463      -0.01884
                        -----------------------------------------
Magnitude (a.u.)       :      1.58288
Magnitude (Debye)      :      4.02337

Rotational constants in cm-1:     0.325919     0.125949     0.095090
Rotational constants in MHz :  9770.797415  3775.861300  2850.725148

                             ****ORCA TERMINATED NORMALLY****
TOTAL RUN TIME: 0 days 0 hours 13 minutes 3 seconds 292 msec
