                         Program Version 5.0.4 -  RELEASE  -
|  1> !ri-mp2 aug-cc-pvqz aug-cc-pvqz/c tightscf
|  2> %pal nprocs 16 end
|  3>
|  4> * xyz 0 1
|  5> C      0.000000    1.207774    0.694419
|  6> C      0.000000    1.207774   -0.694419
|  7> C      0.000000   -1.207774    0.694419
|  8> C      0.000000   -1.207774   -0.694419
|  9> C      0.000000    0.000000    1.378331
| 10> C      0.000000    0.000000   -1.378331
| 11> Cl     0.000000    0.000000    3.128670
| 12> Cl     0.000000    0.000000   -3.128670
| 13> H      0.000000    2.139873    1.239951
| 14> H      0.000000    2.139873   -1.239951
| 15> H      0.000000   -2.139873    1.239951
| 16> H      0.000000   -2.139873   -1.239951
| 17> *
| 18>
| 19>                          ****END OF INPUT****

CARTESIAN COORDINATES (ANGSTROEM)
---------------------------------
  C      0.000000    1.207774    0.694419
  C      0.000000    1.207774   -0.694419
  C      0.000000   -1.207774    0.694419
  C      0.000000   -1.207774   -0.694419
  C      0.000000    0.000000    1.378331
  C      0.000000    0.000000   -1.378331
  Cl     0.000000    0.000000    3.128670
  Cl     0.000000    0.000000   -3.128670
  H      0.000000    2.139873    1.239951
  H      0.000000    2.139873   -1.239951
  H      0.000000   -2.139873    1.239951
  H      0.000000   -2.139873   -1.239951

 Total Charge           Charge          ....    0
 Multiplicity           Mult            ....    1
 Number of Electrons    NEL             ....   74
 Basis Dimension        Dim             ....  832

ORBITAL ENERGIES
----------------

  NO   OCC          E(Eh)            E(eV)
   0   2.0000    -104.847674     -2853.0503
   1   2.0000    -104.847674     -2853.0503
   2   2.0000     -11.314860      -307.8930
   3   2.0000     -11.314839      -307.8924
   4   2.0000     -11.264841      -306.5319
   5   2.0000     -11.264794      -306.5306
   6   2.0000     -11.263568      -306.4973
   7   2.0000     -11.263558      -306.4970
   8   2.0000     -10.572877      -287.7026
   9   2.0000     -10.572877      -287.7026
  10   2.0000      -8.040005      -218.7797
  11   2.0000      -8.040005      -218.7797
  12   2.0000      -8.038269      -218.7324
  13   2.0000      -8.038269      -218.7324
  14   2.0000      -8.038217      -218.7310
  15   2.0000      -8.038217      -218.7310
  16   2.0000      -1.214129       -33.0381
  17   2.0000      -1.164016       -31.6745
  18   2.0000      -1.100314       -29.9411
  19   2.0000      -1.051329       -28.6081
  20   2.0000      -0.985127       -26.8067
  21   2.0000      -0.869425       -23.6582
  22   2.0000      -0.823192       -22.4002
  23   2.0000      -0.706140       -19.2151
  24   2.0000      -0.676881       -18.4189
  25   2.0000      -0.659966       -17.9586
  26   2.0000      -0.621199       -16.9037
  27   2.0000      -0.589345       -16.0369
  28   2.0000      -0.569759       -15.5039
  29   2.0000      -0.541145       -14.7253
  30   2.0000      -0.526036       -14.3142
  31   2.0000      -0.515918       -14.0388
  32   2.0000      -0.466841       -12.7034
  33   2.0000      -0.461640       -12.5619
  34   2.0000      -0.457589       -12.4516
  35   2.0000      -0.368975       -10.0403
  36   2.0000      -0.340441        -9.2639
  37   0.0000       0.026507         0.7213
  38   0.0000       0.027762         0.7554
  39   0.0000       0.035229         0.9586
  40   0.0000       0.043660         1.1880
  41   0.0000       0.060861         1.6561

MULLIKEN ATOMIC CHARGES
-----------------------
   0 C :   -0.088734
   1 C :   -0.088734
   2 C :   -0.088698
   3 C :   -0.088700
   4 C :   -0.340007
   5 C :   -0.340013
   6 Cl:   -0.340612
   7 Cl:   -0.340612
   8 H :    0.429030
   9 H :    0.429025
  10 H :    0.429029
  11 H :    0.429026
Sum of atomic charges:    0.0000000

LOEWDIN ATOMIC CHARGES
----------------------
   0 C :    0.191918
   1 C :    0.191918
   2 C :    0.191918
   3 C :    0.191918
   4 C :   -0.849279
   5 C :   -0.849279
   6 Cl:    1.176622
   7 Cl:    1.176622
   8 H :   -0.355590
   9 H :   -0.355590
  10 H :   -0.355590
  11 H :   -0.355590

  Mayer bond orders larger than 0.100000
B(  0-C ,  1-C ) :   1.2414 B(  0-C ,  3-C ) :   0.1199 B(  0-C ,  4-C ) :   1.1064
B(  0-C ,  6-Cl) :  -0.1623 B(  0-C ,  8-H ) :   0.8664 B(  0-C ,  9-H ) :  -0.1038
B(  1-C ,  2-C ) :   0.1199 B(  1-C ,  5-C ) :   1.1064 B(  1-C ,  7-Cl) :  -0.1623
B(  1-C ,  8-H ) :  -0.1038 B(  1-C ,  9-H ) :   0.8664 B(  2-C ,  3-C ) :   1.2413
B(  2-C ,  4-C ) :   1.1064 B(  2-C ,  6-Cl) :  -0.1624 B(  2-C , 10-H ) :   0.8664
B(  2-C , 11-H ) :  -0.1038 B(  3-C ,  5-C ) :   1.1064 B(  3-C ,  7-Cl) :  -0.1624
B(  3-C , 10-H ) :  -0.1038 B(  3-C , 11-H ) :   0.8664 B(  4-C ,  6-Cl) :   1.0393
B(  5-C ,  7-Cl) :   1.0393

MP2 TOTAL ENERGY:    -1150.096510511 Eh
FINAL SINGLE POINT ENERGY     -1150.096510511387

DIPOLE MOMENT
-------------
                                X             Y             Z
Electronic contribution:     -0.00000      -0.00000       0.00000
Nuclear contribution   :      0.00000       0.00000       0.00000
                        -----------------------------------------
Total Dipole Moment    :     -0.00000      -0.00000       0.00000
                        -----------------------------------------
Magnitude (a.u.)       :      0.00000
Magnitude (Debye)      :      0.00000

Rotational constants in cm-1:     0.190384     0.021919     0.019656
Rotational constants in MHz :  5707.574325   657.128564   589.282828

                             ****ORCA TERMINATED NORMALLY****
TOTAL RUN TIME: 0 days 0 hours 28 minutes 53 seconds 46 msec
