                         Program Version 5.0.4 -  RELEASE  -
|  1> !ri-mp2 aug-cc-pvqz aug-cc-pvqz/c tightscf
|  2> %pal nprocs 16 end
|  3>
|  4> * xyz 0 1
|  5> C      0.002824    1.104180    1.201145
|  6> C      0.002824    1.104180   -1.201145
|  7> C      0.002824   -0.282935    1.203368
|  8> C      0.002824   -0.282935   -1.203368
|  9> C      0.001749    1.821531    0.000000
| 10> C      0.002775   -0.973267    0.000000
| 11> N      0.059244    3.213615    0.000000
| 12> Cl     0.000656   -2.729245    0.000000
| 13> H      0.008179    1.636737    2.143798
| 14> H      0.008179    1.636737   -2.143798
| 15> H      0.002153   -0.824965    2.137851
| 16> H      0.002153   -0.824965   -2.137851
| 17> H     -0.270719    3.666897    0.836100
| 18> H     -0.270719    3.666897   -0.836100
| 19> *
| 20>
| 21>                          ****END OF INPUT****

CARTESIAN COORDINATES (ANGSTROEM)
---------------------------------
  C      0.002824    1.104180    1.201145
  C      0.002824    1.104180   -1.201145
  C      0.002824   -0.282935    1.203368
  C      0.002824   -0.282935   -1.203368
  C      0.001749    1.821531    0.000000
  C      0.002775   -0.973267    0.000000
  N      0.059244    3.213615    0.000000
  Cl     0.000656   -2.729245    0.000000
  H      0.008179    1.636737    2.143798
  H      0.008179    1.636737   -2.143798
  H      0.002153   -0.824965    2.137851
  H      0.002153   -0.824965   -2.137851
  H     -0.270719    3.666897    0.836100
  H     -0.270719    3.666897   -0.836100

 Total Charge           Charge          ....    0
 Multiplicity           Mult            ....    1
 Number of Electrons    NEL             ....   66
 Basis Dimension        Dim             ....  920

ORBITAL ENERGIES
----------------

  NO   OCC          E(Eh)            E(eV)
   0   2.0000    -104.829735     -2852.5621
   1   2.0000     -15.572819      -423.7579
   2   2.0000     -11.289348      -307.1988
   3   2.0000     -11.286397      -307.1185
   4   2.0000     -11.249124      -306.1042
   5   2.0000     -11.249088      -306.1032
   6   2.0000     -11.236700      -305.7662
   7   2.0000     -11.236680      -305.7656
   8   2.0000     -10.554870      -287.2126
   9   2.0000      -8.022005      -218.2899
  10   2.0000      -8.020348      -218.2448
  11   2.0000      -8.020255      -218.2422
  12   2.0000      -1.236632       -33.6505
  13   2.0000      -1.172073       -31.8937
  14   2.0000      -1.096076       -29.8257
  15   2.0000      -1.030385       -28.0382
  16   2.0000      -0.973339       -26.4859
  17   2.0000      -0.853372       -23.2214
  18   2.0000      -0.814103       -22.1529
  19   2.0000      -0.715198       -19.4615
  20   2.0000      -0.704530       -19.1712
  21   2.0000      -0.650573       -17.7030
  22   2.0000      -0.618129       -16.8201
  23   2.0000      -0.607868       -16.5409
  24   2.0000      -0.598473       -16.2853
  25   2.0000      -0.555250       -15.1091
  26   2.0000      -0.522255       -14.2113
  27   2.0000      -0.511178       -13.9099
  28   2.0000      -0.502733       -13.6801
  29   2.0000      -0.447111       -12.1665
  30   2.0000      -0.433620       -11.7994
  31   2.0000      -0.353046        -9.6069
  32   2.0000      -0.299517        -8.1503
  33   0.0000       0.019629         0.5341
  34   0.0000       0.027174         0.7394
  35   0.0000       0.034129         0.9287
  36   0.0000       0.042435         1.1547
  37   0.0000       0.046724         1.2714

MULLIKEN ATOMIC CHARGES
-----------------------
   0 C :   -0.293270
   1 C :   -0.293276
   2 C :   -0.153601
   3 C :   -0.153598
   4 C :    0.604883
   5 C :   -0.387597
   6 N :   -0.817037
   7 Cl:   -0.377704
   8 H :    0.265631
   9 H :    0.265634
  10 H :    0.390040
  11 H :    0.390043
  12 H :    0.279924
  13 H :    0.279929
Sum of atomic charges:   -0.0000000

LOEWDIN ATOMIC CHARGES
----------------------
   0 C :    0.329208
   1 C :    0.329208
   2 C :    0.195844
   3 C :    0.195844
   4 C :   -0.244873
   5 C :   -0.849022
   6 N :    1.271662
   7 Cl:    1.144601
   8 H :   -0.323518
   9 H :   -0.323518
  10 H :   -0.355289
  11 H :   -0.355289
  12 H :   -0.507429
  13 H :   -0.507429

  Mayer bond orders larger than 0.100000
B(  0-C ,  2-C ) :   1.3135 B(  0-C ,  4-C ) :   1.1253 B(  0-C ,  8-H ) :   0.9845
B(  0-C , 10-H ) :  -0.1087 B(  1-C ,  3-C ) :   1.3135 B(  1-C ,  4-C ) :   1.1253
B(  1-C ,  9-H ) :   0.9845 B(  1-C , 11-H ) :  -0.1087 B(  2-C ,  4-C ) :  -0.2070
B(  2-C ,  5-C ) :   1.1591 B(  2-C ,  7-Cl) :  -0.1617 B(  2-C ,  8-H ) :  -0.1198
B(  2-C , 10-H ) :   0.9110 B(  3-C ,  4-C ) :  -0.2070 B(  3-C ,  5-C ) :   1.1591
B(  3-C ,  7-Cl) :  -0.1617 B(  3-C ,  9-H ) :  -0.1198 B(  3-C , 11-H ) :   0.9110
B(  4-C ,  6-N ) :   0.7161 B(  4-C ,  8-H ) :  -0.1068 B(  4-C ,  9-H ) :  -0.1068
B(  5-C ,  7-Cl) :   1.0033 B(  6-N , 12-H ) :   0.9296 B(  6-N , 13-H ) :   0.9296

MP2 TOTAL ENERGY:     -746.239947941 Eh
FINAL SINGLE POINT ENERGY      -746.239947940564

DIPOLE MOMENT
-------------
                                X             Y             Z
Electronic contribution:      0.13466     -11.22873       0.00000
Nuclear contribution   :     -0.50657      12.51519       0.00000
                        -----------------------------------------
Total Dipole Moment    :     -0.37190       1.28646       0.00000
                        -----------------------------------------
Magnitude (a.u.)       :      1.33914
Magnitude (Debye)      :      3.40382

Rotational constants in cm-1:     0.188297     0.032173     0.027495
Rotational constants in MHz :  5645.006898   964.523691   824.293987

                             ****ORCA TERMINATED NORMALLY****
TOTAL RUN TIME: 0 days 0 hours 35 minutes 29 seconds 165 msec
