                         Program Version 5.0.4 -  RELEASE  -
|  1> !ri-mp2 aug-cc-pvqz aug-cc-pvqz/c tightscf
|  2> %pal nprocs 16 end
|  3> %maxcore 3800
|  4>
|  5> * xyz 0 1
|  6> N     -1.339042    1.450654   -0.784825
|  7> C     -1.389756    0.054525   -0.330039
|  8> C     -2.841838   -0.324033    0.031390
|  9> O     -3.133850   -1.336349    0.609477
| 10> O     -3.754709    0.560078   -0.391499
| 11> H     -3.240979    1.282550   -0.814313
| 12> C     -0.428785   -0.303489    0.819231
| 13> C      1.025254   -0.197841    0.432381
| 14> C      1.621881   -1.185950   -0.355385
| 15> C      2.953581   -1.088667   -0.737089
| 16> C      3.718469    0.001996   -0.335343
| 17> C      3.141002    0.988624    0.453392
| 18> C      1.805840    0.886727    0.832293
| 19> H     -1.147606   -0.573924   -1.190629
| 20> H     -0.639640    0.355030    1.665991
| 21> H     -0.667999   -1.315484    1.143917
| 22> H      1.040607   -2.046855   -0.662923
| 23> H      3.397501   -1.868361   -1.341580
| 24> H      4.756749    0.076482   -0.628637
| 25> H      3.729078    1.836137    0.779435
| 26> H      1.370663    1.654866    1.459995
| 27> H     -1.109294    2.078090   -0.023130
| 28> H     -0.641205    1.585711   -1.503173
| 29> *
| 30>
| 31>                          ****END OF INPUT****

CARTESIAN COORDINATES (ANGSTROEM)
---------------------------------
  N     -1.339042    1.450654   -0.784825
  C     -1.389756    0.054525   -0.330039
  C     -2.841838   -0.324033    0.031390
  O     -3.133850   -1.336349    0.609477
  O     -3.754709    0.560078   -0.391499
  H     -3.240979    1.282550   -0.814313
  C     -0.428785   -0.303489    0.819231
  C      1.025254   -0.197841    0.432381
  C      1.621881   -1.185950   -0.355385
  C      2.953581   -1.088667   -0.737089
  C      3.718469    0.001996   -0.335343
  C      3.141002    0.988624    0.453392
  C      1.805840    0.886727    0.832293
  H     -1.147606   -0.573924   -1.190629
  H     -0.639640    0.355030    1.665991
  H     -0.667999   -1.315484    1.143917
  H      1.040607   -2.046855   -0.662923
  H      3.397501   -1.868361   -1.341580
  H      4.756749    0.076482   -0.628637
  H      3.729078    1.836137    0.779435
  H      1.370663    1.654866    1.459995
  H     -1.109294    2.078090   -0.023130
  H     -0.641205    1.585711   -1.503173

 Total Charge           Charge          ....    0
 Multiplicity           Mult            ....    1
 Number of Electrons    NEL             ....   88
 Basis Dimension        Dim             .... 1466

ORBITAL ENERGIES
----------------

  NO   OCC          E(Eh)            E(eV)
   0   2.0000     -20.593972      -560.3905
   1   2.0000     -20.534030      -558.7594
   2   2.0000     -15.580927      -423.9786
   3   2.0000     -11.374499      -309.5158
   4   2.0000     -11.295447      -307.3647
   5   2.0000     -11.254160      -306.2413
   6   2.0000     -11.246679      -306.0377
   7   2.0000     -11.246073      -306.0212
   8   2.0000     -11.245717      -306.0115
   9   2.0000     -11.243912      -305.9624
  10   2.0000     -11.242707      -305.9296
  11   2.0000     -11.242121      -305.9137
  12   2.0000      -1.451302       -39.4919
  13   2.0000      -1.356052       -36.9001
  14   2.0000      -1.224979       -33.3334
  15   2.0000      -1.168536       -31.7975
  16   2.0000      -1.070959       -29.1423
  17   2.0000      -1.027676       -27.9645
  18   2.0000      -0.998644       -27.1745
  19   2.0000      -0.907507       -24.6945
  20   2.0000      -0.841367       -22.8948
  21   2.0000      -0.815194       -22.1826
  22   2.0000      -0.800958       -21.7952
  23   2.0000      -0.744009       -20.2455
  24   2.0000      -0.709634       -19.3101
  25   2.0000      -0.691843       -18.8260
  26   2.0000      -0.667109       -18.1529
  27   2.0000      -0.650473       -17.7003
  28   2.0000      -0.646215       -17.5844
  29   2.0000      -0.625683       -17.0257
  30   2.0000      -0.612905       -16.6780
  31   2.0000      -0.598936       -16.2979
  32   2.0000      -0.590939       -16.0803
  33   2.0000      -0.574683       -15.6379
  34   2.0000      -0.554277       -15.0826
  35   2.0000      -0.529830       -14.4174
  36   2.0000      -0.508602       -13.8398
  37   2.0000      -0.500469       -13.6185
  38   2.0000      -0.499051       -13.5799
  39   2.0000      -0.468130       -12.7385
  40   2.0000      -0.464069       -12.6280
  41   2.0000      -0.422506       -11.4970
  42   2.0000      -0.350482        -9.5371
  43   2.0000      -0.341700        -9.2981
  44   0.0000       0.017156         0.4668
  45   0.0000       0.023427         0.6375
  46   0.0000       0.027149         0.7388
  47   0.0000       0.031926         0.8687
  48   0.0000       0.038284         1.0418

MULLIKEN ATOMIC CHARGES
-----------------------
   0 N :   -0.755939
   1 C :   -0.077611
   2 C :    1.268642
   3 O :   -0.849411
   4 O :   -0.920835
   5 H :    0.409888
   6 C :   -0.292093
   7 C :    0.576179
   8 C :   -0.506140
   9 C :   -0.329858
  10 C :   -0.344879
  11 C :   -0.281734
  12 C :   -0.653239
  13 H :    0.334957
  14 H :    0.286520
  15 H :    0.240358
  16 H :    0.310892
  17 H :    0.245520
  18 H :    0.348461
  19 H :    0.253432
  20 H :    0.239557
  21 H :    0.277017
  22 H :    0.220315
Sum of atomic charges:    0.0000000

LOEWDIN ATOMIC CHARGES
----------------------
   0 N :    1.309448
   1 C :   -0.043134
   2 C :   -1.004489
   3 O :    0.684771
   4 O :    1.254504
   5 H :   -0.950672
   6 C :    0.490627
   7 C :   -0.070635
   8 C :    0.350697
   9 C :    0.350684
  10 C :    0.340436
  11 C :    0.347711
  12 C :    0.346834
  13 H :   -0.297513
  14 H :   -0.284399
  15 H :   -0.304739
  16 H :   -0.309260
  17 H :   -0.320157
  18 H :   -0.323997
  19 H :   -0.321178
  20 H :   -0.318193
  21 H :   -0.469178
  22 H :   -0.458169

  Mayer bond orders larger than 0.100000
B(  0-N ,  1-C ) :   0.7204 B(  0-N ,  5-H ) :   0.1119 B(  0-N , 21-H ) :   0.8886
B(  0-N , 22-H ) :   1.0155 B(  1-C ,  2-C ) :   1.1716 B(  1-C ,  3-O ) :   0.3029
B(  1-C ,  4-O ) :   0.1596 B(  1-C ,  6-C ) :   0.8997 B(  1-C , 13-H ) :   0.8097
B(  2-C ,  3-O ) :   1.2513 B(  2-C ,  4-O ) :   0.5970 B(  3-O ,  4-O ) :   0.1492
B(  3-O , 15-H ) :   0.1059 B(  4-O ,  5-H ) :   0.7331 B(  6-C ,  7-C ) :   0.6927
B(  6-C ,  8-C ) :  -0.2190 B(  6-C , 12-C ) :  -0.2413 B(  6-C , 14-H ) :   0.9907
B(  6-C , 15-H ) :   0.9080 B(  7-C ,  8-C ) :   0.9461 B(  7-C ,  9-C ) :  -0.3212
B(  7-C , 11-C ) :  -0.3642 B(  7-C , 12-C ) :   0.9596 B(  7-C , 16-H ) :  -0.1058
B(  8-C ,  9-C ) :   1.3625 B(  8-C , 11-C ) :   0.1401 B(  8-C , 16-H ) :   0.9412
B(  8-C , 17-H ) :  -0.1515 B(  9-C , 10-C ) :   1.1294 B(  9-C , 12-C ) :   0.1559
B(  9-C , 17-H ) :   1.1525 B( 10-C , 11-C ) :   1.1251 B( 10-C , 12-C ) :   0.1164
B( 10-C , 18-H ) :   0.9866 B( 10-C , 19-H ) :  -0.1091 B( 11-C , 12-C ) :   1.3779
B( 11-C , 19-H ) :   1.1388 B( 12-C , 19-H ) :  -0.1429 B( 12-C , 20-H ) :   1.0220

MP2 TOTAL ENERGY:     -553.931948812 Eh
FINAL SINGLE POINT ENERGY      -553.931948811903

DIPOLE MOMENT
-------------
                                X             Y             Z
Electronic contribution:     -4.91316      -1.89062       0.51638
Nuclear contribution   :      6.73462       3.06197      -1.11675
                        -----------------------------------------
Total Dipole Moment    :      1.82146       1.17135      -0.60036
                        -----------------------------------------
Magnitude (a.u.)       :      2.24727
Magnitude (Debye)      :      5.71211

Rotational constants in cm-1:     0.082009     0.014903     0.013914
Rotational constants in MHz :  2458.576575   446.794215   417.120275

                             ****ORCA TERMINATED NORMALLY****
TOTAL RUN TIME: 0 days 1 hours 35 minutes 2 seconds 848 msec
