                         Program Version 5.0.4 -  RELEASE  -
|  1> !ri-mp2 aug-cc-pvqz aug-cc-pvqz/c tightscf
|  2> %pal nprocs 16 end
|  3>
|  4> * xyz 0 1
|  5> C     -0.188443    1.576098   -0.366092
|  6> C      0.153555    0.706793    0.580006
|  7> C     -0.153555   -0.706793    0.580006
|  8> C      0.188443   -1.576098   -0.366092
|  9> F      0.153555    2.842567   -0.356772
| 10> F     -0.892260    1.266786   -1.433390
| 11> F      0.843111    1.168575    1.647552
| 12> F     -0.843111   -1.168575    1.647552
| 13> F      0.892260   -1.266786   -1.433390
| 14> F     -0.153555   -2.842567   -0.356772
| 15> *
| 16>
| 17>                          ****END OF INPUT****

CARTESIAN COORDINATES (ANGSTROEM)
---------------------------------
  C     -0.188443    1.576098   -0.366092
  C      0.153555    0.706793    0.580006
  C     -0.153555   -0.706793    0.580006
  C      0.188443   -1.576098   -0.366092
  F      0.153555    2.842567   -0.356772
  F     -0.892260    1.266786   -1.433390
  F      0.843111    1.168575    1.647552
  F     -0.843111   -1.168575    1.647552
  F      0.892260   -1.266786   -1.433390
  F     -0.153555   -2.842567   -0.356772

 Total Charge           Charge          ....    0
 Multiplicity           Mult            ....    1
 Number of Electrons    NEL             ....   78
 Basis Dimension        Dim             ....  800

ORBITAL ENERGIES
----------------

  NO   OCC          E(Eh)            E(eV)
   0   2.0000     -26.379791      -717.8306
   1   2.0000     -26.379791      -717.8306
   2   2.0000     -26.377465      -717.7673
   3   2.0000     -26.377465      -717.7673
   4   2.0000     -26.340365      -716.7578
   5   2.0000     -26.340364      -716.7578
   6   2.0000     -11.465734      -311.9985
   7   2.0000     -11.465733      -311.9985
   8   2.0000     -11.373673      -309.4934
   9   2.0000     -11.372816      -309.4701
  10   2.0000      -1.738601       -47.3097
  11   2.0000      -1.737202       -47.2717
  12   2.0000      -1.675591       -45.5951
  13   2.0000      -1.674496       -45.5654
  14   2.0000      -1.660467       -45.1836
  15   2.0000      -1.650078       -44.9009
  16   2.0000      -1.157290       -31.4915
  17   2.0000      -1.074514       -29.2390
  18   2.0000      -0.948700       -25.8154
  19   2.0000      -0.902108       -24.5476
  20   2.0000      -0.864349       -23.5201
  21   2.0000      -0.842622       -22.9289
  22   2.0000      -0.835070       -22.7234
  23   2.0000      -0.804018       -21.8784
  24   2.0000      -0.799834       -21.7646
  25   2.0000      -0.790663       -21.5150
  26   2.0000      -0.755185       -20.5496
  27   2.0000      -0.730802       -19.8861
  28   2.0000      -0.729488       -19.8504
  29   2.0000      -0.723181       -19.6788
  30   2.0000      -0.720757       -19.6128
  31   2.0000      -0.712982       -19.4012
  32   2.0000      -0.711154       -19.3515
  33   2.0000      -0.699121       -19.0241
  34   2.0000      -0.698982       -19.0203
  35   2.0000      -0.678854       -18.4726
  36   2.0000      -0.620425       -16.8826
  37   2.0000      -0.451117       -12.2755
  38   2.0000      -0.392977       -10.6934
  39   0.0000       0.040543         1.1032
  40   0.0000       0.045058         1.2261
  41   0.0000       0.052027         1.4157
  42   0.0000       0.055052         1.4980
  43   0.0000       0.073858         2.0098

MULLIKEN ATOMIC CHARGES
-----------------------
   0 C :    1.260534
   1 C :    0.581927
   2 C :    0.581927
   3 C :    1.260534
   4 F :   -0.573855
   5 F :   -0.606766
   6 F :   -0.661841
   7 F :   -0.661841
   8 F :   -0.606766
   9 F :   -0.573855
Sum of atomic charges:    0.0000000

LOEWDIN ATOMIC CHARGES
----------------------
   0 C :   -1.380026
   1 C :   -0.889688
   2 C :   -0.889688
   3 C :   -1.380026
   4 F :    0.761448
   5 F :    0.766947
   6 F :    0.741320
   7 F :    0.741320
   8 F :    0.766947
   9 F :    0.761448

  Mayer bond orders larger than 0.100000
B(  0-C ,  1-C ) :   1.9667 B(  0-C ,  4-F ) :   0.5267 B(  0-C ,  5-F ) :   0.5701
B(  1-C ,  2-C ) :   0.8866 B(  1-C ,  6-F ) :   0.3738 B(  2-C ,  3-C ) :   1.9667
B(  2-C ,  7-F ) :   0.3738 B(  3-C ,  8-F ) :   0.5701 B(  3-C ,  9-F ) :   0.5267

MP2 TOTAL ENERGY:     -750.640587634 Eh
FINAL SINGLE POINT ENERGY      -750.640587634303

DIPOLE MOMENT
-------------
                                X             Y             Z
Electronic contribution:     -0.00000       0.00000      -0.65145
Nuclear contribution   :      0.00000       0.00000       0.25466
                        -----------------------------------------
Total Dipole Moment    :     -0.00000       0.00000      -0.39679
                        -----------------------------------------
Magnitude (a.u.)       :      0.39679
Magnitude (Debye)      :      1.00855

Rotational constants in cm-1:     0.065641     0.030588     0.024467
Rotational constants in MHz :  1967.868976   917.001331   733.510015

                             ****ORCA TERMINATED NORMALLY****
TOTAL RUN TIME: 0 days 0 hours 19 minutes 22 seconds 913 msec
