                         Program Version 5.0.4 -  RELEASE  -
|  1> !ri-mp2 aug-cc-pvqz aug-cc-pvqz/c tightscf
|  2> %pal nprocs 16 end
|  3>
|  4> * xyz 0 1
|  5> C     -0.053693    2.019437        0.000000
|  6> C      1.204654   -1.469386        0.000000
|  7> C      1.220966   -0.085509        0.000000
|  8> C     -0.022972   -2.123259        0.000000
|  9> C     -1.181722   -0.159565        0.000000
| 10> C      0.000000    0.592498        0.000000
| 11> N     -0.100145    3.170672        0.000000
| 12> N     -1.195466   -1.486799        0.000000
| 13> H      2.124938   -2.035655        0.000000
| 14> H      2.150017    0.466484        0.000000
| 15> H     -0.067713   -3.205810        0.000000
| 16> H     -2.141358    0.342572        0.000000
| 17> *
| 18>
| 19>                          ****END OF INPUT****

CARTESIAN COORDINATES (ANGSTROEM)
---------------------------------
  C     -0.053693    2.019437    0.000000
  C      1.204654   -1.469386    0.000000
  C      1.220966   -0.085509    0.000000
  C     -0.022972   -2.123259    0.000000
  C     -1.181722   -0.159565    0.000000
  C      0.000000    0.592498    0.000000
  N     -0.100145    3.170672    0.000000
  N     -1.195466   -1.486799    0.000000
  H      2.124938   -2.035655    0.000000
  H      2.150017    0.466484    0.000000
  H     -0.067713   -3.205810    0.000000
  H     -2.141358    0.342572    0.000000

 Total Charge           Charge          ....    0
 Multiplicity           Mult            ....    1
 Number of Electrons    NEL             ....   54
 Basis Dimension        Dim             ....  824

ORBITAL ENERGIES
----------------

  NO   OCC          E(Eh)            E(eV)
   0   2.0000     -15.591753      -424.2732
   1   2.0000     -15.579715      -423.9456
   2   2.0000     -11.312121      -307.8185
   3   2.0000     -11.306845      -307.6749
   4   2.0000     -11.297609      -307.4236
   5   2.0000     -11.295449      -307.3648
   6   2.0000     -11.284001      -307.0533
   7   2.0000     -11.268309      -306.6263
   8   2.0000      -1.294365       -35.2215
   9   2.0000      -1.231902       -33.5218
  10   2.0000      -1.131777       -30.7972
  11   2.0000      -1.077459       -29.3192
  12   2.0000      -0.918767       -25.0009
  13   2.0000      -0.895492       -24.3676
  14   2.0000      -0.780131       -21.2284
  15   2.0000      -0.728318       -19.8185
  16   2.0000      -0.704035       -19.1578
  17   2.0000      -0.643149       -17.5010
  18   2.0000      -0.610351       -16.6085
  19   2.0000      -0.586545       -15.9607
  20   2.0000      -0.578037       -15.7292
  21   2.0000      -0.558737       -15.2040
  22   2.0000      -0.507165       -13.8007
  23   2.0000      -0.485810       -13.2196
  24   2.0000      -0.444434       -12.0937
  25   2.0000      -0.411955       -11.2099
  26   2.0000      -0.371837       -10.1182
  27   0.0000       0.017138         0.4663
  28   0.0000       0.028167         0.7665
  29   0.0000       0.032786         0.8922
  30   0.0000       0.042316         1.1515
  31   0.0000       0.051127         1.3912

MULLIKEN ATOMIC CHARGES
-----------------------
   0 C :    0.651564
   1 C :   -0.357844
   2 C :   -0.143909
   3 C :   -0.312683
   4 C :   -0.070568
   5 C :   -0.097437
   6 N :   -0.771097
   7 N :   -0.628372
   8 H :    0.314210
   9 H :    0.395420
  10 H :    0.503299
  11 H :    0.517416
Sum of atomic charges:   -0.0000000

LOEWDIN ATOMIC CHARGES
----------------------
   0 C :   -0.321579
   1 C :    0.351750
   2 C :    0.316074
   3 C :    0.092567
   4 C :    0.060731
   5 C :   -0.212831
   6 N :    0.414516
   7 N :    0.607628
   8 H :   -0.323047
   9 H :   -0.302579
  10 H :   -0.343301
  11 H :   -0.339929

  Mayer bond orders larger than 0.100000
B(  0-C ,  2-C ) :  -0.2408 B(  0-C ,  4-C ) :  -0.1988 B(  0-C ,  5-C ) :   1.3872
B(  0-C ,  6-N ) :   2.2978 B(  1-C ,  2-C ) :   1.2302 B(  1-C ,  3-C ) :   1.2033
B(  1-C ,  5-C ) :  -0.1564 B(  1-C ,  8-H ) :   1.0103 B(  2-C ,  5-C ) :   1.0454
B(  2-C ,  8-H ) :  -0.1025 B(  2-C ,  9-H ) :   0.8762 B(  3-C ,  7-N ) :   1.3355
B(  3-C , 10-H ) :   0.8130 B(  4-C ,  5-C ) :   1.1173 B(  4-C ,  7-N ) :   1.2750
B(  4-C , 11-H ) :   0.7614 B(  7-N , 11-H ) :  -0.1013

MP2 TOTAL ENERGY:     -339.955979107 Eh
FINAL SINGLE POINT ENERGY      -339.955979106966

DIPOLE MOMENT
-------------
                                X             Y             Z
Electronic contribution:     -1.15614       2.83716       0.00000
Nuclear contribution   :      2.00498      -4.30800       0.00000
                        -----------------------------------------
Total Dipole Moment    :      0.84884      -1.47084       0.00000
                        -----------------------------------------
Magnitude (a.u.)       :      1.69821
Magnitude (Debye)      :      4.31650

Rotational constants in cm-1:     0.195958     0.052644     0.041496
Rotational constants in MHz :  5874.685155  1578.228660  1244.023037

                             ****ORCA TERMINATED NORMALLY****
TOTAL RUN TIME: 0 days 0 hours 24 minutes 34 seconds 728 msec
