                         Program Version 5.0.4 -  RELEASE  -
|  1> !ri-mp2 aug-cc-pvqz aug-cc-pvqz/c tightscf
|  2> %pal nprocs 16 end
|  3> %maxcore 3800
|  4>
|  5> * xyz 0 1
|  6> N     0.000000     0.000000    1.286725
|  7> C     0.000000     1.384344    0.796964
|  8> C    -1.198877    -0.692172    0.796964
|  9> C     1.198877    -0.692172    0.796964
| 10> C     0.000000     1.443662   -0.760521
| 11> C    -1.250248    -0.721831   -0.760521
| 12> C     1.250248    -0.721831   -0.760521
| 13> C     0.000000     0.000000   -1.290089
| 14> H     0.877475     1.885976    1.207931
| 15> H    -0.877475     1.885976    1.207931
| 16> H    -2.072040    -0.183072    1.207931
| 17> H    -1.194565    -1.702903    1.207931
| 18> H     1.194565    -1.702903    1.207931
| 19> H     2.072040    -0.183072    1.207931
| 20> H     0.877284     1.977815   -1.131569
| 21> H    -0.877284     1.977815   -1.131569
| 22> H    -2.151480    -0.229157   -1.131569
| 23> H    -1.274196    -1.748657   -1.131569
| 24> H     1.274196    -1.748657   -1.131569
| 25> H     2.151480    -0.229157   -1.131569
| 26> H     0.000000     0.000000   -2.380678
| 27> *
| 28>
| 29>                          ****END OF INPUT****

CARTESIAN COORDINATES (ANGSTROEM)
---------------------------------
  N      0.000000    0.000000    1.286725
  C      0.000000    1.384344    0.796964
  C     -1.198877   -0.692172    0.796964
  C      1.198877   -0.692172    0.796964
  C      0.000000    1.443662   -0.760521
  C     -1.250248   -0.721831   -0.760521
  C      1.250248   -0.721831   -0.760521
  C      0.000000    0.000000   -1.290089
  H      0.877475    1.885976    1.207931
  H     -0.877475    1.885976    1.207931
  H     -2.072040   -0.183072    1.207931
  H     -1.194565   -1.702903    1.207931
  H      1.194565   -1.702903    1.207931
  H      2.072040   -0.183072    1.207931
  H      0.877284    1.977815   -1.131569
  H     -0.877284    1.977815   -1.131569
  H     -2.151480   -0.229157   -1.131569
  H     -1.274196   -1.748657   -1.131569
  H      1.274196   -1.748657   -1.131569
  H      2.151480   -0.229157   -1.131569
  H      0.000000    0.000000   -2.380678

 Total Charge           Charge          ....    0
 Multiplicity           Mult            ....    1
 Number of Electrons    NEL             ....   62
 Basis Dimension        Dim             .... 1238

ORBITAL ENERGIES
----------------

  NO   OCC          E(Eh)            E(eV)
   0   2.0000     -15.534816      -422.7238
   1   2.0000     -11.238501      -305.8152
   2   2.0000     -11.238501      -305.8152
   3   2.0000     -11.238480      -305.8146
   4   2.0000     -11.220696      -305.3307
   5   2.0000     -11.212016      -305.0945
   6   2.0000     -11.212016      -305.0945
   7   2.0000     -11.211972      -305.0933
   8   2.0000      -1.234874       -33.6026
   9   2.0000      -1.067748       -29.0549
  10   2.0000      -1.004590       -27.3363
  11   2.0000      -1.004590       -27.3363
  12   2.0000      -0.844477       -22.9794
  13   2.0000      -0.844477       -22.9794
  14   2.0000      -0.826866       -22.5002
  15   2.0000      -0.695568       -18.9274
  16   2.0000      -0.663608       -18.0577
  17   2.0000      -0.656232       -17.8570
  18   2.0000      -0.656232       -17.8570
  19   2.0000      -0.562475       -15.3057
  20   2.0000      -0.549565       -14.9544
  21   2.0000      -0.549565       -14.9544
  22   2.0000      -0.522145       -14.2083
  23   2.0000      -0.522145       -14.2083
  24   2.0000      -0.508818       -13.8456
  25   2.0000      -0.508818       -13.8456
  26   2.0000      -0.493611       -13.4318
  27   2.0000      -0.460819       -12.5395
  28   2.0000      -0.427251       -11.6261
  29   2.0000      -0.427251       -11.6261
  30   2.0000      -0.338030        -9.1983
  31   0.0000       0.025468         0.6930
  32   0.0000       0.032193         0.8760
  33   0.0000       0.032194         0.8760
  34   0.0000       0.034014         0.9256
  35   0.0000       0.044666         1.2154

MULLIKEN ATOMIC CHARGES
-----------------------
   0 N :   -0.709674
   1 C :   -0.402815
   2 C :   -0.402904
   3 C :   -0.402759
   4 C :   -0.593261
   5 C :   -0.593203
   6 C :   -0.593371
   7 C :    0.038276
   8 H :    0.269949
   9 H :    0.270157
  10 H :    0.270053
  11 H :    0.269961
  12 H :    0.270014
  13 H :    0.270077
  14 H :    0.263362
  15 H :    0.263254
  16 H :    0.263282
  17 H :    0.263412
  18 H :    0.263350
  19 H :    0.263359
  20 H :    0.459481
Sum of atomic charges:    0.0000000

LOEWDIN ATOMIC CHARGES
----------------------
   0 N :    0.534133
   1 C :    0.386168
   2 C :    0.386168
   3 C :    0.386168
   4 C :    0.561868
   5 C :    0.561869
   6 C :    0.561868
   7 C :    0.113269
   8 H :   -0.278615
   9 H :   -0.278615
  10 H :   -0.278616
  11 H :   -0.278616
  12 H :   -0.278616
  13 H :   -0.278616
  14 H :   -0.261175
  15 H :   -0.261175
  16 H :   -0.261175
  17 H :   -0.261176
  18 H :   -0.261176
  19 H :   -0.261175
  20 H :   -0.252767

  Mayer bond orders larger than 0.100000
B(  0-N ,  1-C ) :   0.9047 B(  0-N ,  2-C ) :   0.9047 B(  0-N ,  3-C ) :   0.9047
B(  1-C ,  4-C ) :   0.9927 B(  1-C ,  8-H ) :   0.9527 B(  1-C ,  9-H ) :   0.9525
B(  2-C ,  5-C ) :   0.9927 B(  2-C , 10-H ) :   0.9527 B(  2-C , 11-H ) :   0.9527
B(  3-C ,  6-C ) :   0.9927 B(  3-C , 12-H ) :   0.9527 B(  3-C , 13-H ) :   0.9526
B(  4-C ,  7-C ) :   0.8517 B(  4-C , 14-H ) :   0.9530 B(  4-C , 15-H ) :   0.9531
B(  5-C ,  7-C ) :   0.8517 B(  5-C , 16-H ) :   0.9530 B(  5-C , 17-H ) :   0.9529
B(  6-C ,  7-C ) :   0.8517 B(  6-C , 18-H ) :   0.9530 B(  6-C , 19-H ) :   0.9530
B(  7-C , 20-H ) :   0.6099

MP2 TOTAL ENERGY:     -328.709110671 Eh
FINAL SINGLE POINT ENERGY      -328.709110670684

DIPOLE MOMENT
-------------
                                X             Y             Z
Electronic contribution:     -0.00000      -0.00000       1.53582
Nuclear contribution   :      0.00000       0.00000      -2.00542
                        -----------------------------------------
Total Dipole Moment    :     -0.00000      -0.00000      -0.46960
                        -----------------------------------------
Magnitude (a.u.)       :      0.46960
Magnitude (Debye)      :      1.19364

Rotational constants in cm-1:     0.084868     0.080862     0.080862
Rotational constants in MHz :  2544.270501  2424.172289  2424.172280

                             ****ORCA TERMINATED NORMALLY****
TOTAL RUN TIME: 0 days 1 hours 29 minutes 39 seconds 597 msec
