                         Program Version 5.0.4 -  RELEASE  -
|  1> !ri-mp2 aug-cc-pvqz aug-cc-pvqz/c tightscf
|  2> %pal nprocs 16 end
|  3>
|  4> * xyz 0 1
|  5> C    -0.756547     0.773373   -0.707390
|  6> C     0.756547     0.773373   -0.707390
|  7> C     0.000000     1.149648    0.549230
|  8> C    -0.756547    -0.773373   -0.707390
|  9> C     0.756547    -0.773373   -0.707390
| 10> C     0.000000    -1.149648    0.549230
| 11> C     0.000000     0.000000    1.534441
| 12> H    -1.443256     1.422663   -1.227100
| 13> H     1.443256     1.422663   -1.227100
| 14> H     0.000000     2.180720    0.872633
| 15> H    -1.443256    -1.422663   -1.227100
| 16> H     1.443256    -1.422663   -1.227100
| 17> H     0.000000    -2.180720    0.872633
| 18> H     0.887300     0.000000    2.171546
| 19> H    -0.887300     0.000000    2.171546
| 20> *
| 21>
| 22>                          ****END OF INPUT****

CARTESIAN COORDINATES (ANGSTROEM)
---------------------------------
  C     -0.756547    0.773373   -0.707390
  C      0.756547    0.773373   -0.707390
  C      0.000000    1.149648    0.549230
  C     -0.756547   -0.773373   -0.707390
  C      0.756547   -0.773373   -0.707390
  C      0.000000   -1.149648    0.549230
  C      0.000000    0.000000    1.534441
  H     -1.443256    1.422663   -1.227100
  H      1.443256    1.422663   -1.227100
  H      0.000000    2.180720    0.872633
  H     -1.443256   -1.422663   -1.227100
  H      1.443256   -1.422663   -1.227100
  H      0.000000   -2.180720    0.872633
  H      0.887300    0.000000    2.171546
  H     -0.887300    0.000000    2.171546

 Total Charge           Charge          ....    0
 Multiplicity           Mult            ....    1
 Number of Electrons    NEL             ....   50
 Basis Dimension        Dim             ....  928

ORBITAL ENERGIES
----------------

  NO   OCC          E(Eh)            E(eV)
   0   2.0000     -11.225554      -305.4629
   1   2.0000     -11.225411      -305.4590
   2   2.0000     -11.224614      -305.4373
   3   2.0000     -11.224335      -305.4297
   4   2.0000     -11.224212      -305.4263
   5   2.0000     -11.223786      -305.4148
   6   2.0000     -11.215753      -305.1962
   7   2.0000      -1.241377       -33.7796
   8   2.0000      -1.046164       -28.4676
   9   2.0000      -0.989151       -26.9162
  10   2.0000      -0.866586       -23.5810
  11   2.0000      -0.770060       -20.9544
  12   2.0000      -0.755303       -20.5528
  13   2.0000      -0.716732       -19.5033
  14   2.0000      -0.713778       -19.4229
  15   2.0000      -0.598054       -16.2739
  16   2.0000      -0.591142       -16.0858
  17   2.0000      -0.585913       -15.9435
  18   2.0000      -0.538531       -14.6542
  19   2.0000      -0.488632       -13.2963
  20   2.0000      -0.483711       -13.1625
  21   2.0000      -0.438306       -11.9269
  22   2.0000      -0.398880       -10.8541
  23   2.0000      -0.387875       -10.5546
  24   2.0000      -0.332220        -9.0402
  25   0.0000       0.025637         0.6976
  26   0.0000       0.029363         0.7990
  27   0.0000       0.030646         0.8339
  28   0.0000       0.033297         0.9061
  29   0.0000       0.044956         1.2233

MULLIKEN ATOMIC CHARGES
-----------------------
   0 C :   -0.455926
   1 C :   -0.455889
   2 C :   -0.272463
   3 C :   -0.455898
   4 C :   -0.455883
   5 C :   -0.272464
   6 C :   -0.621943
   7 H :    0.465553
   8 H :    0.465580
   9 H :    0.369088
  10 H :    0.465556
  11 H :    0.465565
  12 H :    0.369086
  13 H :    0.195016
  14 H :    0.195021
Sum of atomic charges:   -0.0000000

LOEWDIN ATOMIC CHARGES
----------------------
   0 C :    0.247010
   1 C :    0.247010
   2 C :    0.196098
   3 C :    0.247010
   4 C :    0.247010
   5 C :    0.196098
   6 C :    0.559165
   7 H :   -0.235995
   8 H :   -0.235995
   9 H :   -0.241098
  10 H :   -0.235995
  11 H :   -0.235995
  12 H :   -0.241098
  13 H :   -0.256612
  14 H :   -0.256612

  Mayer bond orders larger than 0.100000
B(  0-C ,  1-C ) :   0.9041 B(  0-C ,  2-C ) :   0.8510 B(  0-C ,  3-C ) :   0.7936
B(  0-C ,  7-H ) :   0.8329 B(  1-C ,  2-C ) :   0.8510 B(  1-C ,  4-C ) :   0.7936
B(  1-C ,  8-H ) :   0.8328 B(  2-C ,  5-C ) :  -0.1681 B(  2-C ,  6-C ) :   0.8644
B(  2-C ,  9-H ) :   0.8668 B(  3-C ,  4-C ) :   0.9041 B(  3-C ,  5-C ) :   0.8510
B(  3-C , 10-H ) :   0.8329 B(  4-C ,  5-C ) :   0.8510 B(  4-C , 11-H ) :   0.8329
B(  5-C ,  6-C ) :   0.8644 B(  5-C , 12-H ) :   0.8668 B(  6-C , 13-H ) :   0.9875
B(  6-C , 14-H ) :   0.9875

MP2 TOTAL ENERGY:     -270.943224301 Eh
FINAL SINGLE POINT ENERGY      -270.943224300512

DIPOLE MOMENT
-------------
                                X             Y             Z
Electronic contribution:      0.00000      -0.00000      -1.21501
Nuclear contribution   :      0.00000       0.00000       1.20253
                        -----------------------------------------
Total Dipole Moment    :      0.00000      -0.00000      -0.01248
                        -----------------------------------------
Magnitude (a.u.)       :      0.01248
Magnitude (Debye)      :      0.03172

Rotational constants in cm-1:     0.147679     0.145680     0.108830
Rotational constants in MHz :  4427.320002  4367.363527  3262.646512

                             ****ORCA TERMINATED NORMALLY****
TOTAL RUN TIME: 0 days 0 hours 42 minutes 15 seconds 746 msec
