                         Program Version 5.0.4 -  RELEASE  -
|  1> !ri-mp2 aug-cc-pvqz aug-cc-pvqz/c tightscf
|  2> %pal nprocs 16 end
|  3>
|  4> * xyz 0 1
|  5> C      0.000000    0.703651        0.000000
|  6> N     -1.128178    1.465945        0.000000
|  7> C      1.258493    1.350388        0.000000
|  8> C     -2.286918    0.851830        0.000000
|  9> C     -2.438097   -0.553100        0.000000
| 10> C     -1.316052   -1.335881        0.000000
| 11> C     -0.043208   -0.722482        0.000000
| 12> C      2.416244    0.616895        0.000000
| 13> C      2.373746   -0.794928        0.000000
| 14> C      1.170348   -1.450387        0.000000
| 15> H     -3.428480   -0.986603        0.000000
| 16> H     -3.168814    1.484250        0.000000
| 17> H      3.297826   -1.356965        0.000000
| 18> H      3.374149    1.119515        0.000000
| 19> H     -1.387749   -2.416474        0.000000
| 20> H      1.132723   -2.532563        0.000000
| 21> H      1.270259    2.431307        0.000000
| 22> *
| 23>
| 24>                          ****END OF INPUT****

CARTESIAN COORDINATES (ANGSTROEM)
---------------------------------
  C      0.000000    0.703651    0.000000
  N     -1.128178    1.465945    0.000000
  C      1.258493    1.350388    0.000000
  C     -2.286918    0.851830    0.000000
  C     -2.438097   -0.553100    0.000000
  C     -1.316052   -1.335881    0.000000
  C     -0.043208   -0.722482    0.000000
  C      2.416244    0.616895    0.000000
  C      2.373746   -0.794928    0.000000
  C      1.170348   -1.450387    0.000000
  H     -3.428480   -0.986603    0.000000
  H     -3.168814    1.484250    0.000000
  H      3.297826   -1.356965    0.000000
  H      3.374149    1.119515    0.000000
  H     -1.387749   -2.416474    0.000000
  H      1.132723   -2.532563    0.000000
  H      1.270259    2.431307    0.000000

 Total Charge           Charge          ....    0
 Multiplicity           Mult            ....    1
 Number of Electrons    NEL             ....   68
 Basis Dimension        Dim             .... 1122

ORBITAL ENERGIES
----------------

  NO   OCC          E(Eh)            E(eV)
   0   2.0000     -15.561673      -423.4547
   1   2.0000     -11.277396      -306.8735
   2   2.0000     -11.273984      -306.7807
   3   2.0000     -11.259695      -306.3919
   4   2.0000     -11.248286      -306.0814
   5   2.0000     -11.243643      -305.9551
   6   2.0000     -11.241522      -305.8974
   7   2.0000     -11.241297      -305.8912
   8   2.0000     -11.238799      -305.8233
   9   2.0000     -11.233122      -305.6688
  10   2.0000      -1.262906       -34.3654
  11   2.0000      -1.147625       -31.2285
  12   2.0000      -1.095722       -29.8161
  13   2.0000      -1.022980       -27.8367
  14   2.0000      -1.011413       -27.5220
  15   2.0000      -0.880494       -23.9594
  16   2.0000      -0.859828       -23.3971
  17   2.0000      -0.824314       -22.4307
  18   2.0000      -0.729225       -19.8432
  19   2.0000      -0.708206       -19.2713
  20   2.0000      -0.697244       -18.9730
  21   2.0000      -0.631173       -17.1751
  22   2.0000      -0.617714       -16.8089
  23   2.0000      -0.600702       -16.3459
  24   2.0000      -0.581184       -15.8148
  25   2.0000      -0.573962       -15.6183
  26   2.0000      -0.561890       -15.2898
  27   2.0000      -0.516219       -14.0470
  28   2.0000      -0.504860       -13.7379
  29   2.0000      -0.469627       -12.7792
  30   2.0000      -0.415264       -11.2999
  31   2.0000      -0.414409       -11.2766
  32   2.0000      -0.327532        -8.9126
  33   2.0000      -0.312102        -8.4927
  34   0.0000       0.022665         0.6167
  35   0.0000       0.025463         0.6929
  36   0.0000       0.029738         0.8092
  37   0.0000       0.038074         1.0360
  38   0.0000       0.040202         1.0940

MULLIKEN ATOMIC CHARGES
-----------------------
   0 C :    0.782675
   1 N :   -0.733864
   2 C :   -0.678830
   3 C :   -0.380752
   4 C :   -0.334768
   5 C :   -0.311502
   6 C :    0.640775
   7 C :   -0.426043
   8 C :   -0.464916
   9 C :   -0.272824
  10 H :    0.325329
  11 H :    0.473219
  12 H :    0.265334
  13 H :    0.258705
  14 H :    0.261588
  15 H :    0.220040
  16 H :    0.375834
Sum of atomic charges:    0.0000000

LOEWDIN ATOMIC CHARGES
----------------------
   0 C :   -0.373915
   1 N :    0.610803
   2 C :    0.336379
   3 C :    0.086610
   4 C :    0.354770
   5 C :    0.351666
   6 C :   -0.125767
   7 C :    0.348010
   8 C :    0.349484
   9 C :    0.350135
  10 H :   -0.329068
  11 H :   -0.351579
  12 H :   -0.325756
  13 H :   -0.323700
  14 H :   -0.309194
  15 H :   -0.320536
  16 H :   -0.328340

  Mayer bond orders larger than 0.100000
B(  0-C ,  1-N ) :   0.4238 B(  0-C ,  2-C ) :   0.8476 B(  0-C ,  3-C ) :   0.1010
B(  0-C ,  5-C ) :  -0.1817 B(  0-C ,  6-C ) :   1.2306 B(  0-C ,  7-C ) :  -0.3399
B(  0-C ,  9-C ) :  -0.1102 B(  0-C , 16-H ) :  -0.1090 B(  1-N ,  2-C ) :   0.1397
B(  1-N ,  3-C ) :   1.4896 B(  2-C ,  6-C ) :  -0.1688 B(  2-C ,  7-C ) :   1.4728
B(  2-C ,  9-C ) :   0.1811 B(  2-C , 13-H ) :  -0.1399 B(  2-C , 16-H ) :   0.8362
B(  3-C ,  4-C ) :   1.1366 B(  3-C , 11-H ) :   0.8733 B(  4-C ,  5-C ) :   1.3479
B(  4-C ,  6-C ) :  -0.2921 B(  4-C , 10-H ) :   1.0042 B(  4-C , 14-H ) :  -0.1173
B(  5-C ,  6-C ) :   0.6936 B(  5-C ,  9-C ) :  -0.1470 B(  5-C , 10-H ) :  -0.1204
B(  5-C , 14-H ) :   1.0451 B(  6-C ,  8-C ) :  -0.2975 B(  6-C ,  9-C ) :   0.6192
B(  6-C , 14-H ) :  -0.1146 B(  6-C , 15-H ) :  -0.1607 B(  7-C ,  8-C ) :   1.1182
B(  7-C , 13-H ) :   1.1183 B(  8-C ,  9-C ) :   1.3892 B(  8-C , 12-H ) :   1.1137
B(  9-C , 12-H ) :  -0.1556 B(  9-C , 15-H ) :   1.0752

MP2 TOTAL ENERGY:     -401.214148908 Eh
FINAL SINGLE POINT ENERGY      -401.214148908146

DIPOLE MOMENT
-------------
                                X             Y             Z
Electronic contribution:     -1.09961       1.37003      -0.00000
Nuclear contribution   :      1.07110      -2.22363       0.00000
                        -----------------------------------------
Total Dipole Moment    :     -0.02850      -0.85360      -0.00000
                        -----------------------------------------
Magnitude (a.u.)       :      0.85408
Magnitude (Debye)      :      2.17089

Rotational constants in cm-1:     0.105723     0.042568     0.030349
Rotational constants in MHz :  3169.495081  1276.153969   909.825243

                             ****ORCA TERMINATED NORMALLY****
TOTAL RUN TIME: 0 days 1 hours 2 minutes 20 seconds 294 msec
