                         Program Version 5.0.4 -  RELEASE  -
|  1> !ri-mp2 aug-cc-pvqz aug-cc-pvqz/c tightscf
|  2> %pal nprocs 16 end
|  3> %maxcore 3800
|  4>
|  5> * xyz 0 1
|  6> C      0.000000    0.706926    2.368951
|  7> C      0.000000   -0.706926    2.368951
|  8> C      0.000000    1.406054    1.190448
|  9> C      0.000000   -1.406054    1.190448
| 10> C      0.000000    0.708403   -2.312800
| 11> C      0.000000   -0.708403   -2.312800
| 12> C      0.000000    0.712878   -0.041323
| 13> C      0.000000   -0.712878   -0.041323
| 14> N      0.000000    1.410993   -1.208183
| 15> N      0.000000   -1.410993   -1.208183
| 16> H      0.000000    1.237156    3.311638
| 17> H      0.000000   -1.237156    3.311638
| 18> H      0.000000    2.486877    1.166492
| 19> H      0.000000   -2.486877    1.166492
| 20> H      0.000000    1.250205   -3.252504
| 21> H      0.000000   -1.250205   -3.252504
| 22> *
| 23>
| 24>                          ****END OF INPUT****

CARTESIAN COORDINATES (ANGSTROEM)
---------------------------------
  C      0.000000    0.706926    2.368951
  C      0.000000   -0.706926    2.368951
  C      0.000000    1.406054    1.190448
  C      0.000000   -1.406054    1.190448
  C      0.000000    0.708403   -2.312800
  C      0.000000   -0.708403   -2.312800
  C      0.000000    0.712878   -0.041323
  C      0.000000   -0.712878   -0.041323
  N      0.000000    1.410993   -1.208183
  N      0.000000   -1.410993   -1.208183
  H      0.000000    1.237156    3.311638
  H      0.000000   -1.237156    3.311638
  H      0.000000    2.486877    1.166492
  H      0.000000   -2.486877    1.166492
  H      0.000000    1.250205   -3.252504
  H      0.000000   -1.250205   -3.252504

 Total Charge           Charge          ....    0
 Multiplicity           Mult            ....    1
 Number of Electrons    NEL             ....   68
 Basis Dimension        Dim             .... 1076

ORBITAL ENERGIES
----------------

  NO   OCC          E(Eh)            E(eV)
   0   2.0000     -15.589032      -424.1991
   1   2.0000     -15.589019      -424.1988
   2   2.0000     -11.287594      -307.1510
   3   2.0000     -11.286521      -307.1218
   4   2.0000     -11.281787      -306.9930
   5   2.0000     -11.280728      -306.9642
   6   2.0000     -11.247568      -306.0619
   7   2.0000     -11.246515      -306.0332
   8   2.0000     -11.242777      -305.9315
   9   2.0000     -11.242760      -305.9310
  10   2.0000      -1.309881       -35.6437
  11   2.0000      -1.225084       -33.3362
  12   2.0000      -1.152203       -31.3530
  13   2.0000      -1.037079       -28.2204
  14   2.0000      -1.027992       -27.9731
  15   2.0000      -0.915156       -24.9027
  16   2.0000      -0.883370       -24.0377
  17   2.0000      -0.834884       -22.7184
  18   2.0000      -0.745259       -20.2795
  19   2.0000      -0.734302       -19.9814
  20   2.0000      -0.705334       -19.1931
  21   2.0000      -0.648799       -17.6547
  22   2.0000      -0.623542       -16.9674
  23   2.0000      -0.609596       -16.5879
  24   2.0000      -0.600106       -16.3297
  25   2.0000      -0.588904       -16.0249
  26   2.0000      -0.525227       -14.2922
  27   2.0000      -0.524805       -14.2807
  28   2.0000      -0.497287       -13.5319
  29   2.0000      -0.479977       -13.0608
  30   2.0000      -0.458443       -12.4749
  31   2.0000      -0.407569       -11.0905
  32   2.0000      -0.334696        -9.1075
  33   2.0000      -0.328092        -8.9278
  34   0.0000       0.024592         0.6692
  35   0.0000       0.025238         0.6868
  36   0.0000       0.029895         0.8135
  37   0.0000       0.038574         1.0497
  38   0.0000       0.041207         1.1213

MULLIKEN ATOMIC CHARGES
-----------------------
   0 C :   -0.443173
   1 C :   -0.443151
   2 C :   -0.595879
   3 C :   -0.595922
   4 C :   -0.311430
   5 C :   -0.311616
   6 C :    0.954716
   7 C :    0.955138
   8 N :   -0.707139
   9 N :   -0.707156
  10 H :    0.270080
  11 H :    0.270145
  12 H :    0.347548
  13 H :    0.347602
  14 H :    0.485144
  15 H :    0.485093
Sum of atomic charges:   -0.0000000

LOEWDIN ATOMIC CHARGES
----------------------
   0 C :    0.347928
   1 C :    0.347928
   2 C :    0.334907
   3 C :    0.334907
   4 C :    0.092397
   5 C :    0.092397
   6 C :   -0.385829
   7 C :   -0.385829
   8 N :    0.613654
   9 N :    0.613655
  10 H :   -0.324113
  11 H :   -0.324113
  12 H :   -0.326177
  13 H :   -0.326177
  14 H :   -0.352767
  15 H :   -0.352767

  Mayer bond orders larger than 0.100000
B(  0-C ,  1-C ) :   1.1367 B(  0-C ,  2-C ) :   1.5189 B(  0-C ,  3-C ) :   0.1166
B(  0-C ,  6-C ) :  -0.4002 B(  0-C , 10-H ) :   1.1062 B(  1-C ,  2-C ) :   0.1166
B(  1-C ,  3-C ) :   1.5187 B(  1-C ,  7-C ) :  -0.4002 B(  1-C , 11-H ) :   1.1062
B(  2-C ,  3-C ) :   0.1802 B(  2-C ,  6-C ) :   0.7014 B(  2-C ,  7-C ) :  -0.1261
B(  2-C ,  8-N ) :   0.1855 B(  2-C , 10-H ) :  -0.1401 B(  2-C , 12-H ) :   0.8824
B(  3-C ,  6-C ) :  -0.1259 B(  3-C ,  7-C ) :   0.7013 B(  3-C ,  9-N ) :   0.1855
B(  3-C , 11-H ) :  -0.1401 B(  3-C , 13-H ) :   0.8824 B(  4-C ,  5-C ) :   1.0423
B(  4-C ,  8-N ) :   1.4544 B(  4-C , 14-H ) :   0.8599 B(  5-C ,  9-N ) :   1.4546
B(  5-C , 15-H ) :   0.8600 B(  6-C ,  7-C ) :   1.4344 B(  6-C ,  8-N ) :   0.2474
B(  6-C , 12-H ) :  -0.1047 B(  7-C ,  9-N ) :   0.2471 B(  7-C , 13-H ) :  -0.1047
B(  8-N , 14-H ) :  -0.1046 B(  9-N , 15-H ) :  -0.1046

MP2 TOTAL ENERGY:     -417.248847117 Eh
FINAL SINGLE POINT ENERGY      -417.248847117445

DIPOLE MOMENT
-------------
                                X             Y             Z
Electronic contribution:      0.00000      -0.00000      -2.32404
Nuclear contribution   :      0.00000       0.00000       2.39136
                        -----------------------------------------
Total Dipole Moment    :      0.00000      -0.00000       0.06732
                        -----------------------------------------
Magnitude (a.u.)       :      0.06732
Magnitude (Debye)      :      0.17112

Rotational constants in cm-1:     0.106534     0.043853     0.031065
Rotational constants in MHz :  3193.817508  1314.670975   931.314163

                             ****ORCA TERMINATED NORMALLY****
TOTAL RUN TIME: 0 days 0 hours 59 minutes 29 seconds 579 msec
