                         Program Version 5.0.4 -  RELEASE  -
|  1> !ri-mp2 aug-cc-pvqz aug-cc-pvqz/c tightscf
|  2> %pal nprocs 16 end
|  3> %maxcore 3800
|  4>
|  5> * xyz 0 1
|  6> C      2.686397   -0.273422        0.000000
|  7> C     -1.985691   -1.496841        0.000000
|  8> C      1.738404   -1.247442        0.000000
|  9> C     -2.345922   -0.171174        0.000000
| 10> C      2.286782    1.088692        0.000000
| 11> C     -0.649161   -1.894413        0.000000
| 12> C      0.967175    1.392721        0.000000
| 13> C      0.349704   -0.934931        0.000000
| 14> C     -1.385928    0.877093        0.000000
| 15> N      0.000000    0.414424        0.000000
| 16> O     -1.598324    2.082096        0.000000
| 17> H      3.736243   -0.531122        0.000000
| 18> H     -2.760364   -2.253013        0.000000
| 19> H      2.008743   -2.293604        0.000000
| 20> H     -3.380584    0.135967        0.000000
| 21> H      3.014749    1.885444        0.000000
| 22> H     -0.368672   -2.936075        0.000000
| 23> H      0.565928    2.392966        0.000000
| 24> *
| 25>
| 26>                          ****END OF INPUT****

CARTESIAN COORDINATES (ANGSTROEM)
---------------------------------
  C      2.686397   -0.273422    0.000000
  C     -1.985691   -1.496841    0.000000
  C      1.738404   -1.247442    0.000000
  C     -2.345922   -0.171174    0.000000
  C      2.286782    1.088692    0.000000
  C     -0.649161   -1.894413    0.000000
  C      0.967175    1.392721    0.000000
  C      0.349704   -0.934931    0.000000
  C     -1.385928    0.877093    0.000000
  N      0.000000    0.414424    0.000000
  O     -1.598324    2.082096    0.000000
  H      3.736243   -0.531122    0.000000
  H     -2.760364   -2.253013    0.000000
  H      2.008743   -2.293604    0.000000
  H     -3.380584    0.135967    0.000000
  H      3.014749    1.885444    0.000000
  H     -0.368672   -2.936075    0.000000
  H      0.565928    2.392966    0.000000

 Total Charge           Charge          ....    0
 Multiplicity           Mult            ....    1
 Number of Electrons    NEL             ....   76
 Basis Dimension        Dim             .... 1202

ORBITAL ENERGIES
----------------

  NO   OCC          E(Eh)            E(eV)
   0   2.0000     -20.510165      -558.1100
   1   2.0000     -15.650836      -425.8809
   2   2.0000     -11.353691      -308.9496
   3   2.0000     -11.320821      -308.0552
   4   2.0000     -11.299186      -307.4665
   5   2.0000     -11.275252      -306.8152
   6   2.0000     -11.266565      -306.5788
   7   2.0000     -11.258743      -306.3660
   8   2.0000     -11.250549      -306.1430
   9   2.0000     -11.227634      -305.5195
  10   2.0000     -11.222986      -305.3930
  11   2.0000      -1.385987       -37.7146
  12   2.0000      -1.306663       -35.5561
  13   2.0000      -1.137043       -30.9405
  14   2.0000      -1.122398       -30.5420
  15   2.0000      -1.056561       -28.7505
  16   2.0000      -0.993598       -27.0372
  17   2.0000      -0.895568       -24.3697
  18   2.0000      -0.888024       -24.1644
  19   2.0000      -0.851061       -23.1586
  20   2.0000      -0.748861       -20.3775
  21   2.0000      -0.723084       -19.6761
  22   2.0000      -0.713636       -19.4190
  23   2.0000      -0.670586       -18.2476
  24   2.0000      -0.644831       -17.5467
  25   2.0000      -0.632568       -17.2131
  26   2.0000      -0.628711       -17.1081
  27   2.0000      -0.620638       -16.8884
  28   2.0000      -0.588339       -16.0095
  29   2.0000      -0.560914       -15.2633
  30   2.0000      -0.538028       -14.6405
  31   2.0000      -0.524810       -14.2808
  32   2.0000      -0.523155       -14.2358
  33   2.0000      -0.461777       -12.5656
  34   2.0000      -0.429881       -11.6977
  35   2.0000      -0.429480       -11.6867
  36   2.0000      -0.369393       -10.0517
  37   2.0000      -0.272607        -7.4180
  38   0.0000       0.018148         0.4938
  39   0.0000       0.023516         0.6399
  40   0.0000       0.030147         0.8203
  41   0.0000       0.038042         1.0352
  42   0.0000       0.042244         1.1495

MULLIKEN ATOMIC CHARGES
-----------------------
   0 C :   -0.215298
   1 C :   -0.254438
   2 C :   -0.221355
   3 C :   -0.681207
   4 C :   -0.229677
   5 C :   -0.350104
   6 C :   -0.530889
   7 C :    0.828984
   8 C :    0.963728
   9 N :   -0.195166
  10 O :   -0.883556
  11 H :    0.305467
  12 H :    0.273836
  13 H :    0.177130
  14 H :    0.218513
  15 H :    0.275288
  16 H :    0.167753
  17 H :    0.350990
Sum of atomic charges:    0.0000000

LOEWDIN ATOMIC CHARGES
----------------------
   0 C :    0.365954
   1 C :    0.330051
   2 C :    0.368080
   3 C :    0.319444
   4 C :    0.377157
   5 C :    0.345266
   6 C :    0.205193
   7 C :   -0.244200
   8 C :   -0.828432
   9 N :    0.423143
  10 O :    0.699966
  11 H :   -0.309533
  12 H :   -0.311475
  13 H :   -0.325036
  14 H :   -0.354622
  15 H :   -0.329744
  16 H :   -0.342216
  17 H :   -0.388999

  Mayer bond orders larger than 0.100000
B(  0-C ,  2-C ) :   1.2613 B(  0-C ,  4-C ) :   0.9967 B(  0-C ,  7-C ) :  -0.3148
B(  0-C , 11-H ) :   1.0862 B(  1-C ,  3-C ) :   1.4353 B(  1-C ,  5-C ) :   1.0674
B(  1-C ,  7-C ) :  -0.4170 B(  1-C ,  8-C ) :  -0.1789 B(  1-C , 12-H ) :   1.1196
B(  2-C ,  5-C ) :  -0.2179 B(  2-C ,  7-C ) :   0.8565 B(  2-C , 11-H ) :  -0.1874
B(  2-C , 13-H ) :   1.1165 B(  3-C ,  8-C ) :   1.2971 B(  3-C , 10-O ) :   0.3340
B(  3-C , 12-H ) :  -0.1150 B(  3-C , 14-H ) :   1.0325 B(  4-C ,  6-C ) :   1.3744
B(  4-C , 15-H ) :   1.0682 B(  5-C ,  7-C ) :   1.0552 B(  5-C , 12-H ) :  -0.2305
B(  5-C , 16-H ) :   1.1249 B(  6-C ,  8-C ) :   0.1976 B(  6-C ,  9-N ) :   1.0409
B(  6-C , 15-H ) :  -0.1585 B(  6-C , 17-H ) :   0.9334 B(  7-C ,  9-N ) :   0.7929
B(  7-C , 13-H ) :  -0.1306 B(  7-C , 16-H ) :  -0.1350 B(  8-C ,  9-N ) :   1.0031
B(  8-C , 10-O ) :   0.8066 B(  9-N , 10-O ) :   0.1400

MP2 TOTAL ENERGY:     -476.355711749 Eh
FINAL SINGLE POINT ENERGY      -476.355711749440

DIPOLE MOMENT
-------------
                                X             Y             Z
Electronic contribution:     -1.39853       2.15889       0.00000
Nuclear contribution   :      2.74418      -3.50458       0.00000
                        -----------------------------------------
Total Dipole Moment    :      1.34565      -1.34569       0.00000
                        -----------------------------------------
Magnitude (a.u.)       :      1.90306
Magnitude (Debye)      :      4.83720

Rotational constants in cm-1:     0.068071     0.039397     0.024954
Rotational constants in MHz :  2040.724298  1181.100372   748.116510

                             ****ORCA TERMINATED NORMALLY****
TOTAL RUN TIME: 0 days 1 hours 33 minutes 52 seconds 472 msec
