                         Program Version 5.0.4 -  RELEASE  -
|  1> !ri-mp2 aug-cc-pvqz aug-cc-pvqz/c tightscf
|  2> %pal nprocs 16 end
|  3>
|  4> * xyz 0 1
|  5> C      0.039427   -0.709559        0.000000
|  6> N      1.218194   -1.390076        0.000000
|  7> C     -1.186285   -1.412578        0.000000
|  8> C      2.313681   -0.674653        0.000000
|  9> N      2.413160    0.680885        0.000000
| 10> C      1.283002    1.344715        0.000000
| 11> C      0.020191    0.710676        0.000000
| 12> C     -2.369673   -0.719355        0.000000
| 13> C     -2.387537    0.694079        0.000000
| 14> C     -1.212893    1.400081        0.000000
| 15> H      3.255001   -1.211833        0.000000
| 16> H      1.342186    2.429877        0.000000
| 17> H     -3.335479    1.214343        0.000000
| 18> H     -3.307696   -1.258260        0.000000
| 19> H     -1.215242    2.482785        0.000000
| 20> H     -1.157726   -2.493006        0.000000
| 21> *
| 22>
| 23>                          ****END OF INPUT****

CARTESIAN COORDINATES (ANGSTROEM)
---------------------------------
  C      0.039427   -0.709559    0.000000
  N      1.218194   -1.390076    0.000000
  C     -1.186285   -1.412578    0.000000
  C      2.313681   -0.674653    0.000000
  N      2.413160    0.680885    0.000000
  C      1.283002    1.344715    0.000000
  C      0.020191    0.710676    0.000000
  C     -2.369673   -0.719355    0.000000
  C     -2.387537    0.694079    0.000000
  C     -1.212893    1.400081    0.000000
  H      3.255001   -1.211833    0.000000
  H      1.342186    2.429877    0.000000
  H     -3.335479    1.214343    0.000000
  H     -3.307696   -1.258260    0.000000
  H     -1.215242    2.482785    0.000000
  H     -1.157726   -2.493006    0.000000

 Total Charge           Charge          ....    0
 Multiplicity           Mult            ....    1
 Number of Electrons    NEL             ....   68
 Basis Dimension        Dim             .... 1076

ORBITAL ENERGIES
----------------

  NO   OCC          E(Eh)            E(eV)
   0   2.0000     -15.571383      -423.7189
   1   2.0000     -15.566413      -423.5836
   2   2.0000     -11.310466      -307.7734
   3   2.0000     -11.304107      -307.6004
   4   2.0000     -11.291962      -307.2699
   5   2.0000     -11.259796      -306.3946
   6   2.0000     -11.257985      -306.3453
   7   2.0000     -11.255176      -306.2689
   8   2.0000     -11.249351      -306.1104
   9   2.0000     -11.243701      -305.9567
  10   2.0000      -1.312111       -35.7044
  11   2.0000      -1.202124       -32.7115
  12   2.0000      -1.161584       -31.6083
  13   2.0000      -1.057662       -28.7804
  14   2.0000      -1.030808       -28.0497
  15   2.0000      -0.911415       -24.8009
  16   2.0000      -0.885738       -24.1022
  17   2.0000      -0.842414       -22.9232
  18   2.0000      -0.747894       -20.3512
  19   2.0000      -0.735776       -20.0215
  20   2.0000      -0.704346       -19.1662
  21   2.0000      -0.647257       -17.6127
  22   2.0000      -0.631401       -17.1813
  23   2.0000      -0.612460       -16.6659
  24   2.0000      -0.589708       -16.0468
  25   2.0000      -0.588338       -16.0095
  26   2.0000      -0.551497       -15.0070
  27   2.0000      -0.526364       -14.3231
  28   2.0000      -0.494480       -13.4555
  29   2.0000      -0.469300       -12.7703
  30   2.0000      -0.441681       -12.0187
  31   2.0000      -0.411299       -11.1920
  32   2.0000      -0.357166        -9.7190
  33   2.0000      -0.326507        -8.8847
  34   0.0000       0.020617         0.5610
  35   0.0000       0.026618         0.7243
  36   0.0000       0.030902         0.8409
  37   0.0000       0.038617         1.0508
  38   0.0000       0.042947         1.1686

MULLIKEN ATOMIC CHARGES
-----------------------
   0 C :    0.916491
   1 N :   -0.689714
   2 C :   -0.712499
   3 C :   -0.289691
   4 N :   -0.689622
   5 C :   -0.017573
   6 C :    0.334560
   7 C :   -0.385094
   8 C :   -0.451190
   9 C :   -0.252439
  10 H :    0.609587
  11 H :    0.458867
  12 H :    0.252907
  13 H :    0.264171
  14 H :    0.288688
  15 H :    0.362552
Sum of atomic charges:   -0.0000000

LOEWDIN ATOMIC CHARGES
----------------------
   0 C :   -0.392840
   1 N :    0.602847
   2 C :    0.346979
   3 C :   -0.167999
   4 N :    0.601922
   5 C :    0.086592
   6 C :   -0.136310
   7 C :    0.353788
   8 C :    0.355472
   9 C :    0.351886
  10 H :   -0.384410
  11 H :   -0.333564
  12 H :   -0.325293
  13 H :   -0.318609
  14 H :   -0.315291
  15 H :   -0.325170

  Mayer bond orders larger than 0.100000
B(  0-C ,  1-N ) :   0.3531 B(  0-C ,  2-C ) :   0.8625 B(  0-C ,  4-N ) :   0.1823
B(  0-C ,  5-C ) :  -0.3326 B(  0-C ,  6-C ) :   1.2459 B(  0-C ,  7-C ) :  -0.3416
B(  1-N ,  3-C ) :   1.6219 B(  2-C ,  6-C ) :  -0.1725 B(  2-C ,  7-C ) :   1.4843
B(  2-C ,  8-C ) :   0.1046 B(  2-C ,  9-C ) :   0.1898 B(  2-C , 13-H ) :  -0.1359
B(  2-C , 15-H ) :   0.8536 B(  3-C ,  4-N ) :   1.2862 B(  3-C , 10-H ) :   0.6783
B(  4-N ,  5-C ) :   1.1753 B(  4-N , 11-H ) :  -0.1254 B(  5-C ,  6-C ) :   0.8853
B(  5-C ,  9-C ) :  -0.1566 B(  5-C , 11-H ) :   0.9078 B(  6-C ,  8-C ) :  -0.3154
B(  6-C ,  9-C ) :   0.6802 B(  6-C , 11-H ) :  -0.1472 B(  6-C , 14-H ) :  -0.1326
B(  7-C ,  8-C ) :   1.1096 B(  7-C , 13-H ) :   1.1078 B(  8-C ,  9-C ) :   1.4094
B(  8-C , 12-H ) :   1.1269 B(  9-C , 12-H ) :  -0.1511 B(  9-C , 14-H ) :   0.9927

MP2 TOTAL ENERGY:     -417.253120807 Eh
FINAL SINGLE POINT ENERGY      -417.253120806946

DIPOLE MOMENT
-------------
                                X             Y             Z
Electronic contribution:      3.28460      -0.58743       0.00000
Nuclear contribution   :     -4.31516       1.13799       0.00000
                        -----------------------------------------
Total Dipole Moment    :     -1.03056       0.55056       0.00000
                        -----------------------------------------
Magnitude (a.u.)       :      1.16841
Magnitude (Debye)      :      2.96986

Rotational constants in cm-1:     0.108513     0.042746     0.030666
Rotational constants in MHz :  3253.139386  1281.506487   919.348356

                             ****ORCA TERMINATED NORMALLY****
TOTAL RUN TIME: 0 days 0 hours 58 minutes 14 seconds 768 msec
