                         Program Version 5.0.4 -  RELEASE  -
|  1> !ri-mp2 aug-cc-pvqz aug-cc-pvqz/c tightscf
|  2> %pal nprocs 16 end
|  3>
|  4> * xyz 0 1
|  5> Cl    -0.963836    1.196188   -1.568576
|  6> Cl     0.963836   -1.196188    1.568576
|  7> C     -1.877280   -0.439478    0.405978
|  8> C      1.877280    0.439478   -0.405978
|  9> C     -0.655802    0.388883    0.056013
| 10> C      0.655802   -0.388883   -0.056013
| 11> H     -2.768750    0.184001    0.395510
| 12> H      2.768750   -0.184001   -0.395510
| 13> H      1.763930    0.869887   -1.399295
| 14> H     -1.763930   -0.869887    1.399295
| 15> H     -2.014805   -1.248691   -0.311234
| 16> H      2.014805    1.248691    0.311234
| 17> H      0.528989   -1.216949   -0.749644
| 18> H     -0.528989    1.216949    0.749644
| 19> *
| 20>
| 21>                          ****END OF INPUT****

CARTESIAN COORDINATES (ANGSTROEM)
---------------------------------
  Cl    -0.963836    1.196188   -1.568576
  Cl     0.963836   -1.196188    1.568576
  C     -1.877280   -0.439478    0.405978
  C      1.877280    0.439478   -0.405978
  C     -0.655802    0.388883    0.056013
  C      0.655802   -0.388883   -0.056013
  H     -2.768750    0.184001    0.395510
  H      2.768750   -0.184001   -0.395510
  H      1.763930    0.869887   -1.399295
  H     -1.763930   -0.869887    1.399295
  H     -2.014805   -1.248691   -0.311234
  H      2.014805    1.248691    0.311234
  H      0.528989   -1.216949   -0.749644
  H     -0.528989    1.216949    0.749644

 Total Charge           Charge          ....    0
 Multiplicity           Mult            ....    1
 Number of Electrons    NEL             ....   66
 Basis Dimension        Dim             ....  856

ORBITAL ENERGIES
----------------

  NO   OCC          E(Eh)            E(eV)
   0   2.0000    -104.826879     -2852.4844
   1   2.0000    -104.826879     -2852.4844
   2   2.0000     -11.317721      -307.9708
   3   2.0000     -11.317099      -307.9539
   4   2.0000     -11.234376      -305.7029
   5   2.0000     -11.234373      -305.7028
   6   2.0000     -10.552566      -287.1499
   7   2.0000     -10.552565      -287.1499
   8   2.0000      -8.019500      -218.2217
   9   2.0000      -8.019500      -218.2217
  10   2.0000      -8.017980      -218.1803
  11   2.0000      -8.017980      -218.1803
  12   2.0000      -8.017942      -218.1793
  13   2.0000      -8.017942      -218.1793
  14   2.0000      -1.179008       -32.0824
  15   2.0000      -1.112768       -30.2800
  16   2.0000      -1.010812       -27.5056
  17   2.0000      -1.006213       -27.3804
  18   2.0000      -0.887261       -24.1436
  19   2.0000      -0.800641       -21.7866
  20   2.0000      -0.652390       -17.7524
  21   2.0000      -0.642828       -17.4922
  22   2.0000      -0.610087       -16.6013
  23   2.0000      -0.607856       -16.5406
  24   2.0000      -0.554847       -15.0982
  25   2.0000      -0.536757       -14.6059
  26   2.0000      -0.527065       -14.3422
  27   2.0000      -0.519418       -14.1341
  28   2.0000      -0.488885       -13.3032
  29   2.0000      -0.458865       -12.4863
  30   2.0000      -0.443440       -12.0666
  31   2.0000      -0.440417       -11.9844
  32   2.0000      -0.430593       -11.7170
  33   0.0000       0.028551         0.7769
  34   0.0000       0.030923         0.8415
  35   0.0000       0.033165         0.9025
  36   0.0000       0.041809         1.1377
  37   0.0000       0.048623         1.3231

MULLIKEN ATOMIC CHARGES
-----------------------
   0 Cl:   -0.491008
   1 Cl:   -0.491008
   2 C :   -0.854941
   3 C :   -0.854941
   4 C :    0.203705
   5 C :    0.203705
   6 H :    0.290090
   7 H :    0.290089
   8 H :    0.286517
   9 H :    0.286517
  10 H :    0.231175
  11 H :    0.231175
  12 H :    0.334462
  13 H :    0.334462
Sum of atomic charges:    0.0000000

LOEWDIN ATOMIC CHARGES
----------------------
   0 Cl:    1.188989
   1 Cl:    1.188989
   2 C :    0.770591
   3 C :    0.770591
   4 C :   -0.597150
   5 C :   -0.597150
   6 H :   -0.312007
   7 H :   -0.312007
   8 H :   -0.339991
   9 H :   -0.339991
  10 H :   -0.304650
  11 H :   -0.304650
  12 H :   -0.405782
  13 H :   -0.405782

  Mayer bond orders larger than 0.100000
B(  0-Cl,  4-C ) :   0.5024 B(  1-Cl,  5-C ) :   0.5024 B(  2-C ,  4-C ) :   0.7558
B(  2-C ,  6-H ) :   0.9952 B(  2-C ,  9-H ) :   0.9251 B(  2-C , 10-H ) :   0.9696
B(  3-C ,  5-C ) :   0.7558 B(  3-C ,  7-H ) :   0.9952 B(  3-C ,  8-H ) :   0.9251
B(  3-C , 11-H ) :   0.9696 B(  4-C ,  5-C ) :   0.8315 B(  4-C , 13-H ) :   0.8322
B(  5-C , 12-H ) :   0.8322

MP2 TOTAL ENERGY:    -1076.424407487 Eh
FINAL SINGLE POINT ENERGY     -1076.424407487106

DIPOLE MOMENT
-------------
                                X             Y             Z
Electronic contribution:      0.00000       0.00000       0.00000
Nuclear contribution   :      0.00000       0.00000       0.00000
                        -----------------------------------------
Total Dipole Moment    :      0.00000       0.00000       0.00000
                        -----------------------------------------
Magnitude (a.u.)       :      0.00000
Magnitude (Debye)      :      0.00000

Rotational constants in cm-1:     0.122452     0.046127     0.034930
Rotational constants in MHz :  3671.007759  1382.840011  1047.178016

                             ****ORCA TERMINATED NORMALLY****
TOTAL RUN TIME: 0 days 0 hours 29 minutes 4 seconds 638 msec
