                         Program Version 5.0.4 -  RELEASE  -
|  1> !ri-mp2 aug-cc-pvqz aug-cc-pvqz/c tightscf
|  2> %pal nprocs 16 end
|  3> %maxcore 3800
|  4>
|  5> * xyz 0 1
|  6> C      2.857988   -0.186371   -0.233131
|  7> C      2.053766    0.384179   -1.214486
|  8> C      2.290498   -0.563987    0.976902
|  9> C      0.697008    0.573868   -0.984913
| 10> C      0.930680   -0.371454    1.200202
| 11> C      0.110355    0.199210    0.227134
| 12> C     -2.106231   -1.897819   -0.384502
| 13> C     -1.735472    1.906080    0.469313
| 14> C     -2.268736   -0.382193   -0.478594
| 15> C     -1.370680    0.413775    0.488686
| 16> H      3.914630   -0.333895   -0.411250
| 17> H      2.484835    0.682992   -2.161028
| 18> H      2.904128   -1.009341    1.748912
| 19> H      0.089544    1.020400   -1.761714
| 20> H      0.498685   -0.670061    2.147496
| 21> H     -2.781757   -2.406774   -1.073300
| 22> H     -1.088989   -2.207419   -0.625697
| 23> H     -2.330630   -2.254856    0.622994
| 24> H     -1.578291    2.339587   -0.519828
| 25> H     -2.785198    2.048697    0.731767
| 26> H     -1.128084    2.469271    1.178299
| 27> H     -2.072665   -0.053669   -1.503150
| 28> H     -3.308762   -0.116218   -0.270236
| 29> H     -1.572502    0.039560    1.497058
| 30> *
| 31>
| 32>                          ****END OF INPUT****

CARTESIAN COORDINATES (ANGSTROEM)
---------------------------------
  C      2.857988   -0.186371   -0.233131
  C      2.053766    0.384179   -1.214486
  C      2.290498   -0.563987    0.976902
  C      0.697008    0.573868   -0.984913
  C      0.930680   -0.371454    1.200202
  C      0.110355    0.199210    0.227134
  C     -2.106231   -1.897819   -0.384502
  C     -1.735472    1.906080    0.469313
  C     -2.268736   -0.382193   -0.478594
  C     -1.370680    0.413775    0.488686
  H      3.914630   -0.333895   -0.411250
  H      2.484835    0.682992   -2.161028
  H      2.904128   -1.009341    1.748912
  H      0.089544    1.020400   -1.761714
  H      0.498685   -0.670061    2.147496
  H     -2.781757   -2.406774   -1.073300
  H     -1.088989   -2.207419   -0.625697
  H     -2.330630   -2.254856    0.622994
  H     -1.578291    2.339587   -0.519828
  H     -2.785198    2.048697    0.731767
  H     -1.128084    2.469271    1.178299
  H     -2.072665   -0.053669   -1.503150
  H     -3.308762   -0.116218   -0.270236
  H     -1.572502    0.039560    1.497058

 Total Charge           Charge          ....    0
 Multiplicity           Mult            ....    1
 Number of Electrons    NEL             ....   74
 Basis Dimension        Dim             .... 1444

ORBITAL ENERGIES
----------------

  NO   OCC          E(Eh)            E(eV)
   0   2.0000     -11.233962      -305.6917
   1   2.0000     -11.230420      -305.5953
   2   2.0000     -11.230349      -305.5933
   3   2.0000     -11.229914      -305.5815
   4   2.0000     -11.226362      -305.4848
   5   2.0000     -11.225643      -305.4653
   6   2.0000     -11.225373      -305.4579
   7   2.0000     -11.217949      -305.2559
   8   2.0000     -11.211888      -305.0910
   9   2.0000     -11.206760      -304.9514
  10   2.0000      -1.155393       -31.4398
  11   2.0000      -1.087529       -29.5932
  12   2.0000      -1.011187       -27.5158
  13   2.0000      -1.008312       -27.4376
  14   2.0000      -0.974697       -26.5229
  15   2.0000      -0.868889       -23.6437
  16   2.0000      -0.833168       -22.6716
  17   2.0000      -0.820534       -22.3279
  18   2.0000      -0.765643       -20.8342
  19   2.0000      -0.693984       -18.8843
  20   2.0000      -0.647662       -17.6238
  21   2.0000      -0.624115       -16.9830
  22   2.0000      -0.608526       -16.5588
  23   2.0000      -0.592708       -16.1284
  24   2.0000      -0.582687       -15.8557
  25   2.0000      -0.572861       -15.5883
  26   2.0000      -0.569526       -15.4976
  27   2.0000      -0.535841       -14.5810
  28   2.0000      -0.514465       -13.9993
  29   2.0000      -0.499679       -13.5970
  30   2.0000      -0.495114       -13.4727
  31   2.0000      -0.488866       -13.3027
  32   2.0000      -0.464464       -12.6387
  33   2.0000      -0.461005       -12.5446
  34   2.0000      -0.452819       -12.3218
  35   2.0000      -0.334130        -9.0921
  36   2.0000      -0.324049        -8.8178
  37   0.0000       0.024479         0.6661
  38   0.0000       0.028017         0.7624
  39   0.0000       0.028809         0.7839
  40   0.0000       0.032208         0.8764
  41   0.0000       0.039716         1.0807

MULLIKEN ATOMIC CHARGES
-----------------------
   0 C :   -0.378395
   1 C :   -0.282877
   2 C :   -0.260586
   3 C :   -0.549455
   4 C :   -0.809934
   5 C :    0.946861
   6 C :   -0.887971
   7 C :   -1.029919
   8 C :   -0.490603
   9 C :    0.444030
  10 H :    0.330124
  11 H :    0.217255
  12 H :    0.232752
  13 H :    0.235971
  14 H :    0.194886
  15 H :    0.278617
  16 H :    0.250454
  17 H :    0.204897
  18 H :    0.201340
  19 H :    0.269141
  20 H :    0.249805
  21 H :    0.173877
  22 H :    0.227681
  23 H :    0.232050
Sum of atomic charges:   -0.0000000

LOEWDIN ATOMIC CHARGES
----------------------
   0 C :    0.338248
   1 C :    0.353529
   2 C :    0.348780
   3 C :    0.344086
   4 C :    0.355574
   5 C :   -0.086272
   6 C :    0.942539
   7 C :    0.936407
   8 C :    0.509748
   9 C :    0.088654
  10 H :   -0.326228
  11 H :   -0.320952
  12 H :   -0.322212
  13 H :   -0.319943
  14 H :   -0.314726
  15 H :   -0.277264
  16 H :   -0.284727
  17 H :   -0.276093
  18 H :   -0.283424
  19 H :   -0.273486
  20 H :   -0.265789
  21 H :   -0.280402
  22 H :   -0.273119
  23 H :   -0.312928

  Mayer bond orders larger than 0.100000
B(  0-C ,  1-C ) :   1.1045 B(  0-C ,  2-C ) :   1.1052 B(  0-C ,  4-C ) :   0.1322
B(  0-C , 10-H ) :   1.0471 B(  1-C ,  3-C ) :   1.4570 B(  1-C ,  4-C ) :   0.1680
B(  1-C ,  5-C ) :  -0.4156 B(  1-C , 11-H ) :   1.1560 B(  2-C ,  3-C ) :   0.1716
B(  2-C ,  4-C ) :   1.5153 B(  2-C ,  5-C ) :  -0.4829 B(  2-C , 12-H ) :   1.1314
B(  3-C ,  5-C ) :   0.8835 B(  3-C ,  9-C ) :  -0.1158 B(  3-C , 11-H ) :  -0.1179
B(  3-C , 13-H ) :   1.0223 B(  4-C ,  5-C ) :   0.7328 B(  4-C ,  9-C ) :  -0.2750
B(  4-C , 12-H ) :  -0.1193 B(  4-C , 14-H ) :   1.0882 B(  5-C ,  9-C ) :   0.4377
B(  6-C ,  8-C ) :   0.9133 B(  6-C , 15-H ) :   1.0051 B(  6-C , 16-H ) :   0.9158
B(  6-C , 17-H ) :   0.9770 B(  7-C ,  8-C ) :   0.1722 B(  7-C ,  9-C ) :   0.5218
B(  7-C , 18-H ) :   1.0130 B(  7-C , 19-H ) :   1.0219 B(  7-C , 20-H ) :   1.0761
B(  8-C ,  9-C ) :   0.6601 B(  8-C , 21-H ) :   0.9679 B(  8-C , 22-H ) :   0.9556
B(  9-C , 18-H ) :  -0.1012 B(  9-C , 23-H ) :   0.9917

MP2 TOTAL ENERGY:     -388.763883598 Eh
FINAL SINGLE POINT ENERGY      -388.763883598486

DIPOLE MOMENT
-------------
                                X             Y             Z
Electronic contribution:      8.90976       0.48325       0.42753
Nuclear contribution   :     -9.06524      -0.46773      -0.41384
                        -----------------------------------------
Total Dipole Moment    :     -0.15548       0.01552       0.01370
                        -----------------------------------------
Magnitude (a.u.)       :      0.15686
Magnitude (Debye)      :      0.39870

Rotational constants in cm-1:     0.072770     0.029587     0.027476
Rotational constants in MHz :  2181.586404   886.986923   823.717078

                             ****ORCA TERMINATED NORMALLY****
TOTAL RUN TIME: 0 days 2 hours 33 minutes 20 seconds 470 msec
