                         Program Version 5.0.4 -  RELEASE  -
|  1> !ri-mp2 aug-cc-pvqz aug-cc-pvqz/c tightscf
|  2> %pal nprocs 16 end
|  3>
|  4> * xyz 0 1
|  5> Cl     1.676546   -0.809324   -0.064042
|  6> S     -1.948152   -0.418639   -0.243515
|  7> O      0.873755    1.670610   -0.356742
|  8> C      0.580777    0.624501    0.110504
|  9> C     -0.682958    0.310390    0.867857
| 10> H     -2.149817    0.689707   -0.979994
| 11> H     -1.058018    1.227789    1.313361
| 12> H     -0.499959   -0.434986    1.635345
| 13> *
| 14>
| 15>                          ****END OF INPUT****

CARTESIAN COORDINATES (ANGSTROEM)
---------------------------------
  Cl     1.676546   -0.809324   -0.064042
  S     -1.948152   -0.418639   -0.243515
  O      0.873755    1.670610   -0.356742
  C      0.580777    0.624501    0.110504
  C     -0.682958    0.310390    0.867857
  H     -2.149817    0.689707   -0.979994
  H     -1.058018    1.227789    1.313361
  H     -0.499959   -0.434986    1.635345

 Total Charge           Charge          ....    0
 Multiplicity           Mult            ....    1
 Number of Electrons    NEL             ....   56
 Basis Dimension        Dim             ....  546

ORBITAL ENERGIES
----------------

  NO   OCC          E(Eh)            E(eV)
   0   2.0000    -104.851500     -2853.1544
   1   2.0000     -91.987107     -2503.0964
   2   2.0000     -20.601301      -560.5899
   3   2.0000     -11.419399      -310.7376
   4   2.0000     -11.308924      -307.7315
   5   2.0000     -10.577081      -287.8170
   6   2.0000      -8.988754      -244.5964
   7   2.0000      -8.043931      -218.8865
   8   2.0000      -8.042340      -218.8432
   9   2.0000      -8.042253      -218.8408
  10   2.0000      -6.670175      -181.5047
  11   2.0000      -6.669295      -181.4807
  12   2.0000      -6.668261      -181.4526
  13   2.0000      -1.459188       -39.7065
  14   2.0000      -1.141863       -31.0717
  15   2.0000      -1.081807       -29.4375
  16   2.0000      -0.932877       -25.3849
  17   2.0000      -0.782931       -21.3046
  18   2.0000      -0.698103       -18.9963
  19   2.0000      -0.686606       -18.6835
  20   2.0000      -0.626087       -17.0367
  21   2.0000      -0.616778       -16.7834
  22   2.0000      -0.553012       -15.0482
  23   2.0000      -0.499002       -13.5785
  24   2.0000      -0.474549       -12.9131
  25   2.0000      -0.471591       -12.8326
  26   2.0000      -0.461427       -12.5561
  27   2.0000      -0.390075       -10.6145
  28   0.0000       0.024102         0.6559
  29   0.0000       0.033871         0.9217
  30   0.0000       0.039587         1.0772
  31   0.0000       0.053208         1.4479
  32   0.0000       0.066138         1.7997

MULLIKEN ATOMIC CHARGES
-----------------------
   0 Cl:   -0.183260
   1 S :   -0.102916
   2 O :   -0.640222
   3 C :    0.678146
   4 C :   -0.488850
   5 H :    0.077717
   6 H :    0.298862
   7 H :    0.360523
Sum of atomic charges:    0.0000000

LOEWDIN ATOMIC CHARGES
----------------------
   0 Cl:    1.021133
   1 S :    1.559161
   2 O :    0.590484
   3 C :   -1.476607
   4 C :   -0.075778
   5 H :   -0.769707
   6 H :   -0.398839
   7 H :   -0.449846

  Mayer bond orders larger than 0.100000
B(  0-Cl,  3-C ) :   0.9045 B(  1-S ,  4-C ) :   0.8989 B(  1-S ,  5-H ) :   1.0202
B(  2-O ,  3-C ) :   1.6460 B(  3-C ,  4-C ) :   0.9444 B(  4-C ,  6-H ) :   0.8743
B(  4-C ,  7-H ) :   0.8587

MP2 TOTAL ENERGY:    -1010.489990427 Eh
FINAL SINGLE POINT ENERGY     -1010.489990427189

DIPOLE MOMENT
-------------
                                X             Y             Z
Electronic contribution:      5.03760      -2.57516      -1.32512
Nuclear contribution   :     -5.73859       2.54909       1.96176
                        -----------------------------------------
Total Dipole Moment    :     -0.70099      -0.02608       0.63664
                        -----------------------------------------
Magnitude (a.u.)       :      0.94730
Magnitude (Debye)      :      2.40785

Rotational constants in cm-1:     0.168414     0.063007     0.051026
Rotational constants in MHz :  5048.911410  1888.888733  1529.732123

                             ****ORCA TERMINATED NORMALLY****
TOTAL RUN TIME: 0 days 0 hours 7 minutes 43 seconds 989 msec
