                         Program Version 5.0.4 -  RELEASE  -
|  1> !ri-mp2 aug-cc-pvqz aug-cc-pvqz/c tightscf
|  2> %pal nprocs 16 end
|  3>
|  4> * xyz 0 1
|  5> C     -2.865077    0.100616    0.165518
|  6> C     -2.070507    1.223857    0.366327
|  7> C     -2.286294   -1.104138   -0.223924
|  8> C     -0.692839    1.148380    0.186907
|  9> C     -0.911773   -1.187321   -0.409725
| 10> C     -0.127095   -0.061385   -0.186065
| 11> C      2.115664   -0.968781    1.096612
| 12> O      2.191158    1.279499   -0.345256
| 13> S      1.671473   -0.126541   -0.469671
| 14> H     -3.936059    0.164368    0.301992
| 15> H     -2.522707    2.162209    0.657897
| 16> H     -2.905625   -1.974771   -0.391995
| 17> H     -0.051411    2.009136    0.320028
| 18> H     -0.461290   -2.117623   -0.732907
| 19> H      1.639276   -1.946560    1.131766
| 20> H      1.794165   -0.342110    1.925393
| 21> H      3.198354   -1.073357    1.090709
| 22> *
| 23>
| 24>                          ****END OF INPUT****

CARTESIAN COORDINATES (ANGSTROEM)
---------------------------------
  C     -2.865077    0.100616    0.165518
  C     -2.070507    1.223857    0.366327
  C     -2.286294   -1.104138   -0.223924
  C     -0.692839    1.148380    0.186907
  C     -0.911773   -1.187321   -0.409725
  C     -0.127095   -0.061385   -0.186065
  C      2.115664   -0.968781    1.096612
  O      2.191158    1.279499   -0.345256
  S      1.671473   -0.126541   -0.469671
  H     -3.936059    0.164368    0.301992
  H     -2.522707    2.162209    0.657897
  H     -2.905625   -1.974771   -0.391995
  H     -0.051411    2.009136    0.320028
  H     -0.461290   -2.117623   -0.732907
  H      1.639276   -1.946560    1.131766
  H      1.794165   -0.342110    1.925393
  H      3.198354   -1.073357    1.090709

 Total Charge           Charge          ....    0
 Multiplicity           Mult            ....    1
 Number of Electrons    NEL             ....   74
 Basis Dimension        Dim             .... 1092

ORBITAL ENERGIES
----------------

  NO   OCC          E(Eh)            E(eV)
   0   2.0000     -92.071491     -2505.3926
   1   2.0000     -20.506048      -557.9979
   2   2.0000     -11.270373      -306.6825
   3   2.0000     -11.262722      -306.4743
   4   2.0000     -11.257667      -306.3367
   5   2.0000     -11.251413      -306.1665
   6   2.0000     -11.250080      -306.1302
   7   2.0000     -11.248783      -306.0950
   8   2.0000     -11.247566      -306.0618
   9   2.0000      -9.058224      -246.4868
  10   2.0000      -6.740310      -183.4132
  11   2.0000      -6.740058      -183.4063
  12   2.0000      -6.738755      -183.3709
  13   2.0000      -1.333929       -36.2980
  14   2.0000      -1.174360       -31.9560
  15   2.0000      -1.061925       -28.8964
  16   2.0000      -1.034447       -28.1487
  17   2.0000      -1.008646       -27.4467
  18   2.0000      -0.882380       -24.0108
  19   2.0000      -0.846818       -23.0431
  20   2.0000      -0.802018       -21.8240
  21   2.0000      -0.717381       -19.5209
  22   2.0000      -0.652284       -17.7496
  23   2.0000      -0.647916       -17.6307
  24   2.0000      -0.623460       -16.9652
  25   2.0000      -0.616381       -16.7726
  26   2.0000      -0.605579       -16.4786
  27   2.0000      -0.588106       -16.0032
  28   2.0000      -0.575610       -15.6632
  29   2.0000      -0.532083       -14.4787
  30   2.0000      -0.517897       -14.0927
  31   2.0000      -0.516173       -14.0458
  32   2.0000      -0.510493       -13.8912
  33   2.0000      -0.423061       -11.5121
  34   2.0000      -0.387992       -10.5578
  35   2.0000      -0.354335        -9.6419
  36   2.0000      -0.343320        -9.3422
  37   0.0000       0.020461         0.5568
  38   0.0000       0.025550         0.6953
  39   0.0000       0.030180         0.8212
  40   0.0000       0.037412         1.0180
  41   0.0000       0.041124         1.1190

MULLIKEN ATOMIC CHARGES
-----------------------
   0 C :   -0.307147
   1 C :   -0.341637
   2 C :   -0.318781
   3 C :   -0.358726
   4 C :   -0.272653
   5 C :    0.001939
   6 C :   -1.064880
   7 O :   -1.253791
   8 S :    1.225864
   9 H :    0.339823
  10 H :    0.233266
  11 H :    0.237294
  12 H :    0.421836
  13 H :    0.376180
  14 H :    0.340251
  15 H :    0.316174
  16 H :    0.424986
Sum of atomic charges:   -0.0000000

LOEWDIN ATOMIC CHARGES
----------------------
   0 C :    0.341190
   1 C :    0.349090
   2 C :    0.339337
   3 C :    0.261003
   4 C :    0.253716
   5 C :   -0.333835
   6 C :    0.744660
   7 O :    0.091806
   8 S :    0.675281
   9 H :   -0.321385
  10 H :   -0.320295
  11 H :   -0.321879
  12 H :   -0.370323
  13 H :   -0.332412
  14 H :   -0.354699
  15 H :   -0.343237
  16 H :   -0.358019

  Mayer bond orders larger than 0.100000
B(  0-C ,  1-C ) :   1.1492 B(  0-C ,  2-C ) :   1.1358 B(  0-C ,  9-H ) :   0.9958
B(  0-C , 10-H ) :  -0.1017 B(  0-C , 11-H ) :  -0.1050 B(  1-C ,  3-C ) :   1.3056
B(  1-C ,  4-C ) :   0.1323 B(  1-C ,  5-C ) :  -0.2831 B(  1-C , 10-H ) :   1.1389
B(  2-C ,  3-C ) :   0.1308 B(  2-C ,  4-C ) :   1.3631 B(  2-C ,  5-C ) :  -0.2556
B(  2-C , 11-H ) :   1.1184 B(  3-C ,  5-C ) :   1.0199 B(  3-C , 10-H ) :  -0.1290
B(  3-C , 12-H ) :   0.8150 B(  4-C ,  5-C ) :   0.9420 B(  4-C ,  8-S ) :  -0.2228
B(  4-C , 11-H ) :  -0.1179 B(  4-C , 13-H ) :   0.8930 B(  5-C ,  7-O ) :  -0.1990
B(  5-C ,  8-S ) :   0.8448 B(  5-C , 13-H ) :  -0.1070 B(  6-C ,  8-S ) :   0.9784
B(  6-C , 14-H ) :   0.8761 B(  6-C , 15-H ) :   0.8785 B(  6-C , 16-H ) :   0.8177
B(  7-O ,  8-S ) :   1.1522

MP2 TOTAL ENERGY:     -743.908943813 Eh
FINAL SINGLE POINT ENERGY      -743.908943813000

DIPOLE MOMENT
-------------
                                X             Y             Z
Electronic contribution:      2.19323       1.75165      -3.67808
Nuclear contribution   :     -3.23388      -3.06765       4.27433
                        -----------------------------------------
Total Dipole Moment    :     -1.04066      -1.31599       0.59626
                        -----------------------------------------
Magnitude (a.u.)       :      1.78054
Magnitude (Debye)      :      4.52577

Rotational constants in cm-1:     0.104155     0.031671     0.027108
Rotational constants in MHz :  3122.481385   949.487424   812.683839

                             ****ORCA TERMINATED NORMALLY****
TOTAL RUN TIME: 0 days 1 hours 16 minutes 54 seconds 911 msec
