                         Program Version 5.0.4 -  RELEASE  -
|  1> !ri-mp2 aug-cc-pvqz aug-cc-pvqz/c tightscf
|  2> %pal nprocs 16 end
|  3>
|  4> * xyz 0 1
|  5> S     -0.581423    0.778059   -0.046508
|  6> S      2.290563   -0.099694   -0.028882
|  7> N     -3.075461   -0.603242    0.072586
|  8> C      0.575090   -0.674352   -0.075835
|  9> C     -2.060382   -0.051436    0.023082
| 10> H      2.304288    0.255860    1.269161
| 11> H      0.444681   -1.205612   -1.013319
| 12> H      0.344772   -1.326672    0.758810
| 13> *
| 14>
| 15>                          ****END OF INPUT****

CARTESIAN COORDINATES (ANGSTROEM)
---------------------------------
  S     -0.581423    0.778059   -0.046508
  S      2.290563   -0.099694   -0.028882
  N     -3.075461   -0.603242    0.072586
  C      0.575090   -0.674352   -0.075835
  C     -2.060382   -0.051436    0.023082
  H      2.304288    0.255860    1.269161
  H      0.444681   -1.205612   -1.013319
  H      0.344772   -1.326672    0.758810

 Total Charge           Charge          ....    0
 Multiplicity           Mult            ....    1
 Number of Electrons    NEL             ....   54
 Basis Dimension        Dim             ....  546

ORBITAL ENERGIES
----------------

  NO   OCC          E(Eh)            E(eV)
   0   2.0000     -92.023657     -2504.0910
   1   2.0000     -91.993817     -2503.2790
   2   2.0000     -15.586560      -424.1319
   3   2.0000     -11.334257      -308.4208
   4   2.0000     -11.300158      -307.4929
   5   2.0000      -9.024126      -245.5590
   6   2.0000      -8.995782      -244.7877
   7   2.0000      -6.705746      -182.4726
   8   2.0000      -6.704182      -182.4301
   9   2.0000      -6.703317      -182.4065
  10   2.0000      -6.677259      -181.6975
  11   2.0000      -6.676352      -181.6728
  12   2.0000      -6.675384      -181.6464
  13   2.0000      -1.235200       -33.6115
  14   2.0000      -1.121460       -30.5165
  15   2.0000      -1.018930       -27.7265
  16   2.0000      -0.884375       -24.0651
  17   2.0000      -0.695037       -18.9129
  18   2.0000      -0.671503       -18.2725
  19   2.0000      -0.585945       -15.9444
  20   2.0000      -0.576831       -15.6964
  21   2.0000      -0.542786       -14.7700
  22   2.0000      -0.525871       -14.3097
  23   2.0000      -0.505162       -13.7462
  24   2.0000      -0.465856       -12.6766
  25   2.0000      -0.397166       -10.8074
  26   2.0000      -0.391297       -10.6477
  27   0.0000       0.021363         0.5813
  28   0.0000       0.032329         0.8797
  29   0.0000       0.038692         1.0529
  30   0.0000       0.048367         1.3161
  31   0.0000       0.060810         1.6547

MULLIKEN ATOMIC CHARGES
-----------------------
   0 S :    0.511332
   1 S :   -0.083675
   2 N :   -0.498614
   3 C :   -0.501286
   4 C :   -0.132981
   5 H :    0.082049
   6 H :    0.318327
   7 H :    0.304848
Sum of atomic charges:    0.0000000

LOEWDIN ATOMIC CHARGES
----------------------
   0 S :    1.107120
   1 S :    1.504519
   2 N :    0.265766
   3 C :   -0.297569
   4 C :   -0.881550
   5 H :   -0.779096
   6 H :   -0.469960
   7 H :   -0.449229

  Mayer bond orders larger than 0.100000
B(  0-S ,  3-C ) :   0.8904 B(  0-S ,  4-C ) :   0.9069 B(  1-S ,  3-C ) :   0.9004
B(  1-S ,  5-H ) :   1.0181 B(  2-N ,  4-C ) :   2.6107 B(  3-C ,  6-H ) :   0.8684
B(  3-C ,  7-H ) :   0.8646

MP2 TOTAL ENERGY:     -927.993862269 Eh
FINAL SINGLE POINT ENERGY      -927.993862269023

DIPOLE MOMENT
-------------
                                X             Y             Z
Electronic contribution:     -1.54705       2.22010      -0.75505
Nuclear contribution   :      2.91496      -2.21870       0.98106
                        -----------------------------------------
Total Dipole Moment    :      1.36791       0.00140       0.22601
                        -----------------------------------------
Magnitude (a.u.)       :      1.38646
Magnitude (Debye)      :      3.52410

Rotational constants in cm-1:     0.455278     0.044889     0.041554
Rotational constants in MHz : 13648.888286  1345.724786  1245.757372

                             ****ORCA TERMINATED NORMALLY****
TOTAL RUN TIME: 0 days 0 hours 5 minutes 0 seconds 735 msec
