                         Program Version 5.0.4 -  RELEASE  -
|  1> !ri-mp2 aug-cc-pvqz aug-cc-pvqz/c tightscf
|  2> %pal nprocs 16 end
|  3>
|  4> * xyz 0 1
|  5> C     0.000000    0.000000    0.000000
|  6> C     0.000000    1.177445    0.958848
|  7> C     0.000000   -1.177445    0.958848
|  8> C     1.177445    0.000000   -0.958848
|  9> C    -1.177445    0.000000   -0.958848
| 10> C     0.000000    0.734608    2.223211
| 11> C     0.000000   -0.734608    2.223211
| 12> C     0.734608    0.000000   -2.223211
| 13> C    -0.734608    0.000000   -2.223211
| 14> H     0.000000    2.201549    0.620322
| 15> H     0.000000   -2.201549    0.620322
| 16> H     2.201549    0.000000   -0.620322
| 17> H    -2.201549    0.000000   -0.620322
| 18> H     0.000000    1.348828    3.111832
| 19> H     0.000000   -1.348828    3.111832
| 20> H     1.348828    0.000000   -3.111832
| 21> H    -1.348828    0.000000   -3.111832
| 22> *
| 23>
| 24>                          ****END OF INPUT****

CARTESIAN COORDINATES (ANGSTROEM)
---------------------------------
  C      0.000000    0.000000    0.000000
  C      0.000000    1.177445    0.958848
  C      0.000000   -1.177445    0.958848
  C      1.177445    0.000000   -0.958848
  C     -1.177445    0.000000   -0.958848
  C      0.000000    0.734608    2.223211
  C      0.000000   -0.734608    2.223211
  C      0.734608    0.000000   -2.223211
  C     -0.734608    0.000000   -2.223211
  H      0.000000    2.201549    0.620322
  H      0.000000   -2.201549    0.620322
  H      2.201549    0.000000   -0.620322
  H     -2.201549    0.000000   -0.620322
  H      0.000000    1.348828    3.111832
  H      0.000000   -1.348828    3.111832
  H      1.348828    0.000000   -3.111832
  H     -1.348828    0.000000   -3.111832

 Total Charge           Charge          ....    0
 Multiplicity           Mult            ....    1
 Number of Electrons    NEL             ....   62
 Basis Dimension        Dim             .... 1088

ORBITAL ENERGIES
----------------

  NO   OCC          E(Eh)            E(eV)
   0   2.0000     -11.245968      -306.0184
   1   2.0000     -11.230807      -305.6058
   2   2.0000     -11.230791      -305.6054
   3   2.0000     -11.230472      -305.5967
   4   2.0000     -11.230472      -305.5967
   5   2.0000     -11.229132      -305.5602
   6   2.0000     -11.229112      -305.5597
   7   2.0000     -11.228682      -305.5480
   8   2.0000     -11.228682      -305.5480
   9   2.0000      -1.183320       -32.1998
  10   2.0000      -1.118709       -30.4416
  11   2.0000      -0.970249       -26.4018
  12   2.0000      -0.970249       -26.4018
  13   2.0000      -0.956866       -26.0377
  14   2.0000      -0.808702       -22.0059
  15   2.0000      -0.736933       -20.0530
  16   2.0000      -0.736933       -20.0530
  17   2.0000      -0.727454       -19.7950
  18   2.0000      -0.706114       -19.2143
  19   2.0000      -0.661025       -17.9874
  20   2.0000      -0.568019       -15.4566
  21   2.0000      -0.568019       -15.4566
  22   2.0000      -0.533799       -14.5254
  23   2.0000      -0.533799       -14.5254
  24   2.0000      -0.532773       -14.4975
  25   2.0000      -0.522019       -14.2049
  26   2.0000      -0.486218       -13.2307
  27   2.0000      -0.418829       -11.3969
  28   2.0000      -0.418829       -11.3969
  29   2.0000      -0.341472        -9.2919
  30   2.0000      -0.287927        -7.8349
  31   0.0000       0.026197         0.7128
  32   0.0000       0.027538         0.7494
  33   0.0000       0.032782         0.8920
  34   0.0000       0.032782         0.8920
  35   0.0000       0.040358         1.0982

MULLIKEN ATOMIC CHARGES
-----------------------
   0 C :    0.778597
   1 C :   -0.382827
   2 C :   -0.382848
   3 C :   -0.382856
   4 C :   -0.382858
   5 C :   -0.517201
   6 C :   -0.517191
   7 C :   -0.517200
   8 C :   -0.517170
   9 H :    0.368638
  10 H :    0.368637
  11 H :    0.368678
  12 H :    0.368668
  13 H :    0.336742
  14 H :    0.336739
  15 H :    0.336736
  16 H :    0.336717
Sum of atomic charges:   -0.0000000

LOEWDIN ATOMIC CHARGES
----------------------
   0 C :   -0.460438
   1 C :    0.353184
   2 C :    0.353184
   3 C :    0.353184
   4 C :    0.353184
   5 C :    0.363129
   6 C :    0.363129
   7 C :    0.363129
   8 C :    0.363129
   9 H :   -0.285855
  10 H :   -0.285855
  11 H :   -0.285855
  12 H :   -0.285855
  13 H :   -0.315349
  14 H :   -0.315349
  15 H :   -0.315349
  16 H :   -0.315349

  Mayer bond orders larger than 0.100000
B(  0-C ,  1-C ) :   0.7069 B(  0-C ,  2-C ) :   0.7068 B(  0-C ,  3-C ) :   0.7068
B(  0-C ,  4-C ) :   0.7068 B(  0-C ,  5-C ) :  -0.2684 B(  0-C ,  6-C ) :  -0.2684
B(  0-C ,  7-C ) :  -0.2684 B(  0-C ,  8-C ) :  -0.2684 B(  1-C ,  2-C ) :   0.2231
B(  1-C ,  3-C ) :  -0.1520 B(  1-C ,  4-C ) :  -0.1520 B(  1-C ,  5-C ) :   1.6637
B(  1-C ,  9-H ) :   0.9276 B(  2-C ,  3-C ) :  -0.1520 B(  2-C ,  4-C ) :  -0.1520
B(  2-C ,  6-C ) :   1.6637 B(  2-C , 10-H ) :   0.9276 B(  3-C ,  4-C ) :   0.2231
B(  3-C ,  7-C ) :   1.6636 B(  3-C , 11-H ) :   0.9276 B(  4-C ,  8-C ) :   1.6636
B(  4-C , 12-H ) :   0.9276 B(  5-C ,  6-C ) :   1.0460 B(  5-C , 13-H ) :   1.0243
B(  6-C , 14-H ) :   1.0243 B(  7-C ,  8-C ) :   1.0460 B(  7-C , 15-H ) :   1.0243
B(  8-C , 16-H ) :   1.0243

MP2 TOTAL ENERGY:     -347.042200937 Eh
FINAL SINGLE POINT ENERGY      -347.042200937332

DIPOLE MOMENT
-------------
                                X             Y             Z
Electronic contribution:     -0.00000      -0.00000      -0.00000
Nuclear contribution   :      0.00000       0.00000       0.00000
                        -----------------------------------------
Total Dipole Moment    :     -0.00000      -0.00000      -0.00000
                        -----------------------------------------
Magnitude (a.u.)       :      0.00000
Magnitude (Debye)      :      0.00000

Rotational constants in cm-1:     0.141172     0.044137     0.044137
Rotational constants in MHz :  4232.236700  1323.197753  1323.197753

                             ****ORCA TERMINATED NORMALLY****
TOTAL RUN TIME: 0 days 1 hours 8 minutes 48 seconds 616 msec
