                         Program Version 5.0.4 -  RELEASE  -
|  1> !ri-mp2 aug-cc-pvqz aug-cc-pvqz/c tightscf
|  2> %pal nprocs 16 end
|  3>
|  4> * xyz 0 1
|  5> S     -1.708055   -0.944543    0.238777
|  6> O      2.543314    1.082665   -0.736842
|  7> O      3.099840   -0.995616   -0.091408
|  8> O     -3.637533    0.704920   -0.308545
|  9> N      0.648212    1.175180    1.198357
| 10> N     -2.500457    0.538811   -0.543859
| 11> C      0.958154   -0.108039    0.596436
| 12> C     -0.057481   -0.638317   -0.450388
| 13> C      2.322002   -0.078776   -0.081186
| 14> H      1.047909   -0.847293    1.390980
| 15> H      0.293305   -1.573053   -0.885849
| 16> H     -0.196720    0.090629   -1.251576
| 17> H     -0.227541    1.132950    1.703394
| 18> H      0.584033    1.910377    0.505497
| 19> H      3.412596    1.016178   -1.159186
| 20> *
| 21>
| 22>                          ****END OF INPUT****

CARTESIAN COORDINATES (ANGSTROEM)
---------------------------------
  S     -1.708055   -0.944543    0.238777
  O      2.543314    1.082665   -0.736842
  O      3.099840   -0.995616   -0.091408
  O     -3.637533    0.704920   -0.308545
  N      0.648212    1.175180    1.198357
  N     -2.500457    0.538811   -0.543859
  C      0.958154   -0.108039    0.596436
  C     -0.057481   -0.638317   -0.450388
  C      2.322002   -0.078776   -0.081186
  H      1.047909   -0.847293    1.390980
  H      0.293305   -1.573053   -0.885849
  H     -0.196720    0.090629   -1.251576
  H     -0.227541    1.132950    1.703394
  H      0.584033    1.910377    0.505497
  H      3.412596    1.016178   -1.159186

 Total Charge           Charge          ....    0
 Multiplicity           Mult            ....    1
 Number of Electrons    NEL             ....   78
 Basis Dimension        Dim             .... 1000

ORBITAL ENERGIES
----------------

  NO   OCC          E(Eh)            E(eV)
   0   2.0000     -92.002107     -2503.5046
   1   2.0000     -20.669721      -562.4517
   2   2.0000     -20.625482      -561.2479
   3   2.0000     -20.562254      -559.5274
   4   2.0000     -15.762984      -428.9326
   5   2.0000     -15.563207      -423.4964
   6   2.0000     -11.398953      -310.1813
   7   2.0000     -11.300979      -307.5153
   8   2.0000     -11.289913      -307.2141
   9   2.0000      -9.002479      -244.9699
  10   2.0000      -6.683299      -181.8618
  11   2.0000      -6.682544      -181.8413
  12   2.0000      -6.681630      -181.8164
  13   2.0000      -1.579708       -42.9860
  14   2.0000      -1.480439       -40.2848
  15   2.0000      -1.377731       -37.4900
  16   2.0000      -1.219610       -33.1873
  17   2.0000      -1.099725       -29.9250
  18   2.0000      -1.017632       -27.6912
  19   2.0000      -0.935438       -25.4546
  20   2.0000      -0.853809       -23.2333
  21   2.0000      -0.825185       -22.4544
  22   2.0000      -0.730256       -19.8713
  23   2.0000      -0.713713       -19.4211
  24   2.0000      -0.706955       -19.2372
  25   2.0000      -0.700263       -19.0551
  26   2.0000      -0.668295       -18.1852
  27   2.0000      -0.657157       -17.8821
  28   2.0000      -0.647085       -17.6081
  29   2.0000      -0.625393       -17.0178
  30   2.0000      -0.609706       -16.5909
  31   2.0000      -0.589412       -16.0387
  32   2.0000      -0.550802       -14.9881
  33   2.0000      -0.510105       -13.8807
  34   2.0000      -0.498277       -13.5588
  35   2.0000      -0.466131       -12.6841
  36   2.0000      -0.421635       -11.4733
  37   2.0000      -0.394831       -10.7439
  38   2.0000      -0.389935       -10.6107
  39   0.0000       0.023453         0.6382
  40   0.0000       0.032712         0.8901
  41   0.0000       0.034238         0.9317
  42   0.0000       0.037354         1.0164
  43   0.0000       0.049825         1.3558

MULLIKEN ATOMIC CHARGES
-----------------------
   0 S :    0.102896
   1 O :   -0.715877
   2 O :   -0.814342
   3 O :   -0.419650
   4 N :   -0.783970
   5 N :    0.127456
   6 C :    0.204204
   7 C :   -0.577274
   8 C :    1.066583
   9 H :    0.376572
  10 H :    0.310107
  11 H :    0.316721
  12 H :    0.246903
  13 H :    0.255628
  14 H :    0.304042
Sum of atomic charges:    0.0000000

LOEWDIN ATOMIC CHARGES
----------------------
   0 S :    1.061667
   1 O :    1.264728
   2 O :    0.720902
   3 O :    0.262625
   4 N :    1.267828
   5 N :   -0.430375
   6 C :   -0.193050
   7 C :    0.081083
   8 C :   -1.043119
   9 H :   -0.350213
  10 H :   -0.374105
  11 H :   -0.410494
  12 H :   -0.530736
  13 H :   -0.529023
  14 H :   -0.797719

  Mayer bond orders larger than 0.100000
B(  0-S ,  5-N ) :   1.0771 B(  0-S ,  7-C ) :   0.8990 B(  1-O ,  2-O ) :   0.1069
B(  1-O ,  8-C ) :   0.8563 B(  1-O , 14-H ) :   0.9250 B(  2-O ,  6-C ) :   0.1059
B(  2-O ,  8-C ) :   1.3001 B(  3-O ,  5-N ) :   1.7042 B(  4-N ,  6-C ) :   0.7379
B(  4-N , 12-H ) :   0.9334 B(  4-N , 13-H ) :   0.9036 B(  5-N ,  7-C ) :  -0.1569
B(  6-C ,  7-C ) :   0.8205 B(  6-C ,  8-C ) :   0.9985 B(  6-C ,  9-H ) :   0.8418
B(  7-C , 10-H ) :   0.8945 B(  7-C , 11-H ) :   0.8709

MP2 TOTAL ENERGY:     -850.182678931 Eh
FINAL SINGLE POINT ENERGY      -850.182678931456

DIPOLE MOMENT
-------------
                                X             Y             Z
Electronic contribution:     -4.80946      -1.40890      -0.74093
Nuclear contribution   :      4.86539       1.73803       0.27494
                        -----------------------------------------
Total Dipole Moment    :      0.05593       0.32913      -0.46599
                        -----------------------------------------
Magnitude (a.u.)       :      0.57324
Magnitude (Debye)      :      1.45705

Rotational constants in cm-1:     0.104735     0.021152     0.019742
Rotational constants in MHz :  3139.889000   634.124971   591.840875

                             ****ORCA TERMINATED NORMALLY****
TOTAL RUN TIME: 0 days 0 hours 48 minutes 18 seconds 700 msec
