                         Program Version 5.0.4 -  RELEASE  -
|  1> !ri-mp2 aug-cc-pvqz aug-cc-pvqz/c tightscf
|  2> %pal nprocs 16 end
|  3>
|  4> * xyz 0 1
|  5> S     1.777893   -1.017043   -0.098312
|  6> O     3.331071   -0.521658   -0.383927
|  7> O     1.564558    1.616301   -0.260640
|  8> O     3.903677    0.151691    0.784045
|  9> C     0.945852    0.577476   -0.185281
| 10> C    -0.473005    0.441711   -0.112433
| 11> C    -1.670367    0.263764   -0.051931
| 12> C    -3.011782    0.084916    0.015677
| 13> C    -4.208213   -0.073703    0.076329
| 14> C    -5.641659   -0.262465    0.148528
| 15> H     3.588858    1.056127    0.611506
| 16> H    -6.026208   -0.654858   -0.794688
| 17> H    -6.149180    0.680904    0.356636
| 18> H    -5.899149   -0.970358    0.938381
| 19> *
| 20>
| 21>                          ****END OF INPUT****

CARTESIAN COORDINATES (ANGSTROEM)
---------------------------------
  S      1.777893   -1.017043   -0.098312
  O      3.331071   -0.521658   -0.383927
  O      1.564558    1.616301   -0.260640
  O      3.903677    0.151691    0.784045
  C      0.945852    0.577476   -0.185281
  C     -0.473005    0.441711   -0.112433
  C     -1.670367    0.263764   -0.051931
  C     -3.011782    0.084916    0.015677
  C     -4.208213   -0.073703    0.076329
  C     -5.641659   -0.262465    0.148528
  H      3.588858    1.056127    0.611506
  H     -6.026208   -0.654858   -0.794688
  H     -6.149180    0.680904    0.356636
  H     -5.899149   -0.970358    0.938381

 Total Charge           Charge          ....    0
 Multiplicity           Mult            ....    1
 Number of Electrons    NEL             ....   80
 Basis Dimension        Dim             ....  988

ORBITAL ENERGIES
----------------

  NO   OCC          E(Eh)            E(eV)
   0   2.0000     -92.039955     -2504.5345
   1   2.0000     -20.663735      -562.2888
   2   2.0000     -20.640660      -561.6609
   3   2.0000     -20.586363      -560.1834
   4   2.0000     -11.406301      -310.3812
   5   2.0000     -11.305835      -307.6474
   6   2.0000     -11.289504      -307.2030
   7   2.0000     -11.278470      -306.9028
   8   2.0000     -11.277590      -306.8788
   9   2.0000     -11.269110      -306.6481
  10   2.0000      -9.036318      -245.8907
  11   2.0000      -6.717483      -182.7920
  12   2.0000      -6.715989      -182.7514
  13   2.0000      -6.715183      -182.7294
  14   2.0000      -1.488904       -40.5151
  15   2.0000      -1.428807       -38.8798
  16   2.0000      -1.249622       -34.0039
  17   2.0000      -1.130065       -30.7506
  18   2.0000      -1.088640       -29.6234
  19   2.0000      -1.026308       -27.9273
  20   2.0000      -0.986977       -26.8570
  21   2.0000      -0.895161       -24.3586
  22   2.0000      -0.822606       -22.3842
  23   2.0000      -0.729068       -19.8389
  24   2.0000      -0.712448       -19.3867
  25   2.0000      -0.689312       -18.7571
  26   2.0000      -0.668777       -18.1983
  27   2.0000      -0.645240       -17.5579
  28   2.0000      -0.624532       -16.9944
  29   2.0000      -0.623946       -16.9784
  30   2.0000      -0.602234       -16.3876
  31   2.0000      -0.587427       -15.9847
  32   2.0000      -0.540799       -14.7159
  33   2.0000      -0.507682       -13.8147
  34   2.0000      -0.500926       -13.6309
  35   2.0000      -0.498976       -13.5778
  36   2.0000      -0.445053       -12.1105
  37   2.0000      -0.402917       -10.9639
  38   2.0000      -0.380543       -10.3551
  39   2.0000      -0.377021       -10.2593
  40   0.0000       0.014578         0.3967
  41   0.0000       0.032011         0.8711
  42   0.0000       0.034671         0.9434
  43   0.0000       0.036327         0.9885
  44   0.0000       0.039213         1.0670

MULLIKEN ATOMIC CHARGES
-----------------------
   0 S :    0.561248
   1 O :   -0.519504
   2 O :   -0.761669
   3 O :   -0.357906
   4 C :    0.693919
   5 C :    0.289068
   6 C :   -0.295354
   7 C :   -0.467382
   8 C :    0.470694
   9 C :   -0.693988
  10 H :    0.379413
  11 H :    0.235018
  12 H :    0.231012
  13 H :    0.235432
Sum of atomic charges:    0.0000000

LOEWDIN ATOMIC CHARGES
----------------------
   0 S :    0.853287
   1 O :   -0.055526
   2 O :    0.607774
   3 O :    0.844151
   4 C :   -1.226674
   5 C :   -0.087628
   6 C :   -0.022690
   7 C :    0.027646
   8 C :    0.154466
   9 C :    0.858935
  10 H :   -1.022502
  11 H :   -0.310417
  12 H :   -0.310328
  13 H :   -0.310494

  Mayer bond orders larger than 0.100000
B(  0-S ,  1-O ) :   0.8425 B(  0-S ,  4-C ) :   1.1692 B(  0-S ,  5-C ) :  -0.1671
B(  1-O ,  3-O ) :   0.8300 B(  2-O ,  4-C ) :   1.1845 B(  2-O ,  5-C ) :   0.2396
B(  3-O , 10-H ) :   0.8576 B(  4-C ,  5-C ) :   0.6496 B(  4-C ,  7-C ) :   0.2653
B(  5-C ,  6-C ) :   3.3006 B(  5-C ,  7-C ) :  -0.5679 B(  5-C ,  8-C ) :   0.3496
B(  6-C ,  7-C ) :   0.1214 B(  6-C ,  8-C ) :  -0.2884 B(  7-C ,  8-C ) :   3.0902
B(  8-C ,  9-C ) :   0.7337 B(  8-C , 11-H ) :  -0.1152 B(  8-C , 12-H ) :  -0.1174
B(  8-C , 13-H ) :  -0.1169 B(  9-C , 11-H ) :   1.0204 B(  9-C , 12-H ) :   1.0220
B(  9-C , 13-H ) :   1.0207

MP2 TOTAL ENERGY:     -853.563658715 Eh
FINAL SINGLE POINT ENERGY      -853.563658715182

DIPOLE MOMENT
-------------
                                X             Y             Z
Electronic contribution:     11.37632      -0.48925      -0.90718
Nuclear contribution   :    -13.85684       0.15668       1.07480
                        -----------------------------------------
Total Dipole Moment    :     -2.48052      -0.33257       0.16761
                        -----------------------------------------
Magnitude (a.u.)       :      2.50832
Magnitude (Debye)      :      6.37564

Rotational constants in cm-1:     0.157110     0.011620     0.011054
Rotational constants in MHz :  4710.045530   348.346402   331.394307

                             ****ORCA TERMINATED NORMALLY****
TOTAL RUN TIME: 0 days 0 hours 37 minutes 55 seconds 481 msec
