                         Program Version 5.0.4 -  RELEASE  -
|  1> !ri-mp2 aug-cc-pvqz aug-cc-pvqz/c tightscf
|  2> %pal nprocs 16 end
|  3>
|  4> * xyz 0 1
|  5> C     0.000000     0.000000    0.000000
|  6> C     0.000000     0.763303    1.266524
|  7> C     0.000000    -0.763303    1.266524
|  8> C    -0.763303     0.000000   -1.266524
|  9> C     0.763303     0.000000   -1.266524
| 10> H     0.910461     1.264133    1.569347
| 11> H    -0.910461     1.264133    1.569347
| 12> H    -0.910461    -1.264133    1.569347
| 13> H     0.910461    -1.264133    1.569347
| 14> H    -1.264133    -0.910461   -1.569347
| 15> H    -1.264133     0.910461   -1.569347
| 16> H     1.264133     0.910461   -1.569347
| 17> H     1.264133    -0.910461   -1.569347
| 18> *
| 19>
| 20>                          ****END OF INPUT****

CARTESIAN COORDINATES (ANGSTROEM)
---------------------------------
  C      0.000000    0.000000    0.000000
  C      0.000000    0.763303    1.266524
  C      0.000000   -0.763303    1.266524
  C     -0.763303    0.000000   -1.266524
  C      0.763303    0.000000   -1.266524
  H      0.910461    1.264133    1.569347
  H     -0.910461    1.264133    1.569347
  H     -0.910461   -1.264133    1.569347
  H      0.910461   -1.264133    1.569347
  H     -1.264133   -0.910461   -1.569347
  H     -1.264133    0.910461   -1.569347
  H      1.264133    0.910461   -1.569347
  H      1.264133   -0.910461   -1.569347

 Total Charge           Charge          ....    0
 Multiplicity           Mult            ....    1
 Number of Electrons    NEL             ....   38
 Basis Dimension        Dim             ....  768

ORBITAL ENERGIES
----------------

  NO   OCC          E(Eh)            E(eV)
   0   2.0000     -11.233067      -305.6673
   1   2.0000     -11.222574      -305.3818
   2   2.0000     -11.222499      -305.3797
   3   2.0000     -11.221948      -305.3647
   4   2.0000     -11.221948      -305.3647
   5   2.0000      -1.170511       -31.8512
   6   2.0000      -1.059329       -28.8258
   7   2.0000      -0.824109       -22.4251
   8   2.0000      -0.824109       -22.4251
   9   2.0000      -0.739773       -20.1302
  10   2.0000      -0.653062       -17.7707
  11   2.0000      -0.637544       -17.3484
  12   2.0000      -0.637544       -17.3484
  13   2.0000      -0.521248       -14.1839
  14   2.0000      -0.505689       -13.7605
  15   2.0000      -0.485763       -13.2183
  16   2.0000      -0.412400       -11.2220
  17   2.0000      -0.412400       -11.2220
  18   2.0000      -0.387179       -10.5357
  19   0.0000       0.028751         0.7824
  20   0.0000       0.032575         0.8864
  21   0.0000       0.034986         0.9520
  22   0.0000       0.034986         0.9520
  23   0.0000       0.050386         1.3711

MULLIKEN ATOMIC CHARGES
-----------------------
   0 C :   -0.061815
   1 C :   -0.686014
   2 C :   -0.686015
   3 C :   -0.686017
   4 C :   -0.686017
   5 H :    0.350733
   6 H :    0.350736
   7 H :    0.350733
   8 H :    0.350736
   9 H :    0.350737
  10 H :    0.350732
  11 H :    0.350737
  12 H :    0.350732
Sum of atomic charges:   -0.0000000

LOEWDIN ATOMIC CHARGES
----------------------
   0 C :   -0.262573
   1 C :    0.619364
   2 C :    0.619364
   3 C :    0.619364
   4 C :    0.619364
   5 H :   -0.276861
   6 H :   -0.276861
   7 H :   -0.276861
   8 H :   -0.276861
   9 H :   -0.276861
  10 H :   -0.276861
  11 H :   -0.276861
  12 H :   -0.276861

  Mayer bond orders larger than 0.100000
B(  0-C ,  1-C ) :   0.7896 B(  0-C ,  2-C ) :   0.7896 B(  0-C ,  3-C ) :   0.7896
B(  0-C ,  4-C ) :   0.7896 B(  1-C ,  2-C ) :   1.0522 B(  1-C ,  5-H ) :   0.8799
B(  1-C ,  6-H ) :   0.8799 B(  2-C ,  7-H ) :   0.8799 B(  2-C ,  8-H ) :   0.8799
B(  3-C ,  4-C ) :   1.0522 B(  3-C ,  9-H ) :   0.8799 B(  3-C , 10-H ) :   0.8799
B(  4-C , 11-H ) :   0.8799 B(  4-C , 12-H ) :   0.8799

MP2 TOTAL ENERGY:     -194.891011595 Eh
FINAL SINGLE POINT ENERGY      -194.891011595270

DIPOLE MOMENT
-------------
                                X             Y             Z
Electronic contribution:      0.00000       0.00000       0.00000
Nuclear contribution   :      0.00000       0.00000       0.00000
                        -----------------------------------------
Total Dipole Moment    :      0.00000       0.00000       0.00000
                        -----------------------------------------
Magnitude (a.u.)       :      0.00000
Magnitude (Debye)      :      0.00000

Rotational constants in cm-1:     0.354427     0.139656     0.139656
Rotational constants in MHz : 10625.465361  4186.775882  4186.775882

                             ****ORCA TERMINATED NORMALLY****
TOTAL RUN TIME: 0 days 0 hours 18 minutes 46 seconds 960 msec
