                         Program Version 5.0.4 -  RELEASE  -
|  1> !ri-mp2 aug-cc-pvqz aug-cc-pvqz/c tightscf
|  2> %pal nprocs 16 end
|  3>
|  4> * xyz 0 1
|  5> C      0.646281   -2.178017        0.000000
|  6> C      1.654479   -1.222905        0.000000
|  7> C     -0.685207   -1.768319        0.000000
|  8> C      1.332018    0.128421        0.000000
|  9> C     -1.004470   -0.419868        0.000000
| 10> C      0.000000    0.557656        0.000000
| 11> C     -1.470206    2.598351        0.000000
| 12> C     -0.279787    1.999196        0.000000
| 13> H      0.891660   -3.231362        0.000000
| 14> H      2.692244   -1.528409        0.000000
| 15> H     -1.476757   -2.505897        0.000000
| 16> H      2.123019    0.867889        0.000000
| 17> H     -2.044665   -0.124640        0.000000
| 18> H     -1.545935    3.676443        0.000000
| 19> H     -2.403023    2.050610        0.000000
| 20> H      0.604810    2.628272        0.000000
| 21> *
| 22>
| 23>                          ****END OF INPUT****

CARTESIAN COORDINATES (ANGSTROEM)
---------------------------------
  C      0.646281   -2.178017    0.000000
  C      1.654479   -1.222905    0.000000
  C     -0.685207   -1.768319    0.000000
  C      1.332018    0.128421    0.000000
  C     -1.004470   -0.419868    0.000000
  C      0.000000    0.557656    0.000000
  C     -1.470206    2.598351    0.000000
  C     -0.279787    1.999196    0.000000
  H      0.891660   -3.231362    0.000000
  H      2.692244   -1.528409    0.000000
  H     -1.476757   -2.505897    0.000000
  H      2.123019    0.867889    0.000000
  H     -2.044665   -0.124640    0.000000
  H     -1.545935    3.676443    0.000000
  H     -2.403023    2.050610    0.000000
  H      0.604810    2.628272    0.000000

 Total Charge           Charge          ....    0
 Multiplicity           Mult            ....    1
 Number of Electrons    NEL             ....   56
 Basis Dimension        Dim             .... 1008

ORBITAL ENERGIES
----------------

  NO   OCC          E(Eh)            E(eV)
   0   2.0000     -11.244560      -305.9800
   1   2.0000     -11.239427      -305.8404
   2   2.0000     -11.235727      -305.7397
   3   2.0000     -11.235347      -305.7293
   4   2.0000     -11.234396      -305.7035
   5   2.0000     -11.233936      -305.6909
   6   2.0000     -11.233465      -305.6781
   7   2.0000     -11.226560      -305.4902
   8   2.0000      -1.160774       -31.5863
   9   2.0000      -1.072619       -29.1874
  10   2.0000      -1.018373       -27.7113
  11   2.0000      -0.991506       -26.9803
  12   2.0000      -0.853051       -23.2127
  13   2.0000      -0.827932       -22.5292
  14   2.0000      -0.766985       -20.8707
  15   2.0000      -0.701551       -19.0902
  16   2.0000      -0.655554       -17.8385
  17   2.0000      -0.635303       -17.2875
  18   2.0000      -0.611014       -16.6265
  19   2.0000      -0.587976       -15.9996
  20   2.0000      -0.580266       -15.7898
  21   2.0000      -0.527515       -14.3544
  22   2.0000      -0.515764       -14.0347
  23   2.0000      -0.495889       -13.4938
  24   2.0000      -0.487834       -13.2746
  25   2.0000      -0.412115       -11.2142
  26   2.0000      -0.340407        -9.2629
  27   2.0000      -0.306420        -8.3381
  28   0.0000       0.025521         0.6945
  29   0.0000       0.027296         0.7428
  30   0.0000       0.028894         0.7862
  31   0.0000       0.040025         1.0891
  32   0.0000       0.040529         1.1028

MULLIKEN ATOMIC CHARGES
-----------------------
   0 C :   -0.402781
   1 C :   -0.337775
   2 C :   -0.275722
   3 C :   -0.269231
   4 C :   -0.107854
   5 C :    0.251822
   6 C :   -0.891071
   7 C :   -0.350346
   8 H :    0.307545
   9 H :    0.266928
  10 H :    0.260625
  11 H :    0.286866
  12 H :    0.297124
  13 H :    0.323308
  14 H :    0.360827
  15 H :    0.279735
Sum of atomic charges:    0.0000000

LOEWDIN ATOMIC CHARGES
----------------------
   0 C :    0.338639
   1 C :    0.344509
   2 C :    0.347277
   3 C :    0.328096
   4 C :    0.329695
   5 C :   -0.108260
   6 C :    0.801356
   7 C :    0.336088
   8 H :   -0.324804
   9 H :   -0.323250
  10 H :   -0.322560
  11 H :   -0.326868
  12 H :   -0.342531
  13 H :   -0.352191
  14 H :   -0.365673
  15 H :   -0.359524

  Mayer bond orders larger than 0.100000
B(  0-C ,  1-C ) :   1.2303 B(  0-C ,  2-C ) :   1.1695 B(  0-C ,  8-H ) :   1.0107
B(  0-C ,  9-H ) :  -0.1061 B(  1-C ,  3-C ) :   1.1985 B(  1-C ,  4-C ) :   0.1150
B(  1-C ,  5-C ) :  -0.3550 B(  1-C ,  9-H ) :   1.1193 B(  2-C ,  4-C ) :   1.1823
B(  2-C ,  5-C ) :  -0.2566 B(  2-C , 10-H ) :   1.1064 B(  3-C ,  5-C ) :   0.9071
B(  3-C ,  7-C ) :  -0.2887 B(  3-C ,  9-H ) :  -0.1469 B(  3-C , 11-H ) :   0.9635
B(  4-C ,  5-C ) :   1.1909 B(  4-C ,  6-C ) :  -0.1145 B(  4-C ,  7-C ) :  -0.3663
B(  4-C , 10-H ) :  -0.1273 B(  4-C , 12-H ) :   0.9299 B(  5-C ,  7-C ) :   0.8150
B(  5-C , 11-H ) :  -0.1023 B(  5-C , 15-H ) :  -0.1225 B(  6-C ,  7-C ) :   1.5214
B(  6-C , 13-H ) :   1.0180 B(  6-C , 14-H ) :   0.9536 B(  7-C , 13-H ) :  -0.1744
B(  7-C , 15-H ) :   0.9963

MP2 TOTAL ENERGY:     -309.062989445 Eh
FINAL SINGLE POINT ENERGY      -309.062989445208

DIPOLE MOMENT
-------------
                                X             Y             Z
Electronic contribution:      1.19305      -1.91408      -0.00000
Nuclear contribution   :     -1.17000       1.85086       0.00000
                        -----------------------------------------
Total Dipole Moment    :      0.02305      -0.06322      -0.00000
                        -----------------------------------------
Magnitude (a.u.)       :      0.06729
Magnitude (Debye)      :      0.17105

Rotational constants in cm-1:     0.174163     0.051529     0.039764
Rotational constants in MHz :  5221.282678  1544.814388  1192.107138

                             ****ORCA TERMINATED NORMALLY****
TOTAL RUN TIME: 0 days 0 hours 49 minutes 35 seconds 565 msec
