                         Program Version 5.0.4 -  RELEASE  -
|  1> !ri-mp2 aug-cc-pvqz aug-cc-pvqz/c tightscf
|  2> %pal nprocs 16 end
|  3>
|  4> * xyz 0 1
|  5> O     -2.569105   -0.409889   -0.572480
|  6> C     -1.603311   -0.035392    0.038272
|  7> C     -0.692304    1.087981   -0.403001
|  8> C      0.695435    1.135208    0.232886
|  9> C      1.604629   -0.043381   -0.033539
| 10> O      2.579645   -0.312785    0.616746
| 11> O      1.230271   -0.763568   -1.119024
| 12> O     -1.243334   -0.568197    1.231448
| 13> H     -1.222247    2.014615   -0.166974
| 14> H     -0.636885    1.034304   -1.487924
| 15> H      0.640007    1.245840    1.313535
| 16> H      1.226901    2.014895   -0.139503
| 17> H      1.873901   -1.480386   -1.220794
| 18> H     -1.888183   -1.260241    1.440431
| 19> *
| 20>
| 21>                          ****END OF INPUT****

CARTESIAN COORDINATES (ANGSTROEM)
---------------------------------
  O     -2.569105   -0.409889   -0.572480
  C     -1.603311   -0.035392    0.038272
  C     -0.692304    1.087981   -0.403001
  C      0.695435    1.135208    0.232886
  C      1.604629   -0.043381   -0.033539
  O      2.579645   -0.312785    0.616746
  O      1.230271   -0.763568   -1.119024
  O     -1.243334   -0.568197    1.231448
  H     -1.222247    2.014615   -0.166974
  H     -0.636885    1.034304   -1.487924
  H      0.640007    1.245840    1.313535
  H      1.226901    2.014895   -0.139503
  H      1.873901   -1.480386   -1.220794
  H     -1.888183   -1.260241    1.440431

 Total Charge           Charge          ....    0
 Multiplicity           Mult            ....    1
 Number of Electrons    NEL             ....   62
 Basis Dimension        Dim             ....  916

ORBITAL ENERGIES
----------------

  NO   OCC          E(Eh)            E(eV)
   0   2.0000     -20.620872      -561.1224
   1   2.0000     -20.620779      -561.1199
   2   2.0000     -20.553806      -559.2975
   3   2.0000     -20.553749      -559.2959
   4   2.0000     -11.395650      -310.0914
   5   2.0000     -11.395544      -310.0885
   6   2.0000     -11.265335      -306.5453
   7   2.0000     -11.264716      -306.5285
   8   2.0000      -1.475689       -40.1555
   9   2.0000      -1.472450       -40.0674
  10   2.0000      -1.370746       -37.2999
  11   2.0000      -1.370467       -37.2923
  12   2.0000      -1.102506       -30.0007
  13   2.0000      -0.968779       -26.3618
  14   2.0000      -0.847799       -23.0698
  15   2.0000      -0.821688       -22.3593
  16   2.0000      -0.717156       -19.5148
  17   2.0000      -0.715662       -19.4741
  18   2.0000      -0.708272       -19.2731
  19   2.0000      -0.667808       -18.1720
  20   2.0000      -0.660063       -17.9612
  21   2.0000      -0.650821       -17.7097
  22   2.0000      -0.599569       -16.3151
  23   2.0000      -0.598507       -16.2862
  24   2.0000      -0.573879       -15.6160
  25   2.0000      -0.569609       -15.4999
  26   2.0000      -0.541408       -14.7324
  27   2.0000      -0.494073       -13.4444
  28   2.0000      -0.488224       -13.2853
  29   2.0000      -0.459389       -12.5006
  30   2.0000      -0.456315       -12.4170
  31   0.0000       0.021719         0.5910
  32   0.0000       0.029452         0.8014
  33   0.0000       0.030815         0.8385
  34   0.0000       0.040394         1.0992
  35   0.0000       0.045227         1.2307

MULLIKEN ATOMIC CHARGES
-----------------------
   0 O :   -0.806086
   1 C :    1.103812
   2 C :   -0.493613
   3 C :   -0.492383
   4 C :    1.101966
   5 O :   -0.806048
   6 O :   -0.680208
   7 O :   -0.681249
   8 H :    0.333141
   9 H :    0.245543
  10 H :    0.245119
  11 H :    0.329810
  12 H :    0.300001
  13 H :    0.300195
Sum of atomic charges:   -0.0000000

LOEWDIN ATOMIC CHARGES
----------------------
   0 O :    0.709544
   1 C :   -1.014581
   2 C :    0.444244
   3 C :    0.444738
   4 C :   -1.013759
   5 O :    0.709367
   6 O :    1.261531
   7 O :    1.261379
   8 H :   -0.281902
   9 H :   -0.315588
  10 H :   -0.315323
  11 H :   -0.282179
  12 H :   -0.803648
  13 H :   -0.803824

  Mayer bond orders larger than 0.100000
B(  0-O ,  1-C ) :   1.2968 B(  0-O ,  2-C ) :   0.1326 B(  1-C ,  2-C ) :   1.0578
B(  1-C ,  7-O ) :   0.8593 B(  2-C ,  3-C ) :   1.0669 B(  2-C ,  8-H ) :   0.8400
B(  2-C ,  9-H ) :   0.9190 B(  3-C ,  4-C ) :   1.0584 B(  3-C ,  5-O ) :   0.1344
B(  3-C , 10-H ) :   0.9181 B(  3-C , 11-H ) :   0.8418 B(  4-C ,  5-O ) :   1.2983
B(  4-C ,  6-O ) :   0.8596 B(  6-O , 12-H ) :   0.9452 B(  7-O , 13-H ) :   0.9448

MP2 TOTAL ENERGY:     -456.384185302 Eh
FINAL SINGLE POINT ENERGY      -456.384185302052

DIPOLE MOMENT
-------------
                                X             Y             Z
Electronic contribution:      0.00049      -3.07603       0.22995
Nuclear contribution   :     -0.00645       3.48730      -0.25515
                        -----------------------------------------
Total Dipole Moment    :     -0.00596       0.41127      -0.02520
                        -----------------------------------------
Magnitude (a.u.)       :      0.41208
Magnitude (Debye)      :      1.04743

Rotational constants in cm-1:     0.130836     0.041286     0.040984
Rotational constants in MHz :  3922.359749  1237.731637  1228.666001

                             ****ORCA TERMINATED NORMALLY****
TOTAL RUN TIME: 0 days 0 hours 34 minutes 48 seconds 405 msec
