                         Program Version 5.0.4 -  RELEASE  -
|  1> !ri-mp2 aug-cc-pvqz aug-cc-pvqz/c tightscf
|  2> %pal nprocs 16 end
|  3>
|  4> * xyz 0 1
|  5> N     -0.177991    1.757044   -0.045284
|  6> C     -0.174557    0.454696    0.630245
|  7> C      1.009523   -0.385808    0.110632
|  8> O      1.076352   -1.580041    0.246542
|  9> O      1.963473    0.331956   -0.488889
| 10> H      1.615569    1.250303   -0.522903
| 11> C     -1.479889   -0.332217    0.505893
| 12> O     -1.818406   -0.558856   -0.858546
| 13> H      0.029220    0.618593    1.692314
| 14> H     -2.295702    0.252625    0.931383
| 15> H     -1.398556   -1.270636    1.055345
| 16> H     -1.310349   -1.313636   -1.174889
| 17> H     -0.748545    1.709812   -0.883078
| 18> H     -0.547515    2.489126    0.545335
| 19> *
| 20>
| 21>                          ****END OF INPUT****

CARTESIAN COORDINATES (ANGSTROEM)
---------------------------------
  N     -0.177991    1.757044   -0.045284
  C     -0.174557    0.454696    0.630245
  C      1.009523   -0.385808    0.110632
  O      1.076352   -1.580041    0.246542
  O      1.963473    0.331956   -0.488889
  H      1.615569    1.250303   -0.522903
  C     -1.479889   -0.332217    0.505893
  O     -1.818406   -0.558856   -0.858546
  H      0.029220    0.618593    1.692314
  H     -2.295702    0.252625    0.931383
  H     -1.398556   -1.270636    1.055345
  H     -1.310349   -1.313636   -1.174889
  H     -0.748545    1.709812   -0.883078
  H     -0.547515    2.489126    0.545335

 Total Charge           Charge          ....    0
 Multiplicity           Mult            ....    1
 Number of Electrons    NEL             ....   56
 Basis Dimension        Dim             ....  882

ORBITAL ENERGIES
----------------

  NO   OCC          E(Eh)            E(eV)
   0   2.0000     -20.600392      -560.5652
   1   2.0000     -20.573734      -559.8398
   2   2.0000     -20.542508      -558.9901
   3   2.0000     -15.581912      -424.0054
   4   2.0000     -11.382220      -309.7260
   5   2.0000     -11.296616      -307.3966
   6   2.0000     -11.295822      -307.3749
   7   2.0000      -1.459123       -39.7048
   8   2.0000      -1.378779       -37.5185
   9   2.0000      -1.363020       -37.0897
  10   2.0000      -1.222624       -33.2693
  11   2.0000      -1.019773       -27.7494
  12   2.0000      -0.899651       -24.4807
  13   2.0000      -0.810925       -22.0664
  14   2.0000      -0.746460       -20.3122
  15   2.0000      -0.716536       -19.4979
  16   2.0000      -0.699876       -19.0446
  17   2.0000      -0.670992       -18.2586
  18   2.0000      -0.638100       -17.3636
  19   2.0000      -0.625803       -17.0290
  20   2.0000      -0.612084       -16.6556
  21   2.0000      -0.585544       -15.9335
  22   2.0000      -0.554333       -15.0842
  23   2.0000      -0.516111       -14.0441
  24   2.0000      -0.492082       -13.3902
  25   2.0000      -0.476312       -12.9611
  26   2.0000      -0.462299       -12.5798
  27   2.0000      -0.422806       -11.5051
  28   0.0000       0.016773         0.4564
  29   0.0000       0.029940         0.8147
  30   0.0000       0.034155         0.9294
  31   0.0000       0.037430         1.0185
  32   0.0000       0.051751         1.4082

MULLIKEN ATOMIC CHARGES
-----------------------
   0 N :   -0.697023
   1 C :    0.035695
   2 C :    1.128863
   3 O :   -0.796013
   4 O :   -0.875397
   5 H :    0.404209
   6 C :   -0.121119
   7 O :   -0.876166
   8 H :    0.384877
   9 H :    0.325406
  10 H :    0.257940
  11 H :    0.359436
  12 H :    0.260074
  13 H :    0.209217
Sum of atomic charges:    0.0000000

LOEWDIN ATOMIC CHARGES
----------------------
   0 N :    1.292216
   1 C :   -0.072070
   2 C :   -1.031861
   3 O :    0.682953
   4 O :    1.256900
   5 H :   -0.941300
   6 C :    0.177874
   7 O :    1.283668
   8 H :   -0.290208
   9 H :   -0.306839
  10 H :   -0.306850
  11 H :   -0.792661
  12 H :   -0.489384
  13 H :   -0.462438

  Mayer bond orders larger than 0.100000
B(  0-N ,  1-C ) :   0.7452 B(  0-N , 12-H ) :   0.9074 B(  0-N , 13-H ) :   1.0016
B(  1-C ,  2-C ) :   1.0312 B(  1-C ,  3-O ) :   0.1218 B(  1-C ,  6-C ) :   0.8946
B(  1-C ,  8-H ) :   0.7569 B(  2-C ,  3-O ) :   1.4543 B(  2-C ,  4-O ) :   0.6891
B(  3-O ,  4-O ) :   0.1126 B(  4-O ,  5-H ) :   0.7540 B(  6-C ,  7-O ) :   0.6514
B(  6-C ,  9-H ) :   0.8975 B(  6-C , 10-H ) :   0.9173 B(  7-O , 11-H ) :   0.8546

MP2 TOTAL ENERGY:     -398.450018790 Eh
FINAL SINGLE POINT ENERGY      -398.450018789821

DIPOLE MOMENT
-------------
                                X             Y             Z
Electronic contribution:      3.69829      -2.35601      -1.03761
Nuclear contribution   :     -4.64116       3.72081       1.62711
                        -----------------------------------------
Total Dipole Moment    :     -0.94287       1.36481       0.58950
                        -----------------------------------------
Magnitude (a.u.)       :      1.76046
Magnitude (Debye)      :      4.47472

Rotational constants in cm-1:     0.118621     0.077663     0.057178
Rotational constants in MHz :  3556.167214  2328.277482  1714.144266

                             ****ORCA TERMINATED NORMALLY****
TOTAL RUN TIME: 0 days 0 hours 23 minutes 42 seconds 61 msec
