                         Program Version 5.0.4 -  RELEASE  -
|  1> !ri-mp2 aug-cc-pvqz aug-cc-pvqz/c tightscf
|  2> %pal nprocs 16 end
|  3>
|  4> * xyz 0 1
|  5> C      1.333065    3.036686    0.000000
|  6> C     -0.058033    3.001626    0.000000
|  7> C      2.057969    1.849796    0.000000
|  8> C     -0.721944    1.784420    0.000000
|  9> C      1.395636    0.630072    0.000000
| 10> C      0.000000    0.587581    0.000000
| 11> C     -0.775412   -0.687600    0.000000
| 12> C     -1.161168   -3.408295    0.000000
| 13> O     -1.984399   -0.723520    0.000000
| 14> S      0.197665   -2.203581    0.000000
| 15> H      1.851085    3.986336    0.000000
| 16> H     -0.623442    3.923567    0.000000
| 17> H      3.139026    1.874086    0.000000
| 18> H     -1.801297    1.738555    0.000000
| 19> H      1.969563   -0.285827    0.000000
| 20> H     -1.773676   -3.283052    0.887927
| 21> H     -0.695712   -4.390868    0.000000
| 22> H     -1.773676   -3.283052   -0.887927
| 23> *
| 24>
| 25>                          ****END OF INPUT****

CARTESIAN COORDINATES (ANGSTROEM)
---------------------------------
  C      1.333065    3.036686    0.000000
  C     -0.058033    3.001626    0.000000
  C      2.057969    1.849796    0.000000
  C     -0.721944    1.784420    0.000000
  C      1.395636    0.630072    0.000000
  C      0.000000    0.587581    0.000000
  C     -0.775412   -0.687600    0.000000
  C     -1.161168   -3.408295    0.000000
  O     -1.984399   -0.723520    0.000000
  S      0.197665   -2.203581    0.000000
  H      1.851085    3.986336    0.000000
  H     -0.623442    3.923567    0.000000
  H      3.139026    1.874086    0.000000
  H     -1.801297    1.738555    0.000000
  H      1.969563   -0.285827    0.000000
  H     -1.773676   -3.283052    0.887927
  H     -0.695712   -4.390868    0.000000
  H     -1.773676   -3.283052   -0.887927

 Total Charge           Charge          ....    0
 Multiplicity           Mult            ....    1
 Number of Electrons    NEL             ....   80
 Basis Dimension        Dim             .... 1172

ORBITAL ENERGIES
----------------

  NO   OCC          E(Eh)            E(eV)
   0   2.0000     -91.966655     -2502.5399
   1   2.0000     -20.551946      -559.2469
   2   2.0000     -11.364128      -309.2336
   3   2.0000     -11.256476      -306.3043
   4   2.0000     -11.256129      -306.2948
   5   2.0000     -11.254885      -306.2610
   6   2.0000     -11.253309      -306.2181
   7   2.0000     -11.249723      -306.1205
   8   2.0000     -11.245715      -306.0115
   9   2.0000     -11.244276      -305.9723
  10   2.0000      -8.969247      -244.0656
  11   2.0000      -6.650703      -180.9748
  12   2.0000      -6.649715      -180.9480
  13   2.0000      -6.649078      -180.9306
  14   2.0000      -1.401402       -38.1341
  15   2.0000      -1.172482       -31.9049
  16   2.0000      -1.067502       -29.0482
  17   2.0000      -1.039095       -28.2752
  18   2.0000      -1.031306       -28.0633
  19   2.0000      -0.919291       -25.0152
  20   2.0000      -0.857305       -23.3285
  21   2.0000      -0.836341       -22.7580
  22   2.0000      -0.758633       -20.6434
  23   2.0000      -0.709428       -19.3045
  24   2.0000      -0.659242       -17.9389
  25   2.0000      -0.656033       -17.8516
  26   2.0000      -0.625971       -17.0335
  27   2.0000      -0.616648       -16.7798
  28   2.0000      -0.603596       -16.4247
  29   2.0000      -0.602024       -16.3819
  30   2.0000      -0.562383       -15.3032
  31   2.0000      -0.555985       -15.1291
  32   2.0000      -0.528791       -14.3891
  33   2.0000      -0.509027       -13.8513
  34   2.0000      -0.507473       -13.8090
  35   2.0000      -0.482236       -13.1223
  36   2.0000      -0.408936       -11.1277
  37   2.0000      -0.375426       -10.2159
  38   2.0000      -0.351000        -9.5512
  39   2.0000      -0.348640        -9.4870
  40   0.0000       0.022675         0.6170
  41   0.0000       0.026885         0.7316
  42   0.0000       0.029700         0.8082
  43   0.0000       0.038579         1.0498
  44   0.0000       0.042266         1.1501

MULLIKEN ATOMIC CHARGES
-----------------------
   0 C :   -0.276905
   1 C :   -0.257522
   2 C :   -0.370947
   3 C :   -0.251978
   4 C :   -0.197781
   5 C :   -0.076890
   6 C :    0.677078
   7 C :   -1.001305
   8 O :   -0.831163
   9 S :    0.112762
  10 H :    0.315213
  11 H :    0.280273
  12 H :    0.272744
  13 H :    0.310050
  14 H :    0.271993
  15 H :    0.283636
  16 H :    0.457103
  17 H :    0.283636
Sum of atomic charges:   -0.0000000

LOEWDIN ATOMIC CHARGES
----------------------
   0 C :    0.348041
   1 C :    0.358105
   2 C :    0.355150
   3 C :    0.311290
   4 C :    0.277018
   5 C :   -0.223074
   6 C :   -1.073999
   7 C :    0.540926
   8 O :    0.653311
   9 S :    1.295675
  10 H :   -0.317453
  11 H :   -0.321630
  12 H :   -0.321515
  13 H :   -0.343030
  14 H :   -0.396406
  15 H :   -0.375526
  16 H :   -0.391356
  17 H :   -0.375526

  Mayer bond orders larger than 0.100000
B(  0-C ,  1-C ) :   1.1400 B(  0-C ,  2-C ) :   1.1848 B(  0-C ,  5-C ) :   0.1258
B(  0-C , 10-H ) :   1.0125 B(  0-C , 11-H ) :  -0.1051 B(  1-C ,  3-C ) :   1.2714
B(  1-C ,  5-C ) :  -0.2888 B(  1-C , 11-H ) :   1.0843 B(  2-C ,  4-C ) :   1.1835
B(  2-C ,  5-C ) :  -0.2295 B(  2-C , 12-H ) :   1.0925 B(  3-C ,  5-C ) :   1.1101
B(  3-C ,  6-C ) :  -0.3364 B(  3-C , 11-H ) :  -0.1351 B(  3-C , 13-H ) :   0.8913
B(  4-C ,  5-C ) :   1.1323 B(  4-C ,  6-C ) :  -0.3970 B(  4-C , 12-H ) :  -0.1294
B(  4-C , 14-H ) :   0.9856 B(  5-C ,  6-C ) :   0.6496 B(  5-C ,  8-O ) :   0.3908
B(  5-C ,  9-S ) :  -0.1743 B(  5-C , 14-H ) :  -0.1829 B(  6-C ,  8-O ) :   1.0318
B(  6-C ,  9-S ) :   1.1078 B(  6-C , 14-H ) :   0.1310 B(  7-C ,  9-S ) :   1.0527
B(  7-C , 15-H ) :   0.9100 B(  7-C , 16-H ) :   0.7984 B(  7-C , 17-H ) :   0.9100

MP2 TOTAL ENERGY:     -781.986061664 Eh
FINAL SINGLE POINT ENERGY      -781.986061663664

DIPOLE MOMENT
-------------
                                X             Y             Z
Electronic contribution:      0.41509      -0.10883      -0.00000
Nuclear contribution   :      0.25120       0.33199       0.00000
                        -----------------------------------------
Total Dipole Moment    :      0.66630       0.22317      -0.00000
                        -----------------------------------------
Magnitude (a.u.)       :      0.70268
Magnitude (Debye)      :      1.78606

Rotational constants in cm-1:     0.103180     0.022387     0.018459
Rotational constants in MHz :  3093.250381   671.134706   553.400898

                             ****ORCA TERMINATED NORMALLY****
TOTAL RUN TIME: 0 days 1 hours 33 minutes 29 seconds 840 msec
