                         Program Version 5.0.4 -  RELEASE  -
|  1> !ri-mp2 aug-cc-pvqz aug-cc-pvqz/c tightscf
|  2> %pal nprocs 16 end
|  3>
|  4> * xyz 0 1
|  5> H     -1.062995    1.233708   -0.007749
|  6> N     -1.287298    0.301061   -0.329906
|  7> H     -2.668450   -0.329662    1.188710
|  8> H     -2.886524   -1.049290   -0.414325
|  9> H     -3.337280    0.630006   -0.147704
| 10> C     -2.603422   -0.132820    0.107415
| 11> H     -0.323323   -1.023463    1.042073
| 12> H     -0.185290   -1.445839   -0.662916
| 13> C     -0.216255   -0.595054    0.027536
| 14> O      1.244161    1.313708    0.076402
| 15> C      1.122183    0.123838    0.016980
| 16> H      1.964442   -1.602938   -0.095392
| 17> O      2.217773   -0.675674   -0.014519
| 18> *
| 19>
| 20>                          ****END OF INPUT****

CARTESIAN COORDINATES (ANGSTROEM)
---------------------------------
  H     -1.062995    1.233708   -0.007749
  N     -1.287298    0.301061   -0.329906
  H     -2.668450   -0.329662    1.188710
  H     -2.886524   -1.049290   -0.414325
  H     -3.337280    0.630006   -0.147704
  C     -2.603422   -0.132820    0.107415
  H     -0.323323   -1.023463    1.042073
  H     -0.185290   -1.445839   -0.662916
  C     -0.216255   -0.595054    0.027536
  O      1.244161    1.313708    0.076402
  C      1.122183    0.123838    0.016980
  H      1.964442   -1.602938   -0.095392
  O      2.217773   -0.675674   -0.014519

 Total Charge           Charge          ....    0
 Multiplicity           Mult            ....    1
 Number of Electrons    NEL             ....   48
 Basis Dimension        Dim             ....  802

ORBITAL ENERGIES
----------------

  NO   OCC          E(Eh)            E(eV)
   0   2.0000     -20.617760      -561.0378
   1   2.0000     -20.549733      -559.1867
   2   2.0000     -15.554646      -423.2634
   3   2.0000     -11.390756      -309.9582
   4   2.0000     -11.288170      -307.1667
   5   2.0000     -11.254894      -306.2612
   6   2.0000      -1.466815       -39.9141
   7   2.0000      -1.372694       -37.3529
   8   2.0000      -1.223519       -33.2936
   9   2.0000      -1.005150       -27.3515
  10   2.0000      -0.894525       -24.3413
  11   2.0000      -0.831730       -22.6325
  12   2.0000      -0.746591       -20.3158
  13   2.0000      -0.677423       -18.4336
  14   2.0000      -0.674695       -18.3594
  15   2.0000      -0.633445       -17.2369
  16   2.0000      -0.616159       -16.7665
  17   2.0000      -0.610287       -16.6068
  18   2.0000      -0.570135       -15.5142
  19   2.0000      -0.544419       -14.8144
  20   2.0000      -0.529359       -14.4046
  21   2.0000      -0.487719       -13.2715
  22   2.0000      -0.457475       -12.4485
  23   2.0000      -0.385438       -10.4883
  24   0.0000       0.017723         0.4823
  25   0.0000       0.028800         0.7837
  26   0.0000       0.033671         0.9162
  27   0.0000       0.040829         1.1110
  28   0.0000       0.051152         1.3919

MULLIKEN ATOMIC CHARGES
-----------------------
   0 H :    0.275272
   1 N :   -0.468176
   2 H :    0.267468
   3 H :    0.259010
   4 H :    0.358110
   5 C :   -0.817473
   6 H :    0.289148
   7 H :    0.283418
   8 C :   -0.419226
   9 O :   -0.768720
  10 C :    1.131330
  11 H :    0.370187
  12 O :   -0.760346
Sum of atomic charges:   -0.0000000

LOEWDIN ATOMIC CHARGES
----------------------
   0 H :   -0.579849
   1 N :    0.859778
   2 H :   -0.282983
   3 H :   -0.298831
   4 H :   -0.297838
   5 C :    0.764860
   6 H :   -0.281000
   7 H :   -0.299735
   8 C :    0.278615
   9 O :    0.702332
  10 C :   -0.999943
  11 H :   -0.814606
  12 O :    1.249200

  Mayer bond orders larger than 0.100000
B(  0-H ,  1-N ) :   0.8981 B(  1-N ,  5-C ) :   0.9528 B(  1-N ,  8-C ) :   0.9078
B(  2-H ,  5-C ) :   0.9255 B(  3-H ,  5-C ) :   0.9478 B(  4-H ,  5-C ) :   0.8945
B(  6-H ,  8-C ) :   0.8514 B(  7-H ,  8-C ) :   0.9093 B(  8-C ,  9-O ) :   0.1223
B(  8-C , 10-C ) :   1.1240 B(  8-C , 12-O ) :   0.1135 B(  9-O , 10-C ) :   1.4809
B( 10-C , 12-O ) :   0.7215 B( 11-H , 12-O ) :   0.8385

MP2 TOTAL ENERGY:     -323.277587416 Eh
FINAL SINGLE POINT ENERGY      -323.277587415952

DIPOLE MOMENT
-------------
                                X             Y             Z
Electronic contribution:      7.68768       2.09536      -0.60375
Nuclear contribution   :     -8.55235      -3.61793       0.91240
                        -----------------------------------------
Total Dipole Moment    :     -0.86466      -1.52258       0.30865
                        -----------------------------------------
Magnitude (a.u.)       :      1.77796
Magnitude (Debye)      :      4.51922

Rotational constants in cm-1:     0.309318     0.064865     0.055351
Rotational constants in MHz :  9273.121779  1944.612106  1659.388650

                             ****ORCA TERMINATED NORMALLY****
TOTAL RUN TIME: 0 days 0 hours 16 minutes 9 seconds 415 msec
