                         Program Version 5.0.4 -  RELEASE  -
|  1> !ri-mp2 aug-cc-pvqz aug-cc-pvqz/c tightscf
|  2> %pal nprocs 16 end
|  3>
|  4> * xyz 0 1
|  5> C     -0.591523   -0.910088    0.000000
|  6> C      1.806424    0.511742    0.000000
|  7> O     -1.751511   -1.205927    0.000000
|  8> S      0.000000    0.769997    0.000000
|  9> H      0.228373   -1.652841    0.000000
| 10> H      2.021441   -0.556170    0.000000
| 11> H      2.236433    0.963278    0.889535
| 12> H      2.236433    0.963278   -0.889535
| 13> *
| 14>
| 15>                          ****END OF INPUT****

CARTESIAN COORDINATES (ANGSTROEM)
---------------------------------
  C     -0.591523   -0.910088    0.000000
  C      1.806424    0.511742    0.000000
  O     -1.751511   -1.205927    0.000000
  S      0.000000    0.769997    0.000000
  H      0.228373   -1.652841    0.000000
  H      2.021441   -0.556170    0.000000
  H      2.236433    0.963278    0.889535
  H      2.236433    0.963278   -0.889535

 Total Charge           Charge          ....    0
 Multiplicity           Mult            ....    1
 Number of Electrons    NEL             ....   40
 Basis Dimension        Dim             ....  508

ORBITAL ENERGIES
----------------

  NO   OCC          E(Eh)            E(eV)
   0   2.0000     -91.980169     -2502.9076
   1   2.0000     -20.568663      -559.7018
   2   2.0000     -11.369034      -309.3671
   3   2.0000     -11.278183      -306.8950
   4   2.0000      -8.982497      -244.4262
   5   2.0000      -6.663759      -181.3301
   6   2.0000      -6.662937      -181.3077
   7   2.0000      -6.662230      -181.2885
   8   2.0000      -1.414130       -38.4804
   9   2.0000      -1.076682       -29.2980
  10   2.0000      -0.927982       -25.2517
  11   2.0000      -0.803445       -21.8629
  12   2.0000      -0.676143       -18.3988
  13   2.0000      -0.642433       -17.4815
  14   2.0000      -0.616192       -16.7674
  15   2.0000      -0.585347       -15.9281
  16   2.0000      -0.560071       -15.2403
  17   2.0000      -0.490465       -13.3462
  18   2.0000      -0.421177       -11.4608
  19   2.0000      -0.378437       -10.2978
  20   0.0000       0.020637         0.5615
  21   0.0000       0.034000         0.9252
  22   0.0000       0.036596         0.9958
  23   0.0000       0.044072         1.1993
  24   0.0000       0.066182         1.8009

MULLIKEN ATOMIC CHARGES
-----------------------
   0 C :   -0.035942
   1 C :   -0.829405
   2 O :   -0.632394
   3 S :    0.259895
   4 H :    0.398073
   5 H :    0.298498
   6 H :    0.270638
   7 H :    0.270638
Sum of atomic charges:   -0.0000000

LOEWDIN ATOMIC CHARGES
----------------------
   0 C :   -0.720909
   1 C :    0.541929
   2 O :    0.567663
   3 S :    1.251499
   4 H :   -0.470478
   5 H :   -0.411822
   6 H :   -0.378940
   7 H :   -0.378940

  Mayer bond orders larger than 0.100000
B(  0-C ,  2-O ) :   1.7151 B(  0-C ,  3-S ) :   1.0965 B(  0-C ,  4-H ) :   0.7948
B(  1-C ,  3-S ) :   0.9863 B(  1-C ,  5-H ) :   0.8849 B(  1-C ,  6-H ) :   0.9218
B(  1-C ,  7-H ) :   0.9218

MP2 TOTAL ENERGY:     -551.339739487 Eh
FINAL SINGLE POINT ENERGY      -551.339739487027

DIPOLE MOMENT
-------------
                                X             Y             Z
Electronic contribution:     -4.90964       0.41564       0.00000
Nuclear contribution   :      6.60798      -0.32099       0.00000
                        -----------------------------------------
Total Dipole Moment    :      1.69834       0.09464       0.00000
                        -----------------------------------------
Magnitude (a.u.)       :      1.70097
Magnitude (Debye)      :      4.32353

Rotational constants in cm-1:     0.649475     0.117320     0.101275
Rotational constants in MHz : 19470.782017  3517.168893  3036.138957

                             ****ORCA TERMINATED NORMALLY****
TOTAL RUN TIME: 0 days 0 hours 5 minutes 7 seconds 663 msec
