                         Program Version 5.0.4 -  RELEASE  -
|  1> !ri-mp2 aug-cc-pvqz aug-cc-pvqz/c tightscf
|  2> %pal nprocs 16 end
|  3>
|  4> * xyz 0 1
|  5> S     -1.717687   -0.094549    0.004331
|  6> O      2.473344   -0.005347   -0.104993
|  7> C     -0.032037    0.049767   -0.007089
|  8> C      1.170348    0.011478    0.003985
|  9> H     -2.024932    1.220216    0.023363
| 10> H      2.891302   -0.032124    0.765910
| 11> *
| 12>
| 13>                          ****END OF INPUT****

CARTESIAN COORDINATES (ANGSTROEM)
---------------------------------
  S     -1.717687   -0.094549    0.004331
  O      2.473344   -0.005347   -0.104993
  C     -0.032037    0.049767   -0.007089
  C      1.170348    0.011478    0.003985
  H     -2.024932    1.220216    0.023363
  H      2.891302   -0.032124    0.765910

 Total Charge           Charge          ....    0
 Multiplicity           Mult            ....    1
 Number of Electrons    NEL             ....   38
 Basis Dimension        Dim             ....  416

ORBITAL ENERGIES
----------------

  NO   OCC          E(Eh)            E(eV)
   0   2.0000     -91.988064     -2503.1225
   1   2.0000     -20.641605      -561.6866
   2   2.0000     -11.301232      -307.5222
   3   2.0000     -11.247510      -306.0603
   4   2.0000      -8.988611      -244.5925
   5   2.0000      -6.670405      -181.5109
   6   2.0000      -6.669330      -181.4817
   7   2.0000      -6.668415      -181.4568
   8   2.0000      -1.455065       -39.5943
   9   2.0000      -1.073015       -29.1982
  10   2.0000      -0.971886       -26.4464
  11   2.0000      -0.820577       -22.3290
  12   2.0000      -0.678545       -18.4641
  13   2.0000      -0.644991       -17.5511
  14   2.0000      -0.626014       -17.0347
  15   2.0000      -0.528841       -14.3905
  16   2.0000      -0.468699       -12.7540
  17   2.0000      -0.376387       -10.2420
  18   2.0000      -0.340542        -9.2666
  19   0.0000       0.019715         0.5365
  20   0.0000       0.032268         0.8780
  21   0.0000       0.057397         1.5619
  22   0.0000       0.065292         1.7767
  23   0.0000       0.070412         1.9160

MULLIKEN ATOMIC CHARGES
-----------------------
   0 S :    0.102218
   1 O :   -0.737480
   2 C :   -0.554689
   3 C :    0.741895
   4 H :    0.086332
   5 H :    0.361724
Sum of atomic charges:    0.0000000

LOEWDIN ATOMIC CHARGES
----------------------
   0 S :    1.411517
   1 O :    1.154846
   2 C :   -0.561486
   3 C :   -0.406044
   4 H :   -0.802230
   5 H :   -0.796603

  Mayer bond orders larger than 0.100000
B(  0-S ,  2-C ) :   0.7169 B(  0-S ,  4-H ) :   1.0347 B(  1-O ,  2-C ) :   0.1864
B(  1-O ,  3-C ) :   0.8649 B(  1-O ,  5-H ) :   0.8874 B(  2-C ,  3-C ) :   2.6698

MP2 TOTAL ENERGY:     -550.061525124 Eh
FINAL SINGLE POINT ENERGY      -550.061525124063

DIPOLE MOMENT
-------------
                                X             Y             Z
Electronic contribution:     -0.50358      -0.85506      -0.15551
Nuclear contribution   :      0.92305       1.14704       0.75847
                        -----------------------------------------
Total Dipole Moment    :      0.41947       0.29199       0.60296
                        -----------------------------------------
Magnitude (a.u.)       :      0.79043
Magnitude (Debye)      :      2.00911

Rotational constants in cm-1:     6.710131     0.075844     0.075494
Rotational constants in MHz : 201164.669192  2273.758326  2263.250215

                             ****ORCA TERMINATED NORMALLY****
TOTAL RUN TIME: 0 days 0 hours 3 minutes 14 seconds 43 msec
