                         Program Version 5.0.4 -  RELEASE  -
|  1> !ri-mp2 aug-cc-pvqz aug-cc-pvqz/c tightscf
|  2> %pal nprocs 16 end
|  3>
|  4> * xyz 0 1
|  5> C      2.274150    1.388749   -0.000069
|  6> C      3.234944    0.386128    0.000107
|  7> C      0.927785    1.052725   -0.000171
|  8> C      2.801859   -0.932997    0.000173
|  9> C      0.607018   -0.304386   -0.000074
| 10> C     -2.244819    0.347643    0.000025
| 11> C     -3.658489   -0.190391    0.000171
| 12> N      1.514712   -1.276021    0.000089
| 13> O     -1.993920    1.525908    0.000110
| 14> S     -1.049030   -0.997881   -0.000205
| 15> H      2.565776    2.430616   -0.000132
| 16> H      4.290895    0.616050    0.000187
| 17> H      0.153685    1.800661   -0.000305
| 18> H      3.511957   -1.751445    0.000302
| 19> H     -4.172879    0.194508   -0.880641
| 20> H     -4.172111    0.193012    0.882092
| 21> H     -3.699155   -1.277234   -0.000689
| 22> *
| 23>
| 24>                          ****END OF INPUT****

CARTESIAN COORDINATES (ANGSTROEM)
---------------------------------
  C      2.274150    1.388749   -0.000069
  C      3.234944    0.386128    0.000107
  C      0.927785    1.052725   -0.000171
  C      2.801859   -0.932997    0.000173
  C      0.607018   -0.304386   -0.000074
  C     -2.244819    0.347643    0.000025
  C     -3.658489   -0.190391    0.000171
  N      1.514712   -1.276021    0.000089
  O     -1.993920    1.525908    0.000110
  S     -1.049030   -0.997881   -0.000205
  H      2.565776    2.430616   -0.000132
  H      4.290895    0.616050    0.000187
  H      0.153685    1.800661   -0.000305
  H      3.511957   -1.751445    0.000302
  H     -4.172879    0.194508   -0.880641
  H     -4.172111    0.193012    0.882092
  H     -3.699155   -1.277234   -0.000689

 Total Charge           Charge          ....    0
 Multiplicity           Mult            ....    1
 Number of Electrons    NEL             ....   80
 Basis Dimension        Dim             .... 1126

ORBITAL ENERGIES
----------------

  NO   OCC          E(Eh)            E(eV)
   0   2.0000     -91.982551     -2502.9725
   1   2.0000     -20.561892      -559.5175
   2   2.0000     -15.572774      -423.7567
   3   2.0000     -11.374745      -309.5226
   4   2.0000     -11.317269      -307.9586
   5   2.0000     -11.281782      -306.9929
   6   2.0000     -11.262610      -306.4712
   7   2.0000     -11.249317      -306.1095
   8   2.0000     -11.244139      -305.9686
   9   2.0000     -11.242345      -305.9198
  10   2.0000      -8.984861      -244.4905
  11   2.0000      -6.666193      -181.3963
  12   2.0000      -6.665002      -181.3639
  13   2.0000      -6.664423      -181.3482
  14   2.0000      -1.412502       -38.4361
  15   2.0000      -1.277769       -34.7699
  16   2.0000      -1.097400       -29.8618
  17   2.0000      -1.080183       -29.3933
  18   2.0000      -1.039063       -28.2743
  19   2.0000      -0.970691       -26.4139
  20   2.0000      -0.871213       -23.7069
  21   2.0000      -0.848551       -23.0903
  22   2.0000      -0.761433       -20.7196
  23   2.0000      -0.704867       -19.1804
  24   2.0000      -0.680474       -18.5166
  25   2.0000      -0.669025       -18.2051
  26   2.0000      -0.642078       -17.4718
  27   2.0000      -0.623177       -16.9575
  28   2.0000      -0.621517       -16.9124
  29   2.0000      -0.588542       -16.0150
  30   2.0000      -0.565574       -15.3901
  31   2.0000      -0.564027       -15.3480
  32   2.0000      -0.560605       -15.2548
  33   2.0000      -0.526602       -14.3296
  34   2.0000      -0.490015       -13.3340
  35   2.0000      -0.426990       -11.6190
  36   2.0000      -0.424189       -11.5428
  37   2.0000      -0.414237       -11.2720
  38   2.0000      -0.386475       -10.5165
  39   2.0000      -0.330898        -9.0042
  40   0.0000       0.023311         0.6343
  41   0.0000       0.024682         0.6716
  42   0.0000       0.032076         0.8728
  43   0.0000       0.040885         1.1125
  44   0.0000       0.041386         1.1262

MULLIKEN ATOMIC CHARGES
-----------------------
   0 C :   -0.277570
   1 C :   -0.291288
   2 C :   -0.216557
   3 C :   -0.348855
   4 C :   -0.112177
   5 C :    0.370359
   6 C :   -0.741059
   7 N :   -0.559207
   8 O :   -0.815801
   9 S :    0.443581
  10 H :    0.240163
  11 H :    0.358321
  12 H :    0.563787
  13 H :    0.508028
  14 H :    0.289269
  15 H :    0.289382
  16 H :    0.299624
Sum of atomic charges:   -0.0000000

LOEWDIN ATOMIC CHARGES
----------------------
   0 C :    0.335178
   1 C :    0.333655
   2 C :    0.254328
   3 C :    0.068186
   4 C :   -0.755288
   5 C :   -1.044307
   6 C :    0.775929
   7 N :    0.463689
   8 O :    0.670286
   9 S :    1.321647
  10 H :   -0.310640
  11 H :   -0.328471
  12 H :   -0.461634
  13 H :   -0.349662
  14 H :   -0.306725
  15 H :   -0.306695
  16 H :   -0.359477

  Mayer bond orders larger than 0.100000
B(  0-C ,  1-C ) :   1.2104 B(  0-C ,  2-C ) :   1.2747 B(  0-C ,  4-C ) :  -0.2391
B(  0-C , 10-H ) :   1.0947 B(  1-C ,  3-C ) :   1.3061 B(  1-C , 11-H ) :   0.9480
B(  2-C ,  3-C ) :   0.1803 B(  2-C ,  4-C ) :   0.9326 B(  2-C ,  7-N ) :   0.1066
B(  2-C ,  9-S ) :  -0.1887 B(  2-C , 12-H ) :   0.6619 B(  3-C ,  7-N ) :   1.3073
B(  3-C , 13-H ) :   0.8039 B(  4-C ,  7-N ) :   1.1152 B(  4-C ,  9-S ) :   0.8919
B(  5-C ,  6-C ) :   0.7094 B(  5-C ,  8-O ) :   1.3953 B(  5-C ,  9-S ) :   0.9351
B(  6-C , 14-H ) :   0.9429 B(  6-C , 15-H ) :   0.9426 B(  6-C , 16-H ) :   0.9638

MP2 TOTAL ENERGY:     -798.017679207 Eh
FINAL SINGLE POINT ENERGY      -798.017679206871

DIPOLE MOMENT
-------------
                                X             Y             Z
Electronic contribution:      1.58497      -2.04513      -0.00079
Nuclear contribution   :     -1.48286       2.21008       0.00081
                        -----------------------------------------
Total Dipole Moment    :      0.10212       0.16495       0.00002
                        -----------------------------------------
Magnitude (a.u.)       :      0.19400
Magnitude (Debye)      :      0.49310

Rotational constants in cm-1:     0.105628     0.022863     0.018861
Rotational constants in MHz :  3166.648159   685.412948   565.429114

                             ****ORCA TERMINATED NORMALLY****
TOTAL RUN TIME: 0 days 1 hours 9 minutes 35 seconds 305 msec
