                         Program Version 5.0.4 -  RELEASE  -
|  1> !ri-mp2 aug-cc-pvqz aug-cc-pvqz/c tightscf
|  2> %pal nprocs 16 end
|  3>
|  4> * xyz 0 1
|  5> S      2.048400   -0.290055   -0.000004
|  6> O      0.344735   -0.570900    0.000028
|  7> O      0.114295    1.662368   -0.000031
|  8> O     -2.201166   -1.044702   -0.000050
|  9> C     -0.370001    0.558920    0.000004
| 10> C     -1.869456    0.327817    0.000042
| 11> H      2.266181   -1.618423    0.000025
| 12> H     -3.158635   -1.130729    0.000000
| 13> H     -2.254090    0.847812   -0.883395
| 14> H     -2.254023    0.847674    0.883591
| 15> *
| 16>
| 17>                          ****END OF INPUT****

CARTESIAN COORDINATES (ANGSTROEM)
---------------------------------
  S      2.048400   -0.290055   -0.000004
  O      0.344735   -0.570900    0.000028
  O      0.114295    1.662368   -0.000031
  O     -2.201166   -1.044702   -0.000050
  C     -0.370001    0.558920    0.000004
  C     -1.869456    0.327817    0.000042
  H      2.266181   -1.618423    0.000025
  H     -3.158635   -1.130729    0.000000
  H     -2.254090    0.847812   -0.883395
  H     -2.254023    0.847674    0.883591

 Total Charge           Charge          ....    0
 Multiplicity           Mult            ....    1
 Number of Electrons    NEL             ....   56
 Basis Dimension        Dim             ....  668

ORBITAL ENERGIES
----------------

  NO   OCC          E(Eh)            E(eV)
   0   2.0000     -92.023263     -2504.0803
   1   2.0000     -20.632263      -561.4324
   2   2.0000     -20.582178      -560.0695
   3   2.0000     -20.554690      -559.3216
   4   2.0000     -11.395559      -310.0889
   5   2.0000     -11.313507      -307.8562
   6   2.0000      -9.019365      -245.4294
   7   2.0000      -6.700565      -182.3316
   8   2.0000      -6.699204      -182.2946
   9   2.0000      -6.697731      -182.2545
  10   2.0000      -1.476468       -40.1767
  11   2.0000      -1.387362       -37.7520
  12   2.0000      -1.370559       -37.2948
  13   2.0000      -1.026984       -27.9456
  14   2.0000      -0.961953       -26.1761
  15   2.0000      -0.779948       -21.2235
  16   2.0000      -0.731874       -19.9153
  17   2.0000      -0.710544       -19.3349
  18   2.0000      -0.689813       -18.7708
  19   2.0000      -0.666522       -18.1370
  20   2.0000      -0.626746       -17.0546
  21   2.0000      -0.595924       -16.2159
  22   2.0000      -0.547770       -14.9056
  23   2.0000      -0.514666       -14.0048
  24   2.0000      -0.504929       -13.7398
  25   2.0000      -0.469548       -12.7770
  26   2.0000      -0.463200       -12.6043
  27   2.0000      -0.380340       -10.3496
  28   0.0000       0.020702         0.5633
  29   0.0000       0.031795         0.8652
  30   0.0000       0.040598         1.1047
  31   0.0000       0.041002         1.1157
  32   0.0000       0.056801         1.5456

MULLIKEN ATOMIC CHARGES
-----------------------
   0 S :    0.176703
   1 O :   -0.596385
   2 O :   -0.709755
   3 O :   -0.702166
   4 C :    0.857451
   5 C :   -0.004918
   6 H :    0.111118
   7 H :    0.307068
   8 H :    0.280435
   9 H :    0.280449
Sum of atomic charges:    0.0000000

LOEWDIN ATOMIC CHARGES
----------------------
   0 S :    1.236368
   1 O :    0.335003
   2 O :    0.644259
   3 O :    1.244403
   4 C :   -1.302552
   5 C :    0.096136
   6 H :   -0.825933
   7 H :   -0.785877
   8 H :   -0.320907
   9 H :   -0.320901

  Mayer bond orders larger than 0.100000
B(  0-S ,  1-O ) :   0.7372 B(  0-S ,  6-H ) :   1.0472 B(  1-O ,  4-C ) :   0.9663
B(  2-O ,  4-C ) :   1.4705 B(  3-O ,  5-C ) :   0.8026 B(  3-O ,  7-H ) :   0.9283
B(  4-C ,  5-C ) :   1.0247 B(  5-C ,  8-H ) :   0.8793 B(  5-C ,  9-H ) :   0.8793

MP2 TOTAL ENERGY:     -701.618373711 Eh
FINAL SINGLE POINT ENERGY      -701.618373710691

DIPOLE MOMENT
-------------
                                X             Y             Z
Electronic contribution:      4.49259       0.40532      -0.00011
Nuclear contribution   :     -5.34196      -1.01560       0.00021
                        -----------------------------------------
Total Dipole Moment    :     -0.84937      -0.61027       0.00010
                        -----------------------------------------
Magnitude (a.u.)       :      1.04588
Magnitude (Debye)      :      2.65841

Rotational constants in cm-1:     0.206843     0.059229     0.046444
Rotational constants in MHz :  6201.006412  1775.655468  1392.352316

                             ****ORCA TERMINATED NORMALLY****
TOTAL RUN TIME: 0 days 0 hours 12 minutes 30 seconds 891 msec
