                         Program Version 5.0.4 -  RELEASE  -
|  1> !ri-mp2 aug-cc-pvqz aug-cc-pvqz/c tightscf
|  2> %pal nprocs 16 end
|  3>
|  4> * xyz 0 1
|  5> C    -0.780890     0.782120    0.714182
|  6> C     0.780890     0.782120    0.714182
|  7> C     0.780890    -0.782120    0.714182
|  8> C    -0.780890    -0.782120    0.714182
|  9> C    -1.552994     0.779426   -0.630946
| 10> C    -1.552994    -0.779426   -0.630946
| 11> H    -1.230266     1.359101    1.520382
| 12> H    -1.230266    -1.359101    1.520382
| 13> H    -1.058422     1.259186   -1.474246
| 14> H    -2.550804     1.207825   -0.545553
| 15> H    -2.550804    -1.207825   -0.545553
| 16> H    -1.058422    -1.259186   -1.474246
| 17> C     1.552994    -0.779426   -0.630946
| 18> C     1.552994     0.779426   -0.630946
| 19> H     1.230266     1.359101    1.520382
| 20> H     1.230266    -1.359101    1.520382
| 21> H     2.550804    -1.207825   -0.545553
| 22> H     1.058422    -1.259186   -1.474246
| 23> H     2.550804     1.207825   -0.545553
| 24> H     1.058422     1.259186   -1.474246
| 25> *
| 26>
| 27>                          ****END OF INPUT****

CARTESIAN COORDINATES (ANGSTROEM)
---------------------------------
  C     -0.780890    0.782120    0.714182
  C      0.780890    0.782120    0.714182
  C      0.780890   -0.782120    0.714182
  C     -0.780890   -0.782120    0.714182
  C     -1.552994    0.779426   -0.630946
  C     -1.552994   -0.779426   -0.630946
  H     -1.230266    1.359101    1.520382
  H     -1.230266   -1.359101    1.520382
  H     -1.058422    1.259186   -1.474246
  H     -2.550804    1.207825   -0.545553
  H     -2.550804   -1.207825   -0.545553
  H     -1.058422   -1.259186   -1.474246
  C      1.552994   -0.779426   -0.630946
  C      1.552994    0.779426   -0.630946
  H      1.230266    1.359101    1.520382
  H      1.230266   -1.359101    1.520382
  H      2.550804   -1.207825   -0.545553
  H      1.058422   -1.259186   -1.474246
  H      2.550804    1.207825   -0.545553
  H      1.058422    1.259186   -1.474246

 Total Charge           Charge          ....    0
 Multiplicity           Mult            ....    1
 Number of Electrons    NEL             ....   60
 Basis Dimension        Dim             .... 1192

ORBITAL ENERGIES
----------------

  NO   OCC          E(Eh)            E(eV)
   0   2.0000     -11.215961      -305.2018
   1   2.0000     -11.215448      -305.1878
   2   2.0000     -11.215439      -305.1876
   3   2.0000     -11.214921      -305.1735
   4   2.0000     -11.212564      -305.1094
   5   2.0000     -11.212564      -305.1094
   6   2.0000     -11.212032      -305.0949
   7   2.0000     -11.212032      -305.0949
   8   2.0000      -1.170654       -31.8551
   9   2.0000      -1.069449       -29.1012
  10   2.0000      -0.947659       -25.7871
  11   2.0000      -0.926708       -25.2170
  12   2.0000      -0.853113       -23.2144
  13   2.0000      -0.809445       -22.0261
  14   2.0000      -0.766399       -20.8548
  15   2.0000      -0.687221       -18.7002
  16   2.0000      -0.660183       -17.9645
  17   2.0000      -0.645280       -17.5590
  18   2.0000      -0.609708       -16.5910
  19   2.0000      -0.568414       -15.4673
  20   2.0000      -0.564943       -15.3729
  21   2.0000      -0.547080       -14.8868
  22   2.0000      -0.504827       -13.7371
  23   2.0000      -0.474590       -12.9143
  24   2.0000      -0.472759       -12.8644
  25   2.0000      -0.450079       -12.2473
  26   2.0000      -0.421421       -11.4674
  27   2.0000      -0.406129       -11.0513
  28   2.0000      -0.397349       -10.8124
  29   2.0000      -0.368452       -10.0261
  30   0.0000       0.025567         0.6957
  31   0.0000       0.029517         0.8032
  32   0.0000       0.030935         0.8418
  33   0.0000       0.033319         0.9067
  34   0.0000       0.041587         1.1316

MULLIKEN ATOMIC CHARGES
-----------------------
   0 C :   -0.174911
   1 C :   -0.175064
   2 C :   -0.174632
   3 C :   -0.174952
   4 C :   -0.747501
   5 C :   -0.747576
   6 H :    0.381191
   7 H :    0.381127
   8 H :    0.268382
   9 H :    0.272894
  10 H :    0.272841
  11 H :    0.268417
  12 C :   -0.747754
  13 C :   -0.747435
  14 H :    0.381087
  15 H :    0.381339
  16 H :    0.272849
  17 H :    0.268393
  18 H :    0.272910
  19 H :    0.268394
Sum of atomic charges:   -0.0000000

LOEWDIN ATOMIC CHARGES
----------------------
   0 C :    0.206710
   1 C :    0.206710
   2 C :    0.206710
   3 C :    0.206710
   4 C :    0.581820
   5 C :    0.581820
   6 H :   -0.239776
   7 H :   -0.239776
   8 H :   -0.285853
   9 H :   -0.262901
  10 H :   -0.262901
  11 H :   -0.285853
  12 C :    0.581820
  13 C :    0.581820
  14 H :   -0.239776
  15 H :   -0.239776
  16 H :   -0.262901
  17 H :   -0.285853
  18 H :   -0.262901
  19 H :   -0.285853

  Mayer bond orders larger than 0.100000
B(  0-C ,  1-C ) :   0.7002 B(  0-C ,  2-C ) :   0.1252 B(  0-C ,  3-C ) :   0.7363
B(  0-C ,  4-C ) :   0.8748 B(  0-C ,  5-C ) :  -0.1167 B(  0-C ,  6-H ) :   0.9517
B(  1-C ,  2-C ) :   0.7365 B(  1-C ,  3-C ) :   0.1253 B(  1-C , 12-C ) :  -0.1166
B(  1-C , 13-C ) :   0.8748 B(  1-C , 14-H ) :   0.9517 B(  2-C ,  3-C ) :   0.7003
B(  2-C , 12-C ) :   0.8747 B(  2-C , 13-C ) :  -0.1168 B(  2-C , 15-H ) :   0.9515
B(  3-C ,  4-C ) :  -0.1168 B(  3-C ,  5-C ) :   0.8747 B(  3-C ,  7-H ) :   0.9517
B(  4-C ,  5-C ) :   1.1799 B(  4-C ,  8-H ) :   0.9360 B(  4-C ,  9-H ) :   0.9727
B(  5-C , 10-H ) :   0.9728 B(  5-C , 11-H ) :   0.9361 B( 12-C , 13-C ) :   1.1799
B( 12-C , 16-H ) :   0.9728 B( 12-C , 17-H ) :   0.9361 B( 13-C , 18-H ) :   0.9727
B( 13-C , 19-H ) :   0.9360

MP2 TOTAL ENERGY:     -311.377273324 Eh
FINAL SINGLE POINT ENERGY      -311.377273323594

DIPOLE MOMENT
-------------
                                X             Y             Z
Electronic contribution:      0.00000       0.00000       2.14234
Nuclear contribution   :     -0.00000       0.00000      -2.08077
                        -----------------------------------------
Total Dipole Moment    :      0.00000       0.00000       0.06157
                        -----------------------------------------
Magnitude (a.u.)       :      0.06157
Magnitude (Debye)      :      0.15651

Rotational constants in cm-1:     0.119408     0.068835     0.064757
Rotational constants in MHz :  3579.762258  2063.607387  1941.365406

                             ****ORCA TERMINATED NORMALLY****
TOTAL RUN TIME: 0 days 1 hours 29 minutes 10 seconds 617 msec
