                         Program Version 5.0.4 -  RELEASE  -
|  1> !ri-mp2 aug-cc-pvqz aug-cc-pvqz/c tightscf
|  2> %pal nprocs 16 end
|  3>
|  4> * xyz 0 1
|  5> O     -2.357106   -0.826508    0.000023
|  6> C     -1.415289   -0.075802    0.000085
|  7> S      0.232683   -0.804196   -0.000140
|  8> H     -1.076024    1.860038    0.880271
|  9> H     -2.611239    1.674996    0.000488
| 10> H     -1.076214    1.860311   -0.879564
| 11> C     -1.552652    1.427474    0.000338
| 12> H      1.252246    1.209742   -0.884316
| 13> H      1.252388    1.209438    0.884567
| 14> C      1.422814    0.598820    0.000007
| 15> H      3.026676   -0.571696    0.882060
| 16> H      3.561268    0.860316   -0.000120
| 17> H      3.026534   -0.571397   -0.882700
| 18> C      2.841508    0.040750   -0.000202
| 19> *
| 20>
| 21>                          ****END OF INPUT****

CARTESIAN COORDINATES (ANGSTROEM)
---------------------------------
  O     -2.357106   -0.826508    0.000023
  C     -1.415289   -0.075802    0.000085
  S      0.232683   -0.804196   -0.000140
  H     -1.076024    1.860038    0.880271
  H     -2.611239    1.674996    0.000488
  H     -1.076214    1.860311   -0.879564
  C     -1.552652    1.427474    0.000338
  H      1.252246    1.209742   -0.884316
  H      1.252388    1.209438    0.884567
  C      1.422814    0.598820    0.000007
  H      3.026676   -0.571696    0.882060
  H      3.561268    0.860316   -0.000120
  H      3.026534   -0.571397   -0.882700
  C      2.841508    0.040750   -0.000202

 Total Charge           Charge          ....    0
 Multiplicity           Mult            ....    1
 Number of Electrons    NEL             ....   56
 Basis Dimension        Dim             ....  852

ORBITAL ENERGIES
----------------

  NO   OCC          E(Eh)            E(eV)
   0   2.0000     -91.964556     -2502.4828
   1   2.0000     -20.552405      -559.2594
   2   2.0000     -11.363606      -309.2194
   3   2.0000     -11.275886      -306.8325
   4   2.0000     -11.248675      -306.0920
   5   2.0000     -11.238135      -305.8052
   6   2.0000      -8.966958      -244.0033
   7   2.0000      -6.648238      -180.9077
   8   2.0000      -6.647324      -180.8829
   9   2.0000      -6.646582      -180.8627
  10   2.0000      -1.401889       -38.1473
  11   2.0000      -1.091520       -29.7018
  12   2.0000      -1.029004       -28.0006
  13   2.0000      -0.958935       -26.0940
  14   2.0000      -0.849406       -23.1135
  15   2.0000      -0.736725       -20.0473
  16   2.0000      -0.662935       -18.0394
  17   2.0000      -0.649811       -17.6823
  18   2.0000      -0.633859       -17.2482
  19   2.0000      -0.614013       -16.7081
  20   2.0000      -0.587305       -15.9814
  21   2.0000      -0.548986       -14.9387
  22   2.0000      -0.541920       -14.7464
  23   2.0000      -0.527165       -14.3449
  24   2.0000      -0.522849       -14.2274
  25   2.0000      -0.457913       -12.4605
  26   2.0000      -0.406555       -11.0629
  27   2.0000      -0.366820        -9.9817
  28   0.0000       0.019542         0.5318
  29   0.0000       0.027527         0.7490
  30   0.0000       0.032751         0.8912
  31   0.0000       0.037525         1.0211
  32   0.0000       0.047805         1.3008

MULLIKEN ATOMIC CHARGES
-----------------------
   0 O :   -0.719547
   1 C :    0.518913
   2 S :    0.125536
   3 H :    0.234217
   4 H :    0.399275
   5 H :    0.234233
   6 C :   -0.895858
   7 H :    0.263083
   8 H :    0.263095
   9 C :   -0.393405
  10 H :    0.249173
  11 H :    0.279203
  12 H :    0.249180
  13 C :   -0.807099
Sum of atomic charges:    0.0000000

LOEWDIN ATOMIC CHARGES
----------------------
   0 O :    0.593678
   1 C :   -1.077300
   2 S :    1.302829
   3 H :   -0.317953
   4 H :   -0.322363
   5 H :   -0.317947
   6 C :    0.801613
   7 H :   -0.364407
   8 H :   -0.364407
   9 C :    0.133525
  10 H :   -0.303603
  11 H :   -0.287849
  12 H :   -0.303605
  13 C :    0.827789

  Mayer bond orders larger than 0.100000
B(  0-O ,  1-C ) :   1.3669 B(  0-O ,  2-S ) :   0.1051 B(  0-O ,  6-C ) :   0.1183
B(  1-C ,  2-S ) :   1.0242 B(  1-C ,  6-C ) :   1.0100 B(  2-S ,  9-C ) :   0.9482
B(  3-H ,  6-C ) :   0.9594 B(  4-H ,  6-C ) :   0.8293 B(  5-H ,  6-C ) :   0.9593
B(  7-H ,  9-C ) :   0.8773 B(  8-H ,  9-C ) :   0.8773 B(  9-C , 13-C ) :   0.8672
B( 10-H , 13-C ) :   0.9522 B( 11-H , 13-C ) :   0.9697 B( 12-H , 13-C ) :   0.9522

MP2 TOTAL ENERGY:     -629.823153657 Eh
FINAL SINGLE POINT ENERGY      -629.823153656675

DIPOLE MOMENT
-------------
                                X             Y             Z
Electronic contribution:     -6.19412      -6.10090      -0.00053
Nuclear contribution   :      7.38184       7.61632       0.00070
                        -----------------------------------------
Total Dipole Moment    :      1.18772       1.51542       0.00016
                        -----------------------------------------
Magnitude (a.u.)       :      1.92540
Magnitude (Debye)      :      4.89399

Rotational constants in cm-1:     0.214074     0.053881     0.044107
Rotational constants in MHz :  6417.783569  1615.313179  1322.292488

                             ****ORCA TERMINATED NORMALLY****
TOTAL RUN TIME: 0 days 0 hours 29 minutes 43 seconds 790 msec
