                         Program Version 5.0.4 -  RELEASE  -
|  1> !ri-mp2 aug-cc-pvqz aug-cc-pvqz/c tightscf
|  2> %pal nprocs 16 end
|  3>
|  4> * xyz 0 1
|  5> C     0.422954     0.646920    0.000000
|  6> C    -0.422954    -0.646920    0.000000
|  7> C    -0.422954     1.834859    0.000000
|  8> C     0.422954    -1.834859    0.000000
|  9> N     1.107673    -2.757950    0.000000
| 10> N    -1.107673     2.757950    0.000000
| 11> H     1.069525     0.672423    0.877634
| 12> H     1.069525     0.672423   -0.877634
| 13> H    -1.069525    -0.672423    0.877634
| 14> H    -1.069525    -0.672423   -0.877634
| 15> *
| 16>
| 17>                          ****END OF INPUT****

CARTESIAN COORDINATES (ANGSTROEM)
---------------------------------
  C      0.422954    0.646920    0.000000
  C     -0.422954   -0.646920    0.000000
  C     -0.422954    1.834859    0.000000
  C      0.422954   -1.834859    0.000000
  N      1.107673   -2.757950    0.000000
  N     -1.107673    2.757950    0.000000
  H      1.069525    0.672423    0.877634
  H      1.069525    0.672423   -0.877634
  H     -1.069525   -0.672423    0.877634
  H     -1.069525   -0.672423   -0.877634

 Total Charge           Charge          ....    0
 Multiplicity           Mult            ....    1
 Number of Electrons    NEL             ....   42
 Basis Dimension        Dim             ....  664

ORBITAL ENERGIES
----------------

  NO   OCC          E(Eh)            E(eV)
   0   2.0000     -15.590588      -424.2415
   1   2.0000     -15.590588      -424.2415
   2   2.0000     -11.319843      -308.0286
   3   2.0000     -11.319278      -308.0132
   4   2.0000     -11.293938      -307.3237
   5   2.0000     -11.293936      -307.3236
   6   2.0000      -1.248389       -33.9704
   7   2.0000      -1.242552       -33.8116
   8   2.0000      -1.133325       -30.8393
   9   2.0000      -0.986437       -26.8423
  10   2.0000      -0.757595       -20.6152
  11   2.0000      -0.707694       -19.2573
  12   2.0000      -0.695793       -18.9335
  13   2.0000      -0.624855       -17.0032
  14   2.0000      -0.604020       -16.4362
  15   2.0000      -0.581135       -15.8135
  16   2.0000      -0.571435       -15.5495
  17   2.0000      -0.498610       -13.5679
  18   2.0000      -0.484883       -13.1943
  19   2.0000      -0.482695       -13.1348
  20   2.0000      -0.475246       -12.9321
  21   0.0000       0.018657         0.5077
  22   0.0000       0.029001         0.7892
  23   0.0000       0.030474         0.8292
  24   0.0000       0.047314         1.2875
  25   0.0000       0.050085         1.3629

MULLIKEN ATOMIC CHARGES
-----------------------
   0 C :   -0.359582
   1 C :   -0.359582
   2 C :    0.381153
   3 C :    0.381153
   4 N :   -0.628435
   5 N :   -0.628435
   6 H :    0.303432
   7 H :    0.303432
   8 H :    0.303432
   9 H :    0.303432
Sum of atomic charges:   -0.0000000

LOEWDIN ATOMIC CHARGES
----------------------
   0 C :    0.421660
   1 C :    0.421660
   2 C :   -0.250979
   3 C :   -0.250979
   4 N :    0.420922
   5 N :    0.420922
   6 H :   -0.295801
   7 H :   -0.295801
   8 H :   -0.295801
   9 H :   -0.295801

  Mayer bond orders larger than 0.100000
B(  0-C ,  1-C ) :   0.9581 B(  0-C ,  2-C ) :   1.1485 B(  0-C ,  6-H ) :   0.8564
B(  0-C ,  7-H ) :   0.8564 B(  1-C ,  3-C ) :   1.1485 B(  1-C ,  8-H ) :   0.8564
B(  1-C ,  9-H ) :   0.8564 B(  2-C ,  5-N ) :   2.5599 B(  3-C ,  4-N ) :   2.5599

MP2 TOTAL ENERGY:     -263.873809300 Eh
FINAL SINGLE POINT ENERGY      -263.873809300384

DIPOLE MOMENT
-------------
                                X             Y             Z
Electronic contribution:     -0.00000      -0.00000       0.00000
Nuclear contribution   :      0.00000       0.00000       0.00000
                        -----------------------------------------
Total Dipole Moment    :     -0.00000      -0.00000       0.00000
                        -----------------------------------------
Magnitude (a.u.)       :      0.00000
Magnitude (Debye)      :      0.00000

Rotational constants in cm-1:     0.857872     0.049585     0.047700
Rotational constants in MHz : 25718.344128  1486.528616  1429.999926

                             ****ORCA TERMINATED NORMALLY****
TOTAL RUN TIME: 0 days 0 hours 10 minutes 26 seconds 763 msec
