                         Program Version 5.0.4 -  RELEASE  -
|  1> !ri-mp2 aug-cc-pvqz aug-cc-pvqz/c tightscf
|  2> %pal nprocs 16 end
|  3>
|  4> * xyz 0 1
|  5> C     -1.392165    1.170066    0.000000
|  6> C     -1.428012    2.519619    0.000000
|  7> C      0.691129    1.983502    0.000000
|  8> C      0.000000    0.807541    0.000000
|  9> C      0.635993   -0.516796    0.000000
| 10> C      0.661715   -3.268787    0.000000
| 11> O      1.835393   -0.684653    0.000000
| 12> O     -0.157808    3.030443    0.000000
| 13> S     -0.521930   -1.891204    0.000000
| 14> H     -2.241204    0.509673    0.000000
| 15> H     -2.223626    3.241441    0.000000
| 16> H      1.742596    2.204050    0.000000
| 17> H      1.285248   -3.226145    0.888112
| 18> H      1.285248   -3.226145   -0.888112
| 19> H      0.069983   -4.180792    0.000000
| 20> *
| 21>
| 22>                          ****END OF INPUT****

CARTESIAN COORDINATES (ANGSTROEM)
---------------------------------
  C     -1.392165    1.170066    0.000000
  C     -1.428012    2.519619    0.000000
  C      0.691129    1.983502    0.000000
  C      0.000000    0.807541    0.000000
  C      0.635993   -0.516796    0.000000
  C      0.661715   -3.268787    0.000000
  O      1.835393   -0.684653    0.000000
  O     -0.157808    3.030443    0.000000
  S     -0.521930   -1.891204    0.000000
  H     -2.241204    0.509673    0.000000
  H     -2.223626    3.241441    0.000000
  H      1.742596    2.204050    0.000000
  H      1.285248   -3.226145    0.888112
  H      1.285248   -3.226145   -0.888112
  H      0.069983   -4.180792    0.000000

 Total Charge           Charge          ....    0
 Multiplicity           Mult            ....    1
 Number of Electrons    NEL             ....   74
 Basis Dimension        Dim             .... 1000

ORBITAL ENERGIES
----------------

  NO   OCC          E(Eh)            E(eV)
   0   2.0000     -91.969950     -2502.6296
   1   2.0000     -20.644329      -561.7608
   2   2.0000     -20.551385      -559.2316
   3   2.0000     -11.368408      -309.3501
   4   2.0000     -11.318847      -308.0015
   5   2.0000     -11.302580      -307.5588
   6   2.0000     -11.259088      -306.3754
   7   2.0000     -11.251924      -306.1804
   8   2.0000     -11.249031      -306.1017
   9   2.0000      -8.972519      -244.1547
  10   2.0000      -6.653984      -181.0641
  11   2.0000      -6.652966      -181.0364
  12   2.0000      -6.652358      -181.0199
  13   2.0000      -1.482466       -40.3400
  14   2.0000      -1.400039       -38.0970
  15   2.0000      -1.119799       -30.4713
  16   2.0000      -1.057742       -28.7826
  17   2.0000      -1.031867       -28.0785
  18   2.0000      -0.931220       -25.3398
  19   2.0000      -0.850533       -23.1442
  20   2.0000      -0.804227       -21.8841
  21   2.0000      -0.776533       -21.1305
  22   2.0000      -0.706738       -19.2313
  23   2.0000      -0.657374       -17.8880
  24   2.0000      -0.644593       -17.5403
  25   2.0000      -0.639332       -17.3971
  26   2.0000      -0.619304       -16.8521
  27   2.0000      -0.602671       -16.3995
  28   2.0000      -0.591064       -16.0837
  29   2.0000      -0.574098       -15.6220
  30   2.0000      -0.555847       -15.1254
  31   2.0000      -0.541861       -14.7448
  32   2.0000      -0.486543       -13.2395
  33   2.0000      -0.418363       -11.3842
  34   2.0000      -0.414289       -11.2734
  35   2.0000      -0.370207       -10.0738
  36   2.0000      -0.339389        -9.2352
  37   0.0000       0.023948         0.6517
  38   0.0000       0.026988         0.7344
  39   0.0000       0.033240         0.9045
  40   0.0000       0.041096         1.1183
  41   0.0000       0.043787         1.1915

MULLIKEN ATOMIC CHARGES
-----------------------
   0 C :   -0.606501
   1 C :   -0.030983
   2 C :   -0.018823
   3 C :   -0.183427
   4 C :    0.763798
   5 C :   -0.988370
   6 O :   -0.808393
   7 O :   -0.870758
   8 S :    0.124187
   9 H :    0.396816
  10 H :    0.625728
  11 H :    0.583307
  12 H :    0.282918
  13 H :    0.282918
  14 H :    0.447586
Sum of atomic charges:   -0.0000000

LOEWDIN ATOMIC CHARGES
----------------------
   0 C :    0.252325
   1 C :    0.022454
   2 C :   -0.015907
   3 C :   -0.315359
   4 C :   -1.123092
   5 C :    0.539233
   6 O :    0.630639
   7 O :    0.853301
   8 S :    1.282588
   9 H :   -0.344859
  10 H :   -0.331239
  11 H :   -0.308956
  12 H :   -0.374884
  13 H :   -0.374884
  14 H :   -0.391361

  Mayer bond orders larger than 0.100000
B(  0-C ,  1-C ) :   1.6900 B(  0-C ,  3-C ) :   0.9436 B(  0-C ,  4-C ) :  -0.3079
B(  0-C ,  7-O ) :   0.2084 B(  0-C ,  9-H ) :   0.8768 B(  1-C ,  3-C ) :  -0.3881
B(  1-C ,  7-O ) :   0.8353 B(  1-C , 10-H ) :   0.6367 B(  2-C ,  3-C ) :   1.6643
B(  2-C ,  4-C ) :  -0.2416 B(  2-C ,  7-O ) :   0.9385 B(  2-C , 11-H ) :   0.6554
B(  3-C ,  4-C ) :   0.6795 B(  3-C ,  6-O ) :   0.3088 B(  3-C ,  8-S ) :  -0.1595
B(  4-C ,  6-O ) :   1.0110 B(  4-C ,  8-S ) :   1.0960 B(  5-C ,  8-S ) :   1.0351
B(  5-C , 12-H ) :   0.9159 B(  5-C , 13-H ) :   0.9159 B(  5-C , 14-H ) :   0.7965

MP2 TOTAL ENERGY:     -779.832187393 Eh
FINAL SINGLE POINT ENERGY      -779.832187392701

DIPOLE MOMENT
-------------
                                X             Y             Z
Electronic contribution:     -0.63676       4.44567       0.00000
Nuclear contribution   :     -0.03832      -4.47961       0.00000
                        -----------------------------------------
Total Dipole Moment    :     -0.67508      -0.03395       0.00000
                        -----------------------------------------
Magnitude (a.u.)       :      0.67593
Magnitude (Debye)      :      1.71809

Rotational constants in cm-1:     0.130401     0.027206     0.022606
Rotational constants in MHz :  3909.312514   815.615862   677.702322

                             ****ORCA TERMINATED NORMALLY****
TOTAL RUN TIME: 0 days 0 hours 49 minutes 22 seconds 817 msec
