                         Program Version 5.0.4 -  RELEASE  -
|  1> !ri-mp2 aug-cc-pvqz aug-cc-pvqz/c tightscf
|  2> %pal nprocs 16 end
|  3>
|  4> * xyz 0 1
|  5> C     0.000000    0.000000     0.456698
|  6> Cl    0.000000    1.697300    -0.083852
|  7> Cl   -1.469905   -0.848650    -0.083852
|  8> Cl    1.469905   -0.848650    -0.083852
|  9> H     0.000000    0.000000     1.536281
| 10> *
| 11>
| 12>                          ****END OF INPUT****

CARTESIAN COORDINATES (ANGSTROEM)
---------------------------------
  C      0.000000    0.000000    0.456698
  Cl     0.000000    1.697300   -0.083852
  Cl    -1.469905   -0.848650   -0.083852
  Cl     1.469905   -0.848650   -0.083852
  H      0.000000    0.000000    1.536281

 Total Charge           Charge          ....    0
 Multiplicity           Mult            ....    1
 Number of Electrons    NEL             ....   58
 Basis Dimension        Dim             ....  378

ORBITAL ENERGIES
----------------

  NO   OCC          E(Eh)            E(eV)
   0   2.0000    -104.866007     -2853.5491
   1   2.0000    -104.866007     -2853.5491
   2   2.0000    -104.866007     -2853.5491
   3   2.0000     -11.436395      -311.2001
   4   2.0000     -10.591261      -288.2029
   5   2.0000     -10.591261      -288.2029
   6   2.0000     -10.591248      -288.2025
   7   2.0000      -8.058252      -219.2762
   8   2.0000      -8.058252      -219.2762
   9   2.0000      -8.058249      -219.2761
  10   2.0000      -8.056331      -219.2239
  11   2.0000      -8.056330      -219.2239
  12   2.0000      -8.056330      -219.2239
  13   2.0000      -8.056281      -219.2225
  14   2.0000      -8.056281      -219.2225
  15   2.0000      -8.056279      -219.2225
  16   2.0000      -1.235866       -33.6296
  17   2.0000      -1.113161       -30.2907
  18   2.0000      -1.113161       -30.2907
  19   2.0000      -0.877003       -23.8645
  20   2.0000      -0.678982       -18.4760
  21   2.0000      -0.623158       -16.9570
  22   2.0000      -0.623158       -16.9570
  23   2.0000      -0.503690       -13.7061
  24   2.0000      -0.503690       -13.7061
  25   2.0000      -0.469201       -12.7676
  26   2.0000      -0.469201       -12.7676
  27   2.0000      -0.466313       -12.6890
  28   2.0000      -0.453095       -12.3293
  29   0.0000       0.029906         0.8138
  30   0.0000       0.052215         1.4208
  31   0.0000       0.056835         1.5466
  32   0.0000       0.056835         1.5466
  33   0.0000       0.090153         2.4532

MULLIKEN ATOMIC CHARGES
-----------------------
   0 C :   -0.133871
   1 Cl:   -0.104857
   2 Cl:   -0.104857
   3 Cl:   -0.104857
   4 H :    0.448442
Sum of atomic charges:    0.0000000

LOEWDIN ATOMIC CHARGES
----------------------
   0 C :   -2.112726
   1 Cl:    0.941749
   2 Cl:    0.941749
   3 Cl:    0.941749
   4 H :   -0.712520

  Mayer bond orders larger than 0.100000
B(  0-C ,  1-Cl) :   0.9439 B(  0-C ,  2-Cl) :   0.9439 B(  0-C ,  3-Cl) :   0.9439
B(  0-C ,  4-H ) :   0.7306

MP2 TOTAL ENERGY:    -1417.830520567 Eh
FINAL SINGLE POINT ENERGY     -1417.830520567249

DIPOLE MOMENT
-------------
                                X             Y             Z
Electronic contribution:     -0.00000       0.00000      -1.25545
Nuclear contribution   :      0.00000       0.00000       1.73019
                        -----------------------------------------
Total Dipole Moment    :     -0.00000       0.00000       0.47474
                        -----------------------------------------
Magnitude (a.u.)       :      0.47474
Magnitude (Debye)      :      1.20669

Rotational constants in cm-1:     0.106154     0.106154     0.055018
Rotational constants in MHz :  3182.425365  3182.425021  1649.400462

                             ****ORCA TERMINATED NORMALLY****
TOTAL RUN TIME: 0 days 0 hours 4 minutes 31 seconds 108 msec
