                         Program Version 5.0.4 -  RELEASE  -
|  1> !ri-mp2 aug-cc-pvqz aug-cc-pvqz/c tightscf
|  2> %pal nprocs 16 end
|  3> %maxcore 3800
|  4>
|  5> * xyz 0 1
|  6> C      0.892185    0.423300   -1.115386
|  7> C      1.127635   -1.387733    0.424444
|  8> C      2.194801    0.827052   -0.845555
|  9> C      2.427792   -0.998183    0.705423
| 10> C      0.332695   -0.688148   -0.487319
| 11> C      2.965844    0.116591    0.068362
| 12> C     -2.186401    0.883216    0.310248
| 13> C     -1.089329   -1.109749   -0.762062
| 14> C     -2.127374   -0.636628    0.291467
| 15> N     -3.490056   -1.105655    0.051276
| 16> O     -2.617114    1.551395   -0.596087
| 17> O      4.254274    0.460267    0.375386
| 18> O     -1.697499    1.415760    1.446528
| 19> H      0.304511    0.985498   -1.829904
| 20> H      0.725773   -2.261652    0.922750
| 21> H      2.610134    1.691457   -1.350405
| 22> H      3.037227   -1.547870    1.408931
| 23> H     -1.411636   -0.739805   -1.736775
| 24> H     -1.153616   -2.200087   -0.793954
| 25> H     -1.814661   -0.977674    1.277619
| 26> H     -3.514304   -2.114400   -0.027753
| 27> H     -3.850384   -0.712728   -0.810813
| 28> H      4.512609    1.239394   -0.126667
| 29> H     -1.759650    2.379779    1.363694
| 30> *
| 31>
| 32>                          ****END OF INPUT****

CARTESIAN COORDINATES (ANGSTROEM)
---------------------------------
  C      0.892185    0.423300   -1.115386
  C      1.127635   -1.387733    0.424444
  C      2.194801    0.827052   -0.845555
  C      2.427792   -0.998183    0.705423
  C      0.332695   -0.688148   -0.487319
  C      2.965844    0.116591    0.068362
  C     -2.186401    0.883216    0.310248
  C     -1.089329   -1.109749   -0.762062
  C     -2.127374   -0.636628    0.291467
  N     -3.490056   -1.105655    0.051276
  O     -2.617114    1.551395   -0.596087
  O      4.254274    0.460267    0.375386
  O     -1.697499    1.415760    1.446528
  H      0.304511    0.985498   -1.829904
  H      0.725773   -2.261652    0.922750
  H      2.610134    1.691457   -1.350405
  H      3.037227   -1.547870    1.408931
  H     -1.411636   -0.739805   -1.736775
  H     -1.153616   -2.200087   -0.793954
  H     -1.814661   -0.977674    1.277619
  H     -3.514304   -2.114400   -0.027753
  H     -3.850384   -0.712728   -0.810813
  H      4.512609    1.239394   -0.126667
  H     -1.759650    2.379779    1.363694

 Total Charge           Charge          ....    0
 Multiplicity           Mult            ....    1
 Number of Electrons    NEL             ....   96
 Basis Dimension        Dim             .... 1546

ORBITAL ENERGIES
----------------

  NO   OCC          E(Eh)            E(eV)
   0   2.0000     -20.612402      -560.8920
   1   2.0000     -20.591417      -560.3210
   2   2.0000     -20.548256      -559.1465
   3   2.0000     -15.552408      -423.2025
   4   2.0000     -11.384888      -309.7985
   5   2.0000     -11.304750      -307.6179
   6   2.0000     -11.280736      -306.9644
   7   2.0000     -11.242346      -305.9198
   8   2.0000     -11.242121      -305.9137
   9   2.0000     -11.240661      -305.8739
  10   2.0000     -11.237928      -305.7996
  11   2.0000     -11.236297      -305.7552
  12   2.0000     -11.231604      -305.6275
  13   2.0000      -1.467242       -39.9257
  14   2.0000      -1.407617       -38.3032
  15   2.0000      -1.364137       -37.1201
  16   2.0000      -1.202924       -32.7332
  17   2.0000      -1.159102       -31.5408
  18   2.0000      -1.058275       -28.7971
  19   2.0000      -1.025661       -27.9097
  20   2.0000      -0.983572       -26.7644
  21   2.0000      -0.913634       -24.8612
  22   2.0000      -0.853666       -23.2294
  23   2.0000      -0.819186       -22.2912
  24   2.0000      -0.788872       -21.4663
  25   2.0000      -0.740565       -20.1518
  26   2.0000      -0.726660       -19.7734
  27   2.0000      -0.704032       -19.1577
  28   2.0000      -0.677626       -18.4391
  29   2.0000      -0.656546       -17.8655
  30   2.0000      -0.653382       -17.7794
  31   2.0000      -0.631071       -17.1723
  32   2.0000      -0.617540       -16.8041
  33   2.0000      -0.596183       -16.2230
  34   2.0000      -0.594620       -16.1804
  35   2.0000      -0.590239       -16.0612
  36   2.0000      -0.588022       -16.0009
  37   2.0000      -0.569231       -15.4896
  38   2.0000      -0.555684       -15.1209
  39   2.0000      -0.529243       -14.4014
  40   2.0000      -0.513324       -13.9683
  41   2.0000      -0.494490       -13.4557
  42   2.0000      -0.485554       -13.2126
  43   2.0000      -0.480289       -13.0693
  44   2.0000      -0.452652       -12.3173
  45   2.0000      -0.406047       -11.0491
  46   2.0000      -0.348277        -9.4771
  47   2.0000      -0.313907        -8.5418
  48   0.0000       0.021337         0.5806
  49   0.0000       0.023877         0.6497
  50   0.0000       0.030229         0.8226
  51   0.0000       0.033600         0.9143
  52   0.0000       0.039204         1.0668

MULLIKEN ATOMIC CHARGES
-----------------------
   0 C :   -0.477383
   1 C :   -0.484356
   2 C :   -0.571081
   3 C :   -0.632042
   4 C :    0.561362
   5 C :    1.172259
   6 C :    1.265937
   7 C :   -0.595815
   8 C :    0.398117
   9 N :   -0.934999
  10 O :   -0.951878
  11 O :   -0.864989
  12 O :   -0.828954
  13 H :    0.235642
  14 H :    0.219563
  15 H :    0.141349
  16 H :    0.265313
  17 H :    0.242884
  18 H :    0.267398
  19 H :    0.410447
  20 H :    0.209328
  21 H :    0.239349
  22 H :    0.381127
  23 H :    0.331422
Sum of atomic charges:    0.0000000

LOEWDIN ATOMIC CHARGES
----------------------
   0 C :    0.345001
   1 C :    0.346057
   2 C :    0.347976
   3 C :    0.339425
   4 C :   -0.072705
   5 C :   -0.430491
   6 C :   -1.052923
   7 C :    0.491488
   8 C :   -0.088848
   9 N :    1.293158
  10 O :    0.734931
  11 O :    1.272223
  12 O :    1.279489
  13 H :   -0.311522
  14 H :   -0.308495
  15 H :   -0.322604
  16 H :   -0.324772
  17 H :   -0.299510
  18 H :   -0.284519
  19 H :   -0.324232
  20 H :   -0.497804
  21 H :   -0.525048
  22 H :   -0.805996
  23 H :   -0.800280

  Mayer bond orders larger than 0.100000
B(  0-C ,  2-C ) :   1.1828 B(  0-C ,  3-C ) :   0.1050 B(  0-C ,  4-C ) :   0.9532
B(  0-C ,  7-C ) :  -0.1962 B(  0-C , 13-H ) :   1.0614 B(  0-C , 15-H ) :  -0.1902
B(  1-C ,  2-C ) :   0.1480 B(  1-C ,  3-C ) :   1.3182 B(  1-C ,  4-C ) :   0.9933
B(  1-C ,  5-C ) :  -0.1175 B(  1-C ,  7-C ) :  -0.1282 B(  1-C , 14-H ) :   1.0718
B(  1-C , 16-H ) :  -0.1293 B(  2-C ,  4-C ) :  -0.3243 B(  2-C ,  5-C ) :   1.2843
B(  2-C , 11-O ) :   0.2398 B(  2-C , 13-H ) :  -0.1248 B(  2-C , 15-H ) :   1.1762
B(  3-C ,  4-C ) :  -0.2564 B(  3-C ,  5-C ) :   1.3172 B(  3-C , 11-O ) :   0.3555
B(  3-C , 14-H ) :  -0.1354 B(  3-C , 16-H ) :   1.0258 B(  4-C ,  7-C ) :   0.6696
B(  4-C , 14-H ) :  -0.1045 B(  5-C , 11-O ) :  -0.2335 B(  5-C , 22-H ) :  -0.1319
B(  6-C ,  8-C ) :   0.8858 B(  6-C ,  9-N ) :   0.1060 B(  6-C , 10-O ) :   1.2162
B(  6-C , 12-O ) :   0.6762 B(  7-C ,  8-C ) :   0.9426 B(  7-C ,  9-N ) :   0.1809
B(  7-C , 17-H ) :   1.0055 B(  7-C , 18-H ) :   0.9262 B(  8-C ,  9-N ) :   0.5040
B(  8-C , 19-H ) :   0.7954 B(  9-N , 20-H ) :   0.9584 B(  9-N , 21-H ) :   0.9307
B( 10-O , 12-O ) :   0.1084 B( 11-O , 22-H ) :   0.8889 B( 12-O , 23-H ) :   0.9265

MP2 TOTAL ENERGY:     -629.081806027 Eh
FINAL SINGLE POINT ENERGY      -629.081806027462

DIPOLE MOMENT
-------------
                                X             Y             Z
Electronic contribution:      2.79528       4.02072       1.42622
Nuclear contribution   :     -2.32388      -4.18973      -1.67533
                        -----------------------------------------
Total Dipole Moment    :      0.47140      -0.16901      -0.24911
                        -----------------------------------------
Magnitude (a.u.)       :      0.55932
Magnitude (Debye)      :      1.42168

Rotational constants in cm-1:     0.055767     0.014309     0.013187
Rotational constants in MHz :  1671.845406   428.966660   395.338513

                             ****ORCA TERMINATED NORMALLY****
TOTAL RUN TIME: 0 days 2 hours 26 minutes 56 seconds 515 msec
