                         Program Version 5.0.4 -  RELEASE  -
|  1> !ri-mp2 aug-cc-pvqz aug-cc-pvqz/c tightscf
|  2> %pal nprocs 16 end
|  3>
|  4> * xyz 0 1
|  5> S      0.340727    1.046092    0.000000
|  6> C     -0.205833   -0.304647    1.150622
|  7> C     -0.205833   -0.304647   -1.150622
|  8> C     -0.205833   -1.328854    0.000000
|  9> H     -1.195905   -0.094659    1.550789
| 10> H      0.484953   -0.493732    1.967693
| 11> H     -1.195905   -0.094659   -1.550789
| 12> H      0.484953   -0.493732   -1.967693
| 13> H     -1.043401   -2.027484    0.000000
| 14> H      0.718680   -1.904316    0.000000
| 15> *
| 16>
| 17>                          ****END OF INPUT****

CARTESIAN COORDINATES (ANGSTROEM)
---------------------------------
  S      0.340727    1.046092    0.000000
  C     -0.205833   -0.304647    1.150622
  C     -0.205833   -0.304647   -1.150622
  C     -0.205833   -1.328854    0.000000
  H     -1.195905   -0.094659    1.550789
  H      0.484953   -0.493732    1.967693
  H     -1.195905   -0.094659   -1.550789
  H      0.484953   -0.493732   -1.967693
  H     -1.043401   -2.027484    0.000000
  H      0.718680   -1.904316    0.000000

 Total Charge           Charge          ....    0
 Multiplicity           Mult            ....    1
 Number of Electrons    NEL             ....   40
 Basis Dimension        Dim             ....  600

ORBITAL ENERGIES
----------------

  NO   OCC          E(Eh)            E(eV)
   0   2.0000     -91.938790     -2501.7817
   1   2.0000     -11.257352      -306.3281
   2   2.0000     -11.257351      -306.3281
   3   2.0000     -11.239992      -305.8557
   4   2.0000      -8.940145      -243.2737
   5   2.0000      -6.621222      -180.1726
   6   2.0000      -6.620865      -180.1629
   7   2.0000      -6.619713      -180.1315
   8   2.0000      -1.125128       -30.6163
   9   2.0000      -0.922110       -25.0919
  10   2.0000      -0.904611       -24.6157
  11   2.0000      -0.758714       -20.6457
  12   2.0000      -0.656307       -17.8590
  13   2.0000      -0.620056       -16.8726
  14   2.0000      -0.569416       -15.4946
  15   2.0000      -0.514116       -13.9898
  16   2.0000      -0.507039       -13.7972
  17   2.0000      -0.460632       -12.5344
  18   2.0000      -0.405655       -11.0384
  19   2.0000      -0.336066        -9.1448
  20   0.0000       0.026541         0.7222
  21   0.0000       0.033405         0.9090
  22   0.0000       0.035436         0.9643
  23   0.0000       0.040347         1.0979
  24   0.0000       0.052271         1.4224

MULLIKEN ATOMIC CHARGES
-----------------------
   0 S :   -0.039730
   1 C :   -0.616581
   2 C :   -0.616581
   3 C :   -0.506690
   4 H :    0.240280
   5 H :    0.344217
   6 H :    0.240280
   7 H :    0.344217
   8 H :    0.328565
   9 H :    0.282023
Sum of atomic charges:   -0.0000000

LOEWDIN ATOMIC CHARGES
----------------------
   0 S :    1.250998
   1 C :    0.176692
   2 C :    0.176692
   3 C :    0.358169
   4 H :   -0.350683
   5 H :   -0.344728
   6 H :   -0.350683
   7 H :   -0.344728
   8 H :   -0.272517
   9 H :   -0.299212

  Mayer bond orders larger than 0.100000
B(  0-S ,  1-C ) :   1.0026 B(  0-S ,  2-C ) :   1.0026 B(  1-C ,  3-C ) :   1.0129
B(  1-C ,  4-H ) :   0.9161 B(  1-C ,  5-H ) :   0.8566 B(  2-C ,  3-C ) :   1.0129
B(  2-C ,  6-H ) :   0.9161 B(  2-C ,  7-H ) :   0.8566 B(  3-C ,  8-H ) :   0.8206
B(  3-C ,  9-H ) :   0.8664

MP2 TOTAL ENERGY:     -515.409095780 Eh
FINAL SINGLE POINT ENERGY      -515.409095780319

DIPOLE MOMENT
-------------
                                X             Y             Z
Electronic contribution:      1.47071       4.40030      -0.00000
Nuclear contribution   :     -1.78041      -5.20895       0.00000
                        -----------------------------------------
Total Dipole Moment    :     -0.30971      -0.80865      -0.00000
                        -----------------------------------------
Magnitude (a.u.)       :      0.86593
Magnitude (Debye)      :      2.20101

Rotational constants in cm-1:     0.336402     0.219896     0.145998
Rotational constants in MHz : 10085.067511  6592.307659  4376.899282

                             ****ORCA TERMINATED NORMALLY****
TOTAL RUN TIME: 0 days 0 hours 10 minutes 15 seconds 263 msec
