                         Program Version 5.0.4 -  RELEASE  -
|  1> !ri-mp2 aug-cc-pvqz aug-cc-pvqz/c tightscf
|  2> %pal nprocs 16 end
|  3>
|  4> * xyz 0 1
|  5> C      0.000000    0.770224   -1.780388
|  6> C      0.000000   -0.770224   -1.780388
|  7> C     -0.597986    1.220604   -0.448931
|  8> C      0.597986   -1.220604   -0.448931
|  9> O     -1.137264   -0.551302    1.517439
| 10> O      1.137264    0.551302    1.517439
| 11> S      0.000000    0.000000    0.784354
| 12> H      1.022518    1.140282   -1.873334
| 13> H     -0.569407    1.169658   -2.618789
| 14> H     -1.022518   -1.140282   -1.873334
| 15> H      0.569407   -1.169658   -2.618789
| 16> H     -0.277102    2.202041   -0.111847
| 17> H     -1.683808    1.153218   -0.434458
| 18> H      0.277102   -2.202041   -0.111847
| 19> H      1.683808   -1.153218   -0.434458
| 20> *
| 21>
| 22>                          ****END OF INPUT****

CARTESIAN COORDINATES (ANGSTROEM)
---------------------------------
  C      0.000000    0.770224   -1.780388
  C      0.000000   -0.770224   -1.780388
  C     -0.597986    1.220604   -0.448931
  C      0.597986   -1.220604   -0.448931
  O     -1.137264   -0.551302    1.517439
  O      1.137264    0.551302    1.517439
  S      0.000000    0.000000    0.784354
  H      1.022518    1.140282   -1.873334
  H     -0.569407    1.169658   -2.618789
  H     -1.022518   -1.140282   -1.873334
  H      0.569407   -1.169658   -2.618789
  H     -0.277102    2.202041   -0.111847
  H     -1.683808    1.153218   -0.434458
  H      0.277102   -2.202041   -0.111847
  H      1.683808   -1.153218   -0.434458

 Total Charge           Charge          ....    0
 Multiplicity           Mult            ....    1
 Number of Electrons    NEL             ....   64
 Basis Dimension        Dim             ....  932

ORBITAL ENERGIES
----------------

  NO   OCC          E(Eh)            E(eV)
   0   2.0000     -92.164409     -2507.9211
   1   2.0000     -20.538194      -558.8727
   2   2.0000     -20.538173      -558.8721
   3   2.0000     -11.276434      -306.8474
   4   2.0000     -11.276416      -306.8469
   5   2.0000     -11.263461      -306.4944
   6   2.0000     -11.262873      -306.4784
   7   2.0000      -9.134976      -248.5753
   8   2.0000      -6.820154      -185.5858
   9   2.0000      -6.819305      -185.5627
  10   2.0000      -6.819088      -185.5568
  11   2.0000      -1.433937       -39.0194
  12   2.0000      -1.324641       -36.0453
  13   2.0000      -1.148296       -31.2467
  14   2.0000      -1.026599       -27.9352
  15   2.0000      -0.969924       -26.3930
  16   2.0000      -0.837089       -22.7783
  17   2.0000      -0.800200       -21.7746
  18   2.0000      -0.698693       -19.0124
  19   2.0000      -0.689457       -18.7611
  20   2.0000      -0.637686       -17.3523
  21   2.0000      -0.637249       -17.3404
  22   2.0000      -0.617813       -16.8115
  23   2.0000      -0.613305       -16.6889
  24   2.0000      -0.561333       -15.2747
  25   2.0000      -0.541899       -14.7458
  26   2.0000      -0.527225       -14.3465
  27   2.0000      -0.521065       -14.1789
  28   2.0000      -0.483540       -13.1578
  29   2.0000      -0.477396       -12.9906
  30   2.0000      -0.463259       -12.6059
  31   2.0000      -0.419508       -11.4154
  32   0.0000       0.017230         0.4689
  33   0.0000       0.027053         0.7362
  34   0.0000       0.030422         0.8278
  35   0.0000       0.036008         0.9798
  36   0.0000       0.048600         1.3225

MULLIKEN ATOMIC CHARGES
-----------------------
   0 C :   -0.468639
   1 C :   -0.468639
   2 C :   -0.667950
   3 C :   -0.667950
   4 O :   -1.336839
   5 O :   -1.336839
   6 S :    2.462706
   7 H :    0.236125
   8 H :    0.343924
   9 H :    0.236125
  10 H :    0.343924
  11 H :    0.379048
  12 H :    0.282978
  13 H :    0.379048
  14 H :    0.282978
Sum of atomic charges:   -0.0000000

LOEWDIN ATOMIC CHARGES
----------------------
   0 C :    0.490173
   1 C :    0.490173
   2 C :    0.460318
   3 C :    0.460318
   4 O :    0.281857
   5 O :    0.281857
   6 S :   -0.136402
   7 H :   -0.269784
   8 H :   -0.260184
   9 H :   -0.269784
  10 H :   -0.260184
  11 H :   -0.312232
  12 H :   -0.321948
  13 H :   -0.312232
  14 H :   -0.321948

  Mayer bond orders larger than 0.100000
B(  0-C ,  1-C ) :   0.9014 B(  0-C ,  2-C ) :   0.9906 B(  0-C ,  7-H ) :   0.9345
B(  0-C ,  8-H ) :   0.8142 B(  1-C ,  3-C ) :   0.9906 B(  1-C ,  9-H ) :   0.9345
B(  1-C , 10-H ) :   0.8142 B(  2-C ,  6-S ) :   0.9647 B(  2-C , 11-H ) :   0.8210
B(  2-C , 12-H ) :   0.8910 B(  3-C ,  6-S ) :   0.9647 B(  3-C , 13-H ) :   0.8210
B(  3-C , 14-H ) :   0.8910 B(  4-O ,  5-O ) :   0.1065 B(  4-O ,  6-S ) :   0.8633
B(  5-O ,  6-S ) :   0.8633

MP2 TOTAL ENERGY:     -704.963712577 Eh
FINAL SINGLE POINT ENERGY      -704.963712577368

DIPOLE MOMENT
-------------
                                X             Y             Z
Electronic contribution:      0.00000       0.00000       7.69838
Nuclear contribution   :      0.00000       0.00000     -10.05578
                        -----------------------------------------
Total Dipole Moment    :      0.00000       0.00000      -2.35740
                        -----------------------------------------
Magnitude (a.u.)       :      2.35740
Magnitude (Debye)      :      5.99204

Rotational constants in cm-1:     0.123763     0.066542     0.061840
Rotational constants in MHz :  3710.317509  1994.893857  1853.910640

                             ****ORCA TERMINATED NORMALLY****
TOTAL RUN TIME: 0 days 0 hours 37 minutes 39 seconds 874 msec
