                         Program Version 5.0.4 -  RELEASE  -
|  1> !ri-mp2 aug-cc-pvqz aug-cc-pvqz/c tightscf
|  2> %pal nprocs 16 end
|  3>
|  4> * xyz 0 1
|  5> S     -1.476701   -0.452025   -0.259302
|  6> C      1.913232   -0.302099   -0.804682
|  7> H      1.265426   -0.226374   -1.678866
|  8> H      2.683844    0.466120   -0.886402
|  9> H      2.406718   -1.274145   -0.844759
| 10> C     -0.015272   -1.169321    0.615996
| 11> H      0.232350   -2.124200    0.156285
| 12> H     -0.282085   -1.344028    1.657022
| 13> C      1.122948   -0.146438    0.496930
| 14> H      1.809247   -0.288791    1.336203
| 15> C     -0.761847    1.249024   -0.311830
| 16> H     -1.519110    1.960559    0.008816
| 17> H     -0.481066    1.483947   -1.337013
| 18> C      0.449983    1.229470    0.621149
| 19> H      0.115459    1.375949    1.649963
| 20> H      1.142169    2.039539    0.382198
| 21> *
| 22>
| 23>                          ****END OF INPUT****

CARTESIAN COORDINATES (ANGSTROEM)
---------------------------------
  S     -1.476701   -0.452025   -0.259302
  C      1.913232   -0.302099   -0.804682
  H      1.265426   -0.226374   -1.678866
  H      2.683844    0.466120   -0.886402
  H      2.406718   -1.274145   -0.844759
  C     -0.015272   -1.169321    0.615996
  H      0.232350   -2.124200    0.156285
  H     -0.282085   -1.344028    1.657022
  C      1.122948   -0.146438    0.496930
  H      1.809247   -0.288791    1.336203
  C     -0.761847    1.249024   -0.311830
  H     -1.519110    1.960559    0.008816
  H     -0.481066    1.483947   -1.337013
  C      0.449983    1.229470    0.621149
  H      0.115459    1.375949    1.649963
  H      1.142169    2.039539    0.382198

 Total Charge           Charge          ....    0
 Multiplicity           Mult            ....    1
 Number of Electrons    NEL             ....   56
 Basis Dimension        Dim             ....  944

ORBITAL ENERGIES
----------------

  NO   OCC          E(Eh)            E(eV)
   0   2.0000     -91.932262     -2501.6040
   1   2.0000     -11.250502      -306.1417
   2   2.0000     -11.249446      -306.1130
   3   2.0000     -11.237337      -305.7835
   4   2.0000     -11.229578      -305.5723
   5   2.0000     -11.215754      -305.1962
   6   2.0000      -8.933996      -243.1064
   7   2.0000      -6.615429      -180.0150
   8   2.0000      -6.614680      -179.9946
   9   2.0000      -6.613790      -179.9704
  10   2.0000      -1.130734       -30.7688
  11   2.0000      -1.007781       -27.4231
  12   2.0000      -0.973757       -26.4973
  13   2.0000      -0.909754       -24.7557
  14   2.0000      -0.782584       -21.2952
  15   2.0000      -0.761052       -20.7093
  16   2.0000      -0.658180       -17.9100
  17   2.0000      -0.635669       -17.2974
  18   2.0000      -0.607427       -16.5289
  19   2.0000      -0.560648       -15.2560
  20   2.0000      -0.549671       -14.9573
  21   2.0000      -0.529460       -14.4073
  22   2.0000      -0.491099       -13.3635
  23   2.0000      -0.473761       -12.8917
  24   2.0000      -0.470445       -12.8015
  25   2.0000      -0.466104       -12.6833
  26   2.0000      -0.416067       -11.3218
  27   2.0000      -0.329738        -8.9726
  28   0.0000       0.023914         0.6507
  29   0.0000       0.031134         0.8472
  30   0.0000       0.032212         0.8765
  31   0.0000       0.036772         1.0006
  32   0.0000       0.048860         1.3296

MULLIKEN ATOMIC CHARGES
-----------------------
   0 S :   -0.220195
   1 C :   -0.923071
   2 H :    0.203481
   3 H :    0.256106
   4 H :    0.256478
   5 C :   -0.628919
   6 H :    0.308993
   7 H :    0.214146
   8 C :    0.161699
   9 H :    0.408434
  10 C :   -0.555470
  11 H :    0.341786
  12 H :    0.181903
  13 C :   -0.608174
  14 H :    0.281054
  15 H :    0.321748
Sum of atomic charges:   -0.0000000

LOEWDIN ATOMIC CHARGES
----------------------
   0 S :    1.331223
   1 C :    0.913062
   2 H :   -0.293555
   3 H :   -0.272399
   4 H :   -0.274240
   5 C :    0.181716
   6 H :   -0.356690
   7 H :   -0.346318
   8 C :    0.024106
   9 H :   -0.269716
  10 C :    0.181540
  11 H :   -0.353282
  12 H :   -0.357671
  13 C :    0.431730
  14 H :   -0.275689
  15 H :   -0.263816

  Mayer bond orders larger than 0.100000
B(  0-S ,  5-C ) :   0.9018 B(  0-S , 10-C ) :   0.8796 B(  1-C ,  2-H ) :   0.9877
B(  1-C ,  3-H ) :   0.9804 B(  1-C ,  4-H ) :   1.0049 B(  1-C ,  8-C ) :   0.7314
B(  5-C ,  6-H ) :   0.9074 B(  5-C ,  7-H ) :   0.9878 B(  5-C ,  8-C ) :   0.8662
B(  8-C ,  9-H ) :   0.6962 B(  8-C , 13-C ) :   0.8375 B( 10-C , 11-H ) :   0.8616
B( 10-C , 12-H ) :   0.9958 B( 10-C , 13-C ) :   1.0185 B( 13-C , 14-H ) :   0.9172
B( 13-C , 15-H ) :   0.8368

MP2 TOTAL ENERGY:     -593.914750892 Eh
FINAL SINGLE POINT ENERGY      -593.914750891878

DIPOLE MOMENT
-------------
                                X             Y             Z
Electronic contribution:     -6.85142      -1.80991      -0.17455
Nuclear contribution   :      7.63463       2.14319       0.46460
                        -----------------------------------------
Total Dipole Moment    :      0.78321       0.33328       0.29005
                        -----------------------------------------
Magnitude (a.u.)       :      0.89923
Magnitude (Debye)      :      2.28567

Rotational constants in cm-1:     0.142427     0.085571     0.069728
Rotational constants in MHz :  4269.864503  2565.364091  2090.382380

                             ****ORCA TERMINATED NORMALLY****
TOTAL RUN TIME: 0 days 0 hours 36 minutes 47 seconds 534 msec
