                         Program Version 5.0.4 -  RELEASE  -
|  1> !ri-mp2 aug-cc-pvqz aug-cc-pvqz/c tightscf
|  2> %pal nprocs 16 end
|  3> %maxcore 3800
|  4>
|  5> * xyz 0 1
|  6> C      1.016390    2.717163    0.000000
|  7> C      1.881445    1.628485    0.000000
|  8> C     -0.351319    2.489477    0.000000
|  9> C      1.378116    0.335664    0.000000
| 10> C     -0.850314    1.189521    0.000000
| 11> C      0.000795    0.083541    0.000000
| 12> C      0.000795   -2.093932    1.258284
| 13> C      0.000795   -2.093932   -1.258284
| 14> C     -2.048330   -1.439541    0.000000
| 15> C     -0.514092   -1.363859    0.000000
| 16> H      1.405258    3.726594    0.000000
| 17> H      2.952226    1.785794    0.000000
| 18> H     -1.040642    3.323885    0.000000
| 19> H      2.076582   -0.490211    0.000000
| 20> H     -1.921023    1.051194    0.000000
| 21> H     -0.357843   -3.125177    1.270861
| 22> H      1.089525   -2.120203    1.294620
| 23> H     -0.351283   -1.601521    2.165820
| 24> H      1.089525   -2.120203   -1.294620
| 25> H     -0.357843   -3.125177   -1.270861
| 26> H     -0.351283   -1.601521   -2.165820
| 27> H     -2.361319   -2.484481    0.000000
| 28> H     -2.478782   -0.967247    0.883628
| 29> H     -2.478782   -0.967247   -0.883628
| 30> *
| 31>
| 32>                          ****END OF INPUT****

CARTESIAN COORDINATES (ANGSTROEM)
---------------------------------
  C      1.016390    2.717163    0.000000
  C      1.881445    1.628485    0.000000
  C     -0.351319    2.489477    0.000000
  C      1.378116    0.335664    0.000000
  C     -0.850314    1.189521    0.000000
  C      0.000795    0.083541    0.000000
  C      0.000795   -2.093932    1.258284
  C      0.000795   -2.093932   -1.258284
  C     -2.048330   -1.439541    0.000000
  C     -0.514092   -1.363859    0.000000
  H      1.405258    3.726594    0.000000
  H      2.952226    1.785794    0.000000
  H     -1.040642    3.323885    0.000000
  H      2.076582   -0.490211    0.000000
  H     -1.921023    1.051194    0.000000
  H     -0.357843   -3.125177    1.270861
  H      1.089525   -2.120203    1.294620
  H     -0.351283   -1.601521    2.165820
  H      1.089525   -2.120203   -1.294620
  H     -0.357843   -3.125177   -1.270861
  H     -0.351283   -1.601521   -2.165820
  H     -2.361319   -2.484481    0.000000
  H     -2.478782   -0.967247    0.883628
  H     -2.478782   -0.967247   -0.883628

 Total Charge           Charge          ....    0
 Multiplicity           Mult            ....    1
 Number of Electrons    NEL             ....   74
 Basis Dimension        Dim             .... 1444

ORBITAL ENERGIES
----------------

  NO   OCC          E(Eh)            E(eV)
   0   2.0000     -11.242814      -305.9325
   1   2.0000     -11.235352      -305.7295
   2   2.0000     -11.228966      -305.5557
   3   2.0000     -11.228399      -305.5403
   4   2.0000     -11.225281      -305.4554
   5   2.0000     -11.224811      -305.4426
   6   2.0000     -11.224155      -305.4248
   7   2.0000     -11.211571      -305.0824
   8   2.0000     -11.211366      -305.0768
   9   2.0000     -11.211350      -305.0763
  10   2.0000      -1.156663       -31.4744
  11   2.0000      -1.097100       -29.8536
  12   2.0000      -1.011003       -27.5108
  13   2.0000      -0.997116       -27.1329
  14   2.0000      -0.933499       -25.4018
  15   2.0000      -0.931987       -25.3607
  16   2.0000      -0.834303       -22.7025
  17   2.0000      -0.818504       -22.2726
  18   2.0000      -0.749490       -20.3947
  19   2.0000      -0.694800       -18.9065
  20   2.0000      -0.631102       -17.1732
  21   2.0000      -0.628686       -17.1074
  22   2.0000      -0.613869       -16.7042
  23   2.0000      -0.601212       -16.3598
  24   2.0000      -0.586243       -15.9525
  25   2.0000      -0.578058       -15.7298
  26   2.0000      -0.547436       -14.8965
  27   2.0000      -0.531455       -14.4616
  28   2.0000      -0.523561       -14.2468
  29   2.0000      -0.515655       -14.0317
  30   2.0000      -0.498164       -13.5557
  31   2.0000      -0.495906       -13.4943
  32   2.0000      -0.464721       -12.6457
  33   2.0000      -0.459048       -12.4913
  34   2.0000      -0.452175       -12.3043
  35   2.0000      -0.332985        -9.0610
  36   2.0000      -0.323813        -8.8114
  37   0.0000       0.024596         0.6693
  38   0.0000       0.027681         0.7532
  39   0.0000       0.028697         0.7809
  40   0.0000       0.034354         0.9348
  41   0.0000       0.039684         1.0799

MULLIKEN ATOMIC CHARGES
-----------------------
   0 C :   -0.363971
   1 C :   -0.358663
   2 C :   -0.390826
   3 C :   -0.436545
   4 C :   -0.668227
   5 C :    0.646414
   6 C :   -1.134313
   7 C :   -1.134344
   8 C :   -1.146884
   9 C :    1.743170
  10 H :    0.337610
  11 H :    0.222121
  12 H :    0.203607
  13 H :    0.235582
  14 H :    0.198078
  15 H :    0.250615
  16 H :    0.221282
  17 H :    0.245238
  18 H :    0.221341
  19 H :    0.250557
  20 H :    0.245198
  21 H :    0.235042
  22 H :    0.188955
  23 H :    0.188962
Sum of atomic charges:   -0.0000000

LOEWDIN ATOMIC CHARGES
----------------------
   0 C :    0.340074
   1 C :    0.356735
   2 C :    0.354650
   3 C :    0.340218
   4 C :    0.354800
   5 C :   -0.059324
   6 C :    0.914436
   7 C :    0.914436
   8 C :    0.887302
   9 C :   -0.294030
  10 H :   -0.325314
  11 H :   -0.320241
  12 H :   -0.320983
  13 H :   -0.332408
  14 H :   -0.357224
  15 H :   -0.271096
  16 H :   -0.287043
  17 H :   -0.260007
  18 H :   -0.287043
  19 H :   -0.271096
  20 H :   -0.260007
  21 H :   -0.272421
  22 H :   -0.272208
  23 H :   -0.272208

  Mayer bond orders larger than 0.100000
B(  0-C ,  1-C ) :   1.1147 B(  0-C ,  2-C ) :   1.1533 B(  0-C ,  5-C ) :  -0.1077
B(  0-C , 10-H ) :   1.0498 B(  0-C , 12-H ) :  -0.1058 B(  1-C ,  3-C ) :   1.3530
B(  1-C ,  4-C ) :   0.1571 B(  1-C ,  5-C ) :  -0.3901 B(  1-C , 10-H ) :  -0.1176
B(  1-C , 11-H ) :   1.1657 B(  2-C ,  3-C ) :   0.1323 B(  2-C ,  4-C ) :   1.4039
B(  2-C ,  5-C ) :  -0.4831 B(  2-C , 10-H ) :  -0.1003 B(  2-C , 12-H ) :   1.1647
B(  3-C ,  5-C ) :   0.8055 B(  3-C ,  9-C ) :  -0.1707 B(  3-C , 11-H ) :  -0.1375
B(  3-C , 13-H ) :   1.0162 B(  4-C ,  5-C ) :   0.8692 B(  4-C ,  9-C ) :  -0.3289
B(  4-C , 12-H ) :  -0.1166 B(  4-C , 14-H ) :   1.0606 B(  5-C ,  8-C ) :   0.1028
B(  5-C ,  9-C ) :   0.4099 B(  5-C , 13-H ) :  -0.1005 B(  6-C ,  7-C ) :   0.1748
B(  6-C ,  8-C ) :   0.1405 B(  6-C ,  9-C ) :   0.3693 B(  6-C , 15-H ) :   1.0130
B(  6-C , 16-H ) :   1.0782 B(  6-C , 17-H ) :   1.0638 B(  7-C ,  8-C ) :   0.1405
B(  7-C ,  9-C ) :   0.3692 B(  7-C , 18-H ) :   1.0781 B(  7-C , 19-H ) :   1.0131
B(  7-C , 20-H ) :   1.0639 B(  8-C ,  9-C ) :   0.1546 B(  8-C , 21-H ) :   1.0656
B(  8-C , 22-H ) :   1.1132 B(  8-C , 23-H ) :   1.1132 B(  9-C , 16-H ) :  -0.1476
B(  9-C , 17-H ) :  -0.1116 B(  9-C , 18-H ) :  -0.1476 B(  9-C , 20-H ) :  -0.1116
B(  9-C , 21-H ) :  -0.1392 B(  9-C , 22-H ) :  -0.1681 B(  9-C , 23-H ) :  -0.1682

MP2 TOTAL ENERGY:     -388.765415757 Eh
FINAL SINGLE POINT ENERGY      -388.765415756554

DIPOLE MOMENT
-------------
                                X             Y             Z
Electronic contribution:      3.13757       8.85481      -0.00000
Nuclear contribution   :     -3.19501      -9.02431      -0.00000
                        -----------------------------------------
Total Dipole Moment    :     -0.05744      -0.16949      -0.00000
                        -----------------------------------------
Magnitude (a.u.)       :      0.17896
Magnitude (Debye)      :      0.45488

Rotational constants in cm-1:     0.085556     0.031584     0.027217
Rotational constants in MHz :  2564.894076   946.865200   815.946056

                             ****ORCA TERMINATED NORMALLY****
TOTAL RUN TIME: 0 days 3 hours 14 minutes 51 seconds 797 msec
