                         Program Version 5.0.4 -  RELEASE  -
|  1> !ri-mp2 aug-cc-pvqz aug-cc-pvqz/c tightscf
|  2> %pal nprocs 16 end
|  3>
|  4> * xyz 0 1
|  5> C     -1.034580   -0.395303    0.000000
|  6> C      0.000000    0.438157    0.000000
|  7> H     -2.045695   -0.022811    0.000000
|  8> Cl    -0.896263   -2.113950    0.000000
|  9> Cl    -0.268366    2.154033    0.000000
| 10> Cl     1.650109   -0.053866    0.000000
| 11> *
| 12>
| 13>                          ****END OF INPUT****

CARTESIAN COORDINATES (ANGSTROEM)
---------------------------------
  C     -1.034580   -0.395303    0.000000
  C      0.000000    0.438157    0.000000
  H     -2.045695   -0.022811    0.000000
  Cl    -0.896263   -2.113950    0.000000
  Cl    -0.268366    2.154033    0.000000
  Cl     1.650109   -0.053866    0.000000

 Total Charge           Charge          ....    0
 Multiplicity           Mult            ....    1
 Number of Electrons    NEL             ....   64
 Basis Dimension        Dim             ....  458

ORBITAL ENERGIES
----------------

  NO   OCC          E(Eh)            E(eV)
   0   2.0000    -104.871267     -2853.6923
   1   2.0000    -104.870953     -2853.6837
   2   2.0000    -104.863616     -2853.4840
   3   2.0000     -11.379301      -309.6465
   4   2.0000     -11.327114      -308.2265
   5   2.0000     -10.596161      -288.3362
   6   2.0000     -10.595973      -288.3311
   7   2.0000     -10.588598      -288.1304
   8   2.0000      -8.063287      -219.4132
   9   2.0000      -8.063110      -219.4084
  10   2.0000      -8.061366      -219.3609
  11   2.0000      -8.061269      -219.3583
  12   2.0000      -8.061138      -219.3547
  13   2.0000      -8.061094      -219.3535
  14   2.0000      -8.055762      -219.2084
  15   2.0000      -8.053862      -219.1567
  16   2.0000      -8.053860      -219.1567
  17   2.0000      -1.236219       -33.6392
  18   2.0000      -1.159142       -31.5419
  19   2.0000      -1.121514       -30.5180
  20   2.0000      -0.995890       -27.0995
  21   2.0000      -0.776251       -21.1229
  22   2.0000      -0.680971       -18.5302
  23   2.0000      -0.647273       -17.6132
  24   2.0000      -0.588953       -16.0262
  25   2.0000      -0.564482       -15.3603
  26   2.0000      -0.509643       -13.8681
  27   2.0000      -0.501248       -13.6397
  28   2.0000      -0.486946       -13.2505
  29   2.0000      -0.480421       -13.0729
  30   2.0000      -0.461611       -12.5611
  31   2.0000      -0.369784       -10.0623
  32   0.0000       0.028847         0.7850
  33   0.0000       0.051007         1.3880
  34   0.0000       0.051797         1.4095
  35   0.0000       0.068267         1.8576
  36   0.0000       0.072185         1.9642

MULLIKEN ATOMIC CHARGES
-----------------------
   0 C :   -0.283886
   1 C :    0.070976
   2 H :    0.477120
   3 Cl:   -0.120651
   4 Cl:   -0.117606
   5 Cl:   -0.025954
Sum of atomic charges:   -0.0000000

LOEWDIN ATOMIC CHARGES
----------------------
   0 C :   -0.778676
   1 C :   -1.851717
   2 H :   -0.540532
   3 Cl:    1.102693
   4 Cl:    1.037081
   5 Cl:    1.031151

  Mayer bond orders larger than 0.100000
B(  0-C ,  1-C ) :   1.5792 B(  0-C ,  2-H ) :   0.7487 B(  0-C ,  3-Cl) :   0.9635
B(  1-C ,  4-Cl) :   0.8486 B(  1-C ,  5-Cl) :   0.8938

MP2 TOTAL ENERGY:    -1455.847334851 Eh
FINAL SINGLE POINT ENERGY     -1455.847334851462

DIPOLE MOMENT
-------------
                                X             Y             Z
Electronic contribution:      2.12038       0.11056      -0.00000
Nuclear contribution   :     -2.50682      -0.00283       0.00000
                        -----------------------------------------
Total Dipole Moment    :     -0.38645       0.10773      -0.00000
                        -----------------------------------------
Magnitude (a.u.)       :      0.40118
Magnitude (Debye)      :      1.01973

Rotational constants in cm-1:     0.127218     0.049685     0.035731
Rotational constants in MHz :  3813.890880  1489.527508  1071.176166

                             ****ORCA TERMINATED NORMALLY****
TOTAL RUN TIME: 0 days 0 hours 6 minutes 0 seconds 385 msec
