                         Program Version 5.0.4 -  RELEASE  -
|  1> !ri-mp2 aug-cc-pvqz aug-cc-pvqz/c tightscf
|  2> %pal nprocs 16 end
|  3> %maxcore 3800
|  4>
|  5> * xyz 0 1
|  6> O     -0.702493   -2.681831   -0.000062
|  7> C     -0.427456   -1.502083   -0.000033
|  8> C      0.890406   -0.915681   -0.000045
|  9> C      1.039767    0.449836   -0.000006
| 10> C      0.269702    2.790611    0.000072
| 11> N      0.022247    1.356401    0.000047
| 12> C     -1.294568    0.876674    0.000053
| 13> N     -1.455705   -0.502781    0.000017
| 14> C     -2.848272   -0.963109    0.000032
| 15> O     -2.241746    1.641359    0.000089
| 16> N      2.127187   -1.527354   -0.000091
| 17> C      2.991264   -0.559718   -0.000081
| 18> N      2.381227    0.689357   -0.000031
| 19> H      4.063530   -0.659977   -0.000108
| 20> H      2.840421    1.583267   -0.000003
| 21> H      0.825941    3.084691    0.892129
| 22> H     -0.692999    3.289743    0.000154
| 23> H      0.825822    3.084747   -0.892040
| 24> H     -3.364115   -0.590499    0.882301
| 25> H     -2.830297   -2.046278    0.000011
| 26> H     -3.364145   -0.590467   -0.882207
| 27> *
| 28>
| 29>                          ****END OF INPUT****

CARTESIAN COORDINATES (ANGSTROEM)
---------------------------------
  O     -0.702493   -2.681831   -0.000062
  C     -0.427456   -1.502083   -0.000033
  C      0.890406   -0.915681   -0.000045
  C      1.039767    0.449836   -0.000006
  C      0.269702    2.790611    0.000072
  N      0.022247    1.356401    0.000047
  C     -1.294568    0.876674    0.000053
  N     -1.455705   -0.502781    0.000017
  C     -2.848272   -0.963109    0.000032
  O     -2.241746    1.641359    0.000089
  N      2.127187   -1.527354   -0.000091
  C      2.991264   -0.559718   -0.000081
  N      2.381227    0.689357   -0.000031
  H      4.063530   -0.659977   -0.000108
  H      2.840421    1.583267   -0.000003
  H      0.825941    3.084691    0.892129
  H     -0.692999    3.289743    0.000154
  H      0.825822    3.084747   -0.892040
  H     -3.364115   -0.590499    0.882301
  H     -2.830297   -2.046278    0.000011
  H     -3.364145   -0.590467   -0.882207

 Total Charge           Charge          ....    0
 Multiplicity           Mult            ....    1
 Number of Electrons    NEL             ....   94
 Basis Dimension        Dim             .... 1408

ORBITAL ENERGIES
----------------

  NO   OCC          E(Eh)            E(eV)
   0   2.0000     -20.536620      -558.8298
   1   2.0000     -20.527341      -558.5773
   2   2.0000     -15.654953      -425.9929
   3   2.0000     -15.641125      -425.6166
   4   2.0000     -15.617545      -424.9750
   5   2.0000     -15.575759      -423.8379
   6   2.0000     -11.409164      -310.4591
   7   2.0000     -11.368576      -309.3547
   8   2.0000     -11.351877      -308.9003
   9   2.0000     -11.322324      -308.0961
  10   2.0000     -11.294500      -307.3390
  11   2.0000     -11.259402      -306.3839
  12   2.0000     -11.252628      -306.1996
  13   2.0000      -1.432387       -38.9772
  14   2.0000      -1.392477       -37.8912
  15   2.0000      -1.382089       -37.6086
  16   2.0000      -1.299858       -35.3709
  17   2.0000      -1.249652       -34.0048
  18   2.0000      -1.201308       -32.6893
  19   2.0000      -1.065541       -28.9948
  20   2.0000      -0.996031       -27.1034
  21   2.0000      -0.967453       -26.3257
  22   2.0000      -0.886896       -24.1337
  23   2.0000      -0.871408       -23.7122
  24   2.0000      -0.858172       -23.3520
  25   2.0000      -0.811375       -22.0786
  26   2.0000      -0.729445       -19.8492
  27   2.0000      -0.712635       -19.3918
  28   2.0000      -0.702982       -19.1291
  29   2.0000      -0.673068       -18.3151
  30   2.0000      -0.653246       -17.7757
  31   2.0000      -0.639650       -17.4058
  32   2.0000      -0.638605       -17.3773
  33   2.0000      -0.628009       -17.0890
  34   2.0000      -0.625225       -17.0132
  35   2.0000      -0.600736       -16.3468
  36   2.0000      -0.580322       -15.7914
  37   2.0000      -0.560878       -15.2623
  38   2.0000      -0.549143       -14.9429
  39   2.0000      -0.547245       -14.8913
  40   2.0000      -0.481837       -13.1114
  41   2.0000      -0.475491       -12.9388
  42   2.0000      -0.462762       -12.5924
  43   2.0000      -0.437257       -11.8984
  44   2.0000      -0.432529       -11.7697
  45   2.0000      -0.409129       -11.1330
  46   2.0000      -0.320686        -8.7263
  47   0.0000       0.007442         0.2025
  48   0.0000       0.023387         0.6364
  49   0.0000       0.028328         0.7708
  50   0.0000       0.033339         0.9072
  51   0.0000       0.039573         1.0768

MULLIKEN ATOMIC CHARGES
-----------------------
   0 O :   -0.880133
   1 C :    1.580869
   2 C :   -0.090017
   3 C :    1.313961
   4 C :   -1.090883
   5 N :   -0.624959
   6 C :    1.615638
   7 N :   -0.846136
   8 C :   -1.063491
   9 O :   -0.850483
  10 N :   -0.880656
  11 C :   -0.129451
  12 N :   -0.748505
  13 H :    0.588394
  14 H :    0.162781
  15 H :    0.289825
  16 H :    0.366771
  17 H :    0.289860
  18 H :    0.306973
  19 H :    0.382667
  20 H :    0.306976
Sum of atomic charges:    0.0000000

LOEWDIN ATOMIC CHARGES
----------------------
   0 O :    0.729355
   1 C :   -0.824879
   2 C :   -0.421750
   3 C :   -0.460062
   4 C :    0.794056
   5 N :    0.439980
   6 C :   -0.987548
   7 N :    0.392900
   8 C :    0.746689
   9 O :    0.751016
  10 N :    0.596975
  11 C :   -0.015264
  12 N :    0.863197
  13 H :   -0.317555
  14 H :   -0.444175
  15 H :   -0.268057
  16 H :   -0.359177
  17 H :   -0.268053
  18 H :   -0.284886
  19 H :   -0.377879
  20 H :   -0.284884

  Mayer bond orders larger than 0.100000
B(  0-O ,  1-C ) :   0.4492 B(  0-O ,  2-C ) :   0.6803 B(  0-O ,  7-N ) :   0.3924
B(  1-C ,  2-C ) :   1.3072 B(  1-C ,  3-C ) :  -0.2732 B(  1-C ,  7-N ) :   1.1027
B(  2-C ,  3-C ) :   1.5159 B(  2-C , 10-N ) :   0.1081 B(  3-C ,  4-C ) :  -0.1162
B(  3-C ,  5-N ) :   0.9611 B(  3-C , 12-N ) :   0.6672 B(  3-C , 14-H ) :  -0.1347
B(  4-C ,  5-N ) :   0.7288 B(  4-C , 15-H ) :   1.0129 B(  4-C , 16-H ) :   0.8754
B(  4-C , 17-H ) :   1.0129 B(  5-N ,  6-C ) :   1.2368 B(  5-N ,  9-O ) :   0.2429
B(  6-C ,  7-N ) :   1.0522 B(  6-C ,  8-C ) :  -0.1083 B(  6-C ,  9-O ) :   0.8457
B(  7-N ,  8-C ) :   0.8531 B(  7-N ,  9-O ) :   0.3877 B(  8-C , 18-H ) :   0.9830
B(  8-C , 19-H ) :   0.8842 B(  8-C , 20-H ) :   0.9830 B( 10-N , 11-C ) :   1.7825
B( 11-C , 12-N ) :   1.2864 B( 11-C , 13-H ) :   0.6563 B( 12-N , 14-H ) :   1.1000

MP2 TOTAL ENERGY:     -640.113474110 Eh
FINAL SINGLE POINT ENERGY      -640.113474110002

DIPOLE MOMENT
-------------
                                X             Y             Z
Electronic contribution:      3.36815      -4.52475      -0.00019
Nuclear contribution   :     -1.68948       6.99516       0.00023
                        -----------------------------------------
Total Dipole Moment    :      1.67867       2.47040       0.00005
                        -----------------------------------------
Magnitude (a.u.)       :      2.98677
Magnitude (Debye)      :      7.59178

Rotational constants in cm-1:     0.039796     0.029397     0.017016
Rotational constants in MHz :  1193.050698   881.297130   510.120975

                             ****ORCA TERMINATED NORMALLY****
TOTAL RUN TIME: 0 days 2 hours 30 minutes 4 seconds 708 msec
