                         Program Version 5.0.4 -  RELEASE  -
|  1> !ri-mp2 aug-cc-pvqz aug-cc-pvqz/c tightscf
|  2> %pal nprocs 16 end
|  3> %maxcore 3800
|  4>
|  5> * xyz 0 1
|  6> C     0.000000     0.851770    0.000000
|  7> C     0.737655    -0.425885    0.000000
|  8> C    -0.737655    -0.425885    0.000000
|  9> C     1.836386    -1.060238    0.763078
| 10> C     1.836386    -1.060238   -0.763078
| 11> C     0.000000     2.120476   -0.763078
| 12> C     0.000000     2.120476    0.763078
| 13> C    -1.836386    -1.060238   -0.763078
| 14> C    -1.836386    -1.060238    0.763078
| 15> H     2.551440    -0.422252    1.266347
| 16> H     1.641401    -1.998486    1.266347
| 17> H     1.641401    -1.998486   -1.266347
| 18> H     2.551440    -0.422252   -1.266347
| 19> H    -0.910039     2.420738   -1.266347
| 20> H     0.910039     2.420738   -1.266347
| 21> H     0.910039     2.420738    1.266347
| 22> H    -0.910039     2.420738    1.266347
| 23> H    -2.551440    -0.422252   -1.266347
| 24> H    -1.641401    -1.998486   -1.266347
| 25> H    -1.641401    -1.998486    1.266347
| 26> H    -2.551440    -0.422252    1.266347
| 27> *
| 28>
| 29>                          ****END OF INPUT****

CARTESIAN COORDINATES (ANGSTROEM)
---------------------------------
  C      0.000000    0.851770    0.000000
  C      0.737655   -0.425885    0.000000
  C     -0.737655   -0.425885    0.000000
  C      1.836386   -1.060238    0.763078
  C      1.836386   -1.060238   -0.763078
  C      0.000000    2.120476   -0.763078
  C      0.000000    2.120476    0.763078
  C     -1.836386   -1.060238   -0.763078
  C     -1.836386   -1.060238    0.763078
  H      2.551440   -0.422252    1.266347
  H      1.641401   -1.998486    1.266347
  H      1.641401   -1.998486   -1.266347
  H      2.551440   -0.422252   -1.266347
  H     -0.910039    2.420738   -1.266347
  H      0.910039    2.420738   -1.266347
  H      0.910039    2.420738    1.266347
  H     -0.910039    2.420738    1.266347
  H     -2.551440   -0.422252   -1.266347
  H     -1.641401   -1.998486   -1.266347
  H     -1.641401   -1.998486    1.266347
  H     -2.551440   -0.422252    1.266347

 Total Charge           Charge          ....    0
 Multiplicity           Mult            ....    1
 Number of Electrons    NEL             ....   66
 Basis Dimension        Dim             .... 1272

ORBITAL ENERGIES
----------------

  NO   OCC          E(Eh)            E(eV)
   0   2.0000     -11.236173      -305.7518
   1   2.0000     -11.235058      -305.7215
   2   2.0000     -11.235058      -305.7215
   3   2.0000     -11.223254      -305.4003
   4   2.0000     -11.223252      -305.4002
   5   2.0000     -11.223252      -305.4002
   6   2.0000     -11.222663      -305.3842
   7   2.0000     -11.222663      -305.3842
   8   2.0000     -11.222655      -305.3840
   9   2.0000      -1.199421       -32.6379
  10   2.0000      -1.114490       -30.3268
  11   2.0000      -1.114490       -30.3268
  12   2.0000      -0.987829       -26.8802
  13   2.0000      -0.835082       -22.7237
  14   2.0000      -0.817151       -22.2358
  15   2.0000      -0.817151       -22.2358
  16   2.0000      -0.722903       -19.6712
  17   2.0000      -0.722902       -19.6712
  18   2.0000      -0.670868       -18.2553
  19   2.0000      -0.652482       -17.7549
  20   2.0000      -0.652482       -17.7549
  21   2.0000      -0.621141       -16.9021
  22   2.0000      -0.534637       -14.5482
  23   2.0000      -0.516984       -14.0679
  24   2.0000      -0.516984       -14.0679
  25   2.0000      -0.508859       -13.8468
  26   2.0000      -0.501235       -13.6393
  27   2.0000      -0.501235       -13.6393
  28   2.0000      -0.435438       -11.8489
  29   2.0000      -0.387201       -10.5363
  30   2.0000      -0.387201       -10.5363
  31   2.0000      -0.376476       -10.2444
  32   2.0000      -0.376475       -10.2444
  33   0.0000       0.028160         0.7663
  34   0.0000       0.029896         0.8135
  35   0.0000       0.029897         0.8135
  36   0.0000       0.033773         0.9190
  37   0.0000       0.044482         1.2104

MULLIKEN ATOMIC CHARGES
-----------------------
   0 C :    0.658779
   1 C :    0.658713
   2 C :    0.659148
   3 C :   -0.818672
   4 C :   -0.818745
   5 C :   -0.818560
   6 C :   -0.818691
   7 C :   -0.818815
   8 C :   -0.818807
   9 H :    0.244779
  10 H :    0.244471
  11 H :    0.244449
  12 H :    0.244810
  13 H :    0.244649
  14 H :    0.244686
  15 H :    0.244637
  16 H :    0.244683
  17 H :    0.244698
  18 H :    0.244545
  19 H :    0.244440
  20 H :    0.244804
Sum of atomic charges:   -0.0000000

LOEWDIN ATOMIC CHARGES
----------------------
   0 C :   -0.184336
   1 C :   -0.184336
   2 C :   -0.184336
   3 C :    0.634301
   4 C :    0.634301
   5 C :    0.634301
   6 C :    0.634301
   7 C :    0.634301
   8 C :    0.634301
   9 H :   -0.271066
  10 H :   -0.271066
  11 H :   -0.271066
  12 H :   -0.271066
  13 H :   -0.271066
  14 H :   -0.271066
  15 H :   -0.271066
  16 H :   -0.271066
  17 H :   -0.271066
  18 H :   -0.271066
  19 H :   -0.271066
  20 H :   -0.271066

  Mayer bond orders larger than 0.100000
B(  0-C ,  1-C ) :   0.2712 B(  0-C ,  2-C ) :   0.2715 B(  0-C ,  3-C ) :  -0.1215
B(  0-C ,  4-C ) :  -0.1213 B(  0-C ,  5-C ) :   0.5176 B(  0-C ,  6-C ) :   0.5175
B(  0-C ,  7-C ) :  -0.1214 B(  0-C ,  8-C ) :  -0.1214 B(  1-C ,  2-C ) :   0.2716
B(  1-C ,  3-C ) :   0.5176 B(  1-C ,  4-C ) :   0.5173 B(  1-C ,  5-C ) :  -0.1213
B(  1-C ,  6-C ) :  -0.1213 B(  1-C ,  7-C ) :  -0.1213 B(  1-C ,  8-C ) :  -0.1212
B(  2-C ,  3-C ) :  -0.1213 B(  2-C ,  4-C ) :  -0.1214 B(  2-C ,  5-C ) :  -0.1213
B(  2-C ,  6-C ) :  -0.1214 B(  2-C ,  7-C ) :   0.5173 B(  2-C ,  8-C ) :   0.5172
B(  3-C ,  4-C ) :   1.1727 B(  3-C ,  9-H ) :   1.0656 B(  3-C , 10-H ) :   1.0660
B(  4-C , 11-H ) :   1.0661 B(  4-C , 12-H ) :   1.0656 B(  5-C ,  6-C ) :   1.1726
B(  5-C , 13-H ) :   1.0658 B(  5-C , 14-H ) :   1.0657 B(  6-C , 15-H ) :   1.0658
B(  6-C , 16-H ) :   1.0658 B(  7-C ,  8-C ) :   1.1727 B(  7-C , 17-H ) :   1.0658
B(  7-C , 18-H ) :   1.0660 B(  8-C , 19-H ) :   1.0661 B(  8-C , 20-H ) :   1.0657

MP2 TOTAL ENERGY:     -349.356129961 Eh
FINAL SINGLE POINT ENERGY      -349.356129961169

DIPOLE MOMENT
-------------
                                X             Y             Z
Electronic contribution:      0.00000       0.00000       0.00000
Nuclear contribution   :     -0.00000       0.00000       0.00000
                        -----------------------------------------
Total Dipole Moment    :      0.00000       0.00000       0.00000
                        -----------------------------------------
Magnitude (a.u.)       :      0.00000
Magnitude (Debye)      :      0.00000

Rotational constants in cm-1:     0.060880     0.060880     0.039106
Rotational constants in MHz :  1825.125221  1825.125218  1172.353717

                             ****ORCA TERMINATED NORMALLY****
TOTAL RUN TIME: 0 days 1 hours 40 minutes 53 seconds 960 msec
