                         Program Version 5.0.4 -  RELEASE  -
|  1> !ri-mp2 aug-cc-pvqz aug-cc-pvqz/c tightscf
|  2> %pal nprocs 16 end
|  3> %maxcore 3800
|  4>
|  5> * xyz 0 1
|  6> C     -0.176910   -0.999418    0.000000
|  7> C      0.539789    0.364342    0.000000
|  8> C      0.254060   -1.777499    1.254087
|  9> C     -1.706916   -0.860851    0.000000
| 10> C      0.254060    1.442946    1.082409
| 11> C      0.254060   -1.777499   -1.254087
| 12> C      0.486107    2.526258    0.000000
| 13> H     -0.178689    3.388865    0.000000
| 14> H      0.895719    1.457716    1.962608
| 15> C      0.254060    1.442946   -1.082409
| 16> H      0.895719    1.457716   -1.962608
| 17> H     -2.173656   -1.847725    0.000000
| 18> H     -0.206452   -2.767279   -1.276969
| 19> H     -0.785006    1.429853    1.411389
| 20> H     -0.785006    1.429853   -1.411389
| 21> H      1.615876    0.164339    0.000000
| 22> H     -0.038955   -1.254061   -2.165956
| 23> H     -2.067434   -0.330830    0.882403
| 24> H     -2.067434   -0.330830   -0.882403
| 25> H     -0.206452   -2.767279    1.276969
| 26> H      1.337322   -1.913005   -1.279707
| 27> H      1.516228    2.882374    0.000000
| 28> H      1.337322   -1.913005    1.279707
| 29> H     -0.038955   -1.254061    2.165956
| 30> *
| 31>
| 32>                          ****END OF INPUT****

CARTESIAN COORDINATES (ANGSTROEM)
---------------------------------
  C     -0.176910   -0.999418    0.000000
  C      0.539789    0.364342    0.000000
  C      0.254060   -1.777499    1.254087
  C     -1.706916   -0.860851    0.000000
  C      0.254060    1.442946    1.082409
  C      0.254060   -1.777499   -1.254087
  C      0.486107    2.526258    0.000000
  H     -0.178689    3.388865    0.000000
  H      0.895719    1.457716    1.962608
  C      0.254060    1.442946   -1.082409
  H      0.895719    1.457716   -1.962608
  H     -2.173656   -1.847725    0.000000
  H     -0.206452   -2.767279   -1.276969
  H     -0.785006    1.429853    1.411389
  H     -0.785006    1.429853   -1.411389
  H      1.615876    0.164339    0.000000
  H     -0.038955   -1.254061   -2.165956
  H     -2.067434   -0.330830    0.882403
  H     -2.067434   -0.330830   -0.882403
  H     -0.206452   -2.767279    1.276969
  H      1.337322   -1.913005   -1.279707
  H      1.516228    2.882374    0.000000
  H      1.337322   -1.913005    1.279707
  H     -0.038955   -1.254061    2.165956

 Total Charge           Charge          ....    0
 Multiplicity           Mult            ....    1
 Number of Electrons    NEL             ....   64
 Basis Dimension        Dim             .... 1376

ORBITAL ENERGIES
----------------

  NO   OCC          E(Eh)            E(eV)
   0   2.0000     -11.227563      -305.5175
   1   2.0000     -11.217465      -305.2427
   2   2.0000     -11.213360      -305.1310
   3   2.0000     -11.211432      -305.0786
   4   2.0000     -11.211326      -305.0757
   5   2.0000     -11.205057      -304.9051
   6   2.0000     -11.205040      -304.9046
   7   2.0000     -11.204662      -304.8944
   8   2.0000      -1.136262       -30.9193
   9   2.0000      -1.072561       -29.1859
  10   2.0000      -0.928848       -25.2752
  11   2.0000      -0.927565       -25.2403
  12   2.0000      -0.889277       -24.1985
  13   2.0000      -0.888768       -24.1846
  14   2.0000      -0.772234       -21.0136
  15   2.0000      -0.716201       -19.4888
  16   2.0000      -0.645939       -17.5769
  17   2.0000      -0.640796       -17.4369
  18   2.0000      -0.595629       -16.2079
  19   2.0000      -0.594824       -16.1860
  20   2.0000      -0.561241       -15.2721
  21   2.0000      -0.545935       -14.8556
  22   2.0000      -0.532930       -14.5018
  23   2.0000      -0.531171       -14.4539
  24   2.0000      -0.507641       -13.8136
  25   2.0000      -0.494223       -13.4485
  26   2.0000      -0.482822       -13.1382
  27   2.0000      -0.466694       -12.6994
  28   2.0000      -0.458031       -12.4637
  29   2.0000      -0.434865       -11.8333
  30   2.0000      -0.419951       -11.4275
  31   2.0000      -0.409872       -11.1532
  32   0.0000       0.026124         0.7109
  33   0.0000       0.029911         0.8139
  34   0.0000       0.031229         0.8498
  35   0.0000       0.031594         0.8597
  36   0.0000       0.044023         1.1979

MULLIKEN ATOMIC CHARGES
-----------------------
   0 C :    1.442409
   1 C :    0.536810
   2 C :   -1.114408
   3 C :   -1.133010
   4 C :   -0.828536
   5 C :   -1.114417
   6 C :   -0.571142
   7 H :    0.268173
   8 H :    0.280045
   9 C :   -0.828551
  10 H :    0.280038
  11 H :    0.265795
  12 H :    0.232933
  13 H :    0.267170
  14 H :    0.267171
  15 H :    0.127400
  16 H :    0.194634
  17 H :    0.178449
  18 H :    0.178454
  19 H :    0.232924
  20 H :    0.205998
  21 H :    0.231018
  22 H :    0.206006
  23 H :    0.194637
Sum of atomic charges:   -0.0000000

LOEWDIN ATOMIC CHARGES
----------------------
   0 C :   -0.269106
   1 C :    0.114646
   2 C :    0.911871
   3 C :    0.913218
   4 C :    0.564406
   5 C :    0.911871
   6 C :    0.571913
   7 H :   -0.252837
   8 H :   -0.240300
   9 C :    0.564406
  10 H :   -0.240300
  11 H :   -0.269827
  12 H :   -0.269659
  13 H :   -0.282619
  14 H :   -0.282619
  15 H :   -0.276573
  16 H :   -0.269393
  17 H :   -0.279167
  18 H :   -0.279167
  19 H :   -0.269659
  20 H :   -0.267609
  21 H :   -0.266495
  22 H :   -0.267609
  23 H :   -0.269393

  Mayer bond orders larger than 0.100000
B(  0-C ,  1-C ) :   0.6800 B(  0-C ,  2-C ) :   0.2726 B(  0-C ,  3-C ) :   0.2883
B(  0-C ,  5-C ) :   0.2726 B(  0-C , 12-H ) :  -0.1243 B(  0-C , 16-H ) :  -0.1757
B(  0-C , 17-H ) :  -0.1410 B(  0-C , 18-H ) :  -0.1410 B(  0-C , 19-H ) :  -0.1243
B(  0-C , 20-H ) :  -0.1269 B(  0-C , 22-H ) :  -0.1269 B(  0-C , 23-H ) :  -0.1757
B(  1-C ,  4-C ) :   0.5594 B(  1-C ,  6-C ) :  -0.4746 B(  1-C ,  9-C ) :   0.5594
B(  1-C , 15-H ) :   1.0313 B(  2-C ,  3-C ) :   0.1211 B(  2-C ,  5-C ) :   0.1775
B(  2-C , 19-H ) :   1.0526 B(  2-C , 22-H ) :   1.0811 B(  2-C , 23-H ) :   1.1069
B(  3-C ,  5-C ) :   0.1211 B(  3-C , 11-H ) :   1.0338 B(  3-C , 17-H ) :   1.1271
B(  3-C , 18-H ) :   1.1271 B(  4-C ,  6-C ) :   1.1931 B(  4-C ,  8-H ) :   0.9735
B(  4-C , 13-H ) :   0.9475 B(  5-C , 12-H ) :   1.0526 B(  5-C , 16-H ) :   1.1069
B(  5-C , 20-H ) :   1.0811 B(  6-C ,  7-H ) :   0.9224 B(  6-C ,  9-C ) :   1.1931
B(  6-C , 21-H ) :   0.9532 B(  9-C , 10-H ) :   0.9735 B(  9-C , 14-H ) :   0.9475

MP2 TOTAL ENERGY:     -313.855024578 Eh
FINAL SINGLE POINT ENERGY      -313.855024578030

DIPOLE MOMENT
-------------
                                X             Y             Z
Electronic contribution:      1.03276       2.31879      -0.00000
Nuclear contribution   :     -1.01741      -2.32150      -0.00000
                        -----------------------------------------
Total Dipole Moment    :      0.01536      -0.00271      -0.00000
                        -----------------------------------------
Magnitude (a.u.)       :      0.01559
Magnitude (Debye)      :      0.03963

Rotational constants in cm-1:     0.107025     0.047787     0.043684
Rotational constants in MHz :  3208.539777  1432.613099  1309.608069

                             ****ORCA TERMINATED NORMALLY****
TOTAL RUN TIME: 0 days 2 hours 10 minutes 37 seconds 541 msec
