                         Program Version 5.0.4 -  RELEASE  -
|  1> !ri-mp2 aug-cc-pvqz aug-cc-pvqz/c tightscf
|  2> %pal nprocs 16 end
|  3>
|  4> * xyz 0 1
|  5> C      0.000000    0.336443    0.000000
|  6> C     -0.894961   -0.655241    0.000000
|  7> C      1.437530    0.059783    0.000000
|  8> C     -2.376114   -0.496353    0.000000
|  9> O      2.302239    0.907893    0.000000
| 10> H     -0.296890    1.379137    0.000000
| 11> H     -0.520454   -1.676347    0.000000
| 12> H      1.704005   -1.017594    0.000000
| 13> H     -2.814656   -0.983507    0.874815
| 14> H     -2.814656   -0.983507   -0.874815
| 15> H     -2.673991    0.550880    0.000000
| 16> *
| 17>
| 18>                          ****END OF INPUT****

CARTESIAN COORDINATES (ANGSTROEM)
---------------------------------
  C      0.000000    0.336443    0.000000
  C     -0.894961   -0.655241    0.000000
  C      1.437530    0.059783    0.000000
  C     -2.376114   -0.496353    0.000000
  O      2.302239    0.907893    0.000000
  H     -0.296890    1.379137    0.000000
  H     -0.520454   -1.676347    0.000000
  H      1.704005   -1.017594    0.000000
  H     -2.814656   -0.983507    0.874815
  H     -2.814656   -0.983507   -0.874815
  H     -2.673991    0.550880    0.000000

 Total Charge           Charge          ....    0
 Multiplicity           Mult            ....    1
 Number of Electrons    NEL             ....   38
 Basis Dimension        Dim             ....  676

ORBITAL ENERGIES
----------------

  NO   OCC          E(Eh)            E(eV)
   0   2.0000     -20.546874      -559.1089
   1   2.0000     -11.327749      -308.2437
   2   2.0000     -11.274319      -306.7898
   3   2.0000     -11.245404      -306.0030
   4   2.0000     -11.241667      -305.9013
   5   2.0000      -1.384015       -37.6610
   6   2.0000      -1.109123       -30.1808
   7   2.0000      -0.989086       -26.9144
   8   2.0000      -0.837960       -22.8021
   9   2.0000      -0.782447       -21.2915
  10   2.0000      -0.678860       -18.4727
  11   2.0000      -0.647527       -17.6201
  12   2.0000      -0.594168       -16.1681
  13   2.0000      -0.593617       -16.1531
  14   2.0000      -0.567247       -15.4356
  15   2.0000      -0.535624       -14.5751
  16   2.0000      -0.532582       -14.4923
  17   2.0000      -0.424091       -11.5401
  18   2.0000      -0.383843       -10.4449
  19   0.0000       0.020046         0.5455
  20   0.0000       0.029413         0.8004
  21   0.0000       0.036303         0.9879
  22   0.0000       0.036683         0.9982
  23   0.0000       0.050318         1.3692

MULLIKEN ATOMIC CHARGES
-----------------------
   0 C :   -0.806672
   1 C :   -0.209584
   2 C :    0.359014
   3 C :   -0.651239
   4 O :   -0.734786
   5 H :    0.465027
   6 H :    0.419133
   7 H :    0.434554
   8 H :    0.234561
   9 H :    0.234561
  10 H :    0.255431
Sum of atomic charges:   -0.0000000

LOEWDIN ATOMIC CHARGES
----------------------
   0 C :    0.323381
   1 C :    0.361578
   2 C :   -0.310377
   3 C :    0.906445
   4 O :    0.674233
   5 H :   -0.356441
   6 H :   -0.329017
   7 H :   -0.380471
   8 H :   -0.290565
   9 H :   -0.290565
  10 H :   -0.308201

  Mayer bond orders larger than 0.100000
B(  0-C ,  1-C ) :   1.5087 B(  0-C ,  2-C ) :   1.2980 B(  0-C ,  3-C ) :  -0.1391
B(  0-C ,  4-O ) :   0.2091 B(  0-C ,  5-H ) :   0.7032 B(  1-C ,  2-C ) :  -0.2262
B(  1-C ,  3-C ) :   0.8605 B(  1-C ,  6-H ) :   0.7559 B(  2-C ,  4-O ) :   1.4893
B(  2-C ,  7-H ) :   0.7681 B(  3-C ,  8-H ) :   0.9789 B(  3-C ,  9-H ) :   0.9789
B(  3-C , 10-H ) :   0.9458

MP2 TOTAL ENERGY:     -230.852096455 Eh
FINAL SINGLE POINT ENERGY      -230.852096454887

DIPOLE MOMENT
-------------
                                X             Y             Z
Electronic contribution:      5.98654       1.80369       0.00000
Nuclear contribution   :     -7.51468      -2.76607       0.00000
                        -----------------------------------------
Total Dipole Moment    :     -1.52815      -0.96238       0.00000
                        -----------------------------------------
Magnitude (a.u.)       :      1.80594
Magnitude (Debye)      :      4.59032

Rotational constants in cm-1:     1.110886     0.072877     0.069258
Rotational constants in MHz : 33303.526914  2184.803321  2076.290147

                             ****ORCA TERMINATED NORMALLY****
TOTAL RUN TIME: 0 days 0 hours 12 minutes 34 seconds 473 msec
