                         Program Version 5.0.4 -  RELEASE  -
|  1> !ri-mp2 aug-cc-pvqz aug-cc-pvqz/c tightscf
|  2> %pal nprocs 16 end
|  3>
|  4> * xyz 0 1
|  5> C     -2.277189    0.125824    0.212360
|  6> H     -2.220830    0.016412    1.295791
|  7> H     -2.855694    1.024383   -0.016248
|  8> H     -2.824192   -0.729215   -0.185129
|  9> S      0.123265   -1.298216   -0.068974
| 10> C      1.676730   -0.364875    0.283148
| 11> H      2.502112   -0.834989   -0.246639
| 12> H      1.880084   -0.410297    1.352120
| 13> C     -0.886248    0.229699   -0.395836
| 14> H     -0.974067    0.321657   -1.479581
| 15> C      1.420648    1.071535   -0.176011
| 16> H      1.587312    1.148737   -1.252546
| 17> H      2.105520    1.766873    0.312872
| 18> C     -0.039816    1.384131    0.141919
| 19> H     -0.360577    2.332565   -0.294901
| 20> H     -0.176661    1.457447    1.224367
| 21> *
| 22>
| 23>                          ****END OF INPUT****

CARTESIAN COORDINATES (ANGSTROEM)
---------------------------------
  C     -2.277189    0.125824    0.212360
  H     -2.220830    0.016412    1.295791
  H     -2.855694    1.024383   -0.016248
  H     -2.824192   -0.729215   -0.185129
  S      0.123265   -1.298216   -0.068974
  C      1.676730   -0.364875    0.283148
  H      2.502112   -0.834989   -0.246639
  H      1.880084   -0.410297    1.352120
  C     -0.886248    0.229699   -0.395836
  H     -0.974067    0.321657   -1.479581
  C      1.420648    1.071535   -0.176011
  H      1.587312    1.148737   -1.252546
  H      2.105520    1.766873    0.312872
  C     -0.039816    1.384131    0.141919
  H     -0.360577    2.332565   -0.294901
  H     -0.176661    1.457447    1.224367

 Total Charge           Charge          ....    0
 Multiplicity           Mult            ....    1
 Number of Electrons    NEL             ....   56
 Basis Dimension        Dim             ....  944

ORBITAL ENERGIES
----------------

  NO   OCC          E(Eh)            E(eV)
   0   2.0000     -91.929848     -2501.5383
   1   2.0000     -11.257621      -306.3354
   2   2.0000     -11.250409      -306.1392
   3   2.0000     -11.230737      -305.6039
   4   2.0000     -11.228587      -305.5454
   5   2.0000     -11.218226      -305.2635
   6   2.0000      -8.931808      -243.0469
   7   2.0000      -6.613190      -179.9540
   8   2.0000      -6.612475      -179.9346
   9   2.0000      -6.611601      -179.9108
  10   2.0000      -1.128254       -30.7014
  11   2.0000      -1.024004       -27.8646
  12   2.0000      -0.964343       -26.2411
  13   2.0000      -0.901306       -24.5258
  14   2.0000      -0.792210       -21.5571
  15   2.0000      -0.759516       -20.6675
  16   2.0000      -0.651892       -17.7389
  17   2.0000      -0.629565       -17.1313
  18   2.0000      -0.604947       -16.4615
  19   2.0000      -0.570466       -15.5232
  20   2.0000      -0.558485       -15.1971
  21   2.0000      -0.518274       -14.1029
  22   2.0000      -0.495183       -13.4746
  23   2.0000      -0.478422       -13.0185
  24   2.0000      -0.477287       -12.9876
  25   2.0000      -0.455245       -12.3879
  26   2.0000      -0.412616       -11.2279
  27   2.0000      -0.329066        -8.9543
  28   0.0000       0.025284         0.6880
  29   0.0000       0.030092         0.8188
  30   0.0000       0.033467         0.9107
  31   0.0000       0.036100         0.9823
  32   0.0000       0.047629         1.2961

MULLIKEN ATOMIC CHARGES
-----------------------
   0 C :   -0.926175
   1 H :    0.240357
   2 H :    0.262479
   3 H :    0.271622
   4 S :   -0.241456
   5 C :   -0.601064
   6 H :    0.331036
   7 H :    0.207507
   8 C :    0.057796
   9 H :    0.248613
  10 C :   -0.523155
  11 H :    0.233697
  12 H :    0.330644
  13 C :   -0.502435
  14 H :    0.382050
  15 H :    0.228484
Sum of atomic charges:   -0.0000000

LOEWDIN ATOMIC CHARGES
----------------------
   0 C :    0.843423
   1 H :   -0.302516
   2 H :   -0.280864
   3 H :   -0.294817
   4 S :    1.348982
   5 C :    0.189942
   6 H :   -0.355563
   7 H :   -0.352746
   8 C :   -0.232191
   9 H :   -0.349935
  10 C :    0.438924
  11 H :   -0.278705
  12 H :   -0.262812
  13 C :    0.425557
  14 H :   -0.255162
  15 H :   -0.281514

  Mayer bond orders larger than 0.100000
B(  0-C ,  1-H ) :   0.9411 B(  0-C ,  2-H ) :   0.9686 B(  0-C ,  3-H ) :   1.0250
B(  0-C ,  8-C ) :   0.8107 B(  3-H ,  8-C ) :  -0.1038 B(  4-S ,  5-C ) :   0.9648
B(  4-S ,  8-C ) :   0.7395 B(  5-C ,  6-H ) :   0.8862 B(  5-C ,  7-H ) :   0.9651
B(  5-C , 10-C ) :   0.9782 B(  8-C ,  9-H ) :   0.9060 B(  8-C , 13-C ) :   0.8807
B( 10-C , 11-H ) :   0.9388 B( 10-C , 12-H ) :   0.8380 B( 10-C , 13-C ) :   0.9886
B( 13-C , 14-H ) :   0.7946 B( 13-C , 15-H ) :   0.9282

MP2 TOTAL ENERGY:     -593.915892671 Eh
FINAL SINGLE POINT ENERGY      -593.915892670822

DIPOLE MOMENT
-------------
                                X             Y             Z
Electronic contribution:      1.52708      -5.44895      -0.73233
Nuclear contribution   :     -1.37986       6.31231       0.73298
                        -----------------------------------------
Total Dipole Moment    :      0.14722       0.86336       0.00065
                        -----------------------------------------
Magnitude (a.u.)       :      0.87583
Magnitude (Debye)      :      2.22617

Rotational constants in cm-1:     0.139515     0.092263     0.060854
Rotational constants in MHz :  4182.563957  2765.973836  1824.351987

                             ****ORCA TERMINATED NORMALLY****
TOTAL RUN TIME: 0 days 0 hours 32 minutes 56 seconds 445 msec
