                         Program Version 5.0.4 -  RELEASE  -
|  1> !ri-mp2 aug-cc-pvqz aug-cc-pvqz/c tightscf
|  2> %pal nprocs 16 end
|  3>
|  4> * xyz 0 1
|  5> C      0.015025    0.360286    0.000000
|  6> C      0.501815   -1.106329    0.000000
|  7> O     -0.245494   -2.035813    0.000000
|  8> F     -1.307957    0.464386    0.000000
|  9> F      0.501815    0.987853    1.088479
| 10> F      0.501815    0.987853   -1.088479
| 11> H      1.601854   -1.198064    0.000000
| 12> *
| 13>
| 14>                          ****END OF INPUT****

CARTESIAN COORDINATES (ANGSTROEM)
---------------------------------
  C      0.015025    0.360286    0.000000
  C      0.501815   -1.106329    0.000000
  O     -0.245494   -2.035813    0.000000
  F     -1.307957    0.464386    0.000000
  F      0.501815    0.987853    1.088479
  F      0.501815    0.987853   -1.088479
  H      1.601854   -1.198064    0.000000

 Total Charge           Charge          ....    0
 Multiplicity           Mult            ....    1
 Number of Electrons    NEL             ....   48
 Basis Dimension        Dim             ....  526

ORBITAL ENERGIES
----------------

  NO   OCC          E(Eh)            E(eV)
   0   2.0000     -26.362287      -717.3543
   1   2.0000     -26.362268      -717.3538
   2   2.0000     -26.360320      -717.3008
   3   2.0000     -20.617910      -561.0418
   4   2.0000     -11.534806      -313.8780
   5   2.0000     -11.386458      -309.8413
   6   2.0000      -1.752153       -47.6785
   7   2.0000      -1.659677       -45.1621
   8   2.0000      -1.657599       -45.1056
   9   2.0000      -1.456860       -39.6432
  10   2.0000      -1.044000       -28.4087
  11   2.0000      -0.914902       -24.8957
  12   2.0000      -0.849288       -23.1103
  13   2.0000      -0.846517       -23.0349
  14   2.0000      -0.800769       -21.7900
  15   2.0000      -0.735555       -20.0155
  16   2.0000      -0.732984       -19.9455
  17   2.0000      -0.706835       -19.2340
  18   2.0000      -0.688946       -18.7472
  19   2.0000      -0.684265       -18.6198
  20   2.0000      -0.673590       -18.3293
  21   2.0000      -0.653931       -17.7944
  22   2.0000      -0.579476       -15.7683
  23   2.0000      -0.483395       -13.1538
  24   0.0000       0.024492         0.6665
  25   0.0000       0.051953         1.4137
  26   0.0000       0.055802         1.5185
  27   0.0000       0.063495         1.7278
  28   0.0000       0.084616         2.3025

MULLIKEN ATOMIC CHARGES
-----------------------
   0 C :    1.778619
   1 C :    0.039471
   2 O :   -0.597114
   3 F :   -0.573034
   4 F :   -0.567058
   5 F :   -0.567058
   6 H :    0.486173
Sum of atomic charges:   -0.0000000

LOEWDIN ATOMIC CHARGES
----------------------
   0 C :   -2.181798
   1 C :   -0.353688
   2 O :    0.693537
   3 F :    0.753843
   4 F :    0.730435
   5 F :    0.730435
   6 H :   -0.372764

  Mayer bond orders larger than 0.100000
B(  0-C ,  1-C ) :   0.9790 B(  0-C ,  3-F ) :   0.5405 B(  0-C ,  4-F ) :   0.5202
B(  0-C ,  5-F ) :   0.5202 B(  1-C ,  2-O ) :   1.7975 B(  1-C ,  6-H ) :   0.6936

MP2 TOTAL ENERGY:     -451.102279264 Eh
FINAL SINGLE POINT ENERGY      -451.102279263548

DIPOLE MOMENT
-------------
                                X             Y             Z
Electronic contribution:     -0.94934       3.40556      -0.00000
Nuclear contribution   :      1.74600      -3.34752       0.00000
                        -----------------------------------------
Total Dipole Moment    :      0.79665       0.05804      -0.00000
                        -----------------------------------------
Magnitude (a.u.)       :      0.79877
Magnitude (Debye)      :      2.03030

Rotational constants in cm-1:     0.181219     0.098768     0.097068
Rotational constants in MHz :  5432.821521  2960.995265  2910.032000

                             ****ORCA TERMINATED NORMALLY****
TOTAL RUN TIME: 0 days 0 hours 11 minutes 53 seconds 725 msec
