                         Program Version 5.0.4 -  RELEASE  -
|  1> !ri-mp2 aug-cc-pvqz aug-cc-pvqz/c tightscf
|  2> %pal nprocs 16 end
|  3>
|  4> * xyz 0 1
|  5> C      0.000000    0.619383    0.000000
|  6> C     -1.485214    0.718099    0.000000
|  7> S      0.874031   -0.744703    0.000000
|  8> H      0.520354    1.577729    0.000000
|  9> H     -1.957612   -0.260850    0.000000
| 10> H     -1.817979    1.286739    0.874315
| 11> H     -1.817979    1.286739   -0.874315
| 12> *
| 13>
| 14>                          ****END OF INPUT****

CARTESIAN COORDINATES (ANGSTROEM)
---------------------------------
  C      0.000000    0.619383    0.000000
  C     -1.485214    0.718099    0.000000
  S      0.874031   -0.744703    0.000000
  H      0.520354    1.577729    0.000000
  H     -1.957612   -0.260850    0.000000
  H     -1.817979    1.286739    0.874315
  H     -1.817979    1.286739   -0.874315

 Total Charge           Charge          ....    0
 Multiplicity           Mult            ....    1
 Number of Electrons    NEL             ....   32
 Basis Dimension        Dim             ....  428

ORBITAL ENERGIES
----------------

  NO   OCC          E(Eh)            E(eV)
   0   2.0000     -91.937909     -2501.7577
   1   2.0000     -11.320850      -308.0560
   2   2.0000     -11.246668      -306.0374
   3   2.0000      -8.941279      -243.3046
   4   2.0000      -6.622244      -180.2004
   5   2.0000      -6.621881      -180.1906
   6   2.0000      -6.620269      -180.1467
   7   2.0000      -1.095887       -29.8206
   8   2.0000      -0.959459       -26.1082
   9   2.0000      -0.772533       -21.0217
  10   2.0000      -0.630523       -17.1574
  11   2.0000      -0.594045       -16.1648
  12   2.0000      -0.570441       -15.5225
  13   2.0000      -0.511275       -13.9125
  14   2.0000      -0.396365       -10.7856
  15   2.0000      -0.342096        -9.3089
  16   0.0000       0.023497         0.6394
  17   0.0000       0.035527         0.9667
  18   0.0000       0.038020         1.0346
  19   0.0000       0.045788         1.2460
  20   0.0000       0.052693         1.4339

MULLIKEN ATOMIC CHARGES
-----------------------
   0 C :   -0.515308
   1 C :   -0.730220
   2 S :   -0.011678
   3 H :    0.418491
   4 H :    0.328005
   5 H :    0.255355
   6 H :    0.255355
Sum of atomic charges:   -0.0000000

LOEWDIN ATOMIC CHARGES
----------------------
   0 C :   -0.428167
   1 C :    0.755031
   2 S :    1.092314
   3 H :   -0.455447
   4 H :   -0.351323
   5 H :   -0.306204
   6 H :   -0.306204

  Mayer bond orders larger than 0.100000
B(  0-C ,  1-C ) :   0.9775 B(  0-C ,  2-S ) :   1.7486 B(  0-C ,  3-H ) :   0.7539
B(  1-C ,  4-H ) :   0.8948 B(  1-C ,  5-H ) :   0.9373 B(  1-C ,  6-H ) :   0.9373

MP2 TOTAL ENERGY:     -476.173073307 Eh
FINAL SINGLE POINT ENERGY      -476.173073306580

DIPOLE MOMENT
-------------
                                X             Y             Z
Electronic contribution:      4.35344      -3.03776      -0.00000
Nuclear contribution   :     -5.09886       3.91232       0.00000
                        -----------------------------------------
Total Dipole Moment    :     -0.74542       0.87456      -0.00000
                        -----------------------------------------
Magnitude (a.u.)       :      1.14913
Magnitude (Debye)      :      2.92085

Rotational constants in cm-1:     1.653206     0.190507     0.176330
Rotational constants in MHz : 49561.876320  5711.259594  5286.228064

                             ****ORCA TERMINATED NORMALLY****
TOTAL RUN TIME: 0 days 0 hours 3 minutes 53 seconds 87 msec
