                         Program Version 5.0.4 -  RELEASE  -
|  1> !ri-mp2 aug-cc-pvqz aug-cc-pvqz/c tightscf
|  2> %pal nprocs 16 end
|  3>
|  4> * xyz 0 1
|  5> S    -1.101935    0.129883    0.766287
|  6> S     1.586860   -1.013699    0.024402
|  7> N    -3.556241    0.444182   -0.651748
|  8> C    -0.110750   -0.717112   -0.552454
|  9> C    -2.556688    0.312656   -0.085241
| 10> C     2.264315    0.527879   -0.112470
| 11> C     2.817305    1.593553   -0.189220
| 12> H    -0.109558   -0.111181   -1.451631
| 13> H    -0.538550   -1.696769   -0.745449
| 14> H     3.297908    2.537882   -0.255392
| 15> *
| 16>
| 17>                          ****END OF INPUT****

CARTESIAN COORDINATES (ANGSTROEM)
---------------------------------
  S     -1.101935    0.129883    0.766287
  S      1.586860   -1.013699    0.024402
  N     -3.556241    0.444182   -0.651748
  C     -0.110750   -0.717112   -0.552454
  C     -2.556688    0.312656   -0.085241
  C      2.264315    0.527879   -0.112470
  C      2.817305    1.593553   -0.189220
  H     -0.109558   -0.111181   -1.451631
  H     -0.538550   -1.696769   -0.745449
  H      3.297908    2.537882   -0.255392

 Total Charge           Charge          ....    0
 Multiplicity           Mult            ....    1
 Number of Electrons    NEL             ....   66
 Basis Dimension        Dim             ....  706

ORBITAL ENERGIES
----------------

  NO   OCC          E(Eh)            E(eV)
   0   2.0000     -92.026129     -2504.1583
   1   2.0000     -92.020178     -2503.9963
   2   2.0000     -15.587884      -424.1679
   3   2.0000     -11.339023      -308.5505
   4   2.0000     -11.301620      -307.5327
   5   2.0000     -11.276701      -306.8546
   6   2.0000     -11.259634      -306.3902
   7   2.0000      -9.026561      -245.6252
   8   2.0000      -9.020434      -245.4585
   9   2.0000      -6.708167      -182.5385
  10   2.0000      -6.706667      -182.4977
  11   2.0000      -6.705748      -182.4727
  12   2.0000      -6.702125      -182.3741
  13   2.0000      -6.700947      -182.3420
  14   2.0000      -6.700084      -182.3186
  15   2.0000      -1.236600       -33.6496
  16   2.0000      -1.142642       -31.0929
  17   2.0000      -1.075721       -29.2719
  18   2.0000      -1.010679       -27.5020
  19   2.0000      -0.906312       -24.6620
  20   2.0000      -0.746817       -20.3219
  21   2.0000      -0.699041       -19.0219
  22   2.0000      -0.681415       -18.5422
  23   2.0000      -0.624941       -17.0055
  24   2.0000      -0.580114       -15.7857
  25   2.0000      -0.551531       -15.0079
  26   2.0000      -0.534354       -14.5405
  27   2.0000      -0.525949       -14.3118
  28   2.0000      -0.495341       -13.4789
  29   2.0000      -0.464525       -12.6404
  30   2.0000      -0.419483       -11.4147
  31   2.0000      -0.393908       -10.7188
  32   2.0000      -0.364107        -9.9078
  33   0.0000       0.021573         0.5870
  34   0.0000       0.027183         0.7397
  35   0.0000       0.040054         1.0899
  36   0.0000       0.046609         1.2683
  37   0.0000       0.051388         1.3983

MULLIKEN ATOMIC CHARGES
-----------------------
   0 S :    0.521346
   1 S :    0.524732
   2 N :   -0.510023
   3 C :   -0.527357
   4 C :   -0.132850
   5 C :   -0.531646
   6 C :   -0.530282
   7 H :    0.297751
   8 H :    0.325327
   9 H :    0.563001
Sum of atomic charges:   -0.0000000

LOEWDIN ATOMIC CHARGES
----------------------
   0 S :    1.136048
   1 S :    1.144783
   2 N :    0.269535
   3 C :   -0.238742
   4 C :   -0.874087
   5 C :   -0.505926
   6 C :    0.436391
   7 H :   -0.442031
   8 H :   -0.458604
   9 H :   -0.467368

  Mayer bond orders larger than 0.100000
B(  0-S ,  3-C ) :   0.8703 B(  0-S ,  4-C ) :   0.9091 B(  1-S ,  3-C ) :   0.9464
B(  1-S ,  5-C ) :   0.7348 B(  2-N ,  4-C ) :   2.5928 B(  3-C ,  7-H ) :   0.8729
B(  3-C ,  8-H ) :   0.8803 B(  5-C ,  6-C ) :   2.5041 B(  6-C ,  9-H ) :   0.7258

MP2 TOTAL ENERGY:    -1003.996030704 Eh
FINAL SINGLE POINT ENERGY     -1003.996030703744

DIPOLE MOMENT
-------------
                                X             Y             Z
Electronic contribution:     -1.18054      -0.87340       2.36237
Nuclear contribution   :      2.50790       0.72898      -2.38004
                        -----------------------------------------
Total Dipole Moment    :      1.32736      -0.14442      -0.01767
                        -----------------------------------------
Magnitude (a.u.)       :      1.33531
Magnitude (Debye)      :      3.39408

Rotational constants in cm-1:     0.142267     0.029287     0.026739
Rotational constants in MHz :  4265.062307   877.995107   801.610567

                             ****ORCA TERMINATED NORMALLY****
TOTAL RUN TIME: 0 days 0 hours 10 minutes 43 seconds 154 msec
