                         Program Version 5.0.4 -  RELEASE  -
|  1> !ri-mp2 aug-cc-pvqz aug-cc-pvqz/c tightscf
|  2> %pal nprocs 16 end
|  3>
|  4> * xyz 0 1
|  5> N     -1.772399    1.554665    0.469600
|  6> C     -1.366140    0.325170    0.092859
|  7> S     -2.456819   -0.860510   -0.315837
|  8> C      0.106704    0.129865    0.044612
|  9> C      0.966492    1.187191   -0.276202
| 10> C      2.340741    0.991999   -0.324842
| 11> C      2.877285   -0.257721   -0.040450
| 12> C      2.030458   -1.315064    0.278402
| 13> C      0.657396   -1.126729    0.311776
| 14> H     -2.760372    1.733207    0.530743
| 15> H     -1.135771    2.217677    0.877192
| 16> H      0.563130    2.157313   -0.533805
| 17> H      2.990082    1.814218   -0.593305
| 18> H      3.947644   -0.409333   -0.073904
| 19> H      2.441819   -2.290833    0.498199
| 20> H     -0.008244   -1.945015    0.544143
| 21> *
| 22>
| 23>                          ****END OF INPUT****

CARTESIAN COORDINATES (ANGSTROEM)
---------------------------------
  N     -1.772399    1.554665    0.469600
  C     -1.366140    0.325170    0.092859
  S     -2.456819   -0.860510   -0.315837
  C      0.106704    0.129865    0.044612
  C      0.966492    1.187191   -0.276202
  C      2.340741    0.991999   -0.324842
  C      2.877285   -0.257721   -0.040450
  C      2.030458   -1.315064    0.278402
  C      0.657396   -1.126729    0.311776
  H     -2.760372    1.733207    0.530743
  H     -1.135771    2.217677    0.877192
  H      0.563130    2.157313   -0.533805
  H      2.990082    1.814218   -0.593305
  H      3.947644   -0.409333   -0.073904
  H      2.441819   -2.290833    0.498199
  H     -0.008244   -1.945015    0.544143

 Total Charge           Charge          ....    0
 Multiplicity           Mult            ....    1
 Number of Electrons    NEL             ....   72
 Basis Dimension        Dim             .... 1046

ORBITAL ENERGIES
----------------

  NO   OCC          E(Eh)            E(eV)
   0   2.0000     -91.896386     -2500.6278
   1   2.0000     -15.607698      -424.7070
   2   2.0000     -11.354533      -308.9725
   3   2.0000     -11.262818      -306.4769
   4   2.0000     -11.258080      -306.3479
   5   2.0000     -11.253338      -306.2189
   6   2.0000     -11.249692      -306.1197
   7   2.0000     -11.249339      -306.1101
   8   2.0000     -11.246194      -306.0245
   9   2.0000      -8.900629      -242.1984
  10   2.0000      -6.582212      -179.1111
  11   2.0000      -6.580812      -179.0730
  12   2.0000      -6.580012      -179.0512
  13   2.0000      -1.272265       -34.6201
  14   2.0000      -1.171608       -31.8811
  15   2.0000      -1.058477       -28.8026
  16   2.0000      -1.034594       -28.1527
  17   2.0000      -0.981833       -26.7170
  18   2.0000      -0.869136       -23.6504
  19   2.0000      -0.843440       -22.9512
  20   2.0000      -0.789343       -21.4791
  21   2.0000      -0.749484       -20.3945
  22   2.0000      -0.706748       -19.2316
  23   2.0000      -0.668007       -18.1774
  24   2.0000      -0.642554       -17.4848
  25   2.0000      -0.613979       -16.7072
  26   2.0000      -0.604773       -16.4567
  27   2.0000      -0.550105       -14.9691
  28   2.0000      -0.539593       -14.6831
  29   2.0000      -0.514645       -14.0042
  30   2.0000      -0.507474       -13.8091
  31   2.0000      -0.492590       -13.4041
  32   2.0000      -0.367563       -10.0019
  33   2.0000      -0.354994        -9.6599
  34   2.0000      -0.331632        -9.0242
  35   2.0000      -0.318253        -8.6601
  36   0.0000       0.017684         0.4812
  37   0.0000       0.024369         0.6631
  38   0.0000       0.029635         0.8064
  39   0.0000       0.039210         1.0670
  40   0.0000       0.040374         1.0986

MULLIKEN ATOMIC CHARGES
-----------------------
   0 N :   -0.648298
   1 C :    0.240056
   2 S :   -0.261869
   3 C :   -0.005844
   4 C :   -0.154916
   5 C :   -0.404772
   6 C :   -0.316691
   7 C :   -0.413105
   8 C :   -0.153931
   9 H :    0.215419
  10 H :    0.342866
  11 H :    0.323791
  12 H :    0.264549
  13 H :    0.322529
  14 H :    0.250293
  15 H :    0.399923
Sum of atomic charges:   -0.0000000

LOEWDIN ATOMIC CHARGES
----------------------
   0 N :    1.153024
   1 C :   -0.978558
   2 S :    1.072364
   3 C :   -0.231131
   4 C :    0.325401
   5 C :    0.356085
   6 C :    0.349044
   7 C :    0.358986
   8 C :    0.284645
   9 H :   -0.521785
  10 H :   -0.505322
  11 H :   -0.332006
  12 H :   -0.321139
  13 H :   -0.318110
  14 H :   -0.319960
  15 H :   -0.371537

  Mayer bond orders larger than 0.100000
B(  0-N ,  1-C ) :   0.9030 B(  0-N ,  9-H ) :   1.0340 B(  0-N , 10-H ) :   0.8546
B(  1-C ,  2-S ) :   1.5213 B(  1-C ,  3-C ) :   1.0405 B(  1-C ,  4-C ) :  -0.2796
B(  1-C ,  8-C ) :  -0.3139 B(  2-S ,  3-C ) :  -0.1523 B(  3-C ,  4-C ) :   1.1430
B(  3-C ,  5-C ) :  -0.2039 B(  3-C ,  7-C ) :  -0.2106 B(  3-C ,  8-C ) :   1.1806
B(  4-C ,  5-C ) :   1.2304 B(  4-C ,  7-C ) :   0.1209 B(  4-C , 11-H ) :   0.9138
B(  4-C , 12-H ) :  -0.1087 B(  5-C ,  6-C ) :   1.1974 B(  5-C ,  8-C ) :   0.1381
B(  5-C , 12-H ) :   1.0903 B(  6-C ,  7-C ) :   1.1754 B(  6-C , 13-H ) :   1.0141
B(  7-C ,  8-C ) :   1.2434 B(  7-C , 14-H ) :   1.1177 B(  8-C , 14-H ) :  -0.1264
B(  8-C , 15-H ) :   0.8734

MP2 TOTAL ENERGY:     -722.879618275 Eh
FINAL SINGLE POINT ENERGY      -722.879618275355

DIPOLE MOMENT
-------------
                                X             Y             Z
Electronic contribution:     -4.76276      -1.92918      -0.66666
Nuclear contribution   :      6.01566       3.26513       1.24357
                        -----------------------------------------
Total Dipole Moment    :      1.25290       1.33596       0.57691
                        -----------------------------------------
Magnitude (a.u.)       :      1.92025
Magnitude (Debye)      :      4.88090

Rotational constants in cm-1:     0.103676     0.030982     0.024759
Rotational constants in MHz :  3108.139701   928.821524   742.260500

                             ****ORCA TERMINATED NORMALLY****
TOTAL RUN TIME: 0 days 0 hours 49 minutes 15 seconds 992 msec
