                         Program Version 5.0.4 -  RELEASE  -
|  1> !ri-mp2 aug-cc-pvqz aug-cc-pvqz/c tightscf
|  2> %pal nprocs 16 end
|  3>
|  4> * xyz 0 1
|  5> C     -0.621065    1.325981    0.000000
|  6> C      0.020904    0.729584    1.256731
|  7> C      0.020904    0.729584   -1.256731
|  8> C      0.020904   -0.794091    1.182195
|  9> C      0.020904   -0.794091   -1.182195
| 10> O      0.655923   -1.267487    0.000000
| 11> H     -1.692321    1.099091    0.000000
| 12> H     -0.531769    2.413763    0.000000
| 13> H      1.053246    1.077801    1.346976
| 14> H     -0.509437    1.050894    2.156429
| 15> H     -0.509437    1.050894   -2.156429
| 16> H      1.053246    1.077801   -1.346976
| 17> H      0.568763   -1.234712    2.014395
| 18> H     -1.011867   -1.171361    1.218225
| 19> H     -1.011867   -1.171361   -1.218225
| 20> H      0.568763   -1.234712   -2.014395
| 21> *
| 22>
| 23>                          ****END OF INPUT****

CARTESIAN COORDINATES (ANGSTROEM)
---------------------------------
  C     -0.621065    1.325981    0.000000
  C      0.020904    0.729584    1.256731
  C      0.020904    0.729584   -1.256731
  C      0.020904   -0.794091    1.182195
  C      0.020904   -0.794091   -1.182195
  O      0.655923   -1.267487    0.000000
  H     -1.692321    1.099091    0.000000
  H     -0.531769    2.413763    0.000000
  H      1.053246    1.077801    1.346976
  H     -0.509437    1.050894    2.156429
  H     -0.509437    1.050894   -2.156429
  H      1.053246    1.077801   -1.346976
  H      0.568763   -1.234712    2.014395
  H     -1.011867   -1.171361    1.218225
  H     -1.011867   -1.171361   -1.218225
  H      0.568763   -1.234712   -2.014395

 Total Charge           Charge          ....    0
 Multiplicity           Mult            ....    1
 Number of Electrons    NEL             ....   48
 Basis Dimension        Dim             ....  940

ORBITAL ENERGIES
----------------

  NO   OCC          E(Eh)            E(eV)
   0   2.0000     -20.544820      -559.0530
   1   2.0000     -11.267208      -306.5963
   2   2.0000     -11.267190      -306.5958
   3   2.0000     -11.221131      -305.3425
   4   2.0000     -11.218101      -305.2600
   5   2.0000     -11.218032      -305.2582
   6   2.0000      -1.365023       -37.1442
   7   2.0000      -1.075235       -29.2586
   8   2.0000      -1.023652       -27.8550
   9   2.0000      -0.877258       -23.8714
  10   2.0000      -0.858232       -23.3537
  11   2.0000      -0.768797       -20.9200
  12   2.0000      -0.673677       -18.3317
  13   2.0000      -0.635009       -17.2795
  14   2.0000      -0.626117       -17.0375
  15   2.0000      -0.610025       -16.5996
  16   2.0000      -0.571438       -15.5496
  17   2.0000      -0.540312       -14.7026
  18   2.0000      -0.537082       -14.6148
  19   2.0000      -0.496972       -13.5233
  20   2.0000      -0.481136       -13.0924
  21   2.0000      -0.457537       -12.4502
  22   2.0000      -0.444772       -12.1029
  23   2.0000      -0.403167       -10.9707
  24   0.0000       0.026396         0.7183
  25   0.0000       0.030915         0.8412
  26   0.0000       0.033385         0.9085
  27   0.0000       0.035237         0.9588
  28   0.0000       0.048162         1.3106

MULLIKEN ATOMIC CHARGES
-----------------------
   0 C :   -0.399544
   1 C :   -0.577821
   2 C :   -0.577822
   3 C :   -0.079598
   4 C :   -0.079598
   5 O :   -0.910393
   6 H :    0.169175
   7 H :    0.331121
   8 H :    0.199655
   9 H :    0.323619
  10 H :    0.323619
  11 H :    0.199655
  12 H :    0.406947
  13 H :    0.132018
  14 H :    0.132018
  15 H :    0.406947
Sum of atomic charges:   -0.0000000

LOEWDIN ATOMIC CHARGES
----------------------
   0 C :    0.517697
   1 C :    0.516993
   2 C :    0.516993
   3 C :    0.176442
   4 C :    0.176442
   5 O :    0.902769
   6 H :   -0.271174
   7 H :   -0.262986
   8 H :   -0.271988
   9 H :   -0.266639
  10 H :   -0.266639
  11 H :   -0.271988
  12 H :   -0.306349
  13 H :   -0.291612
  14 H :   -0.291612
  15 H :   -0.306349

  Mayer bond orders larger than 0.100000
B(  0-C ,  1-C ) :   0.9309 B(  0-C ,  2-C ) :   0.9309 B(  0-C ,  6-H ) :   0.9599
B(  0-C ,  7-H ) :   0.8419 B(  1-C ,  3-C ) :   1.0228 B(  1-C ,  8-H ) :   0.9259
B(  1-C ,  9-H ) :   0.8588 B(  2-C ,  4-C ) :   1.0228 B(  2-C , 10-H ) :   0.8588
B(  2-C , 11-H ) :   0.9259 B(  3-C ,  5-O ) :   0.6909 B(  3-C , 12-H ) :   0.8117
B(  3-C , 13-H ) :   1.0123 B(  4-C ,  5-O ) :   0.6909 B(  4-C , 14-H ) :   1.0123
B(  4-C , 15-H ) :   0.8117

MP2 TOTAL ENERGY:     -271.307993693 Eh
FINAL SINGLE POINT ENERGY      -271.307993693267

DIPOLE MOMENT
-------------
                                X             Y             Z
Electronic contribution:      1.65757      -2.60031       0.00000
Nuclear contribution   :     -2.10611       3.07502      -0.00000
                        -----------------------------------------
Total Dipole Moment    :     -0.44854       0.47471       0.00000
                        -----------------------------------------
Magnitude (a.u.)       :      0.65310
Magnitude (Debye)      :      1.66004

Rotational constants in cm-1:     0.155354     0.150121     0.086353
Rotational constants in MHz :  4657.388683  4500.528816  2588.812186

                             ****ORCA TERMINATED NORMALLY****
TOTAL RUN TIME: 0 days 0 hours 41 minutes 32 seconds 59 msec
