                         Program Version 5.0.4 -  RELEASE  -
|  1> !ri-mp2 aug-cc-pvqz aug-cc-pvqz/c tightscf
|  2> %pal nprocs 16 end
|  3>
|  4> * xyz 0 1
|  5> O      0.614839   -0.531311    0.412981
|  6> O     -0.558693   -0.562512   -0.398497
|  7> O      1.453969    0.529309   -0.061717
|  8> C     -1.474009    0.413749    0.097467
|  9> H      1.911049    0.100315   -0.801444
| 10> H     -1.737810    0.202807    1.133973
| 11> H     -2.351255    0.313601   -0.540435
| 12> H     -1.058850    1.416901    0.000969
| 13> *
| 14>
| 15>                          ****END OF INPUT****

CARTESIAN COORDINATES (ANGSTROEM)
---------------------------------
  O      0.614839   -0.531311    0.412981
  O     -0.558693   -0.562512   -0.398497
  O      1.453969    0.529309   -0.061717
  C     -1.474009    0.413749    0.097467
  H      1.911049    0.100315   -0.801444
  H     -1.737810    0.202807    1.133973
  H     -2.351255    0.313601   -0.540435
  H     -1.058850    1.416901    0.000969

 Total Charge           Charge          ....    0
 Multiplicity           Mult            ....    1
 Number of Electrons    NEL             ....   34
 Basis Dimension        Dim             ....  504

ORBITAL ENERGIES
----------------

  NO   OCC          E(Eh)            E(eV)
   0   2.0000     -20.690853      -563.0267
   1   2.0000     -20.639708      -561.6350
   2   2.0000     -20.636301      -561.5423
   3   2.0000     -11.284020      -307.0538
   4   2.0000      -1.540535       -41.9201
   5   2.0000      -1.368405       -37.2362
   6   2.0000      -1.153664       -31.3928
   7   2.0000      -0.927598       -25.2412
   8   2.0000      -0.743017       -20.2185
   9   2.0000      -0.698802       -19.0154
  10   2.0000      -0.693205       -18.8631
  11   2.0000      -0.631760       -17.1911
  12   2.0000      -0.598946       -16.2981
  13   2.0000      -0.568067       -15.4579
  14   2.0000      -0.502293       -13.6681
  15   2.0000      -0.489733       -13.3263
  16   2.0000      -0.471866       -12.8401
  17   0.0000       0.026874         0.7313
  18   0.0000       0.035821         0.9747
  19   0.0000       0.043724         1.1898
  20   0.0000       0.046508         1.2655
  21   0.0000       0.077904         2.1199

MULLIKEN ATOMIC CHARGES
-----------------------
   0 O :   -0.111476
   1 O :   -0.340501
   2 O :   -0.356714
   3 C :   -0.447669
   4 H :    0.357625
   5 H :    0.273448
   6 H :    0.349604
   7 H :    0.275682
Sum of atomic charges:   -0.0000000

LOEWDIN ATOMIC CHARGES
----------------------
   0 O :    0.153544
   1 O :    0.442212
   2 O :    0.852929
   3 C :    0.493612
   4 H :   -0.910964
   5 H :   -0.333964
   6 H :   -0.351729
   7 H :   -0.345640

  Mayer bond orders larger than 0.100000
B(  0-O ,  1-O ) :   0.8314 B(  0-O ,  2-O ) :   0.8580 B(  1-O ,  3-C ) :   0.7769
B(  2-O ,  4-H ) :   0.9031 B(  3-C ,  5-H ) :   0.9190 B(  3-C ,  6-H ) :   0.8740
B(  3-C ,  7-H ) :   0.9105

MP2 TOTAL ENERGY:     -265.677429125 Eh
FINAL SINGLE POINT ENERGY      -265.677429124620

DIPOLE MOMENT
-------------
                                X             Y             Z
Electronic contribution:      2.94959      -1.73007      -0.13985
Nuclear contribution   :     -3.20375       2.01886      -0.20708
                        -----------------------------------------
Total Dipole Moment    :     -0.25416       0.28879      -0.34693
                        -----------------------------------------
Magnitude (a.u.)       :      0.51803
Magnitude (Debye)      :      1.31673

Rotational constants in cm-1:     0.654549     0.183228     0.164430
Rotational constants in MHz : 19622.898449  5493.047927  4929.492617

                             ****ORCA TERMINATED NORMALLY****
TOTAL RUN TIME: 0 days 0 hours 4 minutes 49 seconds 232 msec
