                         Program Version 5.0.4 -  RELEASE  -
|  1> !ri-mp2 aug-cc-pvqz aug-cc-pvqz/c tightscf
|  2> %pal nprocs 16 end
|  3>
|  4> * xyz 0 1
|  5> C     -2.830605   -0.004894    0.011148
|  6> C     -2.141181    1.201669    0.001644
|  7> C     -2.130097   -1.206446    0.001574
|  8> C     -0.751864    1.211198   -0.016805
|  9> C     -0.742127   -1.203364   -0.017162
| 10> C     -0.054399    0.007588   -0.027137
| 11> C      1.449778    0.003678   -0.003578
| 12> F      1.974663    1.157149   -0.464769
| 13> F      1.932309   -0.167372    1.251571
| 14> F      1.967606   -0.995256   -0.750684
| 15> H     -3.912035   -0.009776    0.023540
| 16> H     -2.683315    2.137140    0.005948
| 17> H     -2.664442   -2.146382    0.005924
| 18> H     -0.213065    2.147199   -0.028956
| 19> H     -0.195372   -2.135445   -0.029626
| 20> *
| 21>
| 22>                          ****END OF INPUT****

CARTESIAN COORDINATES (ANGSTROEM)
---------------------------------
  C     -2.830605   -0.004894    0.011148
  C     -2.141181    1.201669    0.001644
  C     -2.130097   -1.206446    0.001574
  C     -0.751864    1.211198   -0.016805
  C     -0.742127   -1.203364   -0.017162
  C     -0.054399    0.007588   -0.027137
  C      1.449778    0.003678   -0.003578
  F      1.974663    1.157149   -0.464769
  F      1.932309   -0.167372    1.251571
  F      1.967606   -0.995256   -0.750684
  H     -3.912035   -0.009776    0.023540
  H     -2.683315    2.137140    0.005948
  H     -2.664442   -2.146382    0.005924
  H     -0.213065    2.147199   -0.028956
  H     -0.195372   -2.135445   -0.029626

 Total Charge           Charge          ....    0
 Multiplicity           Mult            ....    1
 Number of Electrons    NEL             ....   74
 Basis Dimension        Dim             .... 1030

ORBITAL ENERGIES
----------------

  NO   OCC          E(Eh)            E(eV)
   0   2.0000     -26.332919      -716.5552
   1   2.0000     -26.331191      -716.5081
   2   2.0000     -26.326868      -716.3905
   3   2.0000     -11.508455      -313.1610
   4   2.0000     -11.268847      -306.6409
   5   2.0000     -11.260201      -306.4056
   6   2.0000     -11.260013      -306.4005
   7   2.0000     -11.256606      -306.3078
   8   2.0000     -11.253028      -306.2104
   9   2.0000     -11.252727      -306.2023
  10   2.0000      -1.719495       -46.7898
  11   2.0000      -1.628173       -44.3048
  12   2.0000      -1.622589       -44.1529
  13   2.0000      -1.183893       -32.2154
  14   2.0000      -1.072245       -29.1773
  15   2.0000      -1.040441       -28.3118
  16   2.0000      -0.962923       -26.2025
  17   2.0000      -0.865145       -23.5418
  18   2.0000      -0.858827       -23.3699
  19   2.0000      -0.813208       -22.1285
  20   2.0000      -0.807556       -21.9747
  21   2.0000      -0.788681       -21.4611
  22   2.0000      -0.712478       -19.3875
  23   2.0000      -0.705763       -19.2048
  24   2.0000      -0.701019       -19.0757
  25   2.0000      -0.663022       -18.0417
  26   2.0000      -0.656599       -17.8670
  27   2.0000      -0.652794       -17.7634
  28   2.0000      -0.643533       -17.5114
  29   2.0000      -0.640118       -17.4185
  30   2.0000      -0.608935       -16.5700
  31   2.0000      -0.591414       -16.0932
  32   2.0000      -0.528020       -14.3681
  33   2.0000      -0.522433       -14.2161
  34   2.0000      -0.518675       -14.1139
  35   2.0000      -0.365464        -9.9448
  36   2.0000      -0.359106        -9.7718
  37   0.0000       0.021391         0.5821
  38   0.0000       0.027241         0.7413
  39   0.0000       0.033276         0.9055
  40   0.0000       0.043420         1.1815
  41   0.0000       0.047507         1.2927

MULLIKEN ATOMIC CHARGES
-----------------------
   0 C :   -0.294621
   1 C :   -0.381764
   2 C :   -0.366313
   3 C :   -0.144404
   4 C :   -0.104571
   5 C :   -0.557152
   6 C :    2.182266
   7 F :   -0.662230
   8 F :   -0.620638
   9 F :   -0.678363
  10 H :    0.321084
  11 H :    0.260595
  12 H :    0.269375
  13 H :    0.379384
  14 H :    0.397352
Sum of atomic charges:    0.0000000

LOEWDIN ATOMIC CHARGES
----------------------
   0 C :    0.347880
   1 C :    0.353905
   2 C :    0.354218
   3 C :    0.319179
   4 C :    0.318441
   5 C :   -0.214695
   6 C :   -2.124231
   7 F :    0.764603
   8 F :    0.743023
   9 F :    0.758054
  10 H :   -0.318248
  11 H :   -0.320039
  12 H :   -0.319906
  13 H :   -0.336469
  14 H :   -0.325714

  Mayer bond orders larger than 0.100000
B(  0-C ,  1-C ) :   1.1653 B(  0-C ,  2-C ) :   1.1661 B(  0-C , 10-H ) :   1.0086
B(  1-C ,  3-C ) :   1.3113 B(  1-C ,  4-C ) :   0.1157 B(  1-C ,  5-C ) :  -0.2017
B(  1-C , 11-H ) :   1.0944 B(  2-C ,  3-C ) :   0.1308 B(  2-C ,  4-C ) :   1.2904
B(  2-C ,  5-C ) :  -0.1673 B(  2-C , 12-H ) :   1.0801 B(  3-C ,  5-C ) :   1.0175
B(  3-C ,  6-C ) :  -0.2098 B(  3-C , 11-H ) :  -0.1074 B(  3-C , 13-H ) :   0.8569
B(  4-C ,  5-C ) :   1.0149 B(  4-C ,  6-C ) :  -0.2277 B(  4-C , 12-H ) :  -0.1052
B(  4-C , 14-H ) :   0.8498 B(  5-C ,  6-C ) :   1.1944 B(  5-C ,  8-F ) :   0.1016
B(  5-C ,  9-F ) :   0.1088 B(  5-C , 13-H ) :  -0.1010 B(  5-C , 14-H ) :  -0.1196
B(  6-C ,  7-F ) :   0.3228 B(  6-C ,  8-F ) :   0.3649 B(  6-C ,  9-F ) :   0.3090

MP2 TOTAL ENERGY:     -568.569400742 Eh
FINAL SINGLE POINT ENERGY      -568.569400742204

DIPOLE MOMENT
-------------
                                X             Y             Z
Electronic contribution:     13.46125       0.01155       0.03004
Nuclear contribution   :    -14.71461      -0.00176      -0.05597
                        -----------------------------------------
Total Dipole Moment    :     -1.25336       0.00979      -0.02593
                        -----------------------------------------
Magnitude (a.u.)       :      1.25367
Magnitude (Debye)      :      3.18657

Rotational constants in cm-1:     0.094861     0.031454     0.026995
Rotational constants in MHz :  2843.857015   942.968602   809.283804

                             ****ORCA TERMINATED NORMALLY****
TOTAL RUN TIME: 0 days 0 hours 53 minutes 50 seconds 270 msec
