                         Program Version 5.0.4 -  RELEASE  -
|  1> !ri-mp2 aug-cc-pvqz aug-cc-pvqz/c tightscf
|  2> %pal nprocs 16 end
|  3>
|  4> * xyz 0 1
|  5> C      0.000000    0.000000    0.000000
|  6> N      0.447266   -1.152752    0.927023
|  7> O      1.211160   -0.804270    1.793232
|  8> N     -0.447266    1.152752    0.927023
|  9> O      0.000000    2.247297    0.698711
| 10> O     -1.211160    0.804270    1.793232
| 11> N     -1.152752   -0.447266   -0.927023
| 12> O     -2.247297    0.000000   -0.698711
| 13> O     -0.804270   -1.211160   -1.793232
| 14> N      1.152752    0.447266   -0.927023
| 15> O      0.804270    1.211160   -1.793232
| 16> O      2.247297    0.000000   -0.698711
| 17> O      0.000000   -2.247297    0.698711
| 18> *
| 19>
| 20>                          ****END OF INPUT****

CARTESIAN COORDINATES (ANGSTROEM)
---------------------------------
  C      0.000000    0.000000    0.000000
  N      0.447266   -1.152752    0.927023
  O      1.211160   -0.804270    1.793232
  N     -0.447266    1.152752    0.927023
  O      0.000000    2.247297    0.698711
  O     -1.211160    0.804270    1.793232
  N     -1.152752   -0.447266   -0.927023
  O     -2.247297    0.000000   -0.698711
  O     -0.804270   -1.211160   -1.793232
  N      1.152752    0.447266   -0.927023
  O      0.804270    1.211160   -1.793232
  O      2.247297    0.000000   -0.698711
  O      0.000000   -2.247297    0.698711

 Total Charge           Charge          ....    0
 Multiplicity           Mult            ....    1
 Number of Electrons    NEL             ....   98
 Basis Dimension        Dim             .... 1040

ORBITAL ENERGIES
----------------

  NO   OCC          E(Eh)            E(eV)
   0   2.0000     -20.692409      -563.0691
   1   2.0000     -20.692409      -563.0691
   2   2.0000     -20.692409      -563.0691
   3   2.0000     -20.692408      -563.0690
   4   2.0000     -20.687880      -562.9458
   5   2.0000     -20.687880      -562.9458
   6   2.0000     -20.687878      -562.9458
   7   2.0000     -20.687877      -562.9458
   8   2.0000     -15.950070      -434.0235
   9   2.0000     -15.950070      -434.0235
  10   2.0000     -15.950069      -434.0234
  11   2.0000     -15.950052      -434.0230
  12   2.0000     -11.558059      -314.5108
  13   2.0000      -1.727907       -47.0188
  14   2.0000      -1.699788       -46.2536
  15   2.0000      -1.697465       -46.1904
  16   2.0000      -1.697465       -46.1904
  17   2.0000      -1.509368       -41.0720
  18   2.0000      -1.502059       -40.8731
  19   2.0000      -1.502059       -40.8731
  20   2.0000      -1.500734       -40.8370
  21   2.0000      -1.275067       -34.6963
  22   2.0000      -1.053797       -28.6753
  23   2.0000      -1.044909       -28.4334
  24   2.0000      -1.044909       -28.4334
  25   2.0000      -0.903305       -24.5802
  26   2.0000      -0.886550       -24.1243
  27   2.0000      -0.878382       -23.9020
  28   2.0000      -0.878382       -23.9020
  29   2.0000      -0.814380       -22.1604
  30   2.0000      -0.814238       -22.1565
  31   2.0000      -0.807090       -21.9620
  32   2.0000      -0.807090       -21.9620
  33   2.0000      -0.805106       -21.9080
  34   2.0000      -0.797163       -21.6919
  35   2.0000      -0.785643       -21.3784
  36   2.0000      -0.785643       -21.3784
  37   2.0000      -0.639663       -17.4061
  38   2.0000      -0.608175       -16.5493
  39   2.0000      -0.590453       -16.0670
  40   2.0000      -0.590453       -16.0670
  41   2.0000      -0.581299       -15.8179
  42   2.0000      -0.564084       -15.3495
  43   2.0000      -0.564084       -15.3495
  44   2.0000      -0.553756       -15.0685
  45   2.0000      -0.543569       -14.7913
  46   2.0000      -0.525806       -14.3079
  47   2.0000      -0.521767       -14.1980
  48   2.0000      -0.521767       -14.1980
  49   0.0000      -0.010750        -0.2925
  50   0.0000       0.002061         0.0561
  51   0.0000       0.002061         0.0561
  52   0.0000       0.011977         0.3259
  53   0.0000       0.050464         1.3732

MULLIKEN ATOMIC CHARGES
-----------------------
   0 C :    0.517357
   1 N :    0.968849
   2 O :   -0.535968
   3 N :    0.968849
   4 O :   -0.562220
   5 O :   -0.535968
   6 N :    0.968844
   7 O :   -0.562217
   8 O :   -0.535967
   9 N :    0.968844
  10 O :   -0.535967
  11 O :   -0.562217
  12 O :   -0.562220
Sum of atomic charges:   -0.0000000

LOEWDIN ATOMIC CHARGES
----------------------
   0 C :   -1.040217
   1 N :   -0.894466
   2 O :    0.575675
   3 N :   -0.894466
   4 O :    0.578845
   5 O :    0.575675
   6 N :   -0.894466
   7 O :    0.578845
   8 O :    0.575675
   9 N :   -0.894466
  10 O :    0.575675
  11 O :    0.578845
  12 O :    0.578845

  Mayer bond orders larger than 0.100000
B(  0-C ,  1-N ) :   0.8120 B(  0-C ,  2-O ) :   0.1258 B(  0-C ,  3-N ) :   0.8120
B(  0-C ,  4-O ) :   0.1304 B(  0-C ,  5-O ) :   0.1258 B(  0-C ,  6-N ) :   0.8120
B(  0-C ,  7-O ) :   0.1303 B(  0-C ,  8-O ) :   0.1258 B(  0-C ,  9-N ) :   0.8120
B(  0-C , 10-O ) :   0.1258 B(  0-C , 11-O ) :   0.1303 B(  0-C , 12-O ) :   0.1304
B(  1-N ,  2-O ) :   1.2755 B(  1-N , 12-O ) :   1.2194 B(  2-O , 12-O ) :   0.1543
B(  3-N ,  4-O ) :   1.2194 B(  3-N ,  5-O ) :   1.2755 B(  4-O ,  5-O ) :   0.1543
B(  6-N ,  7-O ) :   1.2194 B(  6-N ,  8-O ) :   1.2755 B(  7-O ,  8-O ) :   0.1543
B(  9-N , 10-O ) :   1.2755 B(  9-N , 11-O ) :   1.2194 B( 10-O , 11-O ) :   0.1543

MP2 TOTAL ENERGY:     -857.507532872 Eh
FINAL SINGLE POINT ENERGY      -857.507532871752

DIPOLE MOMENT
-------------
                                X             Y             Z
Electronic contribution:      0.00000      -0.00000      -0.00000
Nuclear contribution   :      0.00000       0.00000       0.00000
                        -----------------------------------------
Total Dipole Moment    :      0.00000      -0.00000      -0.00000
                        -----------------------------------------
Magnitude (a.u.)       :      0.00000
Magnitude (Debye)      :      0.00000

Rotational constants in cm-1:     0.030981     0.030252     0.030252
Rotational constants in MHz :   928.777234   906.917996   906.917996

                             ****ORCA TERMINATED NORMALLY****
TOTAL RUN TIME: 0 days 0 hours 54 minutes 53 seconds 884 msec
