                         Program Version 5.0.4 -  RELEASE  -
|  1> !ri-mp2 aug-cc-pvqz aug-cc-pvqz/c tightscf
|  2> %pal nprocs 16 end
|  3>
|  4> * xyz 0 1
|  5> C      0.000000    0.000000    0.669101
|  6> C      0.000000    0.000000   -0.669101
|  7> Cl     0.000000    1.454916    1.595675
|  8> Cl     0.000000   -1.454916    1.595675
|  9> Cl     0.000000   -1.454916   -1.595675
| 10> Cl     0.000000    1.454916   -1.595675
| 11> *
| 12>
| 13>                          ****END OF INPUT****

CARTESIAN COORDINATES (ANGSTROEM)
---------------------------------
  C      0.000000    0.000000    0.669101
  C      0.000000    0.000000   -0.669101
  Cl     0.000000    1.454916    1.595675
  Cl     0.000000   -1.454916    1.595675
  Cl     0.000000   -1.454916   -1.595675
  Cl     0.000000    1.454916   -1.595675

 Total Charge           Charge          ....    0
 Multiplicity           Mult            ....    1
 Number of Electrons    NEL             ....   80
 Basis Dimension        Dim             ....  496

ORBITAL ENERGIES
----------------

  NO   OCC          E(Eh)            E(eV)
   0   2.0000    -104.876963     -2853.8472
   1   2.0000    -104.876963     -2853.8472
   2   2.0000    -104.876962     -2853.8472
   3   2.0000    -104.876962     -2853.8472
   4   2.0000     -11.390238      -309.9441
   5   2.0000     -11.388592      -309.8993
   6   2.0000     -10.601921      -288.4929
   7   2.0000     -10.601915      -288.4928
   8   2.0000     -10.601908      -288.4926
   9   2.0000     -10.601907      -288.4925
  10   2.0000      -8.069040      -219.5698
  11   2.0000      -8.069039      -219.5697
  12   2.0000      -8.069037      -219.5697
  13   2.0000      -8.069036      -219.5696
  14   2.0000      -8.067045      -219.5154
  15   2.0000      -8.067045      -219.5154
  16   2.0000      -8.067044      -219.5154
  17   2.0000      -8.067044      -219.5154
  18   2.0000      -8.066980      -219.5137
  19   2.0000      -8.066980      -219.5137
  20   2.0000      -8.066979      -219.5137
  21   2.0000      -8.066979      -219.5137
  22   2.0000      -1.263020       -34.3685
  23   2.0000      -1.191343       -32.4181
  24   2.0000      -1.140504       -31.0347
  25   2.0000      -1.114613       -30.3302
  26   2.0000      -0.987676       -26.8760
  27   2.0000      -0.751571       -20.4513
  28   2.0000      -0.679036       -18.4775
  29   2.0000      -0.665592       -18.1117
  30   2.0000      -0.616888       -16.7864
  31   2.0000      -0.574743       -15.6396
  32   2.0000      -0.533664       -14.5217
  33   2.0000      -0.512716       -13.9517
  34   2.0000      -0.503055       -13.6888
  35   2.0000      -0.499564       -13.5938
  36   2.0000      -0.491270       -13.3681
  37   2.0000      -0.484863       -13.1938
  38   2.0000      -0.451669       -12.2905
  39   2.0000      -0.368116       -10.0169
  40   0.0000       0.039382         1.0716
  41   0.0000       0.051876         1.4116
  42   0.0000       0.052293         1.4230
  43   0.0000       0.068763         1.8711
  44   0.0000       0.085932         2.3383

MULLIKEN ATOMIC CHARGES
-----------------------
   0 C :    0.112659
   1 C :    0.112659
   2 Cl:   -0.056330
   3 Cl:   -0.056330
   4 Cl:   -0.056330
   5 Cl:   -0.056330
Sum of atomic charges:   -0.0000000

LOEWDIN ATOMIC CHARGES
----------------------
   0 C :   -2.042273
   1 C :   -2.042273
   2 Cl:    1.021137
   3 Cl:    1.021137
   4 Cl:    1.021137
   5 Cl:    1.021137

  Mayer bond orders larger than 0.100000
B(  0-C ,  1-C ) :   1.4033 B(  0-C ,  2-Cl) :   0.8557 B(  0-C ,  3-Cl) :   0.8557
B(  1-C ,  4-Cl) :   0.8557 B(  1-C ,  5-Cl) :   0.8557

MP2 TOTAL ENERGY:    -1914.982950591 Eh
FINAL SINGLE POINT ENERGY     -1914.982950591345

DIPOLE MOMENT
-------------
                                X             Y             Z
Electronic contribution:     -0.00000       0.00000       0.00000
Nuclear contribution   :      0.00000       0.00000       0.00000
                        -----------------------------------------
Total Dipole Moment    :     -0.00000       0.00000       0.00000
                        -----------------------------------------
Magnitude (a.u.)       :      0.00000
Magnitude (Debye)      :      0.00000

Rotational constants in cm-1:     0.056158     0.045337     0.025085
Rotational constants in MHz :  1683.560711  1359.156228   752.032500

                             ****ORCA TERMINATED NORMALLY****
TOTAL RUN TIME: 0 days 0 hours 5 minutes 55 seconds 995 msec
