                         Program Version 5.0.4 -  RELEASE  -
|  1> !ri-mp2 aug-cc-pvqz aug-cc-pvqz/c tightscf
|  2> %pal nprocs 16 end
|  3>
|  4> * xyz 0 1
|  5> C      0.000002   -0.367307    0.256085
|  6> O     -0.000002    0.965131    0.702169
|  7> C     -0.000007    1.956470   -0.327711
|  8> O     -1.098087   -0.677695   -0.536994
|  9> C     -2.334659   -0.671033    0.163443
| 10> O      1.098092   -0.677688   -0.536995
| 11> C      2.334663   -0.671026    0.163443
| 12> H      0.000003   -0.955286    1.185152
| 13> H     -0.000019    2.916553    0.181998
| 14> H      0.887101    1.876333   -0.957416
| 15> H     -0.887109    1.876316   -0.957423
| 16> H     -2.319311   -1.383477    0.994703
| 17> H     -2.574558    0.320771    0.552376
| 18> H     -3.094725   -0.974563   -0.551733
| 19> H      2.574558    0.320777    0.552383
| 20> H      2.319318   -1.383476    0.994698
| 21> H      3.094731   -0.974549   -0.551734
| 22> *
| 23>
| 24>                          ****END OF INPUT****

CARTESIAN COORDINATES (ANGSTROEM)
---------------------------------
  C      0.000002   -0.367307    0.256085
  O     -0.000002    0.965131    0.702169
  C     -0.000007    1.956470   -0.327711
  O     -1.098087   -0.677695   -0.536994
  C     -2.334659   -0.671033    0.163443
  O      1.098092   -0.677688   -0.536995
  C      2.334663   -0.671026    0.163443
  H      0.000003   -0.955286    1.185152
  H     -0.000019    2.916553    0.181998
  H      0.887101    1.876333   -0.957416
  H     -0.887109    1.876316   -0.957423
  H     -2.319311   -1.383477    0.994703
  H     -2.574558    0.320771    0.552376
  H     -3.094725   -0.974563   -0.551733
  H      2.574558    0.320777    0.552383
  H      2.319318   -1.383476    0.994698
  H      3.094731   -0.974549   -0.551734

 Total Charge           Charge          ....    0
 Multiplicity           Mult            ....    1
 Number of Electrons    NEL             ....   58
 Basis Dimension        Dim             .... 1020

ORBITAL ENERGIES
----------------

  NO   OCC          E(Eh)            E(eV)
   0   2.0000     -20.563173      -559.5524
   1   2.0000     -20.563159      -559.5520
   2   2.0000     -20.561345      -559.5026
   3   2.0000     -11.382662      -309.7380
   4   2.0000     -11.274157      -306.7854
   5   2.0000     -11.274156      -306.7854
   6   2.0000     -11.266864      -306.5870
   7   2.0000      -1.453801       -39.5599
   8   2.0000      -1.355178       -36.8763
   9   2.0000      -1.348483       -36.6941
  10   2.0000      -0.991207       -26.9721
  11   2.0000      -0.944566       -25.7029
  12   2.0000      -0.917223       -24.9589
  13   2.0000      -0.823253       -22.4019
  14   2.0000      -0.720487       -19.6054
  15   2.0000      -0.706632       -19.2284
  16   2.0000      -0.699030       -19.0216
  17   2.0000      -0.641540       -17.4572
  18   2.0000      -0.615875       -16.7588
  19   2.0000      -0.603180       -16.4134
  20   2.0000      -0.593851       -16.1595
  21   2.0000      -0.569934       -15.5087
  22   2.0000      -0.556327       -15.1384
  23   2.0000      -0.532557       -14.4916
  24   2.0000      -0.516346       -14.0505
  25   2.0000      -0.469177       -12.7670
  26   2.0000      -0.453953       -12.3527
  27   2.0000      -0.446013       -12.1366
  28   2.0000      -0.445910       -12.1338
  29   0.0000       0.026061         0.7092
  30   0.0000       0.031531         0.8580
  31   0.0000       0.033467         0.9107
  32   0.0000       0.037627         1.0239
  33   0.0000       0.048845         1.3292

MULLIKEN ATOMIC CHARGES
-----------------------
   0 C :    1.484991
   1 O :   -0.821733
   2 C :   -0.720401
   3 O :   -0.879121
   4 C :   -0.699671
   5 O :   -0.879124
   6 C :   -0.699672
   7 H :    0.274976
   8 H :    0.416187
   9 H :    0.300402
  10 H :    0.300398
  11 H :    0.282800
  12 H :    0.292695
  13 H :    0.385891
  14 H :    0.292695
  15 H :    0.282798
  16 H :    0.385890
Sum of atomic charges:    0.0000000

LOEWDIN ATOMIC CHARGES
----------------------
   0 C :   -1.055932
   1 O :    0.861571
   2 C :    0.573364
   3 O :    0.850169
   4 C :    0.577402
   5 O :    0.850169
   6 C :    0.577401
   7 H :   -0.380429
   8 H :   -0.325215
   9 H :   -0.319431
  10 H :   -0.319432
  11 H :   -0.307437
  12 H :   -0.314347
  13 H :   -0.323036
  14 H :   -0.314346
  15 H :   -0.307437
  16 H :   -0.323036

  Mayer bond orders larger than 0.100000
B(  0-C ,  1-O ) :   0.4966 B(  0-C ,  3-O ) :   0.4981 B(  0-C ,  4-C ) :  -0.1256
B(  0-C ,  5-O ) :   0.4981 B(  0-C ,  6-C ) :  -0.1256 B(  0-C ,  7-H ) :   0.9063
B(  1-O ,  2-C ) :   0.8196 B(  2-C ,  8-H ) :   0.8626 B(  2-C ,  9-H ) :   0.9027
B(  2-C , 10-H ) :   0.9027 B(  3-O ,  4-C ) :   0.9282 B(  4-C , 11-H ) :   0.9135
B(  4-C , 12-H ) :   0.9055 B(  4-C , 13-H ) :   0.8887 B(  5-O ,  6-C ) :   0.9283
B(  6-C , 14-H ) :   0.9055 B(  6-C , 15-H ) :   0.9135 B(  6-C , 16-H ) :   0.8887

MP2 TOTAL ENERGY:     -383.540989883 Eh
FINAL SINGLE POINT ENERGY      -383.540989883445

DIPOLE MOMENT
-------------
                                X             Y             Z
Electronic contribution:      0.00001      -1.51094      -1.00723
Nuclear contribution   :     -0.00001       1.67645       1.47516
                        -----------------------------------------
Total Dipole Moment    :     -0.00000       0.16551       0.46792
                        -----------------------------------------
Magnitude (a.u.)       :      0.49633
Magnitude (Debye)      :      1.26158

Rotational constants in cm-1:     0.123143     0.070063     0.051785
Rotational constants in MHz :  3691.745095  2100.440576  1552.489351

                             ****ORCA TERMINATED NORMALLY****
TOTAL RUN TIME: 0 days 0 hours 44 minutes 2 seconds 374 msec
