                         Program Version 5.0.4 -  RELEASE  -
|  1> !ri-mp2 aug-cc-pvqz aug-cc-pvqz/c tightscf
|  2> %pal nprocs 16 end
|  3>
|  4> * xyz 0 1
|  5> S      0.000000    0.000000    0.585088
|  6> C      0.000000    0.000000   -1.025466
|  7> H      0.000000    0.920769   -1.604308
|  8> H      0.000000   -0.920769   -1.604308
|  9> *
| 10>
| 11>                          ****END OF INPUT****

CARTESIAN COORDINATES (ANGSTROEM)
---------------------------------
  S      0.000000    0.000000    0.585088
  C      0.000000    0.000000   -1.025466
  H      0.000000    0.920769   -1.604308
  H      0.000000   -0.920769   -1.604308

 Total Charge           Charge          ....    0
 Multiplicity           Mult            ....    1
 Number of Electrons    NEL             ....   24
 Basis Dimension        Dim             ....  256

ORBITAL ENERGIES
----------------

  NO   OCC          E(Eh)            E(eV)
   0   2.0000     -91.954470     -2502.2083
   1   2.0000     -11.318816      -308.0006
   2   2.0000      -8.957389      -243.7429
   3   2.0000      -6.638213      -180.6350
   4   2.0000      -6.638063      -180.6309
   5   2.0000      -6.636232      -180.5811
   6   2.0000      -1.064802       -28.9747
   7   2.0000      -0.813968       -22.1492
   8   2.0000      -0.643388       -17.5075
   9   2.0000      -0.542459       -14.7611
  10   2.0000      -0.418754       -11.3949
  11   2.0000      -0.352400        -9.5893
  12   0.0000       0.025395         0.6910
  13   0.0000       0.035078         0.9545
  14   0.0000       0.038543         1.0488
  15   0.0000       0.051557         1.4029
  16   0.0000       0.077543         2.1100

MULLIKEN ATOMIC CHARGES
-----------------------
   0 S :    0.063997
   1 C :   -0.835659
   2 H :    0.385831
   3 H :    0.385831
Sum of atomic charges:   -0.0000000

LOEWDIN ATOMIC CHARGES
----------------------
   0 S :    1.020193
   1 C :   -0.042601
   2 H :   -0.488796
   3 H :   -0.488796

  Mayer bond orders larger than 0.100000
B(  0-S ,  1-C ) :   1.8493 B(  1-C ,  2-H ) :   0.8087 B(  1-C ,  3-H ) :   0.8087

MP2 TOTAL ENERGY:     -436.926339643 Eh
FINAL SINGLE POINT ENERGY      -436.926339643355

DIPOLE MOMENT
-------------
                                X             Y             Z
Electronic contribution:     -0.00000       0.00000       2.30929
Nuclear contribution   :      0.00000       0.00000      -3.15573
                        -----------------------------------------
Total Dipole Moment    :     -0.00000       0.00000      -0.84644
                        -----------------------------------------
Magnitude (a.u.)       :      0.84644
Magnitude (Debye)      :      2.15147

Rotational constants in cm-1:     9.862908     0.590022     0.556718
Rotational constants in MHz : 295682.551843 17688.405574 16689.973255

                             ****ORCA TERMINATED NORMALLY****
TOTAL RUN TIME: 0 days 0 hours 0 minutes 52 seconds 434 msec
