                         Program Version 5.0.4 -  RELEASE  -
|  1> !ri-mp2 aug-cc-pvqz aug-cc-pvqz/c tightscf
|  2> %pal nprocs 16 end
|  3> %maxcore 3800
|  4>
|  5> * xyz 0 1
|  6> C    -0.225728     0.731655    2.543314
|  7> C     0.225728    -0.731655    2.543314
|  8> C     0.225728     1.456661    1.272775
|  9> C    -0.225728    -1.456661    1.272775
| 10> C    -0.231499     0.735086    0.000000
| 11> C     0.231499    -0.735086    0.000000
| 12> C     0.225728     1.456661   -1.272775
| 13> C    -0.225728     0.731655   -2.543314
| 14> C     0.225728    -0.731655   -2.543314
| 15> C    -0.225728    -1.456661   -1.272775
| 16> H     0.156998     1.245982   -3.427820
| 17> H    -0.156998    -1.245982    3.427820
| 18> H     0.150668    -2.483241   -1.270085
| 19> H    -0.156998    -1.245982   -3.427820
| 20> H     1.318123    -0.770907   -2.610688
| 21> H    -0.150668     2.483241    1.270085
| 22> H     0.156998     1.245982    3.427820
| 23> H    -0.150668     2.483241   -1.270085
| 24> H     0.150668    -2.483241    1.270085
| 25> H    -1.318123     0.770907    2.610688
| 26> H     1.319276     1.529769   -1.266570
| 27> H     1.319276     1.529769    1.266570
| 28> H     1.318123    -0.770907    2.610688
| 29> H    -1.318123     0.770907   -2.610688
| 30> H    -1.319276    -1.529769    1.266570
| 31> H    -1.319276    -1.529769   -1.266570
| 32> H    -1.330699     0.726592    0.000000
| 33> H     1.330699    -0.726592    0.000000
| 34> *
| 35>
| 36>                          ****END OF INPUT****

CARTESIAN COORDINATES (ANGSTROEM)
---------------------------------
  C     -0.225728    0.731655    2.543314
  C      0.225728   -0.731655    2.543314
  C      0.225728    1.456661    1.272775
  C     -0.225728   -1.456661    1.272775
  C     -0.231499    0.735086    0.000000
  C      0.231499   -0.735086    0.000000
  C      0.225728    1.456661   -1.272775
  C     -0.225728    0.731655   -2.543314
  C      0.225728   -0.731655   -2.543314
  C     -0.225728   -1.456661   -1.272775
  H      0.156998    1.245982   -3.427820
  H     -0.156998   -1.245982    3.427820
  H      0.150668   -2.483241   -1.270085
  H     -0.156998   -1.245982   -3.427820
  H      1.318123   -0.770907   -2.610688
  H     -0.150668    2.483241    1.270085
  H      0.156998    1.245982    3.427820
  H     -0.150668    2.483241   -1.270085
  H      0.150668   -2.483241    1.270085
  H     -1.318123    0.770907    2.610688
  H      1.319276    1.529769   -1.266570
  H      1.319276    1.529769    1.266570
  H      1.318123   -0.770907    2.610688
  H     -1.318123    0.770907   -2.610688
  H     -1.319276   -1.529769    1.266570
  H     -1.319276   -1.529769   -1.266570
  H     -1.330699    0.726592    0.000000
  H      1.330699   -0.726592    0.000000

 Total Charge           Charge          ....    0
 Multiplicity           Mult            ....    1
 Number of Electrons    NEL             ....   78
 Basis Dimension        Dim             .... 1628

ORBITAL ENERGIES
----------------

  NO   OCC          E(Eh)            E(eV)
   0   2.0000     -11.213069      -305.1231
   1   2.0000     -11.212482      -305.1071
   2   2.0000     -11.210286      -305.0474
   3   2.0000     -11.210285      -305.0474
   4   2.0000     -11.209705      -305.0316
   5   2.0000     -11.209702      -305.0315
   6   2.0000     -11.208431      -304.9969
   7   2.0000     -11.208409      -304.9963
   8   2.0000     -11.208383      -304.9956
   9   2.0000     -11.208350      -304.9947
  10   2.0000      -1.133625       -30.8475
  11   2.0000      -1.071320       -29.1521
  12   2.0000      -1.026012       -27.9192
  13   2.0000      -0.990848       -26.9623
  14   2.0000      -0.959823       -26.1181
  15   2.0000      -0.852204       -23.1896
  16   2.0000      -0.821394       -22.3513
  17   2.0000      -0.805099       -21.9079
  18   2.0000      -0.755778       -20.5658
  19   2.0000      -0.749591       -20.3974
  20   2.0000      -0.634086       -17.2544
  21   2.0000      -0.625291       -17.0150
  22   2.0000      -0.613971       -16.7070
  23   2.0000      -0.592713       -16.1285
  24   2.0000      -0.590438       -16.0666
  25   2.0000      -0.580147       -15.7866
  26   2.0000      -0.564872       -15.3710
  27   2.0000      -0.519667       -14.1409
  28   2.0000      -0.512824       -13.9546
  29   2.0000      -0.495868       -13.4932
  30   2.0000      -0.493767       -13.4361
  31   2.0000      -0.487107       -13.2549
  32   2.0000      -0.474816       -12.9204
  33   2.0000      -0.463907       -12.6236
  34   2.0000      -0.457729       -12.4554
  35   2.0000      -0.449248       -12.2246
  36   2.0000      -0.441657       -12.0181
  37   2.0000      -0.405539       -11.0353
  38   2.0000      -0.400665       -10.9027
  39   0.0000       0.025976         0.7068
  40   0.0000       0.027915         0.7596
  41   0.0000       0.029281         0.7968
  42   0.0000       0.030329         0.8253
  43   0.0000       0.039549         1.0762

MULLIKEN ATOMIC CHARGES
-----------------------
   0 C :   -0.550422
   1 C :   -0.550335
   2 C :   -0.615701
   3 C :   -0.615560
   4 C :    1.022799
   5 C :    1.022576
   6 C :   -0.616279
   7 C :   -0.550339
   8 C :   -0.550310
   9 C :   -0.616081
  10 H :    0.223207
  11 H :    0.223073
  12 H :    0.189674
  13 H :    0.223132
  14 H :    0.075506
  15 H :    0.189859
  16 H :    0.223136
  17 H :    0.189837
  18 H :    0.189875
  19 H :    0.075502
  20 H :    0.112259
  21 H :    0.112264
  22 H :    0.075486
  23 H :    0.075523
  24 H :    0.112475
  25 H :    0.112141
  26 H :    0.108336
  27 H :    0.108368
Sum of atomic charges:    0.0000000

LOEWDIN ATOMIC CHARGES
----------------------
   0 C :    0.550235
   1 C :    0.550235
   2 C :    0.545162
   3 C :    0.545163
   4 C :    0.137323
   5 C :    0.137323
   6 C :    0.545162
   7 C :    0.550235
   8 C :    0.550235
   9 C :    0.545162
  10 H :   -0.259615
  11 H :   -0.259615
  12 H :   -0.254737
  13 H :   -0.259615
  14 H :   -0.262086
  15 H :   -0.254737
  16 H :   -0.259615
  17 H :   -0.254737
  18 H :   -0.254737
  19 H :   -0.262086
  20 H :   -0.258175
  21 H :   -0.258175
  22 H :   -0.262086
  23 H :   -0.262086
  24 H :   -0.258174
  25 H :   -0.258175
  26 H :   -0.258895
  27 H :   -0.258895

  Mayer bond orders larger than 0.100000
B(  0-C ,  1-C ) :   0.8637 B(  0-C ,  2-C ) :   0.9095 B(  0-C ,  4-C ) :  -0.2617
B(  0-C , 16-H ) :   1.0141 B(  0-C , 19-H ) :   1.1222 B(  1-C ,  3-C ) :   0.9094
B(  1-C ,  5-C ) :  -0.2616 B(  1-C , 11-H ) :   1.0141 B(  1-C , 22-H ) :   1.1223
B(  2-C ,  4-C ) :   0.1800 B(  2-C ,  6-C ) :   0.2609 B(  2-C , 15-H ) :   1.1123
B(  2-C , 21-H ) :   1.1223 B(  3-C ,  5-C ) :   0.1806 B(  3-C ,  9-C ) :   0.2606
B(  3-C , 18-H ) :   1.1122 B(  3-C , 24-H ) :   1.1221 B(  4-C ,  5-C ) :   0.9910
B(  4-C ,  6-C ) :   0.1804 B(  4-C ,  7-C ) :  -0.2614 B(  4-C , 15-H ) :  -0.1557
B(  4-C , 17-H ) :  -0.1556 B(  4-C , 20-H ) :  -0.1338 B(  4-C , 21-H ) :  -0.1338
B(  4-C , 26-H ) :   0.9931 B(  5-C ,  8-C ) :  -0.2615 B(  5-C ,  9-C ) :   0.1804
B(  5-C , 12-H ) :  -0.1557 B(  5-C , 18-H ) :  -0.1554 B(  5-C , 24-H ) :  -0.1338
B(  5-C , 25-H ) :  -0.1338 B(  5-C , 27-H ) :   0.9930 B(  6-C ,  7-C ) :   0.9095
B(  6-C , 17-H ) :   1.1123 B(  6-C , 20-H ) :   1.1223 B(  7-C ,  8-C ) :   0.8636
B(  7-C , 10-H ) :   1.0140 B(  7-C , 23-H ) :   1.1222 B(  8-C ,  9-C ) :   0.9094
B(  8-C , 13-H ) :   1.0141 B(  8-C , 14-H ) :   1.1223 B(  9-C , 12-H ) :   1.1126
B(  9-C , 25-H ) :   1.1224 B( 26-H , 27-H ) :   0.1325

MP2 TOTAL ENERGY:     -391.177424896 Eh
FINAL SINGLE POINT ENERGY      -391.177424895680

DIPOLE MOMENT
-------------
                                X             Y             Z
Electronic contribution:     -0.00000       0.00000      -0.00000
Nuclear contribution   :      0.00000       0.00000       0.00000
                        -----------------------------------------
Total Dipole Moment    :     -0.00000       0.00000      -0.00000
                        -----------------------------------------
Magnitude (a.u.)       :      0.00000
Magnitude (Debye)      :      0.00000

Rotational constants in cm-1:     0.080802     0.033700     0.025493
Rotational constants in MHz :  2422.394258  1010.292934   764.274807

                             ****ORCA TERMINATED NORMALLY****
TOTAL RUN TIME: 0 days 4 hours 12 minutes 51 seconds 543 msec
