                         Program Version 5.0.4 -  RELEASE  -
|  1> !ri-mp2 aug-cc-pvqz aug-cc-pvqz/c tightscf
|  2> %pal nprocs 16 end
|  3>
|  4> * xyz 0 1
|  5> C     0.000000     0.000000   -0.320697
|  6> C     0.000000     0.000000    1.160968
|  7> N     0.000000     0.000000    2.307595
|  8> F     0.000000     1.253146   -0.784992
|  9> F     1.085256    -0.626573   -0.784992
| 10> F    -1.085256    -0.626573   -0.784992
| 11> *
| 12>
| 13>                          ****END OF INPUT****

CARTESIAN COORDINATES (ANGSTROEM)
---------------------------------
  C      0.000000    0.000000   -0.320697
  C      0.000000    0.000000    1.160968
  N      0.000000    0.000000    2.307595
  F      0.000000    1.253146   -0.784992
  F      1.085256   -0.626573   -0.784992
  F     -1.085256   -0.626573   -0.784992

 Total Charge           Charge          ....    0
 Multiplicity           Mult            ....    1
 Number of Electrons    NEL             ....   46
 Basis Dimension        Dim             ....  480

ORBITAL ENERGIES
----------------

  NO   OCC          E(Eh)            E(eV)
   0   2.0000     -26.384321      -717.9539
   1   2.0000     -26.384321      -717.9539
   2   2.0000     -26.384290      -717.9530
   3   2.0000     -15.636604      -425.4936
   4   2.0000     -11.588074      -315.3275
   5   2.0000     -11.326165      -308.2006
   6   2.0000      -1.778845       -48.4048
   7   2.0000      -1.682730       -45.7894
   8   2.0000      -1.682730       -45.7894
   9   2.0000      -1.279231       -34.8096
  10   2.0000      -1.066464       -29.0200
  11   2.0000      -0.918172       -24.9847
  12   2.0000      -0.872894       -23.7526
  13   2.0000      -0.872894       -23.7526
  14   2.0000      -0.755417       -20.5559
  15   2.0000      -0.755417       -20.5559
  16   2.0000      -0.710838       -19.3429
  17   2.0000      -0.710838       -19.3429
  18   2.0000      -0.694773       -18.9057
  19   2.0000      -0.694738       -18.9048
  20   2.0000      -0.611324       -16.6350
  21   2.0000      -0.532803       -14.4983
  22   2.0000      -0.532803       -14.4983
  23   0.0000       0.044518         1.2114
  24   0.0000       0.052721         1.4346
  25   0.0000       0.064524         1.7558
  26   0.0000       0.064524         1.7558
  27   0.0000       0.086081         2.3424

MULLIKEN ATOMIC CHARGES
-----------------------
   0 C :    2.014675
   1 C :    0.069493
   2 N :   -0.476929
   3 F :   -0.535746
   4 F :   -0.535746
   5 F :   -0.535746
Sum of atomic charges:    0.0000000

LOEWDIN ATOMIC CHARGES
----------------------
   0 C :   -2.244338
   1 C :   -0.401953
   2 N :    0.395220
   3 F :    0.750357
   4 F :    0.750357
   5 F :    0.750357

  Mayer bond orders larger than 0.100000
B(  0-C ,  1-C ) :   0.8774 B(  0-C ,  3-F ) :   0.5164 B(  0-C ,  4-F ) :   0.5164
B(  0-C ,  5-F ) :   0.5164 B(  1-C ,  2-N ) :   2.7174

MP2 TOTAL ENERGY:     -430.024550993 Eh
FINAL SINGLE POINT ENERGY      -430.024550993359

DIPOLE MOMENT
-------------
                                X             Y             Z
Electronic contribution:     -0.00000      -0.00000      -2.63874
Nuclear contribution   :      0.00000       0.00000       2.12680
                        -----------------------------------------
Total Dipole Moment    :     -0.00000      -0.00000      -0.51194
                        -----------------------------------------
Magnitude (a.u.)       :      0.51194
Magnitude (Debye)      :      1.30125

Rotational constants in cm-1:     0.188350     0.098109     0.098109
Rotational constants in MHz :  5646.576675  2941.228906  2941.228524

                             ****ORCA TERMINATED NORMALLY****
TOTAL RUN TIME: 0 days 0 hours 2 minutes 45 seconds 349 msec
