                         Program Version 5.0.4 -  RELEASE  -
|  1> !ri-mp2 aug-cc-pvqz aug-cc-pvqz/c tightscf
|  2> %pal nprocs 16 end
|  3>
|  4> * xyz 0 1
|  5> C     -0.126624    0.767713   -0.173969
|  6> C      0.126624   -0.767713   -0.173969
|  7> C      0.126624    0.763654    1.356240
|  8> C     -0.126624   -0.763654    1.356240
|  9> C      0.714435    1.661716   -1.066390
| 10> C     -0.714435   -1.661716   -1.066390
| 11> H     -1.188759    0.949185   -0.364152
| 12> H      1.188759   -0.949185   -0.364152
| 13> H      1.167412    0.999661    1.584849
| 14> H     -0.514312    1.387012    1.978811
| 15> H     -1.167412   -0.999661    1.584849
| 16> H      0.514312   -1.387012    1.978811
| 17> H      1.780030    1.498868   -0.888391
| 18> H      0.519941    1.467661   -2.123812
| 19> H      0.505264    2.718063   -0.882589
| 20> H     -1.780030   -1.498868   -0.888391
| 21> H     -0.519941   -1.467661   -2.123812
| 22> H     -0.505264   -2.718063   -0.882589
| 23> *
| 24>
| 25>                          ****END OF INPUT****

CARTESIAN COORDINATES (ANGSTROEM)
---------------------------------
  C     -0.126624    0.767713   -0.173969
  C      0.126624   -0.767713   -0.173969
  C      0.126624    0.763654    1.356240
  C     -0.126624   -0.763654    1.356240
  C      0.714435    1.661716   -1.066390
  C     -0.714435   -1.661716   -1.066390
  H     -1.188759    0.949185   -0.364152
  H      1.188759   -0.949185   -0.364152
  H      1.167412    0.999661    1.584849
  H     -0.514312    1.387012    1.978811
  H     -1.167412   -0.999661    1.584849
  H      0.514312   -1.387012    1.978811
  H      1.780030    1.498868   -0.888391
  H      0.519941    1.467661   -2.123812
  H      0.505264    2.718063   -0.882589
  H     -1.780030   -1.498868   -0.888391
  H     -0.519941   -1.467661   -2.123812
  H     -0.505264   -2.718063   -0.882589

 Total Charge           Charge          ....    0
 Multiplicity           Mult            ....    1
 Number of Electrons    NEL             ....   48
 Basis Dimension        Dim             .... 1032

ORBITAL ENERGIES
----------------

  NO   OCC          E(Eh)            E(eV)
   0   2.0000     -11.217858      -305.2534
   1   2.0000     -11.217310      -305.2385
   2   2.0000     -11.211213      -305.0726
   3   2.0000     -11.210654      -305.0574
   4   2.0000     -11.207128      -304.9615
   5   2.0000     -11.207127      -304.9614
   6   2.0000      -1.133461       -30.8430
   7   2.0000      -0.987706       -26.8768
   8   2.0000      -0.969066       -26.3696
   9   2.0000      -0.845899       -23.0181
  10   2.0000      -0.830856       -22.6088
  11   2.0000      -0.738418       -20.0934
  12   2.0000      -0.622603       -16.9419
  13   2.0000      -0.621934       -16.9237
  14   2.0000      -0.582596       -15.8533
  15   2.0000      -0.562253       -15.2997
  16   2.0000      -0.561097       -15.2682
  17   2.0000      -0.544194       -14.8083
  18   2.0000      -0.506639       -13.7864
  19   2.0000      -0.496191       -13.5020
  20   2.0000      -0.451521       -12.2865
  21   2.0000      -0.445801       -12.1309
  22   2.0000      -0.417901       -11.3717
  23   2.0000      -0.414289       -11.2734
  24   0.0000       0.027809         0.7567
  25   0.0000       0.031263         0.8507
  26   0.0000       0.033234         0.9044
  27   0.0000       0.033573         0.9136
  28   0.0000       0.048520         1.3203

MULLIKEN ATOMIC CHARGES
-----------------------
   0 C :    0.127138
   1 C :    0.127138
   2 C :   -0.584540
   3 C :   -0.584540
   4 C :   -0.966126
   5 C :   -0.966126
   6 H :    0.257695
   7 H :    0.257695
   8 H :    0.211681
   9 H :    0.312726
  10 H :    0.211681
  11 H :    0.312726
  12 H :    0.182693
  13 H :    0.212178
  14 H :    0.246555
  15 H :    0.182693
  16 H :    0.212178
  17 H :    0.246555
Sum of atomic charges:   -0.0000000

LOEWDIN ATOMIC CHARGES
----------------------
   0 C :    0.123747
   1 C :    0.123747
   2 C :    0.560615
   3 C :    0.560615
   4 C :    0.947891
   5 C :    0.947891
   6 H :   -0.268506
   7 H :   -0.268506
   8 H :   -0.270703
   9 H :   -0.248185
  10 H :   -0.270703
  11 H :   -0.248185
  12 H :   -0.288381
  13 H :   -0.278377
  14 H :   -0.278101
  15 H :   -0.288381
  16 H :   -0.278377
  17 H :   -0.278101

  Mayer bond orders larger than 0.100000
B(  0-C ,  1-C ) :   0.6481 B(  0-C ,  2-C ) :   0.9356 B(  0-C ,  3-C ) :  -0.1515
B(  0-C ,  4-C ) :   0.6162 B(  0-C ,  6-H ) :   0.9072 B(  0-C , 14-H ) :  -0.1223
B(  1-C ,  2-C ) :  -0.1515 B(  1-C ,  3-C ) :   0.9356 B(  1-C ,  5-C ) :   0.6162
B(  1-C ,  7-H ) :   0.9072 B(  1-C , 17-H ) :  -0.1223 B(  2-C ,  3-C ) :   1.1729
B(  2-C ,  8-H ) :   0.9331 B(  2-C ,  9-H ) :   0.8705 B(  3-C , 10-H ) :   0.9331
B(  3-C , 11-H ) :   0.8705 B(  4-C , 12-H ) :   0.9712 B(  4-C , 13-H ) :   1.0646
B(  4-C , 14-H ) :   1.0679 B(  5-C , 15-H ) :   0.9712 B(  5-C , 16-H ) :   1.0646
B(  5-C , 17-H ) :   1.0679

MP2 TOTAL ENERGY:     -235.379538142 Eh
FINAL SINGLE POINT ENERGY      -235.379538142380

DIPOLE MOMENT
-------------
                                X             Y             Z
Electronic contribution:     -0.00000       0.00000       1.46219
Nuclear contribution   :     -0.00000       0.00000      -1.48946
                        -----------------------------------------
Total Dipole Moment    :     -0.00000       0.00000      -0.02728
                        -----------------------------------------
Magnitude (a.u.)       :      0.02728
Magnitude (Debye)      :      0.06933

Rotational constants in cm-1:     0.150337     0.110482     0.071484
Rotational constants in MHz :  4506.983393  3312.171012  2143.027810

                             ****ORCA TERMINATED NORMALLY****
TOTAL RUN TIME: 0 days 0 hours 46 minutes 46 seconds 361 msec
