                         Program Version 5.0.4 -  RELEASE  -
|  1> !ri-mp2 aug-cc-pvqz aug-cc-pvqz/c tightscf
|  2> %pal nprocs 16 end
|  3>
|  4> * xyz 0 1
|  5> C     0.000000     0.000000   -0.255900
|  6> S     0.000000     0.000000    1.375571
|  7> C     0.000000     1.266131   -1.062046
|  8> C     0.000000    -1.266131   -1.062046
|  9> H     0.000000     2.147096   -0.427764
| 10> H     0.000000    -2.147096   -0.427764
| 11> H     0.875313     1.291889   -1.718417
| 12> H    -0.875313     1.291889   -1.718417
| 13> H    -0.875313    -1.291889   -1.718417
| 14> H     0.875313    -1.291889   -1.718417
| 15> *
| 16>
| 17>                          ****END OF INPUT****

CARTESIAN COORDINATES (ANGSTROEM)
---------------------------------
  C      0.000000    0.000000   -0.255900
  S      0.000000    0.000000    1.375571
  C      0.000000    1.266131   -1.062046
  C      0.000000   -1.266131   -1.062046
  H      0.000000    2.147096   -0.427764
  H      0.000000   -2.147096   -0.427764
  H      0.875313    1.291889   -1.718417
  H     -0.875313    1.291889   -1.718417
  H     -0.875313   -1.291889   -1.718417
  H      0.875313   -1.291889   -1.718417

 Total Charge           Charge          ....    0
 Multiplicity           Mult            ....    1
 Number of Electrons    NEL             ....   40
 Basis Dimension        Dim             ....  600

ORBITAL ENERGIES
----------------

  NO   OCC          E(Eh)            E(eV)
   0   2.0000     -91.924978     -2501.4058
   1   2.0000     -11.323719      -308.1341
   2   2.0000     -11.241933      -305.9086
   3   2.0000     -11.241914      -305.9080
   4   2.0000      -8.928687      -242.9619
   5   2.0000      -6.609732      -179.8600
   6   2.0000      -6.609241      -179.8466
   7   2.0000      -6.607772      -179.8066
   8   2.0000      -1.118256       -30.4293
   9   2.0000      -0.968254       -26.3475
  10   2.0000      -0.946590       -25.7580
  11   2.0000      -0.719971       -19.5914
  12   2.0000      -0.616106       -16.7651
  13   2.0000      -0.610685       -16.6176
  14   2.0000      -0.609681       -16.5903
  15   2.0000      -0.559927       -15.2364
  16   2.0000      -0.529718       -14.4144
  17   2.0000      -0.494943       -13.4681
  18   2.0000      -0.381336       -10.3767
  19   2.0000      -0.333575        -9.0770
  20   0.0000       0.022743         0.6189
  21   0.0000       0.033070         0.8999
  22   0.0000       0.033685         0.9166
  23   0.0000       0.044430         1.2090
  24   0.0000       0.055931         1.5220

MULLIKEN ATOMIC CHARGES
-----------------------
   0 C :    0.005634
   1 S :   -0.146038
   2 C :   -0.760331
   3 C :   -0.760331
   4 H :    0.308625
   5 H :    0.308625
   6 H :    0.260954
   7 H :    0.260954
   8 H :    0.260954
   9 H :    0.260954
Sum of atomic charges:    0.0000000

LOEWDIN ATOMIC CHARGES
----------------------
   0 C :   -0.806782
   1 S :    1.151005
   2 C :    0.765049
   3 C :    0.765049
   4 H :   -0.349092
   5 H :   -0.349092
   6 H :   -0.294034
   7 H :   -0.294034
   8 H :   -0.294034
   9 H :   -0.294034

  Mayer bond orders larger than 0.100000
B(  0-C ,  1-S ) :   1.5890 B(  0-C ,  2-C ) :   0.8520 B(  0-C ,  3-C ) :   0.8520
B(  2-C ,  4-H ) :   0.9413 B(  2-C ,  6-H ) :   0.9421 B(  2-C ,  7-H ) :   0.9421
B(  3-C ,  5-H ) :   0.9413 B(  3-C ,  8-H ) :   0.9421 B(  3-C ,  9-H ) :   0.9421

MP2 TOTAL ENERGY:     -515.418802996 Eh
FINAL SINGLE POINT ENERGY      -515.418802996212

DIPOLE MOMENT
-------------
                                X             Y             Z
Electronic contribution:      0.00000      -0.00000       6.55693
Nuclear contribution   :      0.00000       0.00000      -7.87457
                        -----------------------------------------
Total Dipole Moment    :      0.00000      -0.00000      -1.31764
                        -----------------------------------------
Magnitude (a.u.)       :      1.31764
Magnitude (Debye)      :      3.34917

Rotational constants in cm-1:     0.292557     0.163499     0.109076
Rotational constants in MHz :  8770.644975  4901.574165  3270.031122

                             ****ORCA TERMINATED NORMALLY****
TOTAL RUN TIME: 0 days 0 hours 11 minutes 7 seconds 25 msec
