                         Program Version 5.0.4 -  RELEASE  -
|  1> !ri-mp2 aug-cc-pvqz aug-cc-pvqz/c tightscf
|  2> %pal nprocs 16 end
|  3>
|  4> * xyz 0 1
|  5> C      0.000000    0.000000    0.681974
|  6> C      0.000000    0.000000   -0.681974
|  7> C      0.000000    1.213865    1.428575
|  8> C      0.000000   -1.213865    1.428575
|  9> C      0.000000    1.213865   -1.428575
| 10> C      0.000000   -1.213865   -1.428575
| 11> N      0.000000    2.183501    2.049472
| 12> N      0.000000   -2.183501    2.049472
| 13> N      0.000000    2.183501   -2.049472
| 14> N      0.000000   -2.183501   -2.049472
| 15> *
| 16>
| 17>                          ****END OF INPUT****

CARTESIAN COORDINATES (ANGSTROEM)
---------------------------------
  C      0.000000    0.000000    0.681974
  C      0.000000    0.000000   -0.681974
  C      0.000000    1.213865    1.428575
  C      0.000000   -1.213865    1.428575
  C      0.000000    1.213865   -1.428575
  C      0.000000   -1.213865   -1.428575
  N      0.000000    2.183501    2.049472
  N      0.000000   -2.183501    2.049472
  N      0.000000    2.183501   -2.049472
  N      0.000000   -2.183501   -2.049472

 Total Charge           Charge          ....    0
 Multiplicity           Mult            ....    1
 Number of Electrons    NEL             ....   64
 Basis Dimension        Dim             ....  800

ORBITAL ENERGIES
----------------

  NO   OCC          E(Eh)            E(eV)
   0   2.0000     -15.650439      -425.8701
   1   2.0000     -15.650439      -425.8701
   2   2.0000     -15.650438      -425.8701
   3   2.0000     -15.650438      -425.8701
   4   2.0000     -11.428193      -310.9769
   5   2.0000     -11.426733      -310.9372
   6   2.0000     -11.345064      -308.7149
   7   2.0000     -11.345058      -308.7147
   8   2.0000     -11.345050      -308.7145
   9   2.0000     -11.345048      -308.7145
  10   2.0000      -1.320609       -35.9356
  11   2.0000      -1.295884       -35.2628
  12   2.0000      -1.289322       -35.0842
  13   2.0000      -1.285658       -34.9845
  14   2.0000      -1.223157       -33.2838
  15   2.0000      -1.069121       -29.0923
  16   2.0000      -0.920035       -25.0354
  17   2.0000      -0.840027       -22.8583
  18   2.0000      -0.811113       -22.0715
  19   2.0000      -0.660103       -17.9623
  20   2.0000      -0.633061       -17.2265
  21   2.0000      -0.632871       -17.2213
  22   2.0000      -0.630421       -17.1546
  23   2.0000      -0.622346       -16.9349
  24   2.0000      -0.575358       -15.6563
  25   2.0000      -0.554103       -15.0779
  26   2.0000      -0.551317       -15.0021
  27   2.0000      -0.546430       -14.8691
  28   2.0000      -0.543718       -14.7953
  29   2.0000      -0.537494       -14.6260
  30   2.0000      -0.523211       -14.2373
  31   2.0000      -0.442056       -12.0290
  32   0.0000      -0.064847        -1.7646
  33   0.0000       0.027455         0.7471
  34   0.0000       0.038491         1.0474
  35   0.0000       0.046156         1.2560
  36   0.0000       0.049652         1.3511

MULLIKEN ATOMIC CHARGES
-----------------------
   0 C :    0.096739
   1 C :    0.096739
   2 C :    0.605452
   3 C :    0.605452
   4 C :    0.605451
   5 C :    0.605452
   6 N :   -0.653821
   7 N :   -0.653822
   8 N :   -0.653821
   9 N :   -0.653822
Sum of atomic charges:    0.0000000

LOEWDIN ATOMIC CHARGES
----------------------
   0 C :   -0.308301
   1 C :   -0.308301
   2 C :   -0.322976
   3 C :   -0.322976
   4 C :   -0.322976
   5 C :   -0.322976
   6 N :    0.477127
   7 N :    0.477126
   8 N :    0.477127
   9 N :    0.477126

  Mayer bond orders larger than 0.100000
B(  0-C ,  1-C ) :   0.7570 B(  0-C ,  2-C ) :   1.3534 B(  0-C ,  3-C ) :   1.3534
B(  0-C ,  4-C ) :  -0.3384 B(  0-C ,  5-C ) :  -0.3384 B(  0-C ,  6-N ) :   0.1142
B(  0-C ,  7-N ) :   0.1142 B(  1-C ,  2-C ) :  -0.3384 B(  1-C ,  3-C ) :  -0.3384
B(  1-C ,  4-C ) :   1.3534 B(  1-C ,  5-C ) :   1.3534 B(  1-C ,  8-N ) :   0.1142
B(  1-C ,  9-N ) :   0.1142 B(  2-C ,  4-C ) :   0.1218 B(  2-C ,  6-N ) :   2.3705
B(  3-C ,  5-C ) :   0.1218 B(  3-C ,  7-N ) :   2.3705 B(  4-C ,  8-N ) :   2.3705
B(  5-C ,  9-N ) :   2.3705

MP2 TOTAL ENERGY:     -446.838506280 Eh
FINAL SINGLE POINT ENERGY      -446.838506279658

DIPOLE MOMENT
-------------
                                X             Y             Z
Electronic contribution:     -0.00000      -0.00000       0.00000
Nuclear contribution   :      0.00000       0.00000       0.00000
                        -----------------------------------------
Total Dipole Moment    :     -0.00000      -0.00000       0.00000
                        -----------------------------------------
Magnitude (a.u.)       :      0.00000
Magnitude (Debye)      :      0.00000

Rotational constants in cm-1:     0.049887     0.048925     0.024701
Rotational constants in MHz :  1495.583025  1466.746245   740.512140

                             ****ORCA TERMINATED NORMALLY****
TOTAL RUN TIME: 0 days 0 hours 15 minutes 48 seconds 28 msec
