                         Program Version 5.0.4 -  RELEASE  -
|  1> !ri-mp2 aug-cc-pvqz aug-cc-pvqz/c tightscf
|  2> %pal nprocs 16 end
|  3> %maxcore 3800
|  4>
|  5> * xyz 0 1
|  6> C     -0.793806    0.000318    0.000712
|  7> C      0.794117   -0.000302   -0.000582
|  8> C     -1.356708   -0.190381   -1.421764
|  9> C     -1.354984   -1.136464    0.877663
| 10> C     -1.354681    1.328013    0.546448
| 11> C      1.357091   -0.075244    1.432659
| 12> C      1.353535   -1.204868   -0.782754
| 13> C      1.355771    1.278820   -0.652338
| 14> H     -2.441884   -0.073265   -1.406406
| 15> H     -1.144492   -1.183517   -1.816507
| 16> H     -0.962417    0.543192   -2.125265
| 17> H     -2.440034   -1.182634    0.768829
| 18> H     -1.142299   -0.980842    1.934840
| 19> H     -0.959235   -2.112026    0.594245
| 20> H     -2.439863    1.257189    0.639872
| 21> H     -1.140724    2.165686   -0.116604
| 22> H     -0.960397    1.570217    1.533667
| 23> H      2.442714    0.035395    1.406956
| 24> H      1.140854   -1.031082    1.908797
| 25> H      0.966525    0.716279    2.072656
| 26> H      2.439259   -1.240178   -0.675973
| 27> H      1.134677   -1.138294   -1.847977
| 28> H      0.961030   -2.153714   -0.416363
| 29> H      2.441259    1.201912   -0.736986
| 30> H      1.139195    2.167901   -0.060992
| 31> H      0.963822    1.438426   -1.657047
| 32> *
| 33>
| 34>                          ****END OF INPUT****

CARTESIAN COORDINATES (ANGSTROEM)
---------------------------------
  C     -0.793806    0.000318    0.000712
  C      0.794117   -0.000302   -0.000582
  C     -1.356708   -0.190381   -1.421764
  C     -1.354984   -1.136464    0.877663
  C     -1.354681    1.328013    0.546448
  C      1.357091   -0.075244    1.432659
  C      1.353535   -1.204868   -0.782754
  C      1.355771    1.278820   -0.652338
  H     -2.441884   -0.073265   -1.406406
  H     -1.144492   -1.183517   -1.816507
  H     -0.962417    0.543192   -2.125265
  H     -2.440034   -1.182634    0.768829
  H     -1.142299   -0.980842    1.934840
  H     -0.959235   -2.112026    0.594245
  H     -2.439863    1.257189    0.639872
  H     -1.140724    2.165686   -0.116604
  H     -0.960397    1.570217    1.533667
  H      2.442714    0.035395    1.406956
  H      1.140854   -1.031082    1.908797
  H      0.966525    0.716279    2.072656
  H      2.439259   -1.240178   -0.675973
  H      1.134677   -1.138294   -1.847977
  H      0.961030   -2.153714   -0.416363
  H      2.441259    1.201912   -0.736986
  H      1.139195    2.167901   -0.060992
  H      0.963822    1.438426   -1.657047

 Total Charge           Charge          ....    0
 Multiplicity           Mult            ....    1
 Number of Electrons    NEL             ....   66
 Basis Dimension        Dim             .... 1468

ORBITAL ENERGIES
----------------

  NO   OCC          E(Eh)            E(eV)
   0   2.0000     -11.231584      -305.6269
   1   2.0000     -11.231086      -305.6134
   2   2.0000     -11.203817      -304.8714
   3   2.0000     -11.203812      -304.8712
   4   2.0000     -11.203804      -304.8710
   5   2.0000     -11.203795      -304.8708
   6   2.0000     -11.203778      -304.8703
   7   2.0000     -11.203768      -304.8700
   8   2.0000      -1.121066       -30.5058
   9   2.0000      -1.036658       -28.2089
  10   2.0000      -0.939527       -25.5658
  11   2.0000      -0.939416       -25.5628
  12   2.0000      -0.910438       -24.7743
  13   2.0000      -0.910407       -24.7734
  14   2.0000      -0.802946       -21.8493
  15   2.0000      -0.692266       -18.8375
  16   2.0000      -0.645793       -17.5729
  17   2.0000      -0.603787       -16.4299
  18   2.0000      -0.603755       -16.4290
  19   2.0000      -0.590138       -16.0585
  20   2.0000      -0.590095       -16.0573
  21   2.0000      -0.552784       -15.0420
  22   2.0000      -0.531478       -14.4622
  23   2.0000      -0.531344       -14.4586
  24   2.0000      -0.523747       -14.2519
  25   2.0000      -0.510047       -13.8791
  26   2.0000      -0.510003       -13.8779
  27   2.0000      -0.495962       -13.4958
  28   2.0000      -0.480822       -13.0838
  29   2.0000      -0.480725       -13.0812
  30   2.0000      -0.432456       -11.7677
  31   2.0000      -0.432393       -11.7660
  32   2.0000      -0.422430       -11.4949
  33   0.0000       0.026344         0.7169
  34   0.0000       0.029655         0.8069
  35   0.0000       0.031094         0.8461
  36   0.0000       0.031096         0.8462
  37   0.0000       0.044722         1.2170

MULLIKEN ATOMIC CHARGES
-----------------------
   0 C :    1.838075
   1 C :    1.836221
   2 C :   -1.172202
   3 C :   -1.172186
   4 C :   -1.172598
   5 C :   -1.172067
   6 C :   -1.171825
   7 C :   -1.172278
   8 H :    0.208508
   9 H :    0.161466
  10 H :    0.189861
  11 H :    0.208624
  12 H :    0.161874
  13 H :    0.189682
  14 H :    0.208550
  15 H :    0.161895
  16 H :    0.189413
  17 H :    0.208913
  18 H :    0.161588
  19 H :    0.188985
  20 H :    0.208848
  21 H :    0.161767
  22 H :    0.189220
  23 H :    0.208824
  24 H :    0.161860
  25 H :    0.188982
Sum of atomic charges:    0.0000000

LOEWDIN ATOMIC CHARGES
----------------------
   0 C :   -0.242861
   1 C :   -0.242797
   2 C :    0.909389
   3 C :    0.909542
   4 C :    0.909220
   5 C :    0.909574
   6 C :    0.909550
   7 C :    0.909593
   8 H :   -0.270673
   9 H :   -0.280109
  10 H :   -0.277577
  11 H :   -0.270746
  12 H :   -0.279965
  13 H :   -0.277824
  14 H :   -0.270772
  15 H :   -0.280214
  16 H :   -0.277355
  17 H :   -0.270817
  18 H :   -0.280130
  19 H :   -0.277546
  20 H :   -0.270543
  21 H :   -0.280427
  22 H :   -0.277875
  23 H :   -0.270703
  24 H :   -0.280481
  25 H :   -0.277452

  Mayer bond orders larger than 0.100000
B(  0-C ,  1-C ) :   0.9478 B(  0-C ,  2-C ) :   0.1313 B(  0-C ,  3-C ) :   0.1305
B(  0-C ,  4-C ) :   0.1296 B(  0-C ,  6-C ) :  -0.1001 B(  0-C ,  7-C ) :  -0.1002
B(  0-C ,  8-H ) :  -0.1494 B(  0-C ,  9-H ) :  -0.2072 B(  0-C , 10-H ) :  -0.1805
B(  0-C , 11-H ) :  -0.1494 B(  0-C , 12-H ) :  -0.2072 B(  0-C , 13-H ) :  -0.1806
B(  0-C , 14-H ) :  -0.1498 B(  0-C , 15-H ) :  -0.2073 B(  0-C , 16-H ) :  -0.1807
B(  1-C ,  2-C ) :  -0.1005 B(  1-C ,  3-C ) :  -0.1001 B(  1-C ,  5-C ) :   0.1306
B(  1-C ,  6-C ) :   0.1316 B(  1-C ,  7-C ) :   0.1300 B(  1-C , 17-H ) :  -0.1496
B(  1-C , 18-H ) :  -0.2064 B(  1-C , 19-H ) :  -0.1815 B(  1-C , 20-H ) :  -0.1495
B(  1-C , 21-H ) :  -0.2066 B(  1-C , 22-H ) :  -0.1812 B(  1-C , 23-H ) :  -0.1498
B(  1-C , 24-H ) :  -0.2071 B(  1-C , 25-H ) :  -0.1810 B(  2-C ,  3-C ) :   0.1488
B(  2-C ,  4-C ) :   0.1490 B(  2-C ,  8-H ) :   1.0675 B(  2-C ,  9-H ) :   1.1872
B(  2-C , 10-H ) :   1.1454 B(  3-C ,  4-C ) :   0.1486 B(  3-C , 11-H ) :   1.0675
B(  3-C , 12-H ) :   1.1867 B(  3-C , 13-H ) :   1.1460 B(  4-C , 14-H ) :   1.0679
B(  4-C , 15-H ) :   1.1869 B(  4-C , 16-H ) :   1.1458 B(  5-C ,  6-C ) :   0.1495
B(  5-C ,  7-C ) :   0.1497 B(  5-C , 17-H ) :   1.0676 B(  5-C , 18-H ) :   1.1869
B(  5-C , 19-H ) :   1.1466 B(  6-C ,  7-C ) :   0.1493 B(  6-C , 20-H ) :   1.0677
B(  6-C , 21-H ) :   1.1869 B(  6-C , 22-H ) :   1.1464 B(  7-C , 23-H ) :   1.0680
B(  7-C , 24-H ) :   1.1870 B(  7-C , 25-H ) :   1.1466

MP2 TOTAL ENERGY:     -315.084163315 Eh
FINAL SINGLE POINT ENERGY      -315.084163315201

DIPOLE MOMENT
-------------
                                X             Y             Z
Electronic contribution:      0.00202      -0.00064       0.00022
Nuclear contribution   :     -0.00218       0.00070      -0.00028
                        -----------------------------------------
Total Dipole Moment    :     -0.00017       0.00006      -0.00006
                        -----------------------------------------
Magnitude (a.u.)       :      0.00019
Magnitude (Debye)      :      0.00047

Rotational constants in cm-1:     0.077291     0.055077     0.055069
Rotational constants in MHz :  2317.113167  1651.153787  1650.912452

                             ****ORCA TERMINATED NORMALLY****
TOTAL RUN TIME: 0 days 3 hours 6 minutes 9 seconds 553 msec
