                         Program Version 5.0.4 -  RELEASE  -
|  1> !ri-mp2 aug-cc-pvqz aug-cc-pvqz/c tightscf
|  2> %pal nprocs 16 end
|  3>
|  4> * xyz 0 1
|  5> C      0.000000    0.711523   -1.267123
|  6> C      0.000000   -0.711523   -1.267123
|  7> C      0.000000    1.238059   -0.009487
|  8> C      0.000000   -1.238059   -0.009487
|  9> S      0.000000    0.000000    1.192594
| 10> H      0.000000    1.314467   -2.162845
| 11> H      0.000000   -1.314467   -2.162845
| 12> H      0.000000    2.274447    0.281757
| 13> H      0.000000   -2.274447    0.281757
| 14> *
| 15>
| 16>                          ****END OF INPUT****

CARTESIAN COORDINATES (ANGSTROEM)
---------------------------------
  C      0.000000    0.711523   -1.267123
  C      0.000000   -0.711523   -1.267123
  C      0.000000    1.238059   -0.009487
  C      0.000000   -1.238059   -0.009487
  S      0.000000    0.000000    1.192594
  H      0.000000    1.314467   -2.162845
  H      0.000000   -1.314467   -2.162845
  H      0.000000    2.274447    0.281757
  H      0.000000   -2.274447    0.281757

 Total Charge           Charge          ....    0
 Multiplicity           Mult            ....    1
 Number of Electrons    NEL             ....   44
 Basis Dimension        Dim             ....  588

ORBITAL ENERGIES
----------------

  NO   OCC          E(Eh)            E(eV)
   0   2.0000     -91.981649     -2502.9479
   1   2.0000     -11.261206      -306.4330
   2   2.0000     -11.261177      -306.4322
   3   2.0000     -11.237983      -305.8011
   4   2.0000     -11.236951      -305.7730
   5   2.0000      -8.983081      -244.4421
   6   2.0000      -6.664367      -181.3466
   7   2.0000      -6.663892      -181.3337
   8   2.0000      -6.663282      -181.3171
   9   2.0000      -1.170488       -31.8506
  10   2.0000      -0.984953       -26.8019
  11   2.0000      -0.983699       -26.7678
  12   2.0000      -0.768554       -20.9134
  13   2.0000      -0.750650       -20.4262
  14   2.0000      -0.698606       -19.0100
  15   2.0000      -0.577943       -15.7266
  16   2.0000      -0.552765       -15.0415
  17   2.0000      -0.526795       -14.3348
  18   2.0000      -0.523152       -14.2357
  19   2.0000      -0.473848       -12.8941
  20   2.0000      -0.346647        -9.4328
  21   2.0000      -0.329099        -8.9553
  22   0.0000       0.026319         0.7162
  23   0.0000       0.030194         0.8216
  24   0.0000       0.034147         0.9292
  25   0.0000       0.044227         1.2035
  26   0.0000       0.061488         1.6732

MULLIKEN ATOMIC CHARGES
-----------------------
   0 C :   -0.297006
   1 C :   -0.297006
   2 C :   -0.686634
   3 C :   -0.686634
   4 S :    0.353469
   5 H :    0.393487
   6 H :    0.393487
   7 H :    0.413419
   8 H :    0.413419
Sum of atomic charges:   -0.0000000

LOEWDIN ATOMIC CHARGES
----------------------
   0 C :    0.177745
   1 C :    0.177745
   2 C :   -0.089762
   3 C :   -0.089762
   4 S :    1.315516
   5 H :   -0.334290
   6 H :   -0.334290
   7 H :   -0.411451
   8 H :   -0.411451

  Mayer bond orders larger than 0.100000
B(  0-C ,  1-C ) :   1.0651 B(  0-C ,  2-C ) :   1.4419 B(  0-C ,  5-H ) :   0.8969
B(  1-C ,  3-C ) :   1.4419 B(  1-C ,  6-H ) :   0.8969 B(  2-C ,  4-S ) :   1.1712
B(  2-C ,  7-H ) :   0.8529 B(  3-C ,  4-S ) :   1.1712 B(  3-C ,  8-H ) :   0.8529

MP2 TOTAL ENERGY:     -552.268936763 Eh
FINAL SINGLE POINT ENERGY      -552.268936763306

DIPOLE MOMENT
-------------
                                X             Y             Z
Electronic contribution:      0.00000      -0.00000       3.42615
Nuclear contribution   :      0.00000       0.00000      -3.73121
                        -----------------------------------------
Total Dipole Moment    :      0.00000      -0.00000      -0.30506
                        -----------------------------------------
Magnitude (a.u.)       :      0.30506
Magnitude (Debye)      :      0.77539

Rotational constants in cm-1:     0.268031     0.180119     0.107726
Rotational constants in MHz :  8035.357507  5399.845286  3229.552097

                             ****ORCA TERMINATED NORMALLY****
TOTAL RUN TIME: 0 days 0 hours 11 minutes 25 seconds 753 msec
