                         Program Version 5.0.4 -  RELEASE  -
|  1> !ri-mp2 aug-cc-pvqz aug-cc-pvqz/c tightscf
|  2> %pal nprocs 16 end
|  3>
|  4> * xyz 0 1
|  5> C     0.000000     0.830500       0.000000
|  6> C     0.719234    -0.415250       0.000000
|  7> C    -0.719234    -0.415250       0.000000
|  8> C     0.000000     2.159401       0.000000
|  9> C     1.870096    -1.079700       0.000000
| 10> C    -1.870096    -1.079700       0.000000
| 11> H    -0.925056     2.719957       0.000000
| 12> H     0.925056     2.719957       0.000000
| 13> H     2.818080    -0.558856       0.000000
| 14> H     1.893024    -2.161100       0.000000
| 15> H    -1.893024    -2.161100       0.000000
| 16> H    -2.818080    -0.558856       0.000000
| 17> *
| 18>
| 19>                          ****END OF INPUT****

CARTESIAN COORDINATES (ANGSTROEM)
---------------------------------
  C      0.000000    0.830500    0.000000
  C      0.719234   -0.415250    0.000000
  C     -0.719234   -0.415250    0.000000
  C      0.000000    2.159401    0.000000
  C      1.870096   -1.079700    0.000000
  C     -1.870096   -1.079700    0.000000
  H     -0.925056    2.719957    0.000000
  H      0.925056    2.719957    0.000000
  H      2.818080   -0.558856    0.000000
  H      1.893024   -2.161100    0.000000
  H     -1.893024   -2.161100    0.000000
  H     -2.818080   -0.558856    0.000000

 Total Charge           Charge          ....    0
 Multiplicity           Mult            ....    1
 Number of Electrons    NEL             ....   42
 Basis Dimension        Dim             ....  756

ORBITAL ENERGIES
----------------

  NO   OCC          E(Eh)            E(eV)
   0   2.0000     -11.257062      -306.3202
   1   2.0000     -11.255691      -306.2829
   2   2.0000     -11.255691      -306.2829
   3   2.0000     -11.241442      -305.8952
   4   2.0000     -11.241441      -305.8952
   5   2.0000     -11.241441      -305.8952
   6   2.0000      -1.188738       -32.3472
   7   2.0000      -1.006886       -27.3988
   8   2.0000      -1.006886       -27.3988
   9   2.0000      -0.940798       -25.6004
  10   2.0000      -0.710874       -19.3439
  11   2.0000      -0.710874       -19.3439
  12   2.0000      -0.655918       -17.8484
  13   2.0000      -0.620147       -16.8751
  14   2.0000      -0.620147       -16.8751
  15   2.0000      -0.591804       -16.1038
  16   2.0000      -0.520008       -14.1501
  17   2.0000      -0.451982       -12.2990
  18   2.0000      -0.451981       -12.2990
  19   2.0000      -0.338348        -9.2069
  20   2.0000      -0.338348        -9.2069
  21   0.0000       0.026807         0.7295
  22   0.0000       0.030676         0.8347
  23   0.0000       0.030676         0.8347
  24   0.0000       0.030807         0.8383
  25   0.0000       0.044948         1.2231

MULLIKEN ATOMIC CHARGES
-----------------------
   0 C :   -0.035626
   1 C :   -0.035669
   2 C :   -0.035666
   3 C :   -0.605508
   4 C :   -0.605476
   5 C :   -0.605482
   6 H :    0.320577
   7 H :    0.320574
   8 H :    0.320573
   9 H :    0.320562
  10 H :    0.320569
  11 H :    0.320571
Sum of atomic charges:   -0.0000000

LOEWDIN ATOMIC CHARGES
----------------------
   0 C :   -0.081658
   1 C :   -0.081658
   2 C :   -0.081658
   3 C :    0.808020
   4 C :    0.808020
   5 C :    0.808020
   6 H :   -0.363181
   7 H :   -0.363181
   8 H :   -0.363181
   9 H :   -0.363181
  10 H :   -0.363181
  11 H :   -0.363181

  Mayer bond orders larger than 0.100000
B(  0-C ,  1-C ) :   1.0345 B(  0-C ,  2-C ) :   1.0345 B(  0-C ,  3-C ) :   1.5087
B(  1-C ,  2-C ) :   1.0345 B(  1-C ,  4-C ) :   1.5087 B(  2-C ,  5-C ) :   1.5087
B(  3-C ,  6-H ) :   0.9613 B(  3-C ,  7-H ) :   0.9613 B(  4-C ,  8-H ) :   0.9613
B(  4-C ,  9-H ) :   0.9613 B(  5-C , 10-H ) :   0.9613 B(  5-C , 11-H ) :   0.9613

MP2 TOTAL ENERGY:     -231.658590890 Eh
FINAL SINGLE POINT ENERGY      -231.658590889777

DIPOLE MOMENT
-------------
                                X             Y             Z
Electronic contribution:     -0.00000      -0.00000       0.00000
Nuclear contribution   :      0.00000       0.00000       0.00000
                        -----------------------------------------
Total Dipole Moment    :     -0.00000       0.00000       0.00000
                        -----------------------------------------
Magnitude (a.u.)       :      0.00000
Magnitude (Debye)      :      0.00000

Rotational constants in cm-1:     0.138863     0.138863     0.069432
Rotational constants in MHz :  4163.015986  4163.015313  2081.507825

                             ****ORCA TERMINATED NORMALLY****
TOTAL RUN TIME: 0 days 0 hours 17 minutes 27 seconds 359 msec
