                         Program Version 5.0.4 -  RELEASE  -
|  1> !ri-mp2 aug-cc-pvqz aug-cc-pvqz/c tightscf
|  2> %pal nprocs 16 end
|  3>
|  4> * xyz 0 1
|  5> C      0.000000    0.766501   -0.994198
|  6> C      0.000000   -0.766501   -0.994198
|  7> C      0.461326    1.081053    0.428368
|  8> C     -0.461326   -1.081053    0.428368
|  9> O      0.000000    0.000000    1.249603
| 10> H      0.652460    1.198961   -1.751443
| 11> H     -1.009869    1.145990   -1.159921
| 12> H     -0.652460   -1.198961   -1.751443
| 13> H      1.009869   -1.145990   -1.159921
| 14> H      1.553740    1.135699    0.488606
| 15> H      0.050023    2.012637    0.819323
| 16> H     -1.553740   -1.135699    0.488606
| 17> H     -0.050023   -2.012637    0.819323
| 18> *
| 19>
| 20>                          ****END OF INPUT****

CARTESIAN COORDINATES (ANGSTROEM)
---------------------------------
  C      0.000000    0.766501   -0.994198
  C      0.000000   -0.766501   -0.994198
  C      0.461326    1.081053    0.428368
  C     -0.461326   -1.081053    0.428368
  O      0.000000    0.000000    1.249603
  H      0.652460    1.198961   -1.751443
  H     -1.009869    1.145990   -1.159921
  H     -0.652460   -1.198961   -1.751443
  H      1.009869   -1.145990   -1.159921
  H      1.553740    1.135699    0.488606
  H      0.050023    2.012637    0.819323
  H     -1.553740   -1.135699    0.488606
  H     -0.050023   -2.012637    0.819323

 Total Charge           Charge          ....    0
 Multiplicity           Mult            ....    1
 Number of Electrons    NEL             ....   40
 Basis Dimension        Dim             ....  768

ORBITAL ENERGIES
----------------

  NO   OCC          E(Eh)            E(eV)
   0   2.0000     -20.540739      -558.9419
   1   2.0000     -11.267616      -306.6074
   2   2.0000     -11.267595      -306.6068
   3   2.0000     -11.224718      -305.4401
   4   2.0000     -11.224111      -305.4236
   5   2.0000      -1.361027       -37.0354
   6   2.0000      -1.058773       -28.8107
   7   2.0000      -0.990143       -26.9432
   8   2.0000      -0.809702       -22.0331
   9   2.0000      -0.808527       -22.0011
  10   2.0000      -0.682171       -18.5628
  11   2.0000      -0.670774       -18.2527
  12   2.0000      -0.590220       -16.0607
  13   2.0000      -0.589374       -16.0377
  14   2.0000      -0.560482       -15.2515
  15   2.0000      -0.502399       -13.6710
  16   2.0000      -0.493290       -13.4231
  17   2.0000      -0.475800       -12.9472
  18   2.0000      -0.464076       -12.6282
  19   2.0000      -0.407691       -11.0938
  20   0.0000       0.026093         0.7100
  21   0.0000       0.033796         0.9196
  22   0.0000       0.033894         0.9223
  23   0.0000       0.037455         1.0192
  24   0.0000       0.051991         1.4148

MULLIKEN ATOMIC CHARGES
-----------------------
   0 C :   -0.618836
   1 C :   -0.618836
   2 C :   -0.220563
   3 C :   -0.220563
   4 O :   -0.826375
   5 H :    0.369656
   6 H :    0.251030
   7 H :    0.369656
   8 H :    0.251030
   9 H :    0.231618
  10 H :    0.400284
  11 H :    0.231618
  12 H :    0.400284
Sum of atomic charges:   -0.0000000

LOEWDIN ATOMIC CHARGES
----------------------
   0 C :    0.505398
   1 C :    0.505398
   2 C :    0.185119
   3 C :    0.185119
   4 O :    0.881111
   5 H :   -0.265021
   6 H :   -0.271712
   7 H :   -0.265021
   8 H :   -0.271712
   9 H :   -0.294331
  10 H :   -0.300007
  11 H :   -0.294331
  12 H :   -0.300007

  Mayer bond orders larger than 0.100000
B(  0-C ,  1-C ) :   0.9297 B(  0-C ,  2-C ) :   1.0824 B(  0-C ,  5-H ) :   0.8166
B(  0-C ,  6-H ) :   0.8999 B(  1-C ,  3-C ) :   1.0824 B(  1-C ,  7-H ) :   0.8166
B(  1-C ,  8-H ) :   0.8999 B(  2-C ,  4-O ) :   0.7625 B(  2-C ,  9-H ) :   0.9390
B(  2-C , 10-H ) :   0.8166 B(  3-C ,  4-O ) :   0.7625 B(  3-C , 11-H ) :   0.9390
B(  3-C , 12-H ) :   0.8166

MP2 TOTAL ENERGY:     -232.064242255 Eh
FINAL SINGLE POINT ENERGY      -232.064242255272

DIPOLE MOMENT
-------------
                                X             Y             Z
Electronic contribution:     -0.00000       0.00000       2.54818
Nuclear contribution   :     -0.00000       0.00000      -3.32048
                        -----------------------------------------
Total Dipole Moment    :     -0.00000       0.00000      -0.77230
                        -----------------------------------------
Magnitude (a.u.)       :      0.77230
Magnitude (Debye)      :      1.96302

Rotational constants in cm-1:     0.236108     0.233673     0.133042
Rotational constants in MHz :  7078.340302  7005.344776  3988.494368

                             ****ORCA TERMINATED NORMALLY****
TOTAL RUN TIME: 0 days 0 hours 21 minutes 25 seconds 778 msec
