                         Program Version 5.0.4 -  RELEASE  -
|  1> !ri-mp2 aug-cc-pvqz aug-cc-pvqz/c tightscf
|  2> %pal nprocs 16 end
|  3>
|  4> * xyz 0 1
|  5> S     0.000000     0.000000    0.871858
|  6> C     0.000000     0.738462   -0.803990
|  7> C     0.000000    -0.738462   -0.803990
|  8> H    -0.912020     1.251798   -1.075460
|  9> H     0.912020     1.251798   -1.075460
| 10> H     0.912020    -1.251798   -1.075460
| 11> H    -0.912020    -1.251798   -1.075460
| 12> *
| 13>
| 14>                          ****END OF INPUT****

CARTESIAN COORDINATES (ANGSTROEM)
---------------------------------
  S      0.000000    0.000000    0.871858
  C      0.000000    0.738462   -0.803990
  C      0.000000   -0.738462   -0.803990
  H     -0.912020    1.251798   -1.075460
  H      0.912020    1.251798   -1.075460
  H      0.912020   -1.251798   -1.075460
  H     -0.912020   -1.251798   -1.075460

 Total Charge           Charge          ....    0
 Multiplicity           Mult            ....    1
 Number of Electrons    NEL             ....   32
 Basis Dimension        Dim             ....  428

ORBITAL ENERGIES
----------------

  NO   OCC          E(Eh)            E(eV)
   0   2.0000     -91.943177     -2501.9010
   1   2.0000     -11.276051      -306.8369
   2   2.0000     -11.275262      -306.8155
   3   2.0000      -8.944915      -243.4035
   4   2.0000      -6.626109      -180.3056
   5   2.0000      -6.625100      -180.2781
   6   2.0000      -6.623806      -180.2429
   7   2.0000      -1.137922       -30.9644
   8   2.0000      -0.845968       -23.0200
   9   2.0000      -0.833337       -22.6763
  10   2.0000      -0.671981       -18.2855
  11   2.0000      -0.611404       -16.6371
  12   2.0000      -0.544740       -14.8231
  13   2.0000      -0.442566       -12.0428
  14   2.0000      -0.423143       -11.5143
  15   2.0000      -0.346564        -9.4305
  16   0.0000       0.027115         0.7378
  17   0.0000       0.034216         0.9311
  18   0.0000       0.036334         0.9887
  19   0.0000       0.050148         1.3646
  20   0.0000       0.053106         1.4451

MULLIKEN ATOMIC CHARGES
-----------------------
   0 S :   -0.004937
   1 C :   -0.654787
   2 C :   -0.654787
   3 H :    0.328628
   4 H :    0.328628
   5 H :    0.328628
   6 H :    0.328628
Sum of atomic charges:   -0.0000000

LOEWDIN ATOMIC CHARGES
----------------------
   0 S :    1.201862
   1 C :    0.119560
   2 C :    0.119560
   3 H :   -0.360246
   4 H :   -0.360246
   5 H :   -0.360246
   6 H :   -0.360246

  Mayer bond orders larger than 0.100000
B(  0-S ,  1-C ) :   0.9594 B(  0-S ,  2-C ) :   0.9594 B(  1-C ,  2-C ) :   1.1242
B(  1-C ,  3-H ) :   0.8544 B(  1-C ,  4-H ) :   0.8544 B(  2-C ,  5-H ) :   0.8544
B(  2-C ,  6-H ) :   0.8544

MP2 TOTAL ENERGY:     -476.176225350 Eh
FINAL SINGLE POINT ENERGY      -476.176225349793

DIPOLE MOMENT
-------------
                                X             Y             Z
Electronic contribution:     -0.00000      -0.00000       3.44490
Nuclear contribution   :      0.00000       0.00000      -4.32762
                        -----------------------------------------
Total Dipole Moment    :     -0.00000      -0.00000      -0.88272
                        -----------------------------------------
Magnitude (a.u.)       :      0.88272
Magnitude (Debye)      :      2.24369

Rotational constants in cm-1:     0.740289     0.354099     0.264760
Rotational constants in MHz : 22193.313659 10615.627938  7937.314616

                             ****ORCA TERMINATED NORMALLY****
TOTAL RUN TIME: 0 days 0 hours 3 minutes 1 seconds 769 msec
