                         Program Version 5.0.4 -  RELEASE  -
|  1> !ri-mp2 aug-cc-pvqz aug-cc-pvqz/c tightscf
|  2> %pal nprocs 16 end
|  3>
|  4> * xyz 0 1
|  5> C      0.000000    0.000000    0.000000
|  6> Cl     1.030607    1.030607    1.030607
|  7> Cl    -1.030607   -1.030607    1.030607
|  8> Cl     1.030607   -1.030607   -1.030607
|  9> Cl    -1.030607    1.030607   -1.030607
| 10> *
| 11>
| 12>                          ****END OF INPUT****

CARTESIAN COORDINATES (ANGSTROEM)
---------------------------------
  C      0.000000    0.000000    0.000000
  Cl     1.030607    1.030607    1.030607
  Cl    -1.030607   -1.030607    1.030607
  Cl     1.030607   -1.030607   -1.030607
  Cl    -1.030607    1.030607   -1.030607

 Total Charge           Charge          ....    0
 Multiplicity           Mult            ....    1
 Number of Electrons    NEL             ....   74
 Basis Dimension        Dim             ....  416

ORBITAL ENERGIES
----------------

  NO   OCC          E(Eh)            E(eV)
   0   2.0000    -104.877552     -2853.8633
   1   2.0000    -104.877552     -2853.8633
   2   2.0000    -104.877552     -2853.8633
   3   2.0000    -104.877552     -2853.8633
   4   2.0000     -11.501419      -312.9695
   5   2.0000     -10.602788      -288.5165
   6   2.0000     -10.602788      -288.5165
   7   2.0000     -10.602788      -288.5165
   8   2.0000     -10.602769      -288.5160
   9   2.0000      -8.069732      -219.5886
  10   2.0000      -8.069732      -219.5886
  11   2.0000      -8.069732      -219.5886
  12   2.0000      -8.069727      -219.5884
  13   2.0000      -8.067664      -219.5323
  14   2.0000      -8.067664      -219.5323
  15   2.0000      -8.067664      -219.5323
  16   2.0000      -8.067664      -219.5323
  17   2.0000      -8.067664      -219.5323
  18   2.0000      -8.067662      -219.5322
  19   2.0000      -8.067662      -219.5322
  20   2.0000      -8.067662      -219.5322
  21   2.0000      -1.273359       -34.6499
  22   2.0000      -1.125399       -30.6237
  23   2.0000      -1.125399       -30.6237
  24   2.0000      -1.125399       -30.6237
  25   2.0000      -0.834034       -22.6952
  26   2.0000      -0.653626       -17.7861
  27   2.0000      -0.653626       -17.7861
  28   2.0000      -0.653626       -17.7861
  29   2.0000      -0.530535       -14.4366
  30   2.0000      -0.530535       -14.4366
  31   2.0000      -0.488489       -13.2925
  32   2.0000      -0.488489       -13.2925
  33   2.0000      -0.488489       -13.2925
  34   2.0000      -0.461960       -12.5706
  35   2.0000      -0.461960       -12.5706
  36   2.0000      -0.461960       -12.5706
  37   0.0000       0.039512         1.0752
  38   0.0000       0.057922         1.5761
  39   0.0000       0.057922         1.5761
  40   0.0000       0.057922         1.5761
  41   0.0000       0.078965         2.1487

MULLIKEN ATOMIC CHARGES
-----------------------
   0 C :    0.157350
   1 Cl:   -0.039338
   2 Cl:   -0.039338
   3 Cl:   -0.039338
   4 Cl:   -0.039338
Sum of atomic charges:   -0.0000000

LOEWDIN ATOMIC CHARGES
----------------------
   0 C :   -3.352711
   1 Cl:    0.838178
   2 Cl:    0.838178
   3 Cl:    0.838178
   4 Cl:    0.838178

  Mayer bond orders larger than 0.100000
B(  0-C ,  1-Cl) :   0.9293 B(  0-C ,  2-Cl) :   0.9293 B(  0-C ,  3-Cl) :   0.9293
B(  0-C ,  4-Cl) :   0.9293

MP2 TOTAL ENERGY:    -1876.958894511 Eh
FINAL SINGLE POINT ENERGY     -1876.958894510545

DIPOLE MOMENT
-------------
                                X             Y             Z
Electronic contribution:      0.00000      -0.00000       0.00000
Nuclear contribution   :      0.00000       0.00000       0.00000
                        -----------------------------------------
Total Dipole Moment    :      0.00000      -0.00000       0.00000
                        -----------------------------------------
Magnitude (a.u.)       :      0.00000
Magnitude (Debye)      :      0.00000

Rotational constants in cm-1:     0.055959     0.055959     0.055959
Rotational constants in MHz :  1677.600127  1677.600127  1677.600127

                             ****ORCA TERMINATED NORMALLY****
TOTAL RUN TIME: 0 days 0 hours 5 minutes 40 seconds 405 msec
