                         Program Version 5.0.4 -  RELEASE  -
|  1> !ri-mp2 aug-cc-pvqz aug-cc-pvqz/c tightscf
|  2> %pal nprocs 16 end
|  3>
|  4> * xyz 0 1
|  5> C      0.000000    0.000000    0.000000
|  6> F      0.765982    0.765982    0.765982
|  7> F     -0.765982   -0.765982    0.765982
|  8> F      0.765982   -0.765982   -0.765982
|  9> F     -0.765982    0.765982   -0.765982
| 10> *
| 11>
| 12>                          ****END OF INPUT****

CARTESIAN COORDINATES (ANGSTROEM)
---------------------------------
  C      0.000000    0.000000    0.000000
  F      0.765982    0.765982    0.765982
  F     -0.765982   -0.765982    0.765982
  F      0.765982   -0.765982   -0.765982
  F     -0.765982    0.765982   -0.765982

 Total Charge           Charge          ....    0
 Multiplicity           Mult            ....    1
 Number of Electrons    NEL             ....   42
 Basis Dimension        Dim             ....  400

ORBITAL ENERGIES
----------------

  NO   OCC          E(Eh)            E(eV)
   0   2.0000     -26.374144      -717.6769
   1   2.0000     -26.374144      -717.6769
   2   2.0000     -26.374144      -717.6769
   3   2.0000     -26.374099      -717.6757
   4   2.0000     -11.612824      -316.0010
   5   2.0000      -1.799319       -48.9620
   6   2.0000      -1.677293       -45.6415
   7   2.0000      -1.677293       -45.6415
   8   2.0000      -1.677293       -45.6415
   9   2.0000      -1.010388       -27.4941
  10   2.0000      -0.886664       -24.1273
  11   2.0000      -0.886664       -24.1273
  12   2.0000      -0.886664       -24.1273
  13   2.0000      -0.763619       -20.7791
  14   2.0000      -0.763619       -20.7791
  15   2.0000      -0.711878       -19.3712
  16   2.0000      -0.711878       -19.3712
  17   2.0000      -0.711878       -19.3712
  18   2.0000      -0.685838       -18.6626
  19   2.0000      -0.685838       -18.6626
  20   2.0000      -0.685838       -18.6626
  21   0.0000       0.058895         1.6026
  22   0.0000       0.065853         1.7920
  23   0.0000       0.065853         1.7920
  24   0.0000       0.065853         1.7920
  25   0.0000       0.151916         4.1339

MULLIKEN ATOMIC CHARGES
-----------------------
   0 C :    1.885762
   1 F :   -0.471440
   2 F :   -0.471440
   3 F :   -0.471440
   4 F :   -0.471440
Sum of atomic charges:   -0.0000000

LOEWDIN ATOMIC CHARGES
----------------------
   0 C :   -2.825429
   1 F :    0.706357
   2 F :    0.706357
   3 F :    0.706357
   4 F :    0.706357

  Mayer bond orders larger than 0.100000
B(  0-C ,  1-F ) :   0.7232 B(  0-C ,  2-F ) :   0.7232 B(  0-C ,  3-F ) :   0.7232
B(  0-C ,  4-F ) :   0.7232

MP2 TOTAL ENERGY:     -437.120418317 Eh
FINAL SINGLE POINT ENERGY      -437.120418316982

DIPOLE MOMENT
-------------
                                X             Y             Z
Electronic contribution:      0.00000       0.00000      -0.00000
Nuclear contribution   :      0.00000       0.00000       0.00000
                        -----------------------------------------
Total Dipole Moment    :      0.00000       0.00000      -0.00000
                        -----------------------------------------
Magnitude (a.u.)       :      0.00000
Magnitude (Debye)      :      0.00000

Rotational constants in cm-1:     0.189044     0.189044     0.189044
Rotational constants in MHz :  5667.383550  5667.383550  5667.383550

                             ****ORCA TERMINATED NORMALLY****
TOTAL RUN TIME: 0 days 0 hours 8 minutes 21 seconds 258 msec
