                         Program Version 5.0.4 -  RELEASE  -
|  1> !ri-mp2 aug-cc-pvqz aug-cc-pvqz/c tightscf
|  2> %pal nprocs 16 end
|  3>
|  4> * xyz 0 1
|  5> N     -0.726579    1.028726   -0.000001
|  6> C      0.669751    0.895487    0.000064
|  7> O      1.378069    1.884236    0.000131
|  8> C      1.153712   -0.486497    0.000042
|  9> C      2.632341   -0.716781    0.000106
| 10> C      0.240400   -1.474972   -0.000038
| 11> N     -1.115294   -1.239106   -0.000094
| 12> C     -1.675291    0.026086   -0.000082
| 13> O     -2.872270    0.222918   -0.000137
| 14> H     -1.085233    1.972913    0.000012
| 15> H      3.096734   -0.258658    0.874392
| 16> H      2.863608   -1.781203    0.000091
| 17> H      3.096819   -0.258616   -0.874114
| 18> H      0.522304   -2.518618   -0.000059
| 19> H     -1.773003   -2.000335   -0.000157
| 20> *
| 21>
| 22>                          ****END OF INPUT****

CARTESIAN COORDINATES (ANGSTROEM)
---------------------------------
  N     -0.726579    1.028726   -0.000001
  C      0.669751    0.895487    0.000064
  O      1.378069    1.884236    0.000131
  C      1.153712   -0.486497    0.000042
  C      2.632341   -0.716781    0.000106
  C      0.240400   -1.474972   -0.000038
  N     -1.115294   -1.239106   -0.000094
  C     -1.675291    0.026086   -0.000082
  O     -2.872270    0.222918   -0.000137
  H     -1.085233    1.972913    0.000012
  H      3.096734   -0.258658    0.874392
  H      2.863608   -1.781203    0.000091
  H      3.096819   -0.258616   -0.874114
  H      0.522304   -2.518618   -0.000059
  H     -1.773003   -2.000335   -0.000157

 Total Charge           Charge          ....    0
 Multiplicity           Mult            ....    1
 Number of Electrons    NEL             ....   66
 Basis Dimension        Dim             ....  996

ORBITAL ENERGIES
----------------

  NO   OCC          E(Eh)            E(eV)
   0   2.0000     -20.539975      -558.9211
   1   2.0000     -20.539701      -558.9137
   2   2.0000     -15.634793      -425.4444
   3   2.0000     -15.622933      -425.1216
   4   2.0000     -11.412448      -310.5485
   5   2.0000     -11.376811      -309.5788
   6   2.0000     -11.326566      -308.2115
   7   2.0000     -11.258812      -306.3678
   8   2.0000     -11.237184      -305.7793
   9   2.0000      -1.432484       -38.9799
  10   2.0000      -1.399692       -38.0875
  11   2.0000      -1.306167       -35.5426
  12   2.0000      -1.240939       -33.7677
  13   2.0000      -1.108135       -30.1539
  14   2.0000      -0.969675       -26.3862
  15   2.0000      -0.915317       -24.9070
  16   2.0000      -0.893061       -24.3014
  17   2.0000      -0.772510       -21.0211
  18   2.0000      -0.767354       -20.8808
  19   2.0000      -0.708889       -19.2899
  20   2.0000      -0.676347       -18.4043
  21   2.0000      -0.667052       -18.1514
  22   2.0000      -0.641870       -17.4662
  23   2.0000      -0.618602       -16.8330
  24   2.0000      -0.592272       -16.1165
  25   2.0000      -0.570101       -15.5132
  26   2.0000      -0.560807       -15.2603
  27   2.0000      -0.553537       -15.0625
  28   2.0000      -0.512785       -13.9536
  29   2.0000      -0.479473       -13.0471
  30   2.0000      -0.448064       -12.1924
  31   2.0000      -0.435557       -11.8521
  32   2.0000      -0.354516        -9.6469
  33   0.0000       0.014019         0.3815
  34   0.0000       0.027475         0.7476
  35   0.0000       0.034882         0.9492
  36   0.0000       0.038551         1.0490
  37   0.0000       0.045123         1.2279

MULLIKEN ATOMIC CHARGES
-----------------------
   0 N :   -0.774687
   1 C :    1.409464
   2 O :   -0.847922
   3 C :   -0.044759
   4 C :   -0.698012
   5 C :   -0.153820
   6 N :   -0.642183
   7 C :    1.318979
   8 O :   -0.765986
   9 H :    0.078622
  10 H :    0.225312
  11 H :    0.234938
  12 H :    0.225313
  13 H :    0.375975
  14 H :    0.058767
Sum of atomic charges:    0.0000000

LOEWDIN ATOMIC CHARGES
----------------------
   0 N :    0.787971
   1 C :   -0.849276
   2 O :    0.713318
   3 C :   -0.093636
   4 C :    0.876218
   5 C :    0.244177
   6 N :    0.816543
   7 C :   -0.989595
   8 O :    0.686445
   9 H :   -0.519397
  10 H :   -0.287073
  11 H :   -0.305957
  12 H :   -0.287071
  13 H :   -0.298212
  14 H :   -0.494456

  Mayer bond orders larger than 0.100000
B(  0-N ,  1-C ) :   0.9482 B(  0-N ,  2-O ) :   0.2318 B(  0-N ,  7-C ) :   1.1229
B(  0-N ,  8-O ) :   0.2302 B(  0-N ,  9-H ) :   1.2052 B(  1-C ,  2-O ) :   0.9002
B(  1-C ,  3-C ) :   1.0637 B(  2-O ,  3-C ) :   0.3596 B(  3-C ,  4-C ) :   0.6175
B(  3-C ,  5-C ) :   1.4105 B(  3-C , 11-H ) :  -0.1222 B(  4-C , 10-H ) :   1.0096
B(  4-C , 11-H ) :   1.0417 B(  4-C , 12-H ) :   1.0096 B(  5-C ,  6-N ) :   0.9047
B(  5-C , 13-H ) :   0.9282 B(  5-C , 14-H ) :  -0.1046 B(  6-N ,  7-C ) :   1.1949
B(  6-N ,  8-O ) :   0.2129 B(  6-N , 14-H ) :   1.2092 B(  7-C ,  8-O ) :   1.1246

MP2 TOTAL ENERGY:     -453.483446894 Eh
FINAL SINGLE POINT ENERGY      -453.483446893840

DIPOLE MOMENT
-------------
                                X             Y             Z
Electronic contribution:     -6.11394       2.88648      -0.00020
Nuclear contribution   :      6.57222      -4.73003       0.00016
                        -----------------------------------------
Total Dipole Moment    :      0.45828      -1.84355      -0.00004
                        -----------------------------------------
Magnitude (a.u.)       :      1.89966
Magnitude (Debye)      :      4.82855

Rotational constants in cm-1:     0.107015     0.046847     0.032778
Rotational constants in MHz :  3208.235439  1404.430507   982.673164

                             ****ORCA TERMINATED NORMALLY****
TOTAL RUN TIME: 0 days 0 hours 45 minutes 56 seconds 234 msec
