                         Program Version 5.0.4 -  RELEASE  -
|  1> !ri-mp2 aug-cc-pvqz aug-cc-pvqz/c tightscf
|  2> %pal nprocs 16 end
|  3>
|  4> * xyz 0 1
|  5> C      0.542207   -0.688625    0.000000
|  6> C      0.081178    0.798349    0.000000
|  7> O      0.821365    1.714338    0.000000
|  8> F      1.870099   -0.749751    0.000000
|  9> F      0.081178   -1.316809    1.087399
| 10> F      0.081178   -1.316809   -1.087399
| 11> Cl    -1.682548    0.945722    0.000000
| 12> *
| 13>
| 14>                          ****END OF INPUT****

CARTESIAN COORDINATES (ANGSTROEM)
---------------------------------
  C      0.542207   -0.688625    0.000000
  C      0.081178    0.798349    0.000000
  O      0.821365    1.714338    0.000000
  F      1.870099   -0.749751    0.000000
  F      0.081178   -1.316809    1.087399
  F      0.081178   -1.316809   -1.087399
  Cl    -1.682548    0.945722    0.000000

 Total Charge           Charge          ....    0
 Multiplicity           Mult            ....    1
 Number of Electrons    NEL             ....   64
 Basis Dimension        Dim             ....  564

ORBITAL ENERGIES
----------------

  NO   OCC          E(Eh)            E(eV)
   0   2.0000    -104.888282     -2854.1553
   1   2.0000     -26.374163      -717.6775
   2   2.0000     -26.374143      -717.6769
   3   2.0000     -26.371243      -717.5980
   4   2.0000     -20.638954      -561.6145
   5   2.0000     -11.557727      -314.5017
   6   2.0000     -11.452090      -311.6272
   7   2.0000     -10.613675      -288.8128
   8   2.0000      -8.080606      -219.8845
   9   2.0000      -8.078792      -219.8351
  10   2.0000      -8.078690      -219.8323
  11   2.0000      -1.767161       -48.0869
  12   2.0000      -1.672278       -45.5050
  13   2.0000      -1.671448       -45.4824
  14   2.0000      -1.494309       -40.6622
  15   2.0000      -1.176720       -32.0202
  16   2.0000      -1.043817       -28.4037
  17   2.0000      -0.912495       -24.8303
  18   2.0000      -0.861370       -23.4391
  19   2.0000      -0.860324       -23.4106
  20   2.0000      -0.785726       -21.3807
  21   2.0000      -0.747343       -20.3362
  22   2.0000      -0.745753       -20.2930
  23   2.0000      -0.706664       -19.2293
  24   2.0000      -0.702151       -19.1065
  25   2.0000      -0.689266       -18.7559
  26   2.0000      -0.684497       -18.6261
  27   2.0000      -0.678941       -18.4749
  28   2.0000      -0.630233       -17.1495
  29   2.0000      -0.508041       -13.8245
  30   2.0000      -0.501743       -13.6531
  31   2.0000      -0.499363       -13.5884
  32   0.0000       0.044550         1.2123
  33   0.0000       0.052659         1.4329
  34   0.0000       0.060111         1.6357
  35   0.0000       0.064716         1.7610
  36   0.0000       0.071648         1.9496

MULLIKEN ATOMIC CHARGES
-----------------------
   0 C :    1.821236
   1 C :    0.385045
   2 O :   -0.523091
   3 F :   -0.564511
   4 F :   -0.549604
   5 F :   -0.549604
   6 Cl:   -0.019472
Sum of atomic charges:   -0.0000000

LOEWDIN ATOMIC CHARGES
----------------------
   0 C :   -2.345389
   1 C :   -1.535972
   2 O :    0.576149
   3 F :    0.754517
   4 F :    0.732420
   5 F :    0.732420
   6 Cl:    1.085855

  Mayer bond orders larger than 0.100000
B(  0-C ,  1-C ) :   0.9230 B(  0-C ,  3-F ) :   0.5567 B(  0-C ,  4-F ) :   0.5351
B(  0-C ,  5-F ) :   0.5351 B(  1-C ,  2-O ) :   1.7766 B(  1-C ,  6-Cl) :   0.9903

MP2 TOTAL ENERGY:     -910.255452409 Eh
FINAL SINGLE POINT ENERGY      -910.255452408592

DIPOLE MOMENT
-------------
                                X             Y             Z
Electronic contribution:     -0.73492      -1.98659       0.00000
Nuclear contribution   :      0.37462       1.82870       0.00000
                        -----------------------------------------
Total Dipole Moment    :     -0.36030      -0.15789       0.00000
                        -----------------------------------------
Magnitude (a.u.)       :      0.39337
Magnitude (Debye)      :      0.99988

Rotational constants in cm-1:     0.111370     0.058419     0.048155
Rotational constants in MHz :  3338.775221  1751.365828  1443.635876

                             ****ORCA TERMINATED NORMALLY****
TOTAL RUN TIME: 0 days 0 hours 7 minutes 52 seconds 859 msec
