                         Program Version 5.0.4 -  RELEASE  -
|  1> !ri-mp2 aug-cc-pvqz aug-cc-pvqz/c tightscf
|  2> %pal nprocs 16 end
|  3>
|  4> * xyz 0 1
|  5> C     -0.389046   -0.000005    0.034711
|  6> O      0.738307   -0.064366   -0.877245
|  7> O      1.978654    0.098687   -0.135089
|  8> C     -1.568549   -0.139826   -0.926939
|  9> C     -0.342451   -1.161836    1.025628
| 10> C     -0.410298    1.351768    0.745235
| 11> H      2.385379   -0.765132   -0.282112
| 12> H     -1.561837    0.664179   -1.661962
| 13> H     -2.504086   -0.091572   -0.369874
| 14> H     -1.529057   -1.092846   -1.453933
| 15> H     -0.427183    2.162831    0.017417
| 16> H      0.469173    1.471463    1.374999
| 17> H     -1.297114    1.433058    1.375024
| 18> H     -0.300458   -2.114938    0.496791
| 19> H     -1.234525   -1.159418    1.652852
| 20> H      0.526087   -1.082798    1.677660
| 21> *
| 22>
| 23>                          ****END OF INPUT****

CARTESIAN COORDINATES (ANGSTROEM)
---------------------------------
  C     -0.389046   -0.000005    0.034711
  O      0.738307   -0.064366   -0.877245
  O      1.978654    0.098687   -0.135089
  C     -1.568549   -0.139826   -0.926939
  C     -0.342451   -1.161836    1.025628
  C     -0.410298    1.351768    0.745235
  H      2.385379   -0.765132   -0.282112
  H     -1.561837    0.664179   -1.661962
  H     -2.504086   -0.091572   -0.369874
  H     -1.529057   -1.092846   -1.453933
  H     -0.427183    2.162831    0.017417
  H      0.469173    1.471463    1.374999
  H     -1.297114    1.433058    1.375024
  H     -0.300458   -2.114938    0.496791
  H     -1.234525   -1.159418    1.652852
  H      0.526087   -1.082798    1.677660

 Total Charge           Charge          ....    0
 Multiplicity           Mult            ....    1
 Number of Electrons    NEL             ....   50
 Basis Dimension        Dim             ....  940

ORBITAL ENERGIES
----------------

  NO   OCC          E(Eh)            E(eV)
   0   2.0000     -20.613111      -560.9113
   1   2.0000     -20.611269      -560.8612
   2   2.0000     -11.291645      -307.2613
   3   2.0000     -11.216594      -305.2190
   4   2.0000     -11.215960      -305.2018
   5   2.0000     -11.210141      -305.0435
   6   2.0000      -1.459919       -39.7264
   7   2.0000      -1.225903       -33.3585
   8   2.0000      -1.055533       -28.7225
   9   2.0000      -0.944007       -25.6877
  10   2.0000      -0.941573       -25.6215
  11   2.0000      -0.764399       -20.8004
  12   2.0000      -0.705927       -19.2092
  13   2.0000      -0.655422       -17.8349
  14   2.0000      -0.642084       -17.4720
  15   2.0000      -0.609943       -16.5974
  16   2.0000      -0.577755       -15.7215
  17   2.0000      -0.551001       -14.9935
  18   2.0000      -0.545181       -14.8351
  19   2.0000      -0.532936       -14.5019
  20   2.0000      -0.520144       -14.1538
  21   2.0000      -0.506636       -13.7863
  22   2.0000      -0.482880       -13.1398
  23   2.0000      -0.462375       -12.5819
  24   2.0000      -0.436695       -11.8831
  25   0.0000       0.025524         0.6946
  26   0.0000       0.031382         0.8539
  27   0.0000       0.033928         0.9232
  28   0.0000       0.036574         0.9952
  29   0.0000       0.051594         1.4040

MULLIKEN ATOMIC CHARGES
-----------------------
   0 C :    1.563639
   1 O :   -0.566159
   2 O :   -0.561140
   3 C :   -1.044384
   4 C :   -1.066611
   5 C :   -1.013817
   6 H :    0.349383
   7 H :    0.262915
   8 H :    0.257240
   9 H :    0.255864
  10 H :    0.260828
  11 H :    0.268237
  12 H :    0.242773
  13 H :    0.251957
  14 H :    0.282909
  15 H :    0.256364
Sum of atomic charges:    0.0000000

LOEWDIN ATOMIC CHARGES
----------------------
   0 C :   -0.705251
   1 O :    0.580225
   2 O :    0.944788
   3 C :    0.865540
   4 C :    0.883903
   5 C :    0.885293
   6 H :   -0.887850
   7 H :   -0.283600
   8 H :   -0.278814
   9 H :   -0.282630
  10 H :   -0.280966
  11 H :   -0.301794
  12 H :   -0.278343
  13 H :   -0.282417
  14 H :   -0.277969
  15 H :   -0.300116

  Mayer bond orders larger than 0.100000
B(  0-C ,  1-O ) :   0.1033 B(  0-C ,  2-O ) :  -0.2084 B(  0-C ,  3-C ) :   0.4437
B(  0-C ,  4-C ) :   0.6487 B(  0-C ,  5-C ) :   0.6297 B(  1-O ,  2-O ) :   0.8543
B(  1-O ,  3-C ) :   0.1609 B(  1-O ,  4-C ) :   0.1141 B(  1-O ,  5-C ) :   0.1104
B(  2-O ,  6-H ) :   0.8871 B(  3-C ,  7-H ) :   1.0016 B(  3-C ,  8-H ) :   0.9920
B(  3-C ,  9-H ) :   1.0114 B(  4-C , 13-H ) :   0.9946 B(  4-C , 14-H ) :   0.9558
B(  4-C , 15-H ) :   0.9791 B(  5-C , 10-H ) :   0.9886 B(  5-C , 11-H ) :   0.9671
B(  5-C , 12-H ) :   0.9906

MP2 TOTAL ENERGY:     -308.339700931 Eh
FINAL SINGLE POINT ENERGY      -308.339700931253

DIPOLE MOMENT
-------------
                                X             Y             Z
Electronic contribution:      5.29860       0.08308      -2.55958
Nuclear contribution   :     -5.65868      -0.59874       2.92885
                        -----------------------------------------
Total Dipole Moment    :     -0.36008      -0.51566       0.36928
                        -----------------------------------------
Magnitude (a.u.)       :      0.72933
Magnitude (Debye)      :      1.85382

Rotational constants in cm-1:     0.148264     0.091820     0.091733
Rotational constants in MHz :  4444.856361  2752.702924  2750.097739

                             ****ORCA TERMINATED NORMALLY****
TOTAL RUN TIME: 0 days 0 hours 37 minutes 5 seconds 871 msec
