                         Program Version 5.0.4 -  RELEASE  -
|  1> !ri-mp2 aug-cc-pvqz aug-cc-pvqz/c tightscf
|  2> %pal nprocs 16 end
|  3>
|  4> * xyz 0 1
|  5> C      0.000000    0.000000    0.000000
|  6> C      0.856146    0.856146    0.856146
|  7> C     -0.856146   -0.856146    0.856146
|  8> C     -0.856146    0.856146   -0.856146
|  9> C      0.856146   -0.856146   -0.856146
| 10> N      1.518318    1.518318    1.518318
| 11> N     -1.518318   -1.518318    1.518318
| 12> N     -1.518318    1.518318   -1.518318
| 13> N      1.518318   -1.518318   -1.518318
| 14> *
| 15>
| 16>                          ****END OF INPUT****

CARTESIAN COORDINATES (ANGSTROEM)
---------------------------------
  C      0.000000    0.000000    0.000000
  C      0.856146    0.856146    0.856146
  C     -0.856146   -0.856146    0.856146
  C     -0.856146    0.856146   -0.856146
  C      0.856146   -0.856146   -0.856146
  N      1.518318    1.518318    1.518318
  N     -1.518318   -1.518318    1.518318
  N     -1.518318    1.518318   -1.518318
  N      1.518318   -1.518318   -1.518318

 Total Charge           Charge          ....    0
 Multiplicity           Mult            ....    1
 Number of Electrons    NEL             ....   58
 Basis Dimension        Dim             ....  720

ORBITAL ENERGIES
----------------

  NO   OCC          E(Eh)            E(eV)
   0   2.0000     -15.657109      -426.0516
   1   2.0000     -15.657109      -426.0516
   2   2.0000     -15.657109      -426.0516
   3   2.0000     -15.657108      -426.0516
   4   2.0000     -11.493731      -312.7603
   5   2.0000     -11.357436      -309.0515
   6   2.0000     -11.357436      -309.0515
   7   2.0000     -11.357436      -309.0515
   8   2.0000     -11.357427      -309.0513
   9   2.0000      -1.337638       -36.3990
  10   2.0000      -1.297423       -35.3047
  11   2.0000      -1.297423       -35.3047
  12   2.0000      -1.297423       -35.3047
  13   2.0000      -1.208286       -32.8791
  14   2.0000      -0.878098       -23.8943
  15   2.0000      -0.878098       -23.8943
  16   2.0000      -0.878098       -23.8943
  17   2.0000      -0.641949       -17.4683
  18   2.0000      -0.636875       -17.3302
  19   2.0000      -0.636875       -17.3302
  20   2.0000      -0.636875       -17.3302
  21   2.0000      -0.577689       -15.7197
  22   2.0000      -0.577689       -15.7197
  23   2.0000      -0.551139       -14.9972
  24   2.0000      -0.551139       -14.9972
  25   2.0000      -0.551139       -14.9972
  26   2.0000      -0.536079       -14.5875
  27   2.0000      -0.536079       -14.5875
  28   2.0000      -0.536079       -14.5875
  29   0.0000       0.023534         0.6404
  30   0.0000       0.043544         1.1849
  31   0.0000       0.043544         1.1849
  32   0.0000       0.043544         1.1849
  33   0.0000       0.071517         1.9461

MULLIKEN ATOMIC CHARGES
-----------------------
   0 C :    0.604033
   1 C :    0.409949
   2 C :    0.409944
   3 C :    0.409946
   4 C :    0.409950
   5 N :   -0.560957
   6 N :   -0.560955
   7 N :   -0.560953
   8 N :   -0.560958
Sum of atomic charges:   -0.0000000

LOEWDIN ATOMIC CHARGES
----------------------
   0 C :   -0.624181
   1 C :   -0.324364
   2 C :   -0.324364
   3 C :   -0.324364
   4 C :   -0.324364
   5 N :    0.480409
   6 N :    0.480409
   7 N :    0.480409
   8 N :    0.480409

  Mayer bond orders larger than 0.100000
B(  0-C ,  1-C ) :   1.0049 B(  0-C ,  2-C ) :   1.0049 B(  0-C ,  3-C ) :   1.0049
B(  0-C ,  4-C ) :   1.0049 B(  1-C ,  2-C ) :  -0.1187 B(  1-C ,  3-C ) :  -0.1187
B(  1-C ,  4-C ) :  -0.1187 B(  1-C ,  5-N ) :   2.6464 B(  2-C ,  3-C ) :  -0.1187
B(  2-C ,  4-C ) :  -0.1187 B(  2-C ,  6-N ) :   2.6464 B(  3-C ,  4-C ) :  -0.1187
B(  3-C ,  7-N ) :   2.6465 B(  4-C ,  8-N ) :   2.6464

MP2 TOTAL ENERGY:     -408.788329338 Eh
FINAL SINGLE POINT ENERGY      -408.788329337878

DIPOLE MOMENT
-------------
                                X             Y             Z
Electronic contribution:     -0.00000       0.00000      -0.00000
Nuclear contribution   :      0.00000       0.00000       0.00000
                        -----------------------------------------
Total Dipole Moment    :     -0.00000       0.00000      -0.00000
                        -----------------------------------------
Magnitude (a.u.)       :      0.00000
Magnitude (Debye)      :      0.00000

Rotational constants in cm-1:     0.051278     0.051278     0.051278
Rotational constants in MHz :  1537.263443  1537.263443  1537.263443

                             ****ORCA TERMINATED NORMALLY****
TOTAL RUN TIME: 0 days 0 hours 11 minutes 38 seconds 811 msec
