                         Program Version 5.0.4 -  RELEASE  -
|  1> !ri-mp2 aug-cc-pvqz aug-cc-pvqz/c tightscf
|  2> %pal nprocs 16 end
|  3>
|  4> * xyz 0 1
|  5> H      0.727709    2.103092    0.342737
|  6> H     -0.986957    1.809222    0.025908
|  7> C      0.000000    1.349368    0.050917
|  8> H      1.422074    0.557865   -1.364380
|  9> H      0.016317    1.302538   -2.122147
| 10> C      0.340403    0.685094   -1.282406
| 11> H     -0.016317   -1.302538   -2.122147
| 12> H     -1.422074   -0.557865   -1.364380
| 13> C     -0.340403   -0.685094   -1.282406
| 14> H      0.986957   -1.809222    0.025908
| 15> H     -0.727709   -2.103092    0.342737
| 16> C      0.000000   -1.349368    0.050917
| 17> S      0.000000    0.000000    1.313352
| 18> *
| 19>
| 20>                          ****END OF INPUT****

CARTESIAN COORDINATES (ANGSTROEM)
---------------------------------
  H      0.727709    2.103092    0.342737
  H     -0.986957    1.809222    0.025908
  C      0.000000    1.349368    0.050917
  H      1.422074    0.557865   -1.364380
  H      0.016317    1.302538   -2.122147
  C      0.340403    0.685094   -1.282406
  H     -0.016317   -1.302538   -2.122147
  H     -1.422074   -0.557865   -1.364380
  C     -0.340403   -0.685094   -1.282406
  H      0.986957   -1.809222    0.025908
  H     -0.727709   -2.103092    0.342737
  C      0.000000   -1.349368    0.050917
  S      0.000000    0.000000    1.313352

 Total Charge           Charge          ....    0
 Multiplicity           Mult            ....    1
 Number of Electrons    NEL             ....   48
 Basis Dimension        Dim             ....  772

ORBITAL ENERGIES
----------------

  NO   OCC          E(Eh)            E(eV)
   0   2.0000     -91.932957     -2501.6229
   1   2.0000     -11.251421      -306.1667
   2   2.0000     -11.251410      -306.1664
   3   2.0000     -11.232035      -305.6392
   4   2.0000     -11.231421      -305.6225
   5   2.0000      -8.934649      -243.1242
   6   2.0000      -6.616071      -180.0324
   7   2.0000      -6.615331      -180.0123
   8   2.0000      -6.614433      -179.9879
   9   2.0000      -1.122216       -30.5370
  10   2.0000      -0.983710       -26.7681
  11   2.0000      -0.962328       -26.1863
  12   2.0000      -0.793282       -21.5863
  13   2.0000      -0.781194       -21.2574
  14   2.0000      -0.655384       -17.8339
  15   2.0000      -0.636651       -17.3242
  16   2.0000      -0.598291       -16.2803
  17   2.0000      -0.546261       -14.8645
  18   2.0000      -0.504608       -13.7311
  19   2.0000      -0.491722       -13.3804
  20   2.0000      -0.480772       -13.0825
  21   2.0000      -0.472812       -12.8659
  22   2.0000      -0.418669       -11.3926
  23   2.0000      -0.330256        -8.9867
  24   0.0000       0.025327         0.6892
  25   0.0000       0.032339         0.8800
  26   0.0000       0.034032         0.9261
  27   0.0000       0.037732         1.0267
  28   0.0000       0.050969         1.3869

MULLIKEN ATOMIC CHARGES
-----------------------
   0 H :    0.319497
   1 H :    0.215144
   2 C :   -0.574118
   3 H :    0.248178
   4 H :    0.357605
   5 C :   -0.481598
   6 H :    0.357605
   7 H :    0.248178
   8 C :   -0.481598
   9 H :    0.215144
  10 H :    0.319497
  11 C :   -0.574118
  12 S :   -0.169413
Sum of atomic charges:    0.0000000

LOEWDIN ATOMIC CHARGES
----------------------
   0 H :   -0.357689
   1 H :   -0.354901
   2 C :    0.175062
   3 H :   -0.280943
   4 H :   -0.265079
   5 C :    0.426004
   6 H :   -0.265079
   7 H :   -0.280943
   8 C :    0.426004
   9 H :   -0.354901
  10 H :   -0.357689
  11 C :    0.175062
  12 S :    1.315092

  Mayer bond orders larger than 0.100000
B(  0-H ,  2-C ) :   0.8897 B(  1-H ,  2-C ) :   0.9539 B(  2-C ,  5-C ) :   0.9916
B(  2-C , 12-S ) :   0.9229 B(  3-H ,  5-C ) :   0.9178 B(  4-H ,  5-C ) :   0.7993
B(  5-C ,  8-C ) :   0.9359 B(  6-H ,  8-C ) :   0.7993 B(  7-H ,  8-C ) :   0.9178
B(  8-C , 11-C ) :   0.9916 B(  9-H , 11-C ) :   0.9539 B( 10-H , 11-C ) :   0.8897
B( 11-C , 12-S ) :   0.9229

MP2 TOTAL ENERGY:     -554.675518777 Eh
FINAL SINGLE POINT ENERGY      -554.675518777101

DIPOLE MOMENT
-------------
                                X             Y             Z
Electronic contribution:      0.00000      -0.00000       5.52285
Nuclear contribution   :     -0.00000       0.00000      -6.41720
                        -----------------------------------------
Total Dipole Moment    :      0.00000      -0.00000      -0.89435
                        -----------------------------------------
Magnitude (a.u.)       :      0.89435
Magnitude (Debye)      :      2.27327

Rotational constants in cm-1:     0.199570     0.144457     0.092236
Rotational constants in MHz :  5982.963851  4330.716241  2765.156215

                             ****ORCA TERMINATED NORMALLY****
TOTAL RUN TIME: 0 days 0 hours 21 minutes 49 seconds 682 msec
