                         Program Version 5.0.4 -  RELEASE  -
|  1> !ri-mp2 aug-cc-pvqz aug-cc-pvqz/c tightscf
|  2> %pal nprocs 16 end
|  3>
|  4> * xyz 0 1
|  5> C      0.000000    1.212629    0.508884
|  6> C      1.216393    1.420165   -0.356202
|  7> C      0.000000    0.000000    1.437632
|  8> C     -0.001233    0.749275   -0.932390
|  9> C      0.001233   -0.749275   -0.932390
| 10> C     -1.216393   -1.420165   -0.356202
| 11> H     -0.565029    2.087185    0.799175
| 12> H      2.090716    0.811351   -0.162580
| 13> H      1.434669    2.428532   -0.679316
| 14> H     -0.877843    0.008372    2.088558
| 15> H      0.877843   -0.008372    2.088558
| 16> H     -0.578811    1.277641   -1.680483
| 17> H      0.578811   -1.277641   -1.680483
| 18> H     -1.434669   -2.428532   -0.679316
| 19> H     -2.090716   -0.811351   -0.162580
| 20> C      0.000000   -1.212629    0.508884
| 21> H      0.565029   -2.087185    0.799175
| 22> *
| 23>
| 24>                          ****END OF INPUT****

CARTESIAN COORDINATES (ANGSTROEM)
---------------------------------
  C      0.000000    1.212629    0.508884
  C      1.216393    1.420165   -0.356202
  C      0.000000    0.000000    1.437632
  C     -0.001233    0.749275   -0.932390
  C      0.001233   -0.749275   -0.932390
  C     -1.216393   -1.420165   -0.356202
  H     -0.565029    2.087185    0.799175
  H      2.090716    0.811351   -0.162580
  H      1.434669    2.428532   -0.679316
  H     -0.877843    0.008372    2.088558
  H      0.877843   -0.008372    2.088558
  H     -0.578811    1.277641   -1.680483
  H      0.578811   -1.277641   -1.680483
  H     -1.434669   -2.428532   -0.679316
  H     -2.090716   -0.811351   -0.162580
  C      0.000000   -1.212629    0.508884
  H      0.565029   -2.087185    0.799175

 Total Charge           Charge          ....    0
 Multiplicity           Mult            ....    1
 Number of Electrons    NEL             ....   52
 Basis Dimension        Dim             .... 1020

ORBITAL ENERGIES
----------------

  NO   OCC          E(Eh)            E(eV)
   0   2.0000     -11.223751      -305.4138
   1   2.0000     -11.223268      -305.4006
   2   2.0000     -11.222786      -305.3875
   3   2.0000     -11.222547      -305.3810
   4   2.0000     -11.219436      -305.2964
   5   2.0000     -11.216746      -305.2232
   6   2.0000     -11.216740      -305.2230
   7   2.0000      -1.191650       -32.4264
   8   2.0000      -1.095542       -29.8112
   9   2.0000      -0.972915       -26.4744
  10   2.0000      -0.852583       -23.2000
  11   2.0000      -0.816456       -22.2169
  12   2.0000      -0.752970       -20.4894
  13   2.0000      -0.746830       -20.3223
  14   2.0000      -0.686990       -18.6939
  15   2.0000      -0.649014       -17.6606
  16   2.0000      -0.588774       -16.0213
  17   2.0000      -0.566557       -15.4168
  18   2.0000      -0.557318       -15.1654
  19   2.0000      -0.526280       -14.3208
  20   2.0000      -0.495428       -13.4813
  21   2.0000      -0.471292       -12.8245
  22   2.0000      -0.446914       -12.1612
  23   2.0000      -0.419018       -11.4020
  24   2.0000      -0.376083       -10.2337
  25   2.0000      -0.374656       -10.1949
  26   0.0000       0.026031         0.7083
  27   0.0000       0.029717         0.8086
  28   0.0000       0.032374         0.8809
  29   0.0000       0.032390         0.8814
  30   0.0000       0.045101         1.2273

MULLIKEN ATOMIC CHARGES
-----------------------
   0 C :   -0.301405
   1 C :   -0.861508
   2 C :   -0.564368
   3 C :   -0.219728
   4 C :   -0.219726
   5 C :   -0.861509
   6 H :    0.456437
   7 H :    0.231975
   8 H :    0.328237
   9 H :    0.216856
  10 H :    0.216856
  11 H :    0.431319
  12 H :    0.431322
  13 H :    0.328237
  14 H :    0.231975
  15 C :   -0.301405
  16 H :    0.456436
Sum of atomic charges:   -0.0000000

LOEWDIN ATOMIC CHARGES
----------------------
   0 C :    0.193174
   1 C :    0.622396
   2 C :    0.558699
   3 C :    0.188295
   4 C :    0.188295
   5 C :    0.622396
   6 H :   -0.243907
   7 H :   -0.265079
   8 H :   -0.266180
   9 H :   -0.266096
  10 H :   -0.266096
  11 H :   -0.241952
  12 H :   -0.241952
  13 H :   -0.266180
  14 H :   -0.265079
  15 C :    0.193174
  16 H :   -0.243907

  Mayer bond orders larger than 0.100000
B(  0-C ,  1-C ) :   0.9882 B(  0-C ,  2-C ) :   0.8623 B(  0-C ,  3-C ) :   0.8410
B(  0-C ,  6-H ) :   0.7738 B(  1-C ,  3-C ) :   1.0188 B(  1-C ,  7-H ) :   0.9706
B(  1-C ,  8-H ) :   0.9458 B(  2-C ,  9-H ) :   0.9967 B(  2-C , 10-H ) :   0.9967
B(  2-C , 15-C ) :   0.8623 B(  3-C ,  4-C ) :   0.7666 B(  3-C , 11-H ) :   0.7631
B(  4-C ,  5-C ) :   1.0188 B(  4-C , 12-H ) :   0.7631 B(  4-C , 15-C ) :   0.8410
B(  5-C , 13-H ) :   0.9458 B(  5-C , 14-H ) :   0.9706 B(  5-C , 15-C ) :   0.9882
B( 15-C , 16-H ) :   0.7738

MP2 TOTAL ENERGY:     -272.186898815 Eh
FINAL SINGLE POINT ENERGY      -272.186898815134

DIPOLE MOMENT
-------------
                                X             Y             Z
Electronic contribution:      0.00000       0.00000      -0.73998
Nuclear contribution   :     -0.00000      -0.00000       0.75789
                        -----------------------------------------
Total Dipole Moment    :      0.00000       0.00000       0.01791
                        -----------------------------------------
Magnitude (a.u.)       :      0.01791
Magnitude (Debye)      :      0.04553

Rotational constants in cm-1:     0.170432     0.096924     0.077161
Rotational constants in MHz :  5109.421058  2905.699900  2313.224541

                             ****ORCA TERMINATED NORMALLY****
TOTAL RUN TIME: 0 days 0 hours 50 minutes 57 seconds 52 msec
