                         Program Version 5.0.4 -  RELEASE  -
|  1> !ri-mp2 aug-cc-pvqz aug-cc-pvqz/c tightscf
|  2> %pal nprocs 16 end
|  3>
|  4> * xyz 0 1
|  5> S     -1.756434   -0.365803   -0.000188
|  6> N      0.863151   -0.693485    0.000281
|  7> N      0.167197    1.487661   -0.000079
|  8> N      2.197899   -0.268846    0.000181
|  9> C     -0.173325    0.187895    0.000004
| 10> H      0.618610   -1.671311    0.000117
| 11> H      1.137120    1.757055    0.000069
| 12> H     -0.566962    2.169753   -0.000192
| 13> H      2.678241   -0.603657    0.827164
| 14> H      2.678150   -0.603667   -0.826856
| 15> *
| 16>
| 17>                          ****END OF INPUT****

CARTESIAN COORDINATES (ANGSTROEM)
---------------------------------
  S     -1.756434   -0.365803   -0.000188
  N      0.863151   -0.693485    0.000281
  N      0.167197    1.487661   -0.000079
  N      2.197899   -0.268846    0.000181
  C     -0.173325    0.187895    0.000004
  H      0.618610   -1.671311    0.000117
  H      1.137120    1.757055    0.000069
  H     -0.566962    2.169753   -0.000192
  H      2.678241   -0.603657    0.827164
  H      2.678150   -0.603667   -0.826856

 Total Charge           Charge          ....    0
 Multiplicity           Mult            ....    1
 Number of Electrons    NEL             ....   48
 Basis Dimension        Dim             ....  634

ORBITAL ENERGIES
----------------

  NO   OCC          E(Eh)            E(eV)
   0   2.0000     -91.878450     -2500.1397
   1   2.0000     -15.628071      -425.2614
   2   2.0000     -15.621159      -425.0734
   3   2.0000     -15.593716      -424.3266
   4   2.0000     -11.372294      -309.4559
   5   2.0000      -8.882747      -241.7118
   6   2.0000      -6.564668      -178.6337
   7   2.0000      -6.562685      -178.5797
   8   2.0000      -6.562284      -178.5688
   9   2.0000      -1.353427       -36.8286
  10   2.0000      -1.242492       -33.8099
  11   2.0000      -1.108332       -30.1592
  12   2.0000      -0.948491       -25.8097
  13   2.0000      -0.831737       -22.6327
  14   2.0000      -0.740916       -20.1613
  15   2.0000      -0.725909       -19.7530
  16   2.0000      -0.721084       -19.6217
  17   2.0000      -0.673344       -18.3226
  18   2.0000      -0.563067       -15.3218
  19   2.0000      -0.504037       -13.7155
  20   2.0000      -0.473000       -12.8710
  21   2.0000      -0.426378       -11.6023
  22   2.0000      -0.317323        -8.6348
  23   2.0000      -0.316280        -8.6064
  24   0.0000       0.013881         0.3777
  25   0.0000       0.028489         0.7752
  26   0.0000       0.034586         0.9411
  27   0.0000       0.041177         1.1205
  28   0.0000       0.055362         1.5065

MULLIKEN ATOMIC CHARGES
-----------------------
   0 S :   -0.213315
   1 N :   -0.335813
   2 N :   -0.618811
   3 N :   -0.423200
   4 C :    0.268730
   5 H :    0.241385
   6 H :    0.332238
   7 H :    0.261757
   8 H :    0.243512
   9 H :    0.243518
Sum of atomic charges:    0.0000000

LOEWDIN ATOMIC CHARGES
----------------------
   0 S :    0.948032
   1 N :    0.571205
   2 N :    1.142765
   3 N :    1.143228
   4 C :   -1.181373
   5 H :   -0.558433
   6 H :   -0.541355
   7 H :   -0.531554
   8 H :   -0.496264
   9 H :   -0.496250

  Mayer bond orders larger than 0.100000
B(  0-S ,  4-C ) :   1.2970 B(  1-N ,  2-N ) :   0.1062 B(  1-N ,  3-N ) :   0.7939
B(  1-N ,  4-C ) :   1.2310 B(  1-N ,  5-H ) :   0.9505 B(  2-N ,  4-C ) :   1.1319
B(  2-N ,  6-H ) :   0.8925 B(  2-N ,  7-H ) :   0.9537 B(  3-N ,  8-H ) :   0.9745
B(  3-N ,  9-H ) :   0.9744

MP2 TOTAL ENERGY:     -602.789827722 Eh
FINAL SINGLE POINT ENERGY      -602.789827721619

DIPOLE MOMENT
-------------
                                X             Y             Z
Electronic contribution:     -4.11776      -0.80348      -0.00022
Nuclear contribution   :      6.54681       1.05106       0.00031
                        -----------------------------------------
Total Dipole Moment    :      2.42905       0.24759       0.00009
                        -----------------------------------------
Magnitude (a.u.)       :      2.44164
Magnitude (Debye)      :      6.20615

Rotational constants in cm-1:     0.300215     0.086351     0.067806
Rotational constants in MHz :  9000.218965  2588.749330  2032.773616

                             ****ORCA TERMINATED NORMALLY****
TOTAL RUN TIME: 0 days 0 hours 8 minutes 51 seconds 94 msec
