                         Program Version 5.0.4 -  RELEASE  -
|  1> !ri-mp2 aug-cc-pvqz aug-cc-pvqz/c tightscf
|  2> %pal nprocs 16 end
|  3>
|  4> * xyz 0 1
|  5> C     1.233554    -2.804366    0.000000
|  6> H     1.251117    -3.456614    0.877469
|  7> H     1.251117    -3.456614   -0.877469
|  8> H     2.138991    -2.200941    0.000000
|  9> C    -1.233554     2.804366    0.000000
| 10> H    -1.251117     3.456614   -0.877469
| 11> H    -1.251117     3.456614    0.877469
| 12> H    -2.138991     2.200941    0.000000
| 13> C     0.001866    -1.946573    0.000000
| 14> H    -0.953142    -2.465454    0.000000
| 15> C    -0.001866     1.946573    0.000000
| 16> H     0.953142     2.465454    0.000000
| 17> C     0.001866     0.631609    0.000000
| 18> C    -0.001866    -0.631609    0.000000
| 19> *
| 20>
| 21>                          ****END OF INPUT****

CARTESIAN COORDINATES (ANGSTROEM)
---------------------------------
  C      1.233554   -2.804366    0.000000
  H      1.251117   -3.456614    0.877469
  H      1.251117   -3.456614   -0.877469
  H      2.138991   -2.200941    0.000000
  C     -1.233554    2.804366    0.000000
  H     -1.251117    3.456614   -0.877469
  H     -1.251117    3.456614    0.877469
  H     -2.138991    2.200941    0.000000
  C      0.001866   -1.946573    0.000000
  H     -0.953142   -2.465454    0.000000
  C     -0.001866    1.946573    0.000000
  H      0.953142    2.465454    0.000000
  C      0.001866    0.631609    0.000000
  C     -0.001866   -0.631609    0.000000

 Total Charge           Charge          ....    0
 Multiplicity           Mult            ....    1
 Number of Electrons    NEL             ....   44
 Basis Dimension        Dim             ....  848

ORBITAL ENERGIES
----------------

  NO   OCC          E(Eh)            E(eV)
   0   2.0000     -11.249359      -306.1106
   1   2.0000     -11.249347      -306.1103
   2   2.0000     -11.239924      -305.8539
   3   2.0000     -11.237420      -305.7857
   4   2.0000     -11.226913      -305.4998
   5   2.0000     -11.226913      -305.4998
   6   2.0000      -1.098579       -29.8939
   7   2.0000      -1.056529       -28.7496
   8   2.0000      -0.978370       -26.6228
   9   2.0000      -0.904005       -24.5992
  10   2.0000      -0.834971       -22.7207
  11   2.0000      -0.683046       -18.5866
  12   2.0000      -0.655556       -17.8386
  13   2.0000      -0.587777       -15.9942
  14   2.0000      -0.575661       -15.6645
  15   2.0000      -0.570784       -15.5318
  16   2.0000      -0.567477       -15.4418
  17   2.0000      -0.532034       -14.4774
  18   2.0000      -0.526329       -14.3221
  19   2.0000      -0.452866       -12.3231
  20   2.0000      -0.363577        -9.8934
  21   2.0000      -0.308846        -8.4041
  22   0.0000       0.025885         0.7044
  23   0.0000       0.029031         0.7900
  24   0.0000       0.033426         0.9096
  25   0.0000       0.040519         1.1026
  26   0.0000       0.043146         1.1741

MULLIKEN ATOMIC CHARGES
-----------------------
   0 C :   -0.750553
   1 H :    0.233769
   2 H :    0.233769
   3 H :    0.273929
   4 C :   -0.750553
   5 H :    0.233769
   6 H :    0.233769
   7 H :    0.273929
   8 C :   -0.171011
   9 H :    0.419844
  10 C :   -0.171012
  11 H :    0.419844
  12 C :   -0.239748
  13 C :   -0.239745
Sum of atomic charges:   -0.0000000

LOEWDIN ATOMIC CHARGES
----------------------
   0 C :    0.863895
   1 H :   -0.299961
   2 H :   -0.299961
   3 H :   -0.314961
   4 C :    0.863895
   5 H :   -0.299961
   6 H :   -0.299961
   7 H :   -0.314961
   8 C :    0.283669
   9 H :   -0.357405
  10 C :    0.283669
  11 H :   -0.357405
  12 C :    0.124723
  13 C :    0.124723

  Mayer bond orders larger than 0.100000
B(  0-C ,  1-H ) :   0.9659 B(  0-C ,  2-H ) :   0.9659 B(  0-C ,  3-H ) :   0.9130
B(  0-C ,  8-C ) :   1.0732 B(  0-C , 13-C ) :  -0.1440 B(  4-C ,  5-H ) :   0.9659
B(  4-C ,  6-H ) :   0.9659 B(  4-C ,  7-H ) :   0.9130 B(  4-C , 10-C ) :   1.0732
B(  4-C , 12-C ) :  -0.1440 B(  8-C ,  9-H ) :   0.7900 B(  8-C , 12-C ) :  -0.2298
B(  8-C , 13-C ) :   1.6444 B( 10-C , 11-H ) :   0.7900 B( 10-C , 12-C ) :   1.6444
B( 10-C , 13-C ) :  -0.2298 B( 12-C , 13-C ) :   2.3504

MP2 TOTAL ENERGY:     -232.904530290 Eh
FINAL SINGLE POINT ENERGY      -232.904530289519

DIPOLE MOMENT
-------------
                                X             Y             Z
Electronic contribution:     -0.00000       0.00000      -0.00000
Nuclear contribution   :     -0.00000       0.00000       0.00000
                        -----------------------------------------
Total Dipole Moment    :     -0.00000       0.00000      -0.00000
                        -----------------------------------------
Magnitude (a.u.)       :      0.00000
Magnitude (Debye)      :      0.00000

Rotational constants in cm-1:     0.695309     0.042612     0.040754
Rotational constants in MHz : 20844.827452  1277.484330  1221.782333

                             ****ORCA TERMINATED NORMALLY****
TOTAL RUN TIME: 0 days 0 hours 21 minutes 53 seconds 114 msec
