                         Program Version 5.0.4 -  RELEASE  -
|  1> !ri-mp2 aug-cc-pvqz aug-cc-pvqz/c tightscf
|  2> %pal nprocs 16 end
|  3>
|  4> * xyz 0 1
|  5> C      0.639432   -1.264100        0.000000
|  6> C      1.220264   -0.033712        0.000000
|  7> C     -1.203295   -0.069611        0.000000
|  8> N     -0.732370   -1.277174        0.000000
|  9> S      0.000000    1.184691        0.000000
| 10> H      1.176233   -2.200416        0.000000
| 11> H      2.266607    0.216808        0.000000
| 12> H     -2.254655    0.173318        0.000000
| 13> *
| 14>
| 15>                          ****END OF INPUT****

CARTESIAN COORDINATES (ANGSTROEM)
---------------------------------
  C      0.639432   -1.264100    0.000000
  C      1.220264   -0.033712    0.000000
  C     -1.203295   -0.069611    0.000000
  N     -0.732370   -1.277174    0.000000
  S      0.000000    1.184691    0.000000
  H      1.176233   -2.200416    0.000000
  H      2.266607    0.216808    0.000000
  H     -2.254655    0.173318    0.000000

 Total Charge           Charge          ....    0
 Multiplicity           Mult            ....    1
 Number of Electrons    NEL             ....   44
 Basis Dimension        Dim             ....  542

ORBITAL ENERGIES
----------------

  NO   OCC          E(Eh)            E(eV)
   0   2.0000     -91.997813     -2503.3878
   1   2.0000     -15.573829      -423.7854
   2   2.0000     -11.311364      -307.7979
   3   2.0000     -11.271572      -306.7151
   4   2.0000     -11.268534      -306.6324
   5   2.0000      -8.999676      -244.8936
   6   2.0000      -6.680839      -181.7949
   7   2.0000      -6.680362      -181.7819
   8   2.0000      -6.679754      -181.7654
   9   2.0000      -1.285712       -34.9860
  10   2.0000      -1.068201       -29.0672
  11   2.0000      -1.006034       -27.3756
  12   2.0000      -0.808073       -21.9888
  13   2.0000      -0.776568       -21.1315
  14   2.0000      -0.699940       -19.0463
  15   2.0000      -0.600997       -16.3540
  16   2.0000      -0.570408       -15.5216
  17   2.0000      -0.564480       -15.3603
  18   2.0000      -0.508638       -13.8407
  19   2.0000      -0.433982       -11.8093
  20   2.0000      -0.394037       -10.7223
  21   2.0000      -0.346365        -9.4251
  22   0.0000       0.025633         0.6975
  23   0.0000       0.030901         0.8409
  24   0.0000       0.036367         0.9896
  25   0.0000       0.058581         1.5941
  26   0.0000       0.068486         1.8636

MULLIKEN ATOMIC CHARGES
-----------------------
   0 C :   -0.225758
   1 C :   -0.718071
   2 C :   -0.539063
   3 N :   -0.440958
   4 S :    0.380575
   5 H :    0.506142
   6 H :    0.479627
   7 H :    0.557506
Sum of atomic charges:   -0.0000000

LOEWDIN ATOMIC CHARGES
----------------------
   0 C :   -0.087521
   1 C :   -0.117721
   2 C :   -0.353033
   3 N :    0.450809
   4 S :    1.310589
   5 H :   -0.359393
   6 H :   -0.416221
   7 H :   -0.427511

  Mayer bond orders larger than 0.100000
B(  0-C ,  1-C ) :   1.5234 B(  0-C ,  3-N ) :   1.0884 B(  0-C ,  5-H ) :   0.7794
B(  1-C ,  4-S ) :   1.1839 B(  1-C ,  6-H ) :   0.7506 B(  2-C ,  3-N ) :   1.5853
B(  2-C ,  4-S ) :   1.2297 B(  2-C ,  7-H ) :   0.6799

MP2 TOTAL ENERGY:     -568.312994718 Eh
FINAL SINGLE POINT ENERGY      -568.312994717815

DIPOLE MOMENT
-------------
                                X             Y             Z
Electronic contribution:     -0.78776       2.26853       0.00000
Nuclear contribution   :      1.14927      -1.80013       0.00000
                        -----------------------------------------
Total Dipole Moment    :      0.36151       0.46840       0.00000
                        -----------------------------------------
Magnitude (a.u.)       :      0.59169
Magnitude (Debye)      :      1.50395

Rotational constants in cm-1:     0.284187     0.183058     0.111339
Rotational constants in MHz :  8519.707669  5487.953286  3337.870459

                             ****ORCA TERMINATED NORMALLY****
TOTAL RUN TIME: 0 days 0 hours 6 minutes 20 seconds 911 msec
