                         Program Version 5.0.4 -  RELEASE  -
|  1> !ri-mp2 aug-cc-pvqz aug-cc-pvqz/c tightscf
|  2> %pal nprocs 16 end
|  3>
|  4> * xyz 0 1
|  5> C      1.387883   -0.811682    0.479852
|  6> C      1.678206    0.633319    0.061765
|  7> C      0.258572   -1.279223   -0.428050
|  8> C      0.330814    1.347067   -0.089120
|  9> O     -1.798582   -0.049523    0.835116
| 10> S     -1.000813    0.079000   -0.439396
| 11> H      2.269472   -1.447422    0.387147
| 12> H      1.059693   -0.849628    1.519688
| 13> H      2.312291    1.147645    0.784708
| 14> H      2.210285    0.636734   -0.891921
| 15> H      0.589747   -1.411400   -1.460234
| 16> H     -0.266524   -2.172907   -0.098828
| 17> H     -0.021163    1.794675    0.838932
| 18> H      0.315012    2.097602   -0.876757
| 19> *
| 20>
| 21>                          ****END OF INPUT****

CARTESIAN COORDINATES (ANGSTROEM)
---------------------------------
  C      1.387883   -0.811682    0.479852
  C      1.678206    0.633319    0.061765
  C      0.258572   -1.279223   -0.428050
  C      0.330814    1.347067   -0.089120
  O     -1.798582   -0.049523    0.835116
  S     -1.000813    0.079000   -0.439396
  H      2.269472   -1.447422    0.387147
  H      1.059693   -0.849628    1.519688
  H      2.312291    1.147645    0.784708
  H      2.210285    0.636734   -0.891921
  H      0.589747   -1.411400   -1.460234
  H     -0.266524   -2.172907   -0.098828
  H     -0.021163    1.794675    0.838932
  H      0.315012    2.097602   -0.876757

 Total Charge           Charge          ....    0
 Multiplicity           Mult            ....    1
 Number of Electrons    NEL             ....   56
 Basis Dimension        Dim             ....  852

ORBITAL ENERGIES
----------------

  NO   OCC          E(Eh)            E(eV)
   0   2.0000     -92.056892     -2504.9954
   1   2.0000     -20.496582      -557.7404
   2   2.0000     -11.263026      -306.4825
   3   2.0000     -11.262073      -306.4566
   4   2.0000     -11.247300      -306.0546
   5   2.0000     -11.243506      -305.9514
   6   2.0000      -9.044450      -246.1120
   7   2.0000      -6.726333      -183.0328
   8   2.0000      -6.726047      -183.0251
   9   2.0000      -6.724903      -182.9939
  10   2.0000      -1.320932       -35.9444
  11   2.0000      -1.129024       -30.7223
  12   2.0000      -1.001496       -27.2521
  13   2.0000      -0.966628       -26.3033
  14   2.0000      -0.813809       -22.1449
  15   2.0000      -0.792647       -21.5690
  16   2.0000      -0.673706       -18.3325
  17   2.0000      -0.661462       -17.9993
  18   2.0000      -0.620689       -16.8898
  19   2.0000      -0.578303       -15.7364
  20   2.0000      -0.550549       -14.9812
  21   2.0000      -0.540935       -14.7196
  22   2.0000      -0.521080       -14.1793
  23   2.0000      -0.509455       -13.8630
  24   2.0000      -0.501961       -13.6591
  25   2.0000      -0.492526       -13.4023
  26   2.0000      -0.401147       -10.9158
  27   2.0000      -0.361330        -9.8323
  28   0.0000       0.020191         0.5494
  29   0.0000       0.029428         0.8008
  30   0.0000       0.030098         0.8190
  31   0.0000       0.038221         1.0401
  32   0.0000       0.047669         1.2971

MULLIKEN ATOMIC CHARGES
-----------------------
   0 C :   -0.423526
   1 C :   -0.535230
   2 C :   -0.655278
   3 C :   -0.615118
   4 O :   -1.191520
   5 S :    0.980984
   6 H :    0.356009
   7 H :    0.244326
   8 H :    0.342818
   9 H :    0.250013
  10 H :    0.260595
  11 H :    0.361784
  12 H :    0.270052
  13 H :    0.354092
Sum of atomic charges:   -0.0000000

LOEWDIN ATOMIC CHARGES
----------------------
   0 C :    0.458660
   1 C :    0.469986
   2 C :    0.344379
   3 C :    0.376233
   4 O :    0.060644
   5 S :    0.730778
   6 H :   -0.261314
   7 H :   -0.276655
   8 H :   -0.263236
   9 H :   -0.280100
  10 H :   -0.333751
  11 H :   -0.334016
  12 H :   -0.360304
  13 H :   -0.331304

  Mayer bond orders larger than 0.100000
B(  0-C ,  1-C ) :   0.9673 B(  0-C ,  2-C ) :   1.0038 B(  0-C ,  6-H ) :   0.7917
B(  0-C ,  7-H ) :   0.9134 B(  1-C ,  3-C ) :   0.9960 B(  1-C ,  8-H ) :   0.8095
B(  1-C ,  9-H ) :   0.9221 B(  2-C ,  5-S ) :   0.9187 B(  2-C , 10-H ) :   0.9160
B(  2-C , 11-H ) :   0.8362 B(  3-C ,  5-S ) :   0.9085 B(  3-C , 12-H ) :   0.9135
B(  3-C , 13-H ) :   0.8657 B(  4-O ,  5-S ) :   1.1647

MP2 TOTAL ENERGY:     -629.798265665 Eh
FINAL SINGLE POINT ENERGY      -629.798265664672

DIPOLE MOMENT
-------------
                                X             Y             Z
Electronic contribution:     -6.80640       0.26167      -1.07293
Nuclear contribution   :      8.55308      -0.20993       0.23167
                        -----------------------------------------
Total Dipole Moment    :      1.74668       0.05175      -0.84126
                        -----------------------------------------
Magnitude (a.u.)       :      1.93941
Magnitude (Debye)      :      4.92958

Rotational constants in cm-1:     0.162981     0.088994     0.072386
Rotational constants in MHz :  4886.056560  2667.976522  2170.062834

                             ****ORCA TERMINATED NORMALLY****
TOTAL RUN TIME: 0 days 0 hours 32 minutes 49 seconds 886 msec
