                         Program Version 5.0.4 -  RELEASE  -
|  1> !ri-mp2 aug-cc-pvqz aug-cc-pvqz/c tightscf
|  2> %pal nprocs 16 end
|  3>
|  4> * xyz 0 1
|  5> C      0.085896    0.594059    0.000000
|  6> C     -0.294386   -0.910548    0.000000
|  7> O      0.812941   -1.659252    0.000000
|  8> O     -1.420191   -1.307503    0.000000
|  9> F     -1.007987    1.348927    0.000000
| 10> F      0.812941    0.893583    1.087792
| 11> F      0.812941    0.893583   -1.087792
| 12> H      0.547878   -2.591865    0.000000
| 13> *
| 14>
| 15>                          ****END OF INPUT****

CARTESIAN COORDINATES (ANGSTROEM)
---------------------------------
  C      0.085896    0.594059    0.000000
  C     -0.294386   -0.910548    0.000000
  O      0.812941   -1.659252    0.000000
  O     -1.420191   -1.307503    0.000000
  F     -1.007987    1.348927    0.000000
  F      0.812941    0.893583    1.087792
  F      0.812941    0.893583   -1.087792
  H      0.547878   -2.591865    0.000000

 Total Charge           Charge          ....    0
 Multiplicity           Mult            ....    1
 Number of Electrons    NEL             ....   56
 Basis Dimension        Dim             ....  606

ORBITAL ENERGIES
----------------

  NO   OCC          E(Eh)            E(eV)
   0   2.0000     -26.360963      -717.3183
   1   2.0000     -26.360943      -717.3177
   2   2.0000     -26.358756      -717.2582
   3   2.0000     -20.655731      -562.0710
   4   2.0000     -20.600675      -560.5729
   5   2.0000     -11.541858      -314.0699
   6   2.0000     -11.439258      -311.2780
   7   2.0000      -1.753159       -47.7059
   8   2.0000      -1.658443       -45.1285
   9   2.0000      -1.657701       -45.1083
  10   2.0000      -1.514127       -41.2015
  11   2.0000      -1.416826       -38.5538
  12   2.0000      -1.046543       -28.4779
  13   2.0000      -0.920373       -25.0446
  14   2.0000      -0.850541       -23.1444
  15   2.0000      -0.847573       -23.0636
  16   2.0000      -0.820020       -22.3139
  17   2.0000      -0.747161       -20.3313
  18   2.0000      -0.734999       -20.0003
  19   2.0000      -0.731372       -19.9016
  20   2.0000      -0.695478       -18.9249
  21   2.0000      -0.691201       -18.8085
  22   2.0000      -0.686401       -18.6779
  23   2.0000      -0.672159       -18.2904
  24   2.0000      -0.663744       -18.0614
  25   2.0000      -0.617910       -16.8142
  26   2.0000      -0.529928       -14.4201
  27   2.0000      -0.506105       -13.7718
  28   0.0000       0.020436         0.5561
  29   0.0000       0.052384         1.4255
  30   0.0000       0.064012         1.7419
  31   0.0000       0.065603         1.7851
  32   0.0000       0.083394         2.2693

MULLIKEN ATOMIC CHARGES
-----------------------
   0 C :    1.909001
   1 C :    0.628198
   2 O :   -0.542805
   3 O :   -0.608894
   4 F :   -0.600348
   5 F :   -0.559111
   6 F :   -0.559111
   7 H :    0.333070
Sum of atomic charges:   -0.0000000

LOEWDIN ATOMIC CHARGES
----------------------
   0 C :   -2.208914
   1 C :   -1.151815
   2 O :    1.228811
   3 O :    0.681310
   4 F :    0.756684
   5 F :    0.743884
   6 F :    0.743884
   7 H :   -0.793845

  Mayer bond orders larger than 0.100000
B(  0-C ,  1-C ) :   0.9691 B(  0-C ,  4-F ) :   0.5217 B(  0-C ,  5-F ) :   0.4956
B(  0-C ,  6-F ) :   0.4956 B(  1-C ,  2-O ) :   1.0068 B(  1-C ,  3-O ) :   1.7004
B(  2-O ,  7-H ) :   0.9043

MP2 TOTAL ENERGY:     -526.286757450 Eh
FINAL SINGLE POINT ENERGY      -526.286757449833

DIPOLE MOMENT
-------------
                                X             Y             Z
Electronic contribution:      0.53196       4.50710       0.00000
Nuclear contribution   :     -0.06634      -5.29062       0.00000
                        -----------------------------------------
Total Dipole Moment    :      0.46562      -0.78352       0.00000
                        -----------------------------------------
Magnitude (a.u.)       :      0.91143
Magnitude (Debye)      :      2.31668

Rotational constants in cm-1:     0.128193     0.082596     0.068617
Rotational constants in MHz :  3843.128777  2476.178764  2057.081273

                             ****ORCA TERMINATED NORMALLY****
TOTAL RUN TIME: 0 days 0 hours 8 minutes 44 seconds 206 msec
