                         Program Version 5.0.4 -  RELEASE  -
|  1> !ri-mp2 aug-cc-pvqz aug-cc-pvqz/c tightscf
|  2> %pal nprocs 16 end
|  3> %maxcore 3800
|  4>
|  5> * xyz 0 1
|  6> C      0.707742   -0.940168    1.191925
|  7> C      0.805573    0.571081    0.911672
|  8> C      0.286298   -1.294617   -0.248550
|  9> C      1.813009    0.594515   -0.256246
| 10> C     -0.630377    0.862567    0.409362
| 11> C     -0.961973   -0.400731   -0.457716
| 12> C      1.455724   -0.696655   -1.057146
| 13> H     -0.041153   -1.191218    1.943754
| 14> H      1.658013   -1.391146    1.482484
| 15> H      1.098896    1.197400    1.754117
| 16> H      0.105962   -2.349691   -0.452928
| 17> H      2.832978    0.547501    0.127018
| 18> C     -2.278499   -1.071176   -0.071401
| 19> H      2.300532   -1.386094   -1.086752
| 20> H     -1.280255    0.846643    1.290316
| 21> H      1.172461   -0.486382   -2.089154
| 22> C     -0.854203    2.196159   -0.296344
| 23> H      1.744295    1.498504   -0.859168
| 24> H     -1.027284   -0.113838   -1.511063
| 25> H     -3.112889   -0.370708   -0.150666
| 26> H     -2.254833   -1.436327    0.957417
| 27> H     -2.497120   -1.920640   -0.721600
| 28> H     -0.581866    3.037107    0.345146
| 29> H     -1.905142    2.317448   -0.566598
| 30> H     -0.272369    2.275590   -1.215659
| 31> *
| 32>
| 33>                          ****END OF INPUT****

CARTESIAN COORDINATES (ANGSTROEM)
---------------------------------
  C      0.707742   -0.940168    1.191925
  C      0.805573    0.571081    0.911672
  C      0.286298   -1.294617   -0.248550
  C      1.813009    0.594515   -0.256246
  C     -0.630377    0.862567    0.409362
  C     -0.961973   -0.400731   -0.457716
  C      1.455724   -0.696655   -1.057146
  H     -0.041153   -1.191218    1.943754
  H      1.658013   -1.391146    1.482484
  H      1.098896    1.197400    1.754117
  H      0.105962   -2.349691   -0.452928
  H      2.832978    0.547501    0.127018
  C     -2.278499   -1.071176   -0.071401
  H      2.300532   -1.386094   -1.086752
  H     -1.280255    0.846643    1.290316
  H      1.172461   -0.486382   -2.089154
  C     -0.854203    2.196159   -0.296344
  H      1.744295    1.498504   -0.859168
  H     -1.027284   -0.113838   -1.511063
  H     -3.112889   -0.370708   -0.150666
  H     -2.254833   -1.436327    0.957417
  H     -2.497120   -1.920640   -0.721600
  H     -0.581866    3.037107    0.345146
  H     -1.905142    2.317448   -0.566598
  H     -0.272369    2.275590   -1.215659

 Total Charge           Charge          ....    0
 Multiplicity           Mult            ....    1
 Number of Electrons    NEL             ....   70
 Basis Dimension        Dim             .... 1456

ORBITAL ENERGIES
----------------

  NO   OCC          E(Eh)            E(eV)
   0   2.0000     -11.215695      -305.1946
   1   2.0000     -11.214832      -305.1711
   2   2.0000     -11.214293      -305.1564
   3   2.0000     -11.213870      -305.1449
   4   2.0000     -11.209674      -305.0307
   5   2.0000     -11.208860      -305.0086
   6   2.0000     -11.207396      -304.9687
   7   2.0000     -11.206281      -304.9384
   8   2.0000     -11.206273      -304.9382
   9   2.0000      -1.163251       -31.6537
  10   2.0000      -1.034846       -28.1596
  11   2.0000      -1.006340       -27.3839
  12   2.0000      -0.954845       -25.9827
  13   2.0000      -0.929215       -25.2852
  14   2.0000      -0.863555       -23.4985
  15   2.0000      -0.795255       -21.6400
  16   2.0000      -0.749913       -20.4062
  17   2.0000      -0.715924       -19.4813
  18   2.0000      -0.668703       -18.1963
  19   2.0000      -0.640517       -17.4294
  20   2.0000      -0.615070       -16.7369
  21   2.0000      -0.573457       -15.6046
  22   2.0000      -0.565962       -15.4006
  23   2.0000      -0.547019       -14.8851
  24   2.0000      -0.546113       -14.8605
  25   2.0000      -0.521871       -14.2008
  26   2.0000      -0.504244       -13.7212
  27   2.0000      -0.489020       -13.3069
  28   2.0000      -0.484336       -13.1795
  29   2.0000      -0.472974       -12.8703
  30   2.0000      -0.452359       -12.3093
  31   2.0000      -0.449853       -12.2411
  32   2.0000      -0.424249       -11.5444
  33   2.0000      -0.419589       -11.4176
  34   2.0000      -0.409842       -11.1524
  35   0.0000       0.025381         0.6907
  36   0.0000       0.029705         0.8083
  37   0.0000       0.029933         0.8145
  38   0.0000       0.031228         0.8498
  39   0.0000       0.042251         1.1497

MULLIKEN ATOMIC CHARGES
-----------------------
   0 C :   -0.838476
   1 C :   -0.051843
   2 C :    0.008802
   3 C :   -0.707286
   4 C :    0.285819
   5 C :    0.450132
   6 C :   -0.736371
   7 H :    0.220313
   8 H :    0.220307
   9 H :    0.368154
  10 H :    0.367264
  11 H :    0.224477
  12 C :   -1.133512
  13 H :    0.195654
  14 H :    0.252359
  15 H :    0.222826
  16 C :   -1.084940
  17 H :    0.280516
  18 H :    0.353886
  19 H :    0.197042
  20 H :    0.154955
  21 H :    0.191636
  22 H :    0.180908
  23 H :    0.214734
  24 H :    0.162645
Sum of atomic charges:   -0.0000000

LOEWDIN ATOMIC CHARGES
----------------------
   0 C :    0.543869
   1 C :    0.165115
   2 C :    0.160065
   3 C :    0.565494
   4 C :    0.141212
   5 C :    0.140571
   6 C :    0.568866
   7 H :   -0.250507
   8 H :   -0.239307
   9 H :   -0.227301
  10 H :   -0.232439
  11 H :   -0.254127
  12 C :    0.952823
  13 H :   -0.253813
  14 H :   -0.280342
  15 H :   -0.258058
  16 C :    0.956333
  17 H :   -0.278658
  18 H :   -0.278864
  19 H :   -0.268779
  20 H :   -0.279496
  21 H :   -0.268596
  22 H :   -0.262687
  23 H :   -0.267880
  24 H :   -0.293495

  Mayer bond orders larger than 0.100000
B(  0-C ,  1-C ) :   1.0496 B(  0-C ,  2-C ) :   0.8416 B(  0-C ,  7-H ) :   1.0125
B(  0-C ,  8-H ) :   0.9885 B(  1-C ,  3-C ) :   0.7122 B(  1-C ,  4-C ) :   0.8529
B(  1-C ,  9-H ) :   0.8733 B(  2-C ,  3-C ) :  -0.1179 B(  2-C ,  5-C ) :   0.7729
B(  2-C ,  6-C ) :   0.7788 B(  2-C , 10-H ) :   0.8874 B(  3-C ,  6-C ) :   0.9962
B(  3-C , 11-H ) :   1.0162 B(  3-C , 17-H ) :   0.9816 B(  4-C ,  5-C ) :   0.5739
B(  4-C , 14-H ) :   1.0558 B(  4-C , 16-C ) :   0.3680 B(  4-C , 22-H ) :  -0.1613
B(  4-C , 23-H ) :  -0.2119 B(  5-C , 12-C ) :   0.2481 B(  5-C , 18-H ) :   0.9468
B(  5-C , 19-H ) :  -0.1937 B(  5-C , 20-H ) :  -0.1131 B(  5-C , 21-H ) :  -0.1765
B(  6-C , 13-H ) :   1.0581 B(  6-C , 15-H ) :   1.0225 B( 12-C , 19-H ) :   1.1612
B( 12-C , 20-H ) :   1.0977 B( 12-C , 21-H ) :   1.1397 B( 16-C , 22-H ) :   1.1593
B( 16-C , 23-H ) :   1.1525 B( 16-C , 24-H ) :   1.0653

MP2 TOTAL ENERGY:     -351.922051754 Eh
FINAL SINGLE POINT ENERGY      -351.922051754202

DIPOLE MOMENT
-------------
                                X             Y             Z
Electronic contribution:      2.18754      -1.13971       0.81716
Nuclear contribution   :     -2.17978       1.13673      -0.79723
                        -----------------------------------------
Total Dipole Moment    :      0.00776      -0.00298       0.01993
                        -----------------------------------------
Magnitude (a.u.)       :      0.02159
Magnitude (Debye)      :      0.05488

Rotational constants in cm-1:     0.070316     0.058689     0.043716
Rotational constants in MHz :  2108.023226  1759.438003  1310.560457

                             ****ORCA TERMINATED NORMALLY****
TOTAL RUN TIME: 0 days 2 hours 38 minutes 22 seconds 935 msec
