                         Program Version 5.0.4 -  RELEASE  -
|  1> !ri-mp2 aug-cc-pvqz aug-cc-pvqz/c tightscf
|  2> %pal nprocs 16 end
|  3>
|  4> * xyz 0 1
|  5> C      0.038452    0.035580    0.000000
|  6> C      0.922994   -1.233024    0.000000
|  7> O      0.496614   -2.344783    0.000000
|  8> Cl    -1.683707   -0.338809    0.000000
|  9> Cl     0.496614    0.961332    1.470611
| 10> Cl     0.496614    0.961332   -1.470611
| 11> H      1.996540   -0.982605    0.000000
| 12> *
| 13>
| 14>                          ****END OF INPUT****

CARTESIAN COORDINATES (ANGSTROEM)
---------------------------------
  C      0.038452    0.035580    0.000000
  C      0.922994   -1.233024    0.000000
  O      0.496614   -2.344783    0.000000
  Cl    -1.683707   -0.338809    0.000000
  Cl     0.496614    0.961332    1.470611
  Cl     0.496614    0.961332   -1.470611
  H      1.996540   -0.982605    0.000000

 Total Charge           Charge          ....    0
 Multiplicity           Mult            ....    1
 Number of Electrons    NEL             ....   72
 Basis Dimension        Dim             ....  538

ORBITAL ENERGIES
----------------

  NO   OCC          E(Eh)            E(eV)
   0   2.0000    -104.881016     -2853.9575
   1   2.0000    -104.881016     -2853.9575
   2   2.0000    -104.874186     -2853.7717
   3   2.0000     -20.604477      -560.6763
   4   2.0000     -11.456895      -311.7580
   5   2.0000     -11.382238      -309.7265
   6   2.0000     -10.606161      -288.6083
   7   2.0000     -10.606153      -288.6081
   8   2.0000     -10.599425      -288.4250
   9   2.0000      -8.073094      -219.6800
  10   2.0000      -8.073092      -219.6800
  11   2.0000      -8.071137      -219.6268
  12   2.0000      -8.071136      -219.6268
  13   2.0000      -8.071132      -219.6267
  14   2.0000      -8.071131      -219.6267
  15   2.0000      -8.066457      -219.4995
  16   2.0000      -8.064413      -219.4438
  17   2.0000      -8.064359      -219.4424
  18   2.0000      -1.449577       -39.4450
  19   2.0000      -1.253847       -34.1189
  20   2.0000      -1.127333       -30.6763
  21   2.0000      -1.126224       -30.6461
  22   2.0000      -0.960889       -26.1471
  23   2.0000      -0.807693       -21.9785
  24   2.0000      -0.717194       -19.5158
  25   2.0000      -0.693064       -18.8592
  26   2.0000      -0.652106       -17.7447
  27   2.0000      -0.624188       -16.9850
  28   2.0000      -0.567144       -15.4328
  29   2.0000      -0.523412       -14.2428
  30   2.0000      -0.514080       -13.9888
  31   2.0000      -0.511676       -13.9234
  32   2.0000      -0.479153       -13.0384
  33   2.0000      -0.477319       -12.9885
  34   2.0000      -0.464381       -12.6364
  35   2.0000      -0.454995       -12.3810
  36   0.0000       0.028623         0.7789
  37   0.0000       0.049157         1.3376
  38   0.0000       0.050636         1.3779
  39   0.0000       0.056882         1.5479
  40   0.0000       0.076069         2.0699

MULLIKEN ATOMIC CHARGES
-----------------------
   0 C :    0.352344
   1 C :    0.329565
   2 O :   -0.645398
   3 Cl:   -0.135452
   4 Cl:   -0.191491
   5 Cl:   -0.191491
   6 H :    0.481923
Sum of atomic charges:   -0.0000000

LOEWDIN ATOMIC CHARGES
----------------------
   0 C :   -2.527325
   1 C :   -0.692951
   2 O :    0.664451
   3 Cl:    1.014093
   4 Cl:    0.987233
   5 Cl:    0.987233
   6 H :   -0.432734

  Mayer bond orders larger than 0.100000
B(  0-C ,  1-C ) :   0.8879 B(  0-C ,  3-Cl) :   0.8933 B(  0-C ,  4-Cl) :   0.8544
B(  0-C ,  5-Cl) :   0.8544 B(  1-C ,  2-O ) :   1.7379 B(  1-C ,  6-H ) :   0.7250

MP2 TOTAL ENERGY:    -1531.001700863 Eh
FINAL SINGLE POINT ENERGY     -1531.001700862568

DIPOLE MOMENT
-------------
                                X             Y             Z
Electronic contribution:     -2.25575       3.55761      -0.00000
Nuclear contribution   :      2.74520      -3.01430       0.00000
                        -----------------------------------------
Total Dipole Moment    :      0.48945       0.54331      -0.00000
                        -----------------------------------------
Magnitude (a.u.)       :      0.73126
Magnitude (Debye)      :      1.85873

Rotational constants in cm-1:     0.059911     0.053878     0.049845
Rotational constants in MHz :  1796.080718  1615.231745  1494.317491

                             ****ORCA TERMINATED NORMALLY****
TOTAL RUN TIME: 0 days 0 hours 8 minutes 54 seconds 148 msec
