                         Program Version 5.0.4 -  RELEASE  -
|  1> !ri-mp2 aug-cc-pvqz aug-cc-pvqz/c tightscf
|  2> %pal nprocs 16 end
|  3>
|  4> * xyz 0 1
|  5> C     0.135333     0.760964    0.664678
|  6> C    -0.135333    -0.760964    0.664678
|  7> C    -0.135333    -0.760964   -0.664678
|  8> C     0.135333     0.760964   -0.664678
|  9> F    -0.135333     1.670444    1.579297
| 10> F     0.135333    -1.670444    1.579297
| 11> F     0.135333    -1.670444   -1.579297
| 12> F    -0.135333     1.670444   -1.579297
| 13> *
| 14>
| 15>                          ****END OF INPUT****

CARTESIAN COORDINATES (ANGSTROEM)
---------------------------------
  C      0.135333    0.760964    0.664678
  C     -0.135333   -0.760964    0.664678
  C     -0.135333   -0.760964   -0.664678
  C      0.135333    0.760964   -0.664678
  F     -0.135333    1.670444    1.579297
  F      0.135333   -1.670444    1.579297
  F      0.135333   -1.670444   -1.579297
  F     -0.135333    1.670444   -1.579297

 Total Charge           Charge          ....    0
 Multiplicity           Mult            ....    1
 Number of Electrons    NEL             ....   60
 Basis Dimension        Dim             ....  640

ORBITAL ENERGIES
----------------

  NO   OCC          E(Eh)            E(eV)
   0   2.0000     -26.361198      -717.3247
   1   2.0000     -26.361198      -717.3247
   2   2.0000     -26.361198      -717.3247
   3   2.0000     -26.361197      -717.3246
   4   2.0000     -11.384574      -309.7900
   5   2.0000     -11.384053      -309.7758
   6   2.0000     -11.382831      -309.7426
   7   2.0000     -11.382326      -309.7288
   8   2.0000      -1.687238       -45.9121
   9   2.0000      -1.682359       -45.7793
  10   2.0000      -1.679700       -45.7070
  11   2.0000      -1.676191       -45.6115
  12   2.0000      -1.248201       -33.9653
  13   2.0000      -0.988910       -26.9096
  14   2.0000      -0.918684       -24.9987
  15   2.0000      -0.848272       -23.0827
  16   2.0000      -0.837075       -22.7780
  17   2.0000      -0.804354       -21.8876
  18   2.0000      -0.780517       -21.2390
  19   2.0000      -0.766284       -20.8517
  20   2.0000      -0.751637       -20.4531
  21   2.0000      -0.742849       -20.2139
  22   2.0000      -0.733615       -19.9627
  23   2.0000      -0.727917       -19.8076
  24   2.0000      -0.723403       -19.6848
  25   2.0000      -0.694155       -18.8889
  26   2.0000      -0.607820       -16.5396
  27   2.0000      -0.547725       -14.9043
  28   2.0000      -0.502842       -13.6830
  29   2.0000      -0.333893        -9.0857
  30   0.0000       0.039540         1.0759
  31   0.0000       0.044116         1.2005
  32   0.0000       0.046698         1.2707
  33   0.0000       0.048005         1.3063
  34   0.0000       0.066012         1.7963

MULLIKEN ATOMIC CHARGES
-----------------------
   0 C :    0.599382
   1 C :    0.599382
   2 C :    0.599382
   3 C :    0.599382
   4 F :   -0.599382
   5 F :   -0.599382
   6 F :   -0.599382
   7 F :   -0.599382
Sum of atomic charges:   -0.0000000

LOEWDIN ATOMIC CHARGES
----------------------
   0 C :   -0.749548
   1 C :   -0.749548
   2 C :   -0.749548
   3 C :   -0.749548
   4 F :    0.749548
   5 F :    0.749548
   6 F :    0.749548
   7 F :    0.749548

  Mayer bond orders larger than 0.100000
B(  0-C ,  1-C ) :   1.1366 B(  0-C ,  2-C ) :  -0.1203 B(  0-C ,  3-C ) :   1.8761
B(  0-C ,  4-F ) :   0.3480 B(  0-C ,  7-F ) :   0.1387 B(  1-C ,  2-C ) :   1.8761
B(  1-C ,  3-C ) :  -0.1203 B(  1-C ,  5-F ) :   0.3480 B(  1-C ,  6-F ) :   0.1387
B(  2-C ,  3-C ) :   1.1366 B(  2-C ,  5-F ) :   0.1387 B(  2-C ,  6-F ) :   0.3480
B(  3-C ,  4-F ) :   0.1387 B(  3-C ,  7-F ) :   0.3480

MP2 TOTAL ENERGY:     -551.014318716 Eh
FINAL SINGLE POINT ENERGY      -551.014318716355

DIPOLE MOMENT
-------------
                                X             Y             Z
Electronic contribution:     -0.00000      -0.00000       0.00000
Nuclear contribution   :      0.00000       0.00000       0.00000
                        -----------------------------------------
Total Dipole Moment    :     -0.00000      -0.00000       0.00000
                        -----------------------------------------
Magnitude (a.u.)       :      0.00000
Magnitude (Debye)      :      0.00000

Rotational constants in cm-1:     0.079365     0.069620     0.037357
Rotational constants in MHz :  2379.297200  2087.144627  1119.932655

                             ****ORCA TERMINATED NORMALLY****
TOTAL RUN TIME: 0 days 0 hours 10 minutes 0 seconds 239 msec
