                         Program Version 5.0.4 -  RELEASE  -
|  1> !ri-mp2 aug-cc-pvqz aug-cc-pvqz/c tightscf
|  2> %pal nprocs 16 end
|  3>
|  4> * xyz 0 1
|  5> C      0.000000    0.000000    2.819994
|  6> C      0.000000    0.000000   -2.819994
|  7> C      0.000000    1.212111    0.691573
|  8> C      0.000000    1.212111   -0.691573
|  9> C      0.000000   -1.212111    0.691573
| 10> C      0.000000   -1.212111   -0.691573
| 11> C      0.000000    0.000000    1.390135
| 12> C      0.000000    0.000000   -1.390135
| 13> N      0.000000    0.000000    3.971955
| 14> N      0.000000    0.000000   -3.971955
| 15> H      0.000000    2.144546    1.236677
| 16> H      0.000000    2.144546   -1.236677
| 17> H      0.000000   -2.144546    1.236677
| 18> H      0.000000   -2.144546   -1.236677
| 19> *
| 20>
| 21>                          ****END OF INPUT****

CARTESIAN COORDINATES (ANGSTROEM)
---------------------------------
  C      0.000000    0.000000    2.819994
  C      0.000000    0.000000   -2.819994
  C      0.000000    1.212111    0.691573
  C      0.000000    1.212111   -0.691573
  C      0.000000   -1.212111    0.691573
  C      0.000000   -1.212111   -0.691573
  C      0.000000    0.000000    1.390135
  C      0.000000    0.000000   -1.390135
  N      0.000000    0.000000    3.971955
  N      0.000000    0.000000   -3.971955
  H      0.000000    2.144546    1.236677
  H      0.000000    2.144546   -1.236677
  H      0.000000   -2.144546    1.236677
  H      0.000000   -2.144546   -1.236677

 Total Charge           Charge          ....    0
 Multiplicity           Mult            ....    1
 Number of Electrons    NEL             ....   66
 Basis Dimension        Dim             ....  984

ORBITAL ENERGIES
----------------

  NO   OCC          E(Eh)            E(eV)
   0   2.0000     -15.592190      -424.2851
   1   2.0000     -15.592190      -424.2851
   2   2.0000     -11.319663      -308.0237
   3   2.0000     -11.319644      -308.0232
   4   2.0000     -11.295469      -307.3653
   5   2.0000     -11.295409      -307.3637
   6   2.0000     -11.294154      -307.3295
   7   2.0000     -11.294136      -307.3291
   8   2.0000     -11.293998      -307.3253
   9   2.0000     -11.293994      -307.3252
  10   2.0000      -1.251811       -34.0635
  11   2.0000      -1.244099       -33.8537
  12   2.0000      -1.211612       -32.9696
  13   2.0000      -1.105949       -30.0944
  14   2.0000      -1.079095       -29.3637
  15   2.0000      -0.946230       -25.7482
  16   2.0000      -0.892761       -24.2933
  17   2.0000      -0.795838       -21.6559
  18   2.0000      -0.786751       -21.4086
  19   2.0000      -0.701840       -19.0980
  20   2.0000      -0.669859       -18.2278
  21   2.0000      -0.647846       -17.6288
  22   2.0000      -0.614952       -16.7337
  23   2.0000      -0.591081       -16.0841
  24   2.0000      -0.579147       -15.7594
  25   2.0000      -0.567198       -15.4342
  26   2.0000      -0.564358       -15.3570
  27   2.0000      -0.535761       -14.5788
  28   2.0000      -0.489824       -13.3288
  29   2.0000      -0.489298       -13.3145
  30   2.0000      -0.484363       -13.1802
  31   2.0000      -0.394871       -10.7450
  32   2.0000      -0.378622       -10.3028
  33   0.0000       0.018132         0.4934
  34   0.0000       0.020992         0.5712
  35   0.0000       0.022658         0.6165
  36   0.0000       0.034918         0.9502
  37   0.0000       0.041726         1.1354

MULLIKEN ATOMIC CHARGES
-----------------------
   0 C :    0.536715
   1 C :    0.536940
   2 C :   -0.184457
   3 C :   -0.184391
   4 C :   -0.184434
   5 C :   -0.184367
   6 C :   -0.021889
   7 C :   -0.022125
   8 N :   -0.787728
   9 N :   -0.787787
  10 H :    0.320902
  11 H :    0.320832
  12 H :    0.320906
  13 H :    0.320883
Sum of atomic charges:   -0.0000000

LOEWDIN ATOMIC CHARGES
----------------------
   0 C :   -0.305336
   1 C :   -0.305336
   2 C :    0.343014
   3 C :    0.343014
   4 C :    0.343014
   5 C :    0.343014
   6 C :   -0.189486
   7 C :   -0.189486
   8 N :    0.425653
   9 N :    0.425652
  10 H :   -0.308429
  11 H :   -0.308429
  12 H :   -0.308429
  13 H :   -0.308429

  Mayer bond orders larger than 0.100000
B(  0-C ,  2-C ) :  -0.3438 B(  0-C ,  4-C ) :  -0.3438 B(  0-C ,  6-C ) :   1.4435
B(  0-C ,  8-N ) :   2.2509 B(  1-C ,  3-C ) :  -0.3438 B(  1-C ,  5-C ) :  -0.3438
B(  1-C ,  7-C ) :   1.4435 B(  1-C ,  9-N ) :   2.2506 B(  2-C ,  3-C ) :   1.2330
B(  2-C ,  6-C ) :   1.1004 B(  2-C ,  7-C ) :  -0.2150 B(  2-C , 10-H ) :   0.9497
B(  2-C , 11-H ) :  -0.1088 B(  3-C ,  6-C ) :  -0.2150 B(  3-C ,  7-C ) :   1.1004
B(  3-C , 10-H ) :  -0.1088 B(  3-C , 11-H ) :   0.9498 B(  4-C ,  5-C ) :   1.2330
B(  4-C ,  6-C ) :   1.1005 B(  4-C ,  7-C ) :  -0.2150 B(  4-C , 12-H ) :   0.9497
B(  4-C , 13-H ) :  -0.1088 B(  5-C ,  6-C ) :  -0.2150 B(  5-C ,  7-C ) :   1.1004
B(  5-C , 12-H ) :  -0.1088 B(  5-C , 13-H ) :   0.9497 B(  6-C ,  7-C ) :   0.1085

MP2 TOTAL ENERGY:     -416.032803271 Eh
FINAL SINGLE POINT ENERGY      -416.032803271316

DIPOLE MOMENT
-------------
                                X             Y             Z
Electronic contribution:     -0.00000       0.00000       0.00000
Nuclear contribution   :      0.00000       0.00000       0.00000
                        -----------------------------------------
Total Dipole Moment    :     -0.00000       0.00000       0.00000
                        -----------------------------------------
Magnitude (a.u.)       :      0.00000
Magnitude (Debye)      :      0.00000

Rotational constants in cm-1:     0.189135     0.023791     0.021133
Rotational constants in MHz :  5670.116393   713.249626   633.554207

                             ****ORCA TERMINATED NORMALLY****
TOTAL RUN TIME: 0 days 0 hours 41 minutes 7 seconds 637 msec
