                         Program Version 5.0.4 -  RELEASE  -
|  1> !ri-mp2 aug-cc-pvqz aug-cc-pvqz/c tightscf
|  2> %pal nprocs 16 end
|  3>
|  4> * xyz 0 1
|  5> S     -0.904941   -0.785080   -0.000054
|  6> O      2.696807    0.929615    0.000054
|  7> O      1.923496   -1.150439   -0.000102
|  8> N     -3.304099    0.760189    0.000086
|  9> C      0.294332    0.611111    0.000040
| 10> C      1.693547    0.022896   -0.000011
| 11> C     -2.320544    0.152967    0.000030
| 12> H      0.138262    1.224382    0.886861
| 13> H      0.138251    1.224511   -0.886690
| 14> H      2.364788    1.835806    0.000127
| 15> *
| 16>
| 17>                          ****END OF INPUT****

CARTESIAN COORDINATES (ANGSTROEM)
---------------------------------
  S     -0.904941   -0.785080   -0.000054
  O      2.696807    0.929615    0.000054
  O      1.923496   -1.150439   -0.000102
  N     -3.304099    0.760189    0.000086
  C      0.294332    0.611111    0.000040
  C      1.693547    0.022896   -0.000011
  C     -2.320544    0.152967    0.000030
  H      0.138262    1.224382    0.886861
  H      0.138251    1.224511   -0.886690
  H      2.364788    1.835806    0.000127

 Total Charge           Charge          ....    0
 Multiplicity           Mult            ....    1
 Number of Electrons    NEL             ....   60
 Basis Dimension        Dim             ....  702

ORBITAL ENERGIES
----------------

  NO   OCC          E(Eh)            E(eV)
   0   2.0000     -92.034039     -2504.3735
   1   2.0000     -20.646068      -561.8081
   2   2.0000     -20.581297      -560.0456
   3   2.0000     -15.592399      -424.2907
   4   2.0000     -11.426924      -310.9424
   5   2.0000     -11.332213      -308.3652
   6   2.0000     -11.305973      -307.6512
   7   2.0000      -9.034044      -245.8288
   8   2.0000      -6.715546      -182.7393
   9   2.0000      -6.714126      -182.7006
  10   2.0000      -6.713104      -182.6728
  11   2.0000      -1.497384       -40.7459
  12   2.0000      -1.404165       -38.2093
  13   2.0000      -1.241834       -33.7920
  14   2.0000      -1.126292       -30.6480
  15   2.0000      -0.996028       -27.1033
  16   2.0000      -0.865927       -23.5631
  17   2.0000      -0.763279       -20.7699
  18   2.0000      -0.711767       -19.3682
  19   2.0000      -0.703698       -19.1486
  20   2.0000      -0.684440       -18.6246
  21   2.0000      -0.625217       -17.0130
  22   2.0000      -0.613852       -16.7038
  23   2.0000      -0.575326       -15.6554
  24   2.0000      -0.552186       -15.0258
  25   2.0000      -0.532137       -14.4802
  26   2.0000      -0.516897       -14.0655
  27   2.0000      -0.496185       -13.5019
  28   2.0000      -0.468262       -12.7421
  29   2.0000      -0.399490       -10.8707
  30   0.0000       0.009442         0.2569
  31   0.0000       0.030645         0.8339
  32   0.0000       0.036658         0.9975
  33   0.0000       0.046961         1.2779
  34   0.0000       0.056017         1.5243

MULLIKEN ATOMIC CHARGES
-----------------------
   0 S :    0.583784
   1 O :   -0.720531
   2 O :   -0.707042
   3 N :   -0.532774
   4 C :   -0.519202
   5 C :    1.120344
   6 C :   -0.183562
   7 H :    0.291837
   8 H :    0.291838
   9 H :    0.375308
Sum of atomic charges:   -0.0000000

LOEWDIN ATOMIC CHARGES
----------------------
   0 S :    1.210696
   1 O :    1.249121
   2 O :    0.663045
   3 N :    0.274025
   4 C :    0.090107
   5 C :   -1.113930
   6 C :   -0.853951
   7 H :   -0.359079
   8 H :   -0.359079
   9 H :   -0.800956

  Mayer bond orders larger than 0.100000
B(  0-S ,  4-C ) :   0.8300 B(  0-S ,  6-C ) :   0.9295 B(  1-O ,  5-C ) :   0.8035
B(  1-O ,  9-H ) :   0.8400 B(  2-O ,  4-C ) :   0.1089 B(  2-O ,  5-C ) :   1.5137
B(  3-N ,  6-C ) :   2.5727 B(  4-C ,  5-C ) :   1.0447 B(  4-C ,  6-C ) :  -0.1216
B(  4-C ,  7-H ) :   0.8749 B(  4-C ,  8-H ) :   0.8749

MP2 TOTAL ENERGY:     -718.610007046 Eh
FINAL SINGLE POINT ENERGY      -718.610007045814

DIPOLE MOMENT
-------------
                                X             Y             Z
Electronic contribution:     -1.82683      -2.88397      -0.00020
Nuclear contribution   :      2.61951       4.14661       0.00029
                        -----------------------------------------
Total Dipole Moment    :      0.79267       1.26264       0.00009
                        -----------------------------------------
Magnitude (a.u.)       :      1.49084
Magnitude (Debye)      :      3.78940

Rotational constants in cm-1:     0.223519     0.036477     0.031545
Rotational constants in MHz :  6700.931449  1093.553838   945.707939

                             ****ORCA TERMINATED NORMALLY****
TOTAL RUN TIME: 0 days 0 hours 11 minutes 31 seconds 595 msec
