                         Program Version 5.0.4 -  RELEASE  -
|  1> !ri-mp2 aug-cc-pvqz aug-cc-pvqz/c tightscf
|  2> %pal nprocs 16 end
|  3>
|  4> * xyz 0 1
|  5> C      1.612095   -0.729797    0.125254
|  6> C      1.612095    0.729797    0.125254
|  7> C      0.390198   -1.266356    0.004379
|  8> C      0.390198    1.266356    0.004379
|  9> O     -2.034840    0.000000    0.503621
| 10> S     -0.812350    0.000000   -0.367403
| 11> H      2.522887   -1.308036    0.196077
| 12> H      2.522887    1.308036    0.196077
| 13> H      0.101515   -2.302731   -0.049137
| 14> H      0.101515    2.302731   -0.049137
| 15> *
| 16>
| 17>                          ****END OF INPUT****

CARTESIAN COORDINATES (ANGSTROEM)
---------------------------------
  C      1.612095   -0.729797    0.125254
  C      1.612095    0.729797    0.125254
  C      0.390198   -1.266356    0.004379
  C      0.390198    1.266356    0.004379
  O     -2.034840    0.000000    0.503621
  S     -0.812350    0.000000   -0.367403
  H      2.522887   -1.308036    0.196077
  H      2.522887    1.308036    0.196077
  H      0.101515   -2.302731   -0.049137
  H      0.101515    2.302731   -0.049137

 Total Charge           Charge          ....    0
 Multiplicity           Mult            ....    1
 Number of Electrons    NEL             ....   52
 Basis Dimension        Dim             ....  668

ORBITAL ENERGIES
----------------

  NO   OCC          E(Eh)            E(eV)
   0   2.0000     -92.079609     -2505.6136
   1   2.0000     -20.516704      -558.2879
   2   2.0000     -11.279531      -306.9317
   3   2.0000     -11.279273      -306.9246
   4   2.0000     -11.277873      -306.8865
   5   2.0000     -11.277313      -306.8713
   6   2.0000      -9.066250      -246.7052
   7   2.0000      -6.748587      -183.6384
   8   2.0000      -6.748531      -183.6369
   9   2.0000      -6.747146      -183.5992
  10   2.0000      -1.340951       -36.4891
  11   2.0000      -1.178121       -32.0583
  12   2.0000      -1.020525       -27.7699
  13   2.0000      -0.969781       -26.3891
  14   2.0000      -0.791979       -21.5508
  15   2.0000      -0.778182       -21.1754
  16   2.0000      -0.723744       -19.6941
  17   2.0000      -0.614676       -16.7262
  18   2.0000      -0.599328       -16.3086
  19   2.0000      -0.583886       -15.8883
  20   2.0000      -0.579490       -15.7687
  21   2.0000      -0.565060       -15.3761
  22   2.0000      -0.476868       -12.9762
  23   2.0000      -0.438738       -11.9387
  24   2.0000      -0.369296       -10.0491
  25   2.0000      -0.360668        -9.8143
  26   0.0000       0.018393         0.5005
  27   0.0000       0.026563         0.7228
  28   0.0000       0.032971         0.8972
  29   0.0000       0.042274         1.1503
  30   0.0000       0.045702         1.2436

MULLIKEN ATOMIC CHARGES
-----------------------
   0 C :   -0.338084
   1 C :   -0.338084
   2 C :   -0.608673
   3 C :   -0.608673
   4 O :   -1.119681
   5 S :    1.272791
   6 H :    0.425441
   7 H :    0.425441
   8 H :    0.444762
   9 H :    0.444762
Sum of atomic charges:   -0.0000000

LOEWDIN ATOMIC CHARGES
----------------------
   0 C :    0.233428
   1 C :    0.233428
   2 C :    0.141305
   3 C :    0.141305
   4 O :    0.036779
   5 S :    0.615649
   6 H :   -0.323420
   7 H :   -0.323420
   8 H :   -0.377527
   9 H :   -0.377527

  Mayer bond orders larger than 0.100000
B(  0-C ,  1-C ) :   0.9425 B(  0-C ,  2-C ) :   1.5651 B(  0-C ,  6-H ) :   0.8648
B(  1-C ,  3-C ) :   1.5651 B(  1-C ,  7-H ) :   0.8648 B(  2-C ,  5-S ) :   1.0145
B(  2-C ,  8-H ) :   0.8212 B(  3-C ,  5-S ) :   1.0145 B(  3-C ,  9-H ) :   0.8212
B(  4-O ,  5-S ) :   1.2798

MP2 TOTAL ENERGY:     -627.347718981 Eh
FINAL SINGLE POINT ENERGY      -627.347718980543

DIPOLE MOMENT
-------------
                                X             Y             Z
Electronic contribution:     -3.14604       0.00000      -0.75685
Nuclear contribution   :      5.11222       0.00000       0.30542
                        -----------------------------------------
Total Dipole Moment    :      1.96618       0.00000      -0.45144
                        -----------------------------------------
Magnitude (a.u.)       :      2.01734
Magnitude (Debye)      :      5.12768

Rotational constants in cm-1:     0.226902     0.096376     0.072809
Rotational constants in MHz :  6802.346580  2889.292111  2182.755058

                             ****ORCA TERMINATED NORMALLY****
TOTAL RUN TIME: 0 days 0 hours 16 minutes 33 seconds 778 msec
