                         Program Version 5.0.4 -  RELEASE  -
|  1> !ri-mp2 aug-cc-pvqz aug-cc-pvqz/c tightscf
|  2> %pal nprocs 16 end
|  3>
|  4> * xyz 0 1
|  5> C     -1.390811    0.856682   -1.268373
|  6> C     -1.015837    0.089879   -0.000005
|  7> C     -1.643181   -1.309663   -0.000111
|  8> C     -1.390836    0.856501    1.268466
|  9> S      0.822500   -0.225263   -0.000009
| 10> C      1.634089    1.387915    0.000134
| 11> O      1.168494   -0.878127    1.262513
| 12> O      1.168524   -0.877920   -1.262630
| 13> H     -1.046643    0.337279   -2.160653
| 14> H     -2.477629    0.942211   -1.319652
| 15> H     -0.985355    1.868581   -1.272654
| 16> H     -1.352891   -1.874065    0.884264
| 17> H     -2.728961   -1.202794   -0.000121
| 18> H     -1.352864   -1.873940   -0.884557
| 19> H     -0.985387    1.868403    1.272894
| 20> H     -2.477655    0.942016    1.319740
| 21> H     -1.046678    0.336974    2.160677
| 22> H      2.695942    1.152116    0.000133
| 23> H      1.370739    1.934035   -0.900315
| 24> H      1.370708    1.933886    0.900664
| 25> *
| 26>
| 27>                          ****END OF INPUT****

CARTESIAN COORDINATES (ANGSTROEM)
---------------------------------
  C     -1.390811    0.856682   -1.268373
  C     -1.015837    0.089879   -0.000005
  C     -1.643181   -1.309663   -0.000111
  C     -1.390836    0.856501    1.268466
  S      0.822500   -0.225263   -0.000009
  C      1.634089    1.387915    0.000134
  O      1.168494   -0.878127    1.262513
  O      1.168524   -0.877920   -1.262630
  H     -1.046643    0.337279   -2.160653
  H     -2.477629    0.942211   -1.319652
  H     -0.985355    1.868581   -1.272654
  H     -1.352891   -1.874065    0.884264
  H     -2.728961   -1.202794   -0.000121
  H     -1.352864   -1.873940   -0.884557
  H     -0.985387    1.868403    1.272894
  H     -2.477655    0.942016    1.319740
  H     -1.046678    0.336974    2.160677
  H      2.695942    1.152116    0.000133
  H      1.370739    1.934035   -0.900315
  H      1.370708    1.933886    0.900664

 Total Charge           Charge          ....    0
 Multiplicity           Mult            ....    1
 Number of Electrons    NEL             ....   74
 Basis Dimension        Dim             .... 1196

ORBITAL ENERGIES
----------------

  NO   OCC          E(Eh)            E(eV)
   0   2.0000     -92.159858     -2507.7972
   1   2.0000     -20.532347      -558.7136
   2   2.0000     -20.532327      -558.7130
   3   2.0000     -11.290975      -307.2430
   4   2.0000     -11.271691      -306.7183
   5   2.0000     -11.239368      -305.8387
   6   2.0000     -11.239352      -305.8383
   7   2.0000     -11.230462      -305.5964
   8   2.0000      -9.130648      -248.4576
   9   2.0000      -6.815715      -185.4650
  10   2.0000      -6.815043      -185.4467
  11   2.0000      -6.814770      -185.4393
  12   2.0000      -1.430071       -38.9142
  13   2.0000      -1.319962       -35.9180
  14   2.0000      -1.128903       -30.7190
  15   2.0000      -1.032151       -28.0863
  16   2.0000      -0.963869       -26.2282
  17   2.0000      -0.957088       -26.0437
  18   2.0000      -0.870255       -23.6808
  19   2.0000      -0.752219       -20.4689
  20   2.0000      -0.690617       -18.7926
  21   2.0000      -0.656536       -17.8653
  22   2.0000      -0.647618       -17.6226
  23   2.0000      -0.629136       -17.1197
  24   2.0000      -0.628194       -17.0940
  25   2.0000      -0.601362       -16.3639
  26   2.0000      -0.593441       -16.1484
  27   2.0000      -0.566063       -15.4034
  28   2.0000      -0.564857       -15.3705
  29   2.0000      -0.551089       -14.9959
  30   2.0000      -0.540660       -14.7121
  31   2.0000      -0.500652       -13.6234
  32   2.0000      -0.500419       -13.6171
  33   2.0000      -0.485227       -13.2037
  34   2.0000      -0.478036       -13.0080
  35   2.0000      -0.458748       -12.4832
  36   2.0000      -0.414663       -11.2836
  37   0.0000       0.018951         0.5157
  38   0.0000       0.026325         0.7163
  39   0.0000       0.030325         0.8252
  40   0.0000       0.034750         0.9456
  41   0.0000       0.044983         1.2241

MULLIKEN ATOMIC CHARGES
-----------------------
   0 C :   -1.194347
   1 C :    1.433160
   2 C :   -1.199194
   3 C :   -1.194306
   4 S :    2.508433
   5 C :   -0.960097
   6 O :   -1.422932
   7 O :   -1.422935
   8 H :    0.274483
   9 H :    0.285920
  10 H :    0.229869
  11 H :    0.268588
  12 H :    0.283319
  13 H :    0.268598
  14 H :    0.229856
  15 H :    0.285924
  16 H :    0.274486
  17 H :    0.394274
  18 H :    0.328450
  19 H :    0.328450
Sum of atomic charges:   -0.0000000

LOEWDIN ATOMIC CHARGES
----------------------
   0 C :    0.873136
   1 C :   -0.384135
   2 C :    0.864177
   3 C :    0.873136
   4 S :   -0.174264
   5 C :    0.844123
   6 O :    0.322495
   7 O :    0.322495
   8 H :   -0.290235
   9 H :   -0.269219
  10 H :   -0.290387
  11 H :   -0.287514
  12 H :   -0.272801
  13 H :   -0.287515
  14 H :   -0.290387
  15 H :   -0.269219
  16 H :   -0.290235
  17 H :   -0.331733
  18 H :   -0.330957
  19 H :   -0.330960

  Mayer bond orders larger than 0.100000
B(  0-C ,  1-C ) :   0.4365 B(  0-C ,  2-C ) :   0.1327 B(  0-C ,  3-C ) :   0.1057
B(  0-C ,  7-O ) :   0.1370 B(  0-C ,  8-H ) :   1.0261 B(  0-C ,  9-H ) :   0.9712
B(  0-C , 10-H ) :   1.0451 B(  1-C ,  2-C ) :   0.2325 B(  1-C ,  3-C ) :   0.4365
B(  1-C ,  4-S ) :   0.8627 B(  1-C ,  6-O ) :  -0.2393 B(  1-C ,  7-O ) :  -0.2393
B(  1-C , 10-H ) :  -0.1240 B(  1-C , 11-H ) :  -0.1305 B(  1-C , 13-H ) :  -0.1305
B(  1-C , 14-H ) :  -0.1240 B(  2-C ,  3-C ) :   0.1327 B(  2-C ,  4-S ) :   0.1066
B(  2-C , 11-H ) :   1.0370 B(  2-C , 12-H ) :   0.9747 B(  2-C , 13-H ) :   1.0370
B(  3-C ,  6-O ) :   0.1370 B(  3-C , 14-H ) :   1.0451 B(  3-C , 15-H ) :   0.9712
B(  3-C , 16-H ) :   1.0260 B(  4-S ,  5-C ) :   0.8660 B(  4-S ,  6-O ) :   0.7441
B(  4-S ,  7-O ) :   0.7441 B(  5-C , 17-H ) :   0.8333 B(  5-C , 18-H ) :   0.9029
B(  5-C , 19-H ) :   0.9029

MP2 TOTAL ENERGY:     -745.406849641 Eh
FINAL SINGLE POINT ENERGY      -745.406849641206

DIPOLE MOMENT
-------------
                                X             Y             Z
Electronic contribution:      8.03910      -4.75504      -0.00030
Nuclear contribution   :     -9.18824       6.47291       0.00043
                        -----------------------------------------
Total Dipole Moment    :     -1.14914       1.71787       0.00013
                        -----------------------------------------
Magnitude (a.u.)       :      2.06679
Magnitude (Debye)      :      5.25336

Rotational constants in cm-1:     0.075753     0.050093     0.049444
Rotational constants in MHz :  2271.004152  1501.765274  1482.284159

                             ****ORCA TERMINATED NORMALLY****
TOTAL RUN TIME: 0 days 1 hours 27 minutes 12 seconds 215 msec
