                         Program Version 5.0.4 -  RELEASE  -
|  1> !ri-mp2 aug-cc-pvqz aug-cc-pvqz/c tightscf
|  2> %pal nprocs 16 end
|  3>
|  4> * xyz 0 1
|  5> S      2.050341    0.742508   -0.499891
|  6> S     -2.050342   -0.742503   -0.499907
|  7> N      3.923970   -0.715598    1.081612
|  8> N     -3.923966    0.715581    1.081626
|  9> C      0.603325   -0.276815   -0.332055
| 10> C     -0.603328    0.276827   -0.332072
| 11> C      3.140682   -0.141456    0.456341
| 12> C     -3.140681    0.141447    0.456343
| 13> H      0.769347   -1.345261   -0.318590
| 14> H     -0.769353    1.345273   -0.318638
| 15> *
| 16>
| 17>                          ****END OF INPUT****

CARTESIAN COORDINATES (ANGSTROEM)
---------------------------------
  S      2.050341    0.742508   -0.499891
  S     -2.050342   -0.742503   -0.499907
  N      3.923970   -0.715598    1.081612
  N     -3.923966    0.715581    1.081626
  C      0.603325   -0.276815   -0.332055
  C     -0.603328    0.276827   -0.332072
  C      3.140682   -0.141456    0.456341
  C     -3.140681    0.141447    0.456343
  H      0.769347   -1.345261   -0.318590
  H     -0.769353    1.345273   -0.318638

 Total Charge           Charge          ....    0
 Multiplicity           Mult            ....    1
 Number of Electrons    NEL             ....   72
 Basis Dimension        Dim             ....  740

ORBITAL ENERGIES
----------------

  NO   OCC          E(Eh)            E(eV)
   0   2.0000     -92.049817     -2504.8029
   1   2.0000     -92.049816     -2504.8028
   2   2.0000     -15.602164      -424.5565
   3   2.0000     -15.602163      -424.5565
   4   2.0000     -11.332877      -308.3833
   5   2.0000     -11.331108      -308.3351
   6   2.0000     -11.314795      -307.8912
   7   2.0000     -11.314795      -307.8912
   8   2.0000      -9.050057      -246.2646
   9   2.0000      -9.050055      -246.2645
  10   2.0000      -6.731750      -183.1802
  11   2.0000      -6.731750      -183.1802
  12   2.0000      -6.730420      -183.1440
  13   2.0000      -6.730419      -183.1440
  14   2.0000      -6.729518      -183.1195
  15   2.0000      -6.729517      -183.1195
  16   2.0000      -1.251428       -34.0531
  17   2.0000      -1.250339       -34.0235
  18   2.0000      -1.174554       -31.9612
  19   2.0000      -1.100003       -29.9326
  20   2.0000      -1.010650       -27.5012
  21   2.0000      -0.836751       -22.7691
  22   2.0000      -0.756075       -20.5738
  23   2.0000      -0.692130       -18.8338
  24   2.0000      -0.678603       -18.4657
  25   2.0000      -0.607193       -16.5226
  26   2.0000      -0.583453       -15.8766
  27   2.0000      -0.571073       -15.5397
  28   2.0000      -0.569056       -15.4848
  29   2.0000      -0.548801       -14.9336
  30   2.0000      -0.548239       -14.9183
  31   2.0000      -0.493296       -13.4233
  32   2.0000      -0.488642       -13.2966
  33   2.0000      -0.475208       -12.9311
  34   2.0000      -0.425503       -11.5785
  35   2.0000      -0.373008       -10.1501
  36   0.0000       0.020557         0.5594
  37   0.0000       0.028456         0.7743
  38   0.0000       0.039205         1.0668
  39   0.0000       0.047061         1.2806
  40   0.0000       0.052316         1.4236

MULLIKEN ATOMIC CHARGES
-----------------------
   0 S :    0.606678
   1 S :    0.606668
   2 N :   -0.515302
   3 N :   -0.515312
   4 C :   -0.403181
   5 C :   -0.403175
   6 C :   -0.115045
   7 C :   -0.115027
   8 H :    0.426850
   9 H :    0.426847
Sum of atomic charges:   -0.0000000

LOEWDIN ATOMIC CHARGES
----------------------
   0 S :    1.199412
   1 S :    1.199409
   2 N :    0.277824
   3 N :    0.277823
   4 C :   -0.189603
   5 C :   -0.189602
   6 C :   -0.849660
   7 C :   -0.849659
   8 H :   -0.437972
   9 H :   -0.437972

  Mayer bond orders larger than 0.100000
B(  0-S ,  4-C ) :   0.8885 B(  0-S ,  5-C ) :  -0.1117 B(  0-S ,  6-C ) :   0.9756
B(  1-S ,  4-C ) :  -0.1117 B(  1-S ,  5-C ) :   0.8885 B(  1-S ,  7-C ) :   0.9756
B(  2-N ,  6-C ) :   2.5622 B(  3-N ,  7-C ) :   2.5621 B(  4-C ,  5-C ) :   1.4857
B(  4-C ,  6-C ) :  -0.1771 B(  4-C ,  8-H ) :   0.8060 B(  5-C ,  7-C ) :  -0.1771
B(  5-C ,  9-H ) :   0.8060

MP2 TOTAL ENERGY:    -1058.103257364 Eh
FINAL SINGLE POINT ENERGY     -1058.103257364015

DIPOLE MOMENT
-------------
                                X             Y             Z
Electronic contribution:      0.00002      -0.00000      -0.73029
Nuclear contribution   :     -0.00001       0.00001      -0.56457
                        -----------------------------------------
Total Dipole Moment    :      0.00001       0.00001      -1.29485
                        -----------------------------------------
Magnitude (a.u.)       :      1.29485
Magnitude (Debye)      :      3.29126

Rotational constants in cm-1:     0.150098     0.016800     0.016783
Rotational constants in MHz :  4499.839513   503.640370   503.143602

                             ****ORCA TERMINATED NORMALLY****
TOTAL RUN TIME: 0 days 0 hours 12 minutes 7 seconds 800 msec
