                         Program Version 5.0.4 -  RELEASE  -
|  1> !ri-mp2 aug-cc-pvqz aug-cc-pvqz/c tightscf
|  2> %pal nprocs 16 end
|  3>
|  4> * xyz 0 1
|  5> C      0.001401    0.023882    0.000000
|  6> O     -1.039480    0.879467    0.000000
|  7> F      1.127698    0.728595    0.000000
|  8> F      0.001401   -0.784388    1.081319
|  9> F      0.001401   -0.784388   -1.081319
| 10> H     -1.867070    0.382602    0.000000
| 11> *
| 12>
| 13>                          ****END OF INPUT****

CARTESIAN COORDINATES (ANGSTROEM)
---------------------------------
  C      0.001401    0.023882    0.000000
  O     -1.039480    0.879467    0.000000
  F      1.127698    0.728595    0.000000
  F      0.001401   -0.784388    1.081319
  F      0.001401   -0.784388   -1.081319
  H     -1.867070    0.382602    0.000000

 Total Charge           Charge          ....    0
 Multiplicity           Mult            ....    1
 Number of Electrons    NEL             ....   42
 Basis Dimension        Dim             ....  446

ORBITAL ENERGIES
----------------

  NO   OCC          E(Eh)            E(eV)
   0   2.0000     -26.351506      -717.0609
   1   2.0000     -26.347880      -716.9623
   2   2.0000     -26.347857      -716.9616
   3   2.0000     -20.637512      -561.5752
   4   2.0000     -11.570704      -314.8549
   5   2.0000      -1.749326       -47.6016
   6   2.0000      -1.651576       -44.9417
   7   2.0000      -1.644233       -44.7418
   8   2.0000      -1.459127       -39.7049
   9   2.0000      -0.978800       -26.6345
  10   2.0000      -0.869032       -23.6476
  11   2.0000      -0.846630       -23.0380
  12   2.0000      -0.838305       -22.8114
  13   2.0000      -0.735871       -20.0241
  14   2.0000      -0.726146       -19.7594
  15   2.0000      -0.697327       -18.9752
  16   2.0000      -0.675473       -18.3806
  17   2.0000      -0.675285       -18.3754
  18   2.0000      -0.662059       -18.0155
  19   2.0000      -0.627094       -17.0641
  20   2.0000      -0.576827       -15.6962
  21   0.0000       0.021912         0.5963
  22   0.0000       0.065167         1.7733
  23   0.0000       0.066851         1.8191
  24   0.0000       0.067308         1.8316
  25   0.0000       0.103083         2.8050

MULLIKEN ATOMIC CHARGES
-----------------------
   0 C :    1.875711
   1 O :   -0.605987
   2 F :   -0.548497
   3 F :   -0.533525
   4 F :   -0.533525
   5 H :    0.345822
Sum of atomic charges:    0.0000000

LOEWDIN ATOMIC CHARGES
----------------------
   0 C :   -2.526833
   1 O :    1.163720
   2 F :    0.734095
   3 F :    0.715226
   4 F :    0.715226
   5 H :   -0.801434

  Mayer bond orders larger than 0.100000
B(  0-C ,  1-O ) :   0.9113 B(  0-C ,  2-F ) :   0.6415 B(  0-C ,  3-F ) :   0.6174
B(  0-C ,  4-F ) :   0.6174 B(  1-O ,  5-H ) :   0.8771

MP2 TOTAL ENERGY:     -413.106241302 Eh
FINAL SINGLE POINT ENERGY      -413.106241301681

DIPOLE MOMENT
-------------
                                X             Y             Z
Electronic contribution:      1.92813      -1.23211      -0.00000
Nuclear contribution   :     -2.75114       1.12453       0.00000
                        -----------------------------------------
Total Dipole Moment    :     -0.82301      -0.10758      -0.00000
                        -----------------------------------------
Magnitude (a.u.)       :      0.83002
Magnitude (Debye)      :      2.10973

Rotational constants in cm-1:     0.188934     0.186353     0.185591
Rotational constants in MHz :  5664.092526  5586.733866  5563.887995

                             ****ORCA TERMINATED NORMALLY****
TOTAL RUN TIME: 0 days 0 hours 3 minutes 0 seconds 320 msec
