                         Program Version 5.0.4 -  RELEASE  -
|  1> !ri-mp2 aug-cc-pvqz aug-cc-pvqz/c tightscf
|  2> %pal nprocs 16 end
|  3>
|  4> * xyz 0 1
|  5> C      0.000000    0.000000    0.660447
|  6> C      0.000000    0.000000   -0.660447
|  7> F      0.000000    1.100779    1.387647
|  8> F      0.000000   -1.100779    1.387647
|  9> F      0.000000   -1.100779   -1.387647
| 10> F      0.000000    1.100779   -1.387647
| 11> *
| 12>
| 13>                          ****END OF INPUT****

CARTESIAN COORDINATES (ANGSTROEM)
---------------------------------
  C      0.000000    0.000000    0.660447
  C      0.000000    0.000000   -0.660447
  F      0.000000    1.100779    1.387647
  F      0.000000   -1.100779    1.387647
  F      0.000000   -1.100779   -1.387647
  F      0.000000    1.100779   -1.387647

 Total Charge           Charge          ....    0
 Multiplicity           Mult            ....    1
 Number of Electrons    NEL             ....   48
 Basis Dimension        Dim             ....  480

ORBITAL ENERGIES
----------------

  NO   OCC          E(Eh)            E(eV)
   0   2.0000     -26.367616      -717.4993
   1   2.0000     -26.367613      -717.4992
   2   2.0000     -26.367595      -717.4987
   3   2.0000     -26.367594      -717.4987
   4   2.0000     -11.447623      -311.5056
   5   2.0000     -11.445852      -311.4575
   6   2.0000      -1.729295       -47.0565
   7   2.0000      -1.713946       -46.6388
   8   2.0000      -1.667437       -45.3733
   9   2.0000      -1.657066       -45.0911
  10   2.0000      -1.104123       -30.0447
  11   2.0000      -0.918984       -25.0068
  12   2.0000      -0.865867       -23.5615
  13   2.0000      -0.844122       -22.9697
  14   2.0000      -0.806297       -21.9405
  15   2.0000      -0.791183       -21.5292
  16   2.0000      -0.764901       -20.8140
  17   2.0000      -0.740478       -20.1494
  18   2.0000      -0.717954       -19.5365
  19   2.0000      -0.711226       -19.3534
  20   2.0000      -0.698203       -18.9991
  21   2.0000      -0.682042       -18.5593
  22   2.0000      -0.677796       -18.4438
  23   2.0000      -0.406831       -11.0704
  24   0.0000       0.049650         1.3510
  25   0.0000       0.051130         1.3913
  26   0.0000       0.067890         1.8474
  27   0.0000       0.069709         1.8969
  28   0.0000       0.083039         2.2596

MULLIKEN ATOMIC CHARGES
-----------------------
   0 C :    1.043669
   1 C :    1.043669
   2 F :   -0.521835
   3 F :   -0.521835
   4 F :   -0.521835
   5 F :   -0.521835
Sum of atomic charges:   -0.0000000

LOEWDIN ATOMIC CHARGES
----------------------
   0 C :   -1.445231
   1 C :   -1.445231
   2 F :    0.722616
   3 F :    0.722616
   4 F :    0.722616
   5 F :    0.722616

  Mayer bond orders larger than 0.100000
B(  0-C ,  1-C ) :   1.9489 B(  0-C ,  2-F ) :   0.6598 B(  0-C ,  3-F ) :   0.6598
B(  1-C ,  4-F ) :   0.6598 B(  1-C ,  5-F ) :   0.6598

MP2 TOTAL ENERGY:     -475.067362283 Eh
FINAL SINGLE POINT ENERGY      -475.067362282643

DIPOLE MOMENT
-------------
                                X             Y             Z
Electronic contribution:     -0.00000      -0.00000      -0.00000
Nuclear contribution   :      0.00000       0.00000       0.00000
                        -----------------------------------------
Total Dipole Moment    :     -0.00000      -0.00000      -0.00000
                        -----------------------------------------
Magnitude (a.u.)       :      0.00000
Magnitude (Debye)      :      0.00000

Rotational constants in cm-1:     0.183075     0.107507     0.067732
Rotational constants in MHz :  5488.446785  3222.967563  2030.564183

                             ****ORCA TERMINATED NORMALLY****
TOTAL RUN TIME: 0 days 0 hours 4 minutes 56 seconds 597 msec
