                         Program Version 5.0.4 -  RELEASE  -
|  1> !ri-mp2 aug-cc-pvqz aug-cc-pvqz/c tightscf
|  2> %pal nprocs 16 end
|  3>
|  4> * xyz 0 1
|  5> Cl     0.000000    1.435076   -0.846417
|  6> C      0.000000    0.000000    0.142885
|  7> Cl     0.000000   -1.435076   -0.846417
|  8> S      0.000000    0.000000    1.745054
|  9> *
| 10>
| 11>                          ****END OF INPUT****

CARTESIAN COORDINATES (ANGSTROEM)
---------------------------------
  Cl     0.000000    1.435076   -0.846417
  C      0.000000    0.000000    0.142885
  Cl     0.000000   -1.435076   -0.846417
  S      0.000000    0.000000    1.745054

 Total Charge           Charge          ....    0
 Multiplicity           Mult            ....    1
 Number of Electrons    NEL             ....   56
 Basis Dimension        Dim             ....  332

ORBITAL ENERGIES
----------------

  NO   OCC          E(Eh)            E(eV)
   0   2.0000    -104.884701     -2854.0578
   1   2.0000    -104.884701     -2854.0578
   2   2.0000     -91.977715     -2502.8409
   3   2.0000     -11.448135      -311.5196
   4   2.0000     -10.609663      -288.7036
   5   2.0000     -10.609650      -288.7033
   6   2.0000      -8.981347      -244.3949
   7   2.0000      -8.076607      -219.7756
   8   2.0000      -8.076604      -219.7756
   9   2.0000      -8.074694      -219.7236
  10   2.0000      -8.074692      -219.7235
  11   2.0000      -8.074577      -219.7204
  12   2.0000      -8.074576      -219.7204
  13   2.0000      -6.662298      -181.2903
  14   2.0000      -6.661485      -181.2682
  15   2.0000      -6.660109      -181.2308
  16   2.0000      -1.238083       -33.6900
  17   2.0000      -1.130716       -30.7683
  18   2.0000      -1.040859       -28.3232
  19   2.0000      -0.769871       -20.9493
  20   2.0000      -0.641669       -17.4607
  21   2.0000      -0.608203       -16.5500
  22   2.0000      -0.583474       -15.8771
  23   2.0000      -0.504213       -13.7203
  24   2.0000      -0.494717       -13.4619
  25   2.0000      -0.476245       -12.9593
  26   2.0000      -0.409147       -11.1335
  27   2.0000      -0.381950       -10.3934
  28   0.0000       0.016858         0.4587
  29   0.0000       0.041091         1.1181
  30   0.0000       0.052921         1.4400
  31   0.0000       0.057115         1.5542
  32   0.0000       0.084447         2.2979

MULLIKEN ATOMIC CHARGES
-----------------------
   0 Cl:    0.037928
   1 C :   -0.336262
   2 Cl:    0.037928
   3 S :    0.260407
Sum of atomic charges:    0.0000000

LOEWDIN ATOMIC CHARGES
----------------------
   0 Cl:    0.897841
   1 C :   -2.577742
   2 Cl:    0.897841
   3 S :    0.782061

  Mayer bond orders larger than 0.100000
B(  0-Cl,  1-C ) :   0.9795 B(  1-C ,  2-Cl) :   0.9795 B(  1-C ,  3-S ) :   1.7270

MP2 TOTAL ENERGY:    -1355.218768094 Eh
FINAL SINGLE POINT ENERGY     -1355.218768093688

DIPOLE MOMENT
-------------
                                X             Y             Z
Electronic contribution:     -0.00000       0.00000      -2.40845
Nuclear contribution   :      0.00000       0.00000       2.16608
                        -----------------------------------------
Total Dipole Moment    :     -0.00000       0.00000      -0.24238
                        -----------------------------------------
Magnitude (a.u.)       :      0.24238
Magnitude (Debye)      :      0.61607

Rotational constants in cm-1:     0.115442     0.113424     0.057212
Rotational constants in MHz :  3460.866243  3400.362208  1715.173728

                             ****ORCA TERMINATED NORMALLY****
TOTAL RUN TIME: 0 days 0 hours 2 minutes 20 seconds 609 msec
