                         Program Version 5.0.4 -  RELEASE  -
|  1> !ri-mp2 aug-cc-pvqz aug-cc-pvqz/c tightscf
|  2> %pal nprocs 16 end
|  3>
|  4> * xyz 0 1
|  5> C      1.834252    0.658103   -0.170078
|  6> C      1.649901   -0.833890    0.185441
|  7> C      0.498294    1.346797    0.118872
|  8> N      0.326076   -1.259222   -0.291458
|  9> O     -1.335449   -0.168992    1.339154
| 10> O     -1.629458    0.146059   -1.144584
| 11> S     -0.765053    0.008844    0.017322
| 12> H      2.646117    1.108508    0.400152
| 13> H      2.080033    0.749839   -1.228760
| 14> H      2.410975   -1.464557   -0.268110
| 15> H      1.690040   -0.982698    1.264866
| 16> H      0.427121    1.743751    1.127834
| 17> H      0.219725    2.107908   -0.603766
| 18> H      0.308880   -1.432296   -1.291141
| 19> *
| 20>
| 21>                          ****END OF INPUT****

CARTESIAN COORDINATES (ANGSTROEM)
---------------------------------
  C      1.834252    0.658103   -0.170078
  C      1.649901   -0.833890    0.185441
  C      0.498294    1.346797    0.118872
  N      0.326076   -1.259222   -0.291458
  O     -1.335449   -0.168992    1.339154
  O     -1.629458    0.146059   -1.144584
  S     -0.765053    0.008844    0.017322
  H      2.646117    1.108508    0.400152
  H      2.080033    0.749839   -1.228760
  H      2.410975   -1.464557   -0.268110
  H      1.690040   -0.982698    1.264866
  H      0.427121    1.743751    1.127834
  H      0.219725    2.107908   -0.603766
  H      0.308880   -1.432296   -1.291141

 Total Charge           Charge          ....    0
 Multiplicity           Mult            ....    1
 Number of Electrons    NEL             ....   64
 Basis Dimension        Dim             ....  886

ORBITAL ENERGIES
----------------

  NO   OCC          E(Eh)            E(eV)
   0   2.0000     -92.188985     -2508.5898
   1   2.0000     -20.550172      -559.1986
   2   2.0000     -20.545024      -559.0585
   3   2.0000     -15.602621      -424.5689
   4   2.0000     -11.294273      -307.3328
   5   2.0000     -11.284418      -307.0646
   6   2.0000     -11.268080      -306.6200
   7   2.0000      -9.155913      -249.1451
   8   2.0000      -6.841715      -186.1725
   9   2.0000      -6.840596      -186.1421
  10   2.0000      -6.840164      -186.1303
  11   2.0000      -1.455065       -39.5943
  12   2.0000      -1.338430       -36.4205
  13   2.0000      -1.253086       -34.0982
  14   2.0000      -1.087827       -29.6013
  15   2.0000      -0.992859       -27.0171
  16   2.0000      -0.861006       -23.4292
  17   2.0000      -0.826956       -22.5026
  18   2.0000      -0.725028       -19.7290
  19   2.0000      -0.698486       -19.0068
  20   2.0000      -0.663092       -18.0437
  21   2.0000      -0.654797       -17.8179
  22   2.0000      -0.629237       -17.1224
  23   2.0000      -0.611899       -16.6506
  24   2.0000      -0.585707       -15.9379
  25   2.0000      -0.547465       -14.8973
  26   2.0000      -0.533687       -14.5224
  27   2.0000      -0.506674       -13.7873
  28   2.0000      -0.497418       -13.5354
  29   2.0000      -0.475933       -12.9508
  30   2.0000      -0.450995       -12.2722
  31   2.0000      -0.435734       -11.8569
  32   0.0000       0.015828         0.4307
  33   0.0000       0.026930         0.7328
  34   0.0000       0.029184         0.7942
  35   0.0000       0.037650         1.0245
  36   0.0000       0.048878         1.3300

MULLIKEN ATOMIC CHARGES
-----------------------
   0 C :   -0.504171
   1 C :   -0.418276
   2 C :   -0.600101
   3 N :   -0.596025
   4 O :   -1.254066
   5 O :   -1.295091
   6 S :    2.510566
   7 H :    0.358188
   8 H :    0.248014
   9 H :    0.389809
  10 H :    0.256340
  11 H :    0.290950
  12 H :    0.372229
  13 H :    0.241635
Sum of atomic charges:    0.0000000

LOEWDIN ATOMIC CHARGES
----------------------
   0 C :    0.502381
   1 C :    0.320950
   2 C :    0.469364
   3 N :    0.753208
   4 O :    0.294158
   5 O :    0.292976
   6 S :   -0.294669
   7 H :   -0.264574
   8 H :   -0.277116
   9 H :   -0.275566
  10 H :   -0.286786
  11 H :   -0.326989
  12 H :   -0.314983
  13 H :   -0.592356

  Mayer bond orders larger than 0.100000
B(  0-C ,  1-C ) :   0.9961 B(  0-C ,  2-C ) :   0.9967 B(  0-C ,  7-H ) :   0.8154
B(  0-C ,  8-H ) :   0.9151 B(  1-C ,  3-N ) :   0.8953 B(  1-C ,  9-H ) :   0.8237
B(  1-C , 10-H ) :   0.9326 B(  2-C ,  6-S ) :   0.9621 B(  2-C , 11-H ) :   0.8582
B(  2-C , 12-H ) :   0.8456 B(  3-N ,  6-S ) :   0.8298 B(  3-N , 13-H ) :   0.9123
B(  4-O ,  6-S ) :   0.9947 B(  5-O ,  6-S ) :   0.9540

MP2 TOTAL ENERGY:     -721.003504024 Eh
FINAL SINGLE POINT ENERGY      -721.003504023509

DIPOLE MOMENT
-------------
                                X             Y             Z
Electronic contribution:     -7.24988      -1.28329       0.15290
Nuclear contribution   :      9.68454       1.80803      -0.59338
                        -----------------------------------------
Total Dipole Moment    :      2.43466       0.52474      -0.44047
                        -----------------------------------------
Magnitude (a.u.)       :      2.52922
Magnitude (Debye)      :      6.42876

Rotational constants in cm-1:     0.128339     0.068682     0.064827
Rotational constants in MHz :  3847.495399  2059.043944  1943.465787

                             ****ORCA TERMINATED NORMALLY****
TOTAL RUN TIME: 0 days 0 hours 24 minutes 36 seconds 837 msec
