                         Program Version 5.0.4 -  RELEASE  -
|  1> !ri-mp2 aug-cc-pvqz aug-cc-pvqz/c tightscf
|  2> %pal nprocs 16 end
|  3>
|  4> * xyz 0 1
|  5> C     -0.299347    2.755142    0.647638
|  6> C      2.535697   -1.118329    0.647638
|  7> C     -2.236350   -1.636813    0.647638
|  8> C      0.000000    0.000000    0.150368
|  9> S      0.610957    1.615429   -0.447444
| 10> S      1.093524   -1.336819   -0.447444
| 11> S     -1.704481   -0.278610   -0.447444
| 12> H      0.000000    3.759716    0.355248
| 13> H     -0.029337    2.594355    1.690157
| 14> H     -1.372452    2.645233    0.513627
| 15> H      2.261446   -1.271771    1.690157
| 16> H      2.977065   -0.134038    0.513627
| 17> H      3.256010   -1.879858    0.355248
| 18> H     -3.256010   -1.879858    0.355248
| 19> H     -2.232109   -1.322585    1.690157
| 20> H     -1.604613   -2.511195    0.513627
| 21> H      0.000000    0.000000    1.240520
| 22> *
| 23>
| 24>                          ****END OF INPUT****

CARTESIAN COORDINATES (ANGSTROEM)
---------------------------------
  C     -0.299347    2.755142    0.647638
  C      2.535697   -1.118329    0.647638
  C     -2.236350   -1.636813    0.647638
  C      0.000000    0.000000    0.150368
  S      0.610957    1.615429   -0.447444
  S      1.093524   -1.336819   -0.447444
  S     -1.704481   -0.278610   -0.447444
  H      0.000000    3.759716    0.355248
  H     -0.029337    2.594355    1.690157
  H     -1.372452    2.645233    0.513627
  H      2.261446   -1.271771    1.690157
  H      2.977065   -0.134038    0.513627
  H      3.256010   -1.879858    0.355248
  H     -3.256010   -1.879858    0.355248
  H     -2.232109   -1.322585    1.690157
  H     -1.604613   -2.511195    0.513627
  H      0.000000    0.000000    1.240520

 Total Charge           Charge          ....    0
 Multiplicity           Mult            ....    1
 Number of Electrons    NEL             ....   82
 Basis Dimension        Dim             .... 1032

ORBITAL ENERGIES
----------------

  NO   OCC          E(Eh)            E(eV)
   0   2.0000     -91.955065     -2502.2245
   1   2.0000     -91.955065     -2502.2245
   2   2.0000     -91.955065     -2502.2245
   3   2.0000     -11.319822      -308.0280
   4   2.0000     -11.253993      -306.2367
   5   2.0000     -11.253993      -306.2367
   6   2.0000     -11.253993      -306.2367
   7   2.0000      -8.956326      -243.7140
   8   2.0000      -8.956326      -243.7140
   9   2.0000      -8.956321      -243.7139
  10   2.0000      -6.637725      -180.6217
  11   2.0000      -6.637725      -180.6217
  12   2.0000      -6.637725      -180.6217
  13   2.0000      -6.636758      -180.5954
  14   2.0000      -6.636758      -180.5954
  15   2.0000      -6.636755      -180.5953
  16   2.0000      -6.635844      -180.5705
  17   2.0000      -6.635844      -180.5705
  18   2.0000      -6.635844      -180.5705
  19   2.0000      -1.113990       -30.3132
  20   2.0000      -1.029217       -28.0064
  21   2.0000      -1.029216       -28.0064
  22   2.0000      -0.952159       -25.9096
  23   2.0000      -0.852853       -23.2073
  24   2.0000      -0.852853       -23.2073
  25   2.0000      -0.761009       -20.7081
  26   2.0000      -0.613741       -16.7007
  27   2.0000      -0.606313       -16.4986
  28   2.0000      -0.606313       -16.4986
  29   2.0000      -0.591324       -16.0907
  30   2.0000      -0.591324       -16.0907
  31   2.0000      -0.579837       -15.7782
  32   2.0000      -0.574703       -15.6385
  33   2.0000      -0.517210       -14.0740
  34   2.0000      -0.517210       -14.0740
  35   2.0000      -0.442062       -12.0291
  36   2.0000      -0.442062       -12.0291
  37   2.0000      -0.437664       -11.9095
  38   2.0000      -0.350249        -9.5308
  39   2.0000      -0.350249        -9.5308
  40   2.0000      -0.340638        -9.2692
  41   0.0000       0.022087         0.6010
  42   0.0000       0.030089         0.8188
  43   0.0000       0.030089         0.8188
  44   0.0000       0.036073         0.9816
  45   0.0000       0.047504         1.2927

MULLIKEN ATOMIC CHARGES
-----------------------
   0 C :   -1.083144
   1 C :   -1.083121
   2 C :   -1.083137
   3 C :   -0.160567
   4 S :   -0.001799
   5 S :   -0.001799
   6 S :   -0.001804
   7 H :    0.411378
   8 H :    0.304284
   9 H :    0.323626
  10 H :    0.304282
  11 H :    0.323615
  12 H :    0.411369
  13 H :    0.411363
  14 H :    0.304296
  15 H :    0.323625
  16 H :    0.297532
Sum of atomic charges:   -0.0000000

LOEWDIN ATOMIC CHARGES
----------------------
   0 C :    0.544991
   1 C :    0.544991
   2 C :    0.544991
   3 C :   -1.080694
   4 S :    1.150722
   5 S :    1.150722
   6 S :    1.150722
   7 H :   -0.394294
   8 H :   -0.368736
   9 H :   -0.392383
  10 H :   -0.368736
  11 H :   -0.392383
  12 H :   -0.394294
  13 H :   -0.394294
  14 H :   -0.368736
  15 H :   -0.392383
  16 H :   -0.540207

  Mayer bond orders larger than 0.100000
B(  0-C ,  4-S ) :   1.0661 B(  0-C ,  7-H ) :   0.8300 B(  0-C ,  8-H ) :   0.8861
B(  0-C ,  9-H ) :   0.8893 B(  1-C ,  5-S ) :   1.0661 B(  1-C , 10-H ) :   0.8861
B(  1-C , 11-H ) :   0.8893 B(  1-C , 12-H ) :   0.8300 B(  2-C ,  6-S ) :   1.0661
B(  2-C , 13-H ) :   0.8301 B(  2-C , 14-H ) :   0.8861 B(  2-C , 15-H ) :   0.8893
B(  3-C ,  4-S ) :   0.8122 B(  3-C ,  5-S ) :   0.8123 B(  3-C ,  6-S ) :   0.8123
B(  3-C , 16-H ) :   0.8202

MP2 TOTAL ENERGY:    -1351.340242654 Eh
FINAL SINGLE POINT ENERGY     -1351.340242654009

DIPOLE MOMENT
-------------
                                X             Y             Z
Electronic contribution:      0.00000       0.00000      -7.56494
Nuclear contribution   :     -0.00000      -0.00000       8.94150
                        -----------------------------------------
Total Dipole Moment    :      0.00000       0.00000       1.37656
                        -----------------------------------------
Magnitude (a.u.)       :      1.37656
Magnitude (Debye)      :      3.49894

Rotational constants in cm-1:     0.045280     0.045280     0.025792
Rotational constants in MHz :  1357.467309  1357.467107   773.225074

                             ****ORCA TERMINATED NORMALLY****
TOTAL RUN TIME: 0 days 0 hours 44 minutes 13 seconds 215 msec
