                         Program Version 5.0.4 -  RELEASE  -
|  1> !ri-mp2 aug-cc-pvqz aug-cc-pvqz/c tightscf
|  2> %pal nprocs 16 end
|  3>
|  4> * xyz 0 1
|  5> C      0.000000    1.388631   -0.059542
|  6> C      1.202590   -0.694316   -0.059542
|  7> C     -1.202590   -0.694316   -0.059542
|  8> N      0.000000    0.000000    0.366212
|  9> H     -0.882915    1.895599    0.330609
| 10> H      0.000000    1.499929   -1.158458
| 11> H      0.882915    1.895599    0.330609
| 12> H      2.083094   -0.183172    0.330609
| 13> H      1.298977   -0.749964   -1.158458
| 14> H      1.200179   -1.712426    0.330609
| 15> H     -1.200179   -1.712426    0.330609
| 16> H     -1.298977   -0.749964   -1.158458
| 17> H     -2.083094   -0.183172    0.330609
| 18> *
| 19>
| 20>                          ****END OF INPUT****

CARTESIAN COORDINATES (ANGSTROEM)
---------------------------------
  C      0.000000    1.388631   -0.059542
  C      1.202590   -0.694316   -0.059542
  C     -1.202590   -0.694316   -0.059542
  N      0.000000    0.000000    0.366212
  H     -0.882915    1.895599    0.330609
  H      0.000000    1.499929   -1.158458
  H      0.882915    1.895599    0.330609
  H      2.083094   -0.183172    0.330609
  H      1.298977   -0.749964   -1.158458
  H      1.200179   -1.712426    0.330609
  H     -1.200179   -1.712426    0.330609
  H     -1.298977   -0.749964   -1.158458
  H     -2.083094   -0.183172    0.330609

 Total Charge           Charge          ....    0
 Multiplicity           Mult            ....    1
 Number of Electrons    NEL             ....   34
 Basis Dimension        Dim             ....  734

ORBITAL ENERGIES
----------------

  NO   OCC          E(Eh)            E(eV)
   0   2.0000     -15.542795      -422.9410
   1   2.0000     -11.238316      -305.8101
   2   2.0000     -11.238316      -305.8101
   3   2.0000     -11.238291      -305.8094
   4   2.0000      -1.222261       -33.2594
   5   2.0000      -0.949003       -25.8237
   6   2.0000      -0.949003       -25.8237
   7   2.0000      -0.805160       -21.9095
   8   2.0000      -0.640238       -17.4218
   9   2.0000      -0.628743       -17.1090
  10   2.0000      -0.628743       -17.1090
  11   2.0000      -0.542506       -14.7623
  12   2.0000      -0.542505       -14.7623
  13   2.0000      -0.516908       -14.0658
  14   2.0000      -0.501369       -13.6429
  15   2.0000      -0.501368       -13.6429
  16   2.0000      -0.351833        -9.5739
  17   0.0000       0.027303         0.7429
  18   0.0000       0.036319         0.9883
  19   0.0000       0.036319         0.9883
  20   0.0000       0.041177         1.1205
  21   0.0000       0.054423         1.4809

MULLIKEN ATOMIC CHARGES
-----------------------
   0 C :   -0.797177
   1 C :   -0.797183
   2 C :   -0.797181
   3 N :   -0.179340
   4 H :    0.302784
   5 H :    0.251395
   6 H :    0.302783
   7 H :    0.302782
   8 H :    0.251396
   9 H :    0.302781
  10 H :    0.302784
  11 H :    0.251396
  12 H :    0.302779
Sum of atomic charges:    0.0000000

LOEWDIN ATOMIC CHARGES
----------------------
   0 C :    0.720497
   1 C :    0.720498
   2 C :    0.720498
   3 N :    0.451024
   4 H :   -0.299281
   5 H :   -0.272277
   6 H :   -0.299281
   7 H :   -0.299281
   8 H :   -0.272277
   9 H :   -0.299282
  10 H :   -0.299282
  11 H :   -0.272277
  12 H :   -0.299281

  Mayer bond orders larger than 0.100000
B(  0-C ,  3-N ) :   0.8918 B(  0-C ,  4-H ) :   0.9371 B(  0-C ,  5-H ) :   0.9321
B(  0-C ,  6-H ) :   0.9371 B(  1-C ,  3-N ) :   0.8918 B(  1-C ,  7-H ) :   0.9371
B(  1-C ,  8-H ) :   0.9321 B(  1-C ,  9-H ) :   0.9371 B(  2-C ,  3-N ) :   0.8918
B(  2-C , 10-H ) :   0.9371 B(  2-C , 11-H ) :   0.9321 B(  2-C , 12-H ) :   0.9371

MP2 TOTAL ENERGY:     -174.151699160 Eh
FINAL SINGLE POINT ENERGY      -174.151699159789

DIPOLE MOMENT
-------------
                                X             Y             Z
Electronic contribution:      0.00000      -0.00000       1.33930
Nuclear contribution   :      0.00000       0.00000      -1.60908
                        -----------------------------------------
Total Dipole Moment    :      0.00000      -0.00000      -0.26978
                        -----------------------------------------
Magnitude (a.u.)       :      0.26978
Magnitude (Debye)      :      0.68573

Rotational constants in cm-1:     0.290375     0.290375     0.164092
Rotational constants in MHz :  8705.214634  8705.214571  4919.369301

                             ****ORCA TERMINATED NORMALLY****
TOTAL RUN TIME: 0 days 0 hours 12 minutes 11 seconds 757 msec
