                         Program Version 5.0.4 -  RELEASE  -
|  1> !ri-mp2 aug-cc-pvqz aug-cc-pvqz/c tightscf
|  2> %pal nprocs 16 end
|  3>
|  4> * xyz 0 1
|  5> N     -0.051147    1.703848    0.244380
|  6> C     -0.043314    0.431492   -0.483504
|  7> C     -1.376086   -0.303235   -0.228367
|  8> O     -1.530938   -1.479219   -0.435919
|  9> O     -2.351637    0.487074    0.227525
| 10> H     -1.928124    1.363089    0.369080
| 11> C      1.141533   -0.499575   -0.166921
| 12> O      1.167043   -0.778126    1.238261
| 13> C      2.485110    0.099679   -0.539476
| 14> H     -0.035888    0.649255   -1.555103
| 15> H      0.984216   -1.425674   -0.722324
| 16> H      0.509733   -1.457032    1.425652
| 17> H      3.279834   -0.613026   -0.325853
| 18> H      2.518013    0.345316   -1.601845
| 19> H      2.686599    1.005623    0.033605
| 20> H      0.347974    1.576034    1.168534
| 21> H      0.476463    2.421484   -0.231731
| 22> *
| 23>
| 24>                          ****END OF INPUT****

CARTESIAN COORDINATES (ANGSTROEM)
---------------------------------
  N     -0.051147    1.703848    0.244380
  C     -0.043314    0.431492   -0.483504
  C     -1.376086   -0.303235   -0.228367
  O     -1.530938   -1.479219   -0.435919
  O     -2.351637    0.487074    0.227525
  H     -1.928124    1.363089    0.369080
  C      1.141533   -0.499575   -0.166921
  O      1.167043   -0.778126    1.238261
  C      2.485110    0.099679   -0.539476
  H     -0.035888    0.649255   -1.555103
  H      0.984216   -1.425674   -0.722324
  H      0.509733   -1.457032    1.425652
  H      3.279834   -0.613026   -0.325853
  H      2.518013    0.345316   -1.601845
  H      2.686599    1.005623    0.033605
  H      0.347974    1.576034    1.168534
  H      0.476463    2.421484   -0.231731

 Total Charge           Charge          ....    0
 Multiplicity           Mult            ....    1
 Number of Electrons    NEL             ....   64
 Basis Dimension        Dim             .... 1054

ORBITAL ENERGIES
----------------

  NO   OCC          E(Eh)            E(eV)
   0   2.0000     -20.598660      -560.5180
   1   2.0000     -20.569728      -559.7308
   2   2.0000     -20.540914      -558.9467
   3   2.0000     -15.580332      -423.9624
   4   2.0000     -11.380496      -309.6790
   5   2.0000     -11.299245      -307.4681
   6   2.0000     -11.293561      -307.3134
   7   2.0000     -11.230619      -305.6007
   8   2.0000      -1.457651       -39.6647
   9   2.0000      -1.376334       -37.4519
  10   2.0000      -1.361268       -37.0420
  11   2.0000      -1.221541       -33.2398
  12   2.0000      -1.049478       -28.5577
  13   2.0000      -0.970203       -26.4006
  14   2.0000      -0.842451       -22.9242
  15   2.0000      -0.804440       -21.8899
  16   2.0000      -0.745806       -20.2944
  17   2.0000      -0.722950       -19.6725
  18   2.0000      -0.702001       -19.1024
  19   2.0000      -0.672057       -18.2876
  20   2.0000      -0.634613       -17.2687
  21   2.0000      -0.625376       -17.0173
  22   2.0000      -0.602140       -16.3851
  23   2.0000      -0.591167       -16.0865
  24   2.0000      -0.561391       -15.2762
  25   2.0000      -0.547024       -14.8853
  26   2.0000      -0.540514       -14.7081
  27   2.0000      -0.500275       -13.6132
  28   2.0000      -0.487330       -13.2609
  29   2.0000      -0.474710       -12.9175
  30   2.0000      -0.460181       -12.5222
  31   2.0000      -0.418756       -11.3949
  32   0.0000       0.017426         0.4742
  33   0.0000       0.029212         0.7949
  34   0.0000       0.031253         0.8504
  35   0.0000       0.036027         0.9804
  36   0.0000       0.049989         1.3603

MULLIKEN ATOMIC CHARGES
-----------------------
   0 N :   -0.716473
   1 C :   -0.119569
   2 C :    1.224753
   3 O :   -0.826003
   4 O :   -0.907656
   5 H :    0.387406
   6 C :    0.681850
   7 O :   -0.977048
   8 C :   -0.936376
   9 H :    0.382402
  10 H :    0.280686
  11 H :    0.344924
  12 H :    0.257371
  13 H :    0.221606
  14 H :    0.219520
  15 H :    0.271479
  16 H :    0.211128
Sum of atomic charges:    0.0000000

LOEWDIN ATOMIC CHARGES
----------------------
   0 N :    1.297296
   1 C :   -0.069088
   2 C :   -1.021715
   3 O :    0.690234
   4 O :    1.258985
   5 H :   -0.943710
   6 C :   -0.237432
   7 O :    1.298964
   8 C :    0.915225
   9 H :   -0.288722
  10 H :   -0.319207
  11 H :   -0.785288
  12 H :   -0.279420
  13 H :   -0.277669
  14 H :   -0.291560
  15 H :   -0.485825
  16 H :   -0.461067

  Mayer bond orders larger than 0.100000
B(  0-N ,  1-C ) :   0.6848 B(  0-N ,  5-H ) :   0.1211 B(  0-N , 15-H ) :   0.8949
B(  0-N , 16-H ) :   1.0169 B(  1-C ,  2-C ) :   1.1998 B(  1-C ,  3-O ) :   0.2076
B(  1-C ,  4-O ) :   0.1665 B(  1-C ,  6-C ) :   0.7653 B(  1-C ,  9-H ) :   0.7950
B(  2-C ,  3-O ) :   1.3430 B(  2-C ,  4-O ) :   0.6039 B(  3-O ,  4-O ) :   0.1404
B(  4-O ,  5-H ) :   0.7543 B(  6-C ,  7-O ) :   0.3393 B(  6-C ,  8-C ) :   0.6742
B(  6-C , 10-H ) :   0.8969 B(  6-C , 12-H ) :  -0.1073 B(  7-O , 11-H ) :   0.8985
B(  8-C , 12-H ) :   1.0188 B(  8-C , 13-H ) :   1.0246 B(  8-C , 14-H ) :   0.9708

MP2 TOTAL ENERGY:     -437.692686874 Eh
FINAL SINGLE POINT ENERGY      -437.692686874330

DIPOLE MOMENT
-------------
                                X             Y             Z
Electronic contribution:     -7.63399      -2.61008       1.09019
Nuclear contribution   :      8.87521       3.88194      -1.43517
                        -----------------------------------------
Total Dipole Moment    :      1.24123       1.27186      -0.34498
                        -----------------------------------------
Magnitude (a.u.)       :      1.81032
Magnitude (Debye)      :      4.60148

Rotational constants in cm-1:     0.107007     0.050266     0.041972
Rotational constants in MHz :  3207.986600  1506.946575  1258.297475

                             ****ORCA TERMINATED NORMALLY****
TOTAL RUN TIME: 0 days 0 hours 41 minutes 38 seconds 19 msec
