                         Program Version 5.0.4 -  RELEASE  -
|  1> !ri-mp2 aug-cc-pvqz aug-cc-pvqz/c tightscf
|  2> %pal nprocs 16 end
|  3>
|  4> * xyz 0 1
|  5> S     -1.849048   -0.498034   -0.251110
|  6> S      2.347895   -0.118777   -0.102268
|  7> N      0.029899    1.184602    0.018376
|  8> N     -1.384596    1.156257    0.116381
|  9> C      0.716388    0.030291    0.085786
| 10> C     -0.237505   -1.118129    0.367886
| 11> H      0.445368    2.022351   -0.358482
| 12> H     -1.620549    1.333484    1.090140
| 13> H      0.061019   -2.005332   -0.179311
| 14> H     -0.257812   -1.340511    1.436386
| 15> *
| 16>
| 17>                          ****END OF INPUT****

CARTESIAN COORDINATES (ANGSTROEM)
---------------------------------
  S     -1.849048   -0.498034   -0.251110
  S      2.347895   -0.118777   -0.102268
  N      0.029899    1.184602    0.018376
  N     -1.384596    1.156257    0.116381
  C      0.716388    0.030291    0.085786
  C     -0.237505   -1.118129    0.367886
  H      0.445368    2.022351   -0.358482
  H     -1.620549    1.333484    1.090140
  H      0.061019   -2.005332   -0.179311
  H     -0.257812   -1.340511    1.436386

 Total Charge           Charge          ....    0
 Multiplicity           Mult            ....    1
 Number of Electrons    NEL             ....   62
 Basis Dimension        Dim             ....  672

ORBITAL ENERGIES
----------------

  NO   OCC          E(Eh)            E(eV)
   0   2.0000     -92.006704     -2503.6297
   1   2.0000     -91.912726     -2501.0724
   2   2.0000     -15.651979      -425.9120
   3   2.0000     -15.649653      -425.8487
   4   2.0000     -11.368028      -309.3398
   5   2.0000     -11.297317      -307.4156
   6   2.0000      -9.005410      -245.0497
   7   2.0000      -8.916703      -242.6358
   8   2.0000      -6.686675      -181.9537
   9   2.0000      -6.685627      -181.9252
  10   2.0000      -6.684448      -181.8931
  11   2.0000      -6.598324      -179.5495
  12   2.0000      -6.596818      -179.5085
  13   2.0000      -6.595996      -179.4862
  14   2.0000      -1.372445       -37.3461
  15   2.0000      -1.153951       -31.4006
  16   2.0000      -1.091003       -29.6877
  17   2.0000      -0.960861       -26.1464
  18   2.0000      -0.881713       -23.9926
  19   2.0000      -0.830648       -22.6031
  20   2.0000      -0.735883       -20.0244
  21   2.0000      -0.668652       -18.1950
  22   2.0000      -0.634964       -17.2782
  23   2.0000      -0.615456       -16.7474
  24   2.0000      -0.556457       -15.1420
  25   2.0000      -0.522146       -14.2083
  26   2.0000      -0.501977       -13.6595
  27   2.0000      -0.464998       -12.6533
  28   2.0000      -0.379463       -10.3257
  29   2.0000      -0.345227        -9.3941
  30   2.0000      -0.335301        -9.1240
  31   0.0000       0.020804         0.5661
  32   0.0000       0.031800         0.8653
  33   0.0000       0.035505         0.9661
  34   0.0000       0.043920         1.1951
  35   0.0000       0.056553         1.5389

MULLIKEN ATOMIC CHARGES
-----------------------
   0 S :    0.159259
   1 S :   -0.134665
   2 N :   -0.239201
   3 N :   -0.458773
   4 C :   -0.045762
   5 C :   -0.532377
   6 H :    0.331748
   7 H :    0.245798
   8 H :    0.388362
   9 H :    0.285610
Sum of atomic charges:   -0.0000000

LOEWDIN ATOMIC CHARGES
----------------------
   0 S :    1.169421
   1 S :    1.040529
   2 N :    0.477664
   3 N :    0.367375
   4 C :   -1.137455
   5 C :    0.028365
   6 H :   -0.527774
   7 H :   -0.657257
   8 H :   -0.403400
   9 H :   -0.357468

  Mayer bond orders larger than 0.100000
B(  0-S ,  3-N ) :   0.8968 B(  0-S ,  5-C ) :   1.0022 B(  1-S ,  4-C ) :   1.4829
B(  2-N ,  3-N ) :   0.6922 B(  2-N ,  4-C ) :   1.1795 B(  2-N ,  6-H ) :   0.8997
B(  3-N ,  7-H ) :   0.9227 B(  4-C ,  5-C ) :   0.9521 B(  5-C ,  8-H ) :   0.8346
B(  5-C ,  9-H ) :   0.8702

MP2 TOTAL ENERGY:     -983.247165202 Eh
FINAL SINGLE POINT ENERGY      -983.247165201840

DIPOLE MOMENT
-------------
                                X             Y             Z
Electronic contribution:      0.23288       0.13985      -1.31210
Nuclear contribution   :     -1.35181       0.04143       1.93805
                        -----------------------------------------
Total Dipole Moment    :     -1.11893       0.18128       0.62595
                        -----------------------------------------
Magnitude (a.u.)       :      1.29487
Magnitude (Debye)      :      3.29129

Rotational constants in cm-1:     0.207494     0.050988     0.042508
Rotational constants in MHz :  6220.510514  1528.572068  1274.353898

                             ****ORCA TERMINATED NORMALLY****
TOTAL RUN TIME: 0 days 0 hours 13 minutes 0 seconds 949 msec
