                         Program Version 5.0.4 -  RELEASE  -
|  1> !ri-mp2 aug-cc-pvqz aug-cc-pvqz/c tightscf
|  2> %pal nprocs 16 end
|  3> %maxcore 3800
|  4>
|  5> * xyz 0 1
|  6> C     0.413406    2.700298   -1.134720
|  7> C     0.000000    3.315092    0.199170
|  8> C    -0.395103    1.934856   -0.158726
|  9> C    -1.657201    1.128232   -0.172530
| 10> C    -0.395289    0.613063    0.456739
| 11> C     0.000000    0.000000    1.767022
| 12> C     0.395289   -0.613063    0.456739
| 13> C     1.657201   -1.128232   -0.172530
| 14> C     0.395103   -1.934856   -0.158726
| 15> C     0.000000   -3.315092    0.199170
| 16> C    -0.413406   -2.700298   -1.134720
| 17> H    -0.070461    3.069979   -2.029417
| 18> H     1.454651    2.435395   -1.262890
| 19> H     0.769193    3.453264    0.948163
| 20> H    -0.755429    4.089910    0.182539
| 21> H    -2.465963    1.433064    0.481413
| 22> H    -1.971867    0.689861   -1.112222
| 23> H     0.765446    0.497373    2.351754
| 24> H    -0.765446   -0.497373    2.351754
| 25> H     1.971867   -0.689861   -1.112222
| 26> H     2.465963   -1.433064    0.481413
| 27> H    -0.769193   -3.453264    0.948163
| 28> H     0.755429   -4.089910    0.182539
| 29> H    -1.454651   -2.435395   -1.262890
| 30> H     0.070461   -3.069979   -2.029417
| 31> *
| 32>
| 33>                          ****END OF INPUT****

CARTESIAN COORDINATES (ANGSTROEM)
---------------------------------
  C      0.413406    2.700298   -1.134720
  C      0.000000    3.315092    0.199170
  C     -0.395103    1.934856   -0.158726
  C     -1.657201    1.128232   -0.172530
  C     -0.395289    0.613063    0.456739
  C      0.000000    0.000000    1.767022
  C      0.395289   -0.613063    0.456739
  C      1.657201   -1.128232   -0.172530
  C      0.395103   -1.934856   -0.158726
  C      0.000000   -3.315092    0.199170
  C     -0.413406   -2.700298   -1.134720
  H     -0.070461    3.069979   -2.029417
  H      1.454651    2.435395   -1.262890
  H      0.769193    3.453264    0.948163
  H     -0.755429    4.089910    0.182539
  H     -2.465963    1.433064    0.481413
  H     -1.971867    0.689861   -1.112222
  H      0.765446    0.497373    2.351754
  H     -0.765446   -0.497373    2.351754
  H      1.971867   -0.689861   -1.112222
  H      2.465963   -1.433064    0.481413
  H     -0.769193   -3.453264    0.948163
  H      0.755429   -4.089910    0.182539
  H     -1.454651   -2.435395   -1.262890
  H      0.070461   -3.069979   -2.029417

 Total Charge           Charge          ....    0
 Multiplicity           Mult            ....    1
 Number of Electrons    NEL             ....   80
 Basis Dimension        Dim             .... 1524

ORBITAL ENERGIES
----------------

  NO   OCC          E(Eh)            E(eV)
   0   2.0000     -11.236463      -305.7597
   1   2.0000     -11.235701      -305.7390
   2   2.0000     -11.234452      -305.7050
   3   2.0000     -11.234384      -305.7031
   4   2.0000     -11.223331      -305.4024
   5   2.0000     -11.223326      -305.4022
   6   2.0000     -11.223130      -305.3969
   7   2.0000     -11.222880      -305.3901
   8   2.0000     -11.222880      -305.3901
   9   2.0000     -11.222275      -305.3736
  10   2.0000     -11.222274      -305.3736
  11   2.0000      -1.200715       -32.6731
  12   2.0000      -1.163178       -31.6517
  13   2.0000      -1.107515       -30.1370
  14   2.0000      -1.047763       -28.5111
  15   2.0000      -0.999582       -27.2000
  16   2.0000      -0.825159       -22.4537
  17   2.0000      -0.823252       -22.4018
  18   2.0000      -0.790741       -21.5171
  19   2.0000      -0.786726       -21.4079
  20   2.0000      -0.746467       -20.3124
  21   2.0000      -0.697567       -18.9818
  22   2.0000      -0.674654       -18.3583
  23   2.0000      -0.640139       -17.4191
  24   2.0000      -0.639637       -17.4054
  25   2.0000      -0.613284       -16.6883
  26   2.0000      -0.610377       -16.6092
  27   2.0000      -0.597577       -16.2609
  28   2.0000      -0.535116       -14.5612
  29   2.0000      -0.514475       -13.9996
  30   2.0000      -0.512174       -13.9370
  31   2.0000      -0.494360       -13.4522
  32   2.0000      -0.469636       -12.7794
  33   2.0000      -0.452958       -12.3256
  34   2.0000      -0.429822       -11.6961
  35   2.0000      -0.421457       -11.4684
  36   2.0000      -0.406908       -11.0725
  37   2.0000      -0.370386       -10.0787
  38   2.0000      -0.369606       -10.0575
  39   2.0000      -0.366505        -9.9731
  40   0.0000       0.026515         0.7215
  41   0.0000       0.028317         0.7705
  42   0.0000       0.029903         0.8137
  43   0.0000       0.030571         0.8319
  44   0.0000       0.040325         1.0973

MULLIKEN ATOMIC CHARGES
-----------------------
   0 C :   -0.787676
   1 C :   -0.823179
   2 C :    0.134151
   3 C :   -0.721127
   4 C :    0.564395
   5 C :   -0.727885
   6 C :    0.564298
   7 C :   -0.721102
   8 C :    0.134232
   9 C :   -0.823212
  10 C :   -0.787709
  11 H :    0.302108
  12 H :    0.318386
  13 H :    0.272251
  14 H :    0.283442
  15 H :    0.300203
  16 H :    0.289075
  17 H :    0.231920
  18 H :    0.231964
  19 H :    0.289067
  20 H :    0.300200
  21 H :    0.272255
  22 H :    0.283420
  23 H :    0.318428
  24 H :    0.302094
Sum of atomic charges:    0.0000000

LOEWDIN ATOMIC CHARGES
----------------------
   0 C :    0.631030
   1 C :    0.630850
   2 C :   -0.211313
   3 C :    0.671820
   4 C :   -0.171759
   5 C :    0.674929
   6 C :   -0.171759
   7 C :    0.671820
   8 C :   -0.211312
   9 C :    0.630850
  10 C :    0.631030
  11 H :   -0.272774
  12 H :   -0.273461
  13 H :   -0.272210
  14 H :   -0.273238
  15 H :   -0.265727
  16 H :   -0.266882
  17 H :   -0.263800
  18 H :   -0.263800
  19 H :   -0.266882
  20 H :   -0.265727
  21 H :   -0.272210
  22 H :   -0.273238
  23 H :   -0.273461
  24 H :   -0.272774

  Mayer bond orders larger than 0.100000
B(  0-C ,  1-C ) :   1.1258 B(  0-C ,  2-C ) :   0.5190 B(  0-C , 11-H ) :   1.0014
B(  0-C , 12-H ) :   0.9312 B(  1-C ,  2-C ) :   0.6156 B(  1-C ,  4-C ) :  -0.1456
B(  1-C , 13-H ) :   1.0032 B(  1-C , 14-H ) :   1.0363 B(  2-C ,  3-C ) :   0.9797
B(  2-C ,  4-C ) :  -0.2556 B(  2-C ,  6-C ) :  -0.1341 B(  2-C , 11-H ) :  -0.1086
B(  2-C , 14-H ) :  -0.1042 B(  3-C ,  4-C ) :   0.4997 B(  3-C , 15-H ) :   0.9982
B(  3-C , 16-H ) :   0.9707 B(  4-C ,  5-C ) :   0.6913 B(  4-C ,  6-C ) :  -0.3256
B(  4-C ,  8-C ) :  -0.1341 B(  4-C , 15-H ) :  -0.1269 B(  5-C ,  6-C ) :   0.6915
B(  5-C , 17-H ) :   1.0854 B(  5-C , 18-H ) :   1.0854 B(  6-C ,  7-C ) :   0.4997
B(  6-C ,  8-C ) :  -0.2556 B(  6-C ,  9-C ) :  -0.1456 B(  6-C , 20-H ) :  -0.1269
B(  7-C ,  8-C ) :   0.9797 B(  7-C , 19-H ) :   0.9707 B(  7-C , 20-H ) :   0.9982
B(  8-C ,  9-C ) :   0.6156 B(  8-C , 10-C ) :   0.5190 B(  8-C , 22-H ) :  -0.1043
B(  8-C , 24-H ) :  -0.1086 B(  9-C , 10-C ) :   1.1258 B(  9-C , 21-H ) :   1.0032
B(  9-C , 22-H ) :   1.0363 B( 10-C , 23-H ) :   0.9312 B( 10-C , 24-H ) :   1.0014

MP2 TOTAL ENERGY:     -426.587880480 Eh
FINAL SINGLE POINT ENERGY      -426.587880480149

DIPOLE MOMENT
-------------
                                X             Y             Z
Electronic contribution:      0.00000       0.00000       0.89579
Nuclear contribution   :      0.00000       0.00000      -0.90551
                        -----------------------------------------
Total Dipole Moment    :      0.00000       0.00000      -0.00972
                        -----------------------------------------
Magnitude (a.u.)       :      0.00972
Magnitude (Debye)      :      0.02470

Rotational constants in cm-1:     0.082231     0.021936     0.021895
Rotational constants in MHz :  2465.221897   657.624921   656.395814

                             ****ORCA TERMINATED NORMALLY****
TOTAL RUN TIME: 0 days 2 hours 39 minutes 42 seconds 147 msec
