                         Program Version 5.0.4 -  RELEASE  -
|  1> !ri-mp2 aug-cc-pvqz aug-cc-pvqz/c tightscf
|  2> %pal nprocs 16 end
|  3> %maxcore 3800
|  4>
|  5> * xyz 0 1
|  6> C     -3.388472   -0.000044    0.286846
|  7> C     -2.807439    0.000148   -0.978192
|  8> C     -2.578343   -0.000206    1.414731
|  9> C     -1.425809    0.000177   -1.109541
| 10> C     -1.192222   -0.000179    1.283865
| 11> C     -0.608039    0.000014    0.021203
| 12> C      1.023124    2.379898   -0.470319
| 13> C      1.023043   -2.379763   -0.470812
| 14> C      2.948244   -0.000221    1.058956
| 15> C      0.905320    0.000039   -0.194792
| 16> O      1.326351    1.086368   -0.980293
| 17> O      1.326380   -1.086139   -0.980478
| 18> O      1.520552   -0.000056    1.068131
| 19> H     -4.465338   -0.000067    0.390194
| 20> H     -3.431913    0.000275   -1.861615
| 21> H     -3.022627   -0.000356    2.401202
| 22> H     -0.970398    0.000327   -2.090355
| 23> H     -0.562616   -0.000306    2.160548
| 24> H      1.487995    3.084722   -1.155242
| 25> H      1.431223    2.525679    0.531882
| 26> H     -0.053609    2.559742   -0.444154
| 27> H      1.430937   -2.525742    0.531445
| 28> H      1.488048   -3.084462   -1.155774
| 29> H     -0.053696   -2.559606   -0.444897
| 30> H      3.344275    0.885053    0.560867
| 31> H      3.344088   -0.886340    0.562212
| 32> H      3.250946    0.000524    2.103146
| 33> *
| 34>
| 35>                          ****END OF INPUT****

CARTESIAN COORDINATES (ANGSTROEM)
---------------------------------
  C     -3.388472   -0.000044    0.286846
  C     -2.807439    0.000148   -0.978192
  C     -2.578343   -0.000206    1.414731
  C     -1.425809    0.000177   -1.109541
  C     -1.192222   -0.000179    1.283865
  C     -0.608039    0.000014    0.021203
  C      1.023124    2.379898   -0.470319
  C      1.023043   -2.379763   -0.470812
  C      2.948244   -0.000221    1.058956
  C      0.905320    0.000039   -0.194792
  O      1.326351    1.086368   -0.980293
  O      1.326380   -1.086139   -0.980478
  O      1.520552   -0.000056    1.068131
  H     -4.465338   -0.000067    0.390194
  H     -3.431913    0.000275   -1.861615
  H     -3.022627   -0.000356    2.401202
  H     -0.970398    0.000327   -2.090355
  H     -0.562616   -0.000306    2.160548
  H      1.487995    3.084722   -1.155242
  H      1.431223    2.525679    0.531882
  H     -0.053609    2.559742   -0.444154
  H      1.430937   -2.525742    0.531445
  H      1.488048   -3.084462   -1.155774
  H     -0.053696   -2.559606   -0.444897
  H      3.344275    0.885053    0.560867
  H      3.344088   -0.886340    0.562212
  H      3.250946    0.000524    2.103146

 Total Charge           Charge          ....    0
 Multiplicity           Mult            ....    1
 Number of Electrons    NEL             ....   98
 Basis Dimension        Dim             .... 1684

ORBITAL ENERGIES
----------------

  NO   OCC          E(Eh)            E(eV)
   0   2.0000     -20.564437      -559.5868
   1   2.0000     -20.559355      -559.4485
   2   2.0000     -20.559341      -559.4481
   3   2.0000     -11.395089      -310.0761
   4   2.0000     -11.269594      -306.6612
   5   2.0000     -11.267288      -306.5985
   6   2.0000     -11.267285      -306.5984
   7   2.0000     -11.237333      -305.7834
   8   2.0000     -11.235580      -305.7357
   9   2.0000     -11.233818      -305.6877
  10   2.0000     -11.233342      -305.6748
  11   2.0000     -11.232190      -305.6434
  12   2.0000     -11.232025      -305.6389
  13   2.0000      -1.454212       -39.5711
  14   2.0000      -1.350167       -36.7399
  15   2.0000      -1.347114       -36.6568
  16   2.0000      -1.156359       -31.4661
  17   2.0000      -1.040299       -28.3080
  18   2.0000      -1.016677       -27.6652
  19   2.0000      -0.980831       -26.6898
  20   2.0000      -0.942443       -25.6452
  21   2.0000      -0.911176       -24.7943
  22   2.0000      -0.853071       -23.2132
  23   2.0000      -0.826911       -22.5014
  24   2.0000      -0.781224       -21.2582
  25   2.0000      -0.727225       -19.7888
  26   2.0000      -0.707689       -19.2572
  27   2.0000      -0.700734       -19.0680
  28   2.0000      -0.671296       -18.2669
  29   2.0000      -0.645483       -17.5645
  30   2.0000      -0.628497       -17.1023
  31   2.0000      -0.621648       -16.9159
  32   2.0000      -0.611268       -16.6334
  33   2.0000      -0.600547       -16.3417
  34   2.0000      -0.588959       -16.0264
  35   2.0000      -0.585125       -15.9221
  36   2.0000      -0.563283       -15.3277
  37   2.0000      -0.561969       -15.2919
  38   2.0000      -0.537811       -14.6346
  39   2.0000      -0.512756       -13.9528
  40   2.0000      -0.512359       -13.9420
  41   2.0000      -0.501919       -13.6579
  42   2.0000      -0.494507       -13.4562
  43   2.0000      -0.461985       -12.5713
  44   2.0000      -0.453780       -12.3480
  45   2.0000      -0.446662       -12.1543
  46   2.0000      -0.437511       -11.9053
  47   2.0000      -0.339144        -9.2286
  48   2.0000      -0.337261        -9.1773
  49   0.0000       0.022863         0.6221
  50   0.0000       0.027091         0.7372
  51   0.0000       0.030202         0.8218
  52   0.0000       0.032054         0.8722
  53   0.0000       0.039225         1.0674

MULLIKEN ATOMIC CHARGES
-----------------------
   0 C :   -0.320300
   1 C :   -0.333793
   2 C :   -0.462559
   3 C :   -0.547330
   4 C :   -0.744715
   5 C :    0.266928
   6 C :   -0.877995
   7 C :   -0.877896
   8 C :   -0.933591
   9 C :    3.735483
  10 O :   -1.065264
  11 O :   -1.065295
  12 O :   -0.981613
  13 H :    0.340276
  14 H :    0.198638
  15 H :    0.210102
  16 H :    0.232252
  17 H :    0.286620
  18 H :    0.393522
  19 H :    0.285135
  20 H :    0.291564
  21 H :    0.285041
  22 H :    0.393547
  23 H :    0.291695
  24 H :    0.329388
  25 H :    0.329461
  26 H :    0.340702
Sum of atomic charges:   -0.0000000

LOEWDIN ATOMIC CHARGES
----------------------
   0 C :    0.342174
   1 C :    0.356739
   2 C :    0.354248
   3 C :    0.325920
   4 C :    0.339831
   5 C :   -0.184564
   6 C :    0.587734
   7 C :    0.587725
   8 C :    0.593729
   9 C :   -1.434410
  10 O :    0.856146
  11 O :    0.856160
  12 O :    0.861873
  13 H :   -0.322653
  14 H :   -0.320655
  15 H :   -0.322247
  16 H :   -0.306199
  17 H :   -0.343457
  18 H :   -0.313920
  19 H :   -0.313229
  20 H :   -0.310702
  21 H :   -0.313246
  22 H :   -0.313914
  23 H :   -0.310700
  24 H :   -0.319030
  25 H :   -0.318997
  26 H :   -0.314356

  Mayer bond orders larger than 0.100000
B(  0-C ,  1-C ) :   1.0716 B(  0-C ,  2-C ) :   1.1193 B(  0-C ,  3-C ) :   0.1396
B(  0-C ,  5-C ) :  -0.1155 B(  0-C , 13-H ) :   1.0380 B(  1-C ,  3-C ) :   1.4803
B(  1-C ,  4-C ) :   0.2175 B(  1-C ,  5-C ) :  -0.4552 B(  1-C , 13-H ) :  -0.1075
B(  1-C , 14-H ) :   1.1870 B(  2-C ,  3-C ) :   0.1961 B(  2-C ,  4-C ) :   1.4871
B(  2-C ,  5-C ) :  -0.4729 B(  2-C , 13-H ) :  -0.1276 B(  2-C , 15-H ) :   1.1853
B(  3-C ,  5-C ) :   0.7692 B(  3-C ,  9-C ) :  -0.1524 B(  3-C , 14-H ) :  -0.1203
B(  3-C , 16-H ) :   1.0552 B(  4-C ,  5-C ) :   0.8787 B(  4-C , 15-H ) :  -0.1192
B(  4-C , 17-H ) :   0.9850 B(  5-C ,  9-C ) :   0.3049 B(  5-C , 10-O ) :   0.3538
B(  5-C , 11-O ) :   0.3545 B(  6-C ,  9-C ) :  -0.2528 B(  6-C , 10-O ) :   1.0144
B(  6-C , 18-H ) :   0.9071 B(  6-C , 19-H ) :   0.9460 B(  6-C , 20-H ) :   0.9009
B(  7-C ,  9-C ) :  -0.2528 B(  7-C , 11-O ) :   1.0143 B(  7-C , 21-H ) :   0.9461
B(  7-C , 22-H ) :   0.9071 B(  7-C , 23-H ) :   0.9008 B(  8-C ,  9-C ) :  -0.3570
B(  8-C , 12-O ) :   1.0436 B(  8-C , 24-H ) :   0.8991 B(  8-C , 25-H ) :   0.8989
B(  8-C , 26-H ) :   0.9546 B(  9-C , 10-O ) :  -0.3451 B(  9-C , 11-O ) :  -0.3457
B(  9-C , 16-H ) :  -0.1877 B( 10-O , 11-O ) :   0.1752

MP2 TOTAL ENERGY:     -614.175798228 Eh
FINAL SINGLE POINT ENERGY      -614.175798227543

DIPOLE MOMENT
-------------
                                X             Y             Z
Electronic contribution:     -3.48430       0.00046      -1.59006
Nuclear contribution   :      3.31611      -0.00056       2.09625
                        -----------------------------------------
Total Dipole Moment    :     -0.16819      -0.00010       0.50619
                        -----------------------------------------
Magnitude (a.u.)       :      0.53340
Magnitude (Debye)      :      1.35580

Rotational constants in cm-1:     0.043536     0.020024     0.018815
Rotational constants in MHz :  1305.189719   600.302147   564.073804

                             ****ORCA TERMINATED NORMALLY****
TOTAL RUN TIME: 0 days 4 hours 28 minutes 55 seconds 456 msec
