                         Program Version 5.0.4 -  RELEASE  -
|  1> !ri-mp2 aug-cc-pvqz aug-cc-pvqz/c tightscf
|  2> %pal nprocs 16 end
|  3>
|  4> * xyz 0 1
|  5> C      0.244705    0.078242    1.082742
|  6> C      0.244705    0.078242   -1.082742
|  7> C      0.834997   -0.869296    0.000000
|  8> C     -0.656207    0.731128    0.000000
|  9> C      0.244705   -2.272702    0.000000
| 10> C     -0.820584    2.239722    0.000000
| 11> H     -0.252168   -0.391852    1.932537
| 12> H      0.988396    0.780747    1.462896
| 13> H     -0.252168   -0.391852   -1.932537
| 14> H      0.988396    0.780747   -1.462896
| 15> H      1.923688   -0.935418    0.000000
| 16> H     -1.640735    0.259122    0.000000
| 17> H     -0.847355   -2.246577    0.000000
| 18> H      0.151583    2.738338    0.000000
| 19> H      0.561618   -2.832501   -0.882519
| 20> H      0.561618   -2.832501    0.882519
| 21> H     -1.368402    2.579864   -0.881781
| 22> H     -1.368402    2.579864    0.881781
| 23> *
| 24>
| 25>                          ****END OF INPUT****

CARTESIAN COORDINATES (ANGSTROEM)
---------------------------------
  C      0.244705    0.078242    1.082742
  C      0.244705    0.078242   -1.082742
  C      0.834997   -0.869296    0.000000
  C     -0.656207    0.731128    0.000000
  C      0.244705   -2.272702    0.000000
  C     -0.820584    2.239722    0.000000
  H     -0.252168   -0.391852    1.932537
  H      0.988396    0.780747    1.462896
  H     -0.252168   -0.391852   -1.932537
  H      0.988396    0.780747   -1.462896
  H      1.923688   -0.935418    0.000000
  H     -1.640735    0.259122    0.000000
  H     -0.847355   -2.246577    0.000000
  H      0.151583    2.738338    0.000000
  H      0.561618   -2.832501   -0.882519
  H      0.561618   -2.832501    0.882519
  H     -1.368402    2.579864   -0.881781
  H     -1.368402    2.579864    0.881781

 Total Charge           Charge          ....    0
 Multiplicity           Mult            ....    1
 Number of Electrons    NEL             ....   48
 Basis Dimension        Dim             .... 1032

ORBITAL ENERGIES
----------------

  NO   OCC          E(Eh)            E(eV)
   0   2.0000     -11.218973      -305.2838
   1   2.0000     -11.218691      -305.2761
   2   2.0000     -11.209044      -305.0136
   3   2.0000     -11.209013      -305.0127
   4   2.0000     -11.207907      -304.9827
   5   2.0000     -11.206968      -304.9571
   6   2.0000      -1.131881       -30.8001
   7   2.0000      -1.002531       -27.2802
   8   2.0000      -0.931106       -25.3367
   9   2.0000      -0.892969       -24.2989
  10   2.0000      -0.808171       -21.9914
  11   2.0000      -0.721073       -19.6214
  12   2.0000      -0.640807       -17.4373
  13   2.0000      -0.632825       -17.2200
  14   2.0000      -0.582489       -15.8503
  15   2.0000      -0.554799       -15.0968
  16   2.0000      -0.549492       -14.9524
  17   2.0000      -0.532887       -14.5006
  18   2.0000      -0.526702       -14.3323
  19   2.0000      -0.496252       -13.5037
  20   2.0000      -0.446510       -12.1502
  21   2.0000      -0.443285       -12.0624
  22   2.0000      -0.419890       -11.4258
  23   2.0000      -0.412537       -11.2257
  24   0.0000       0.027036         0.7357
  25   0.0000       0.031075         0.8456
  26   0.0000       0.033100         0.9007
  27   0.0000       0.033585         0.9139
  28   0.0000       0.046243         1.2583

MULLIKEN ATOMIC CHARGES
-----------------------
   0 C :   -0.707150
   1 C :   -0.707150
   2 C :    0.104087
   3 C :    0.188713
   4 C :   -0.987713
   5 C :   -0.929837
   6 H :    0.290629
   7 H :    0.238393
   8 H :    0.290629
   9 H :    0.238392
  10 H :    0.388397
  11 H :    0.261155
  12 H :    0.178407
  13 H :    0.194231
  14 H :    0.255989
  15 H :    0.255987
  16 H :    0.223421
  17 H :    0.223421
Sum of atomic charges:    0.0000000

LOEWDIN ATOMIC CHARGES
----------------------
   0 C :    0.553096
   1 C :    0.553096
   2 C :    0.137597
   3 C :    0.126097
   4 C :    0.928278
   5 C :    0.941701
   6 H :   -0.249503
   7 H :   -0.265072
   8 H :   -0.249503
   9 H :   -0.265072
  10 H :   -0.256843
  11 H :   -0.267171
  12 H :   -0.284968
  13 H :   -0.290439
  14 H :   -0.276775
  15 H :   -0.276775
  16 H :   -0.278872
  17 H :   -0.278872

  Mayer bond orders larger than 0.100000
B(  0-C ,  2-C ) :   0.9399 B(  0-C ,  3-C ) :   0.8747 B(  0-C ,  6-H ) :   0.9051
B(  0-C ,  7-H ) :   0.9450 B(  1-C ,  2-C ) :   0.9399 B(  1-C ,  3-C ) :   0.8747
B(  1-C ,  8-H ) :   0.9051 B(  1-C ,  9-H ) :   0.9450 B(  2-C ,  3-C ) :  -0.2046
B(  2-C ,  4-C ) :   0.7052 B(  2-C , 10-H ) :   0.7673 B(  3-C ,  5-C ) :   0.5733
B(  3-C , 11-H ) :   0.9215 B(  3-C , 16-H ) :  -0.1265 B(  3-C , 17-H ) :  -0.1265
B(  4-C , 12-H ) :   1.0040 B(  4-C , 14-H ) :   0.9941 B(  4-C , 15-H ) :   0.9941
B(  5-C , 13-H ) :   0.9553 B(  5-C , 16-H ) :   1.0781 B(  5-C , 17-H ) :   1.0781

MP2 TOTAL ENERGY:     -235.377786722 Eh
FINAL SINGLE POINT ENERGY      -235.377786722156

DIPOLE MOMENT
-------------
                                X             Y             Z
Electronic contribution:      0.59238      -0.10178      -0.00000
Nuclear contribution   :     -0.59332       0.09424       0.00000
                        -----------------------------------------
Total Dipole Moment    :     -0.00095      -0.00754      -0.00000
                        -----------------------------------------
Magnitude (a.u.)       :      0.00760
Magnitude (Debye)      :      0.01932

Rotational constants in cm-1:     0.261922     0.076574     0.069639
Rotational constants in MHz :  7852.218461  2295.635257  2087.720191

                             ****ORCA TERMINATED NORMALLY****
TOTAL RUN TIME: 0 days 0 hours 47 minutes 9 seconds 405 msec
