                         Program Version 5.0.4 -  RELEASE  -
|  1> !ri-mp2 aug-cc-pvqz aug-cc-pvqz/c tightscf
|  2> %pal nprocs 16 end
|  3>
|  4> * xyz 0 1
|  5> C      1.198990    0.282455   -0.007474
|  6> C      0.320745    1.512346   -0.137212
|  7> C     -1.130694    1.395994    0.326233
|  8> C     -1.862920    0.229297   -0.332913
|  9> C     -1.354109   -1.115286    0.160621
| 10> O      2.401259    0.353705    0.028692
| 11> S      0.466431   -1.359194   -0.017043
| 12> H      0.844846    2.313553    0.384969
| 13> H      0.347720    1.769982   -1.201227
| 14> H     -1.165948    1.279754    1.413293
| 15> H     -1.641074    2.333623    0.100488
| 16> H     -2.931348    0.287651   -0.110885
| 17> H     -1.760809    0.292350   -1.419347
| 18> H     -1.596178   -1.250293    1.214503
| 19> H     -1.802248   -1.937986   -0.394177
| 20> *
| 21>
| 22>                          ****END OF INPUT****

CARTESIAN COORDINATES (ANGSTROEM)
---------------------------------
  C      1.198990    0.282455   -0.007474
  C      0.320745    1.512346   -0.137212
  C     -1.130694    1.395994    0.326233
  C     -1.862920    0.229297   -0.332913
  C     -1.354109   -1.115286    0.160621
  O      2.401259    0.353705    0.028692
  S      0.466431   -1.359194   -0.017043
  H      0.844846    2.313553    0.384969
  H      0.347720    1.769982   -1.201227
  H     -1.165948    1.279754    1.413293
  H     -1.641074    2.333623    0.100488
  H     -2.931348    0.287651   -0.110885
  H     -1.760809    0.292350   -1.419347
  H     -1.596178   -1.250293    1.214503
  H     -1.802248   -1.937986   -0.394177

 Total Charge           Charge          ....    0
 Multiplicity           Mult            ....    1
 Number of Electrons    NEL             ....   62
 Basis Dimension        Dim             ....  932

ORBITAL ENERGIES
----------------

  NO   OCC          E(Eh)            E(eV)
   0   2.0000     -91.964321     -2502.4764
   1   2.0000     -20.548593      -559.1556
   2   2.0000     -11.360379      -309.1316
   3   2.0000     -11.273805      -306.7758
   4   2.0000     -11.250606      -306.1445
   5   2.0000     -11.247901      -306.0709
   6   2.0000     -11.246241      -306.0258
   7   2.0000      -8.966711      -243.9966
   8   2.0000      -6.648002      -180.9013
   9   2.0000      -6.647062      -180.8757
  10   2.0000      -6.646373      -180.8570
  11   2.0000      -1.399077       -38.0708
  12   2.0000      -1.128936       -30.7199
  13   2.0000      -1.038551       -28.2604
  14   2.0000      -1.000403       -27.2224
  15   2.0000      -0.880854       -23.9693
  16   2.0000      -0.831443       -22.6247
  17   2.0000      -0.726273       -19.7629
  18   2.0000      -0.664543       -18.0831
  19   2.0000      -0.644245       -17.5308
  20   2.0000      -0.631966       -17.1967
  21   2.0000      -0.622096       -16.9281
  22   2.0000      -0.599923       -16.3247
  23   2.0000      -0.576001       -15.6738
  24   2.0000      -0.530140       -14.4258
  25   2.0000      -0.518675       -14.1139
  26   2.0000      -0.497183       -13.5290
  27   2.0000      -0.491390       -13.3714
  28   2.0000      -0.455354       -12.3908
  29   2.0000      -0.398115       -10.8333
  30   2.0000      -0.365431        -9.9439
  31   0.0000       0.019243         0.5236
  32   0.0000       0.027689         0.7534
  33   0.0000       0.030224         0.8224
  34   0.0000       0.036359         0.9894
  35   0.0000       0.047084         1.2812

MULLIKEN ATOMIC CHARGES
-----------------------
   0 C :    0.617159
   1 C :   -0.522505
   2 C :   -0.403085
   3 C :   -0.410057
   4 C :   -0.492052
   5 O :   -0.793692
   6 S :   -0.014726
   7 H :    0.276580
   8 H :    0.216294
   9 H :    0.218572
  10 H :    0.276924
  11 H :    0.281772
  12 H :    0.247066
  13 H :    0.219252
  14 H :    0.282496
Sum of atomic charges:    0.0000000

LOEWDIN ATOMIC CHARGES
----------------------
   0 C :   -1.062094
   1 C :    0.414357
   2 C :    0.491671
   3 C :    0.447069
   4 C :    0.182389
   5 O :    0.604818
   6 S :    1.329436
   7 H :   -0.305621
   8 H :   -0.292230
   9 H :   -0.270659
  10 H :   -0.264635
  11 H :   -0.267866
  12 H :   -0.279169
  13 H :   -0.360176
  14 H :   -0.367292

  Mayer bond orders larger than 0.100000
B(  0-C ,  1-C ) :   0.9601 B(  0-C ,  5-O ) :   1.2175 B(  0-C ,  6-S ) :   1.1288
B(  1-C ,  2-C ) :   1.0024 B(  1-C ,  5-O ) :   0.2142 B(  1-C ,  7-H ) :   0.9221
B(  1-C ,  8-H ) :   0.8873 B(  2-C ,  3-C ) :   0.8952 B(  2-C ,  9-H ) :   0.8950
B(  2-C , 10-H ) :   0.9122 B(  3-C ,  4-C ) :   0.9834 B(  3-C , 11-H ) :   0.8470
B(  3-C , 12-H ) :   0.9130 B(  4-C ,  6-S ) :   0.8846 B(  4-C , 13-H ) :   0.9407
B(  4-C , 14-H ) :   0.9203

MP2 TOTAL ENERGY:     -667.867853101 Eh
FINAL SINGLE POINT ENERGY      -667.867853100708

DIPOLE MOMENT
-------------
                                X             Y             Z
Electronic contribution:      7.75197      -4.65620       0.00461
Nuclear contribution   :     -9.70346       5.14776      -0.01143
                        -----------------------------------------
Total Dipole Moment    :     -1.95149       0.49155      -0.00682
                        -----------------------------------------
Magnitude (a.u.)       :      2.01245
Magnitude (Debye)      :      5.11525

Rotational constants in cm-1:     0.105290     0.073600     0.045785
Rotational constants in MHz :  3156.524364  2206.462233  1372.607255

                             ****ORCA TERMINATED NORMALLY****
TOTAL RUN TIME: 0 days 0 hours 47 minutes 4 seconds 578 msec
