                         Program Version 5.0.4 -  RELEASE  -
|  1> !ri-mp2 aug-cc-pvqz aug-cc-pvqz/c tightscf
|  2> %pal nprocs 16 end
|  3> %maxcore 3800
|  4>
|  5> * xyz 0 1
|  6> N      2.144383    0.943689    1.387392
|  7> C      1.971739   -0.048913    0.317057
|  8> C      3.347538   -0.585408   -0.126533
|  9> O      3.499669   -1.288634   -1.089817
| 10> O      4.357944   -0.224123    0.675223
| 11> H      3.948061    0.342244    1.365987
| 12> C      1.161509    0.438981   -0.901876
| 13> C     -0.257433    0.783250   -0.580119
| 14> C     -0.805706    2.035533   -0.532908
| 15> N     -2.138822    1.958860   -0.185729
| 16> C     -2.481917    0.638427   -0.006198
| 17> C     -1.318044   -0.133672   -0.246754
| 18> C     -1.401983   -1.529651   -0.146912
| 19> C     -2.612554   -2.107991    0.190616
| 20> C     -3.751206   -1.320897    0.431315
| 21> C     -3.702578    0.059180    0.334532
| 22> H      1.461495   -0.911416    0.750748
| 23> H      1.667652    1.311632   -1.324861
| 24> H      1.212237   -0.340971   -1.662152
| 25> H     -0.349483    2.989906   -0.737807
| 26> H     -2.764965    2.739256   -0.115895
| 27> H     -0.538307   -2.151734   -0.341881
| 28> H     -2.688793   -3.183992    0.266850
| 29> H     -4.683614   -1.802505    0.692328
| 30> H     -4.582950    0.662376    0.513597
| 31> H      2.105789    1.887369    1.020285
| 32> H      1.416855    0.869019    2.084595
| 33> *
| 34>
| 35>                          ****END OF INPUT****

CARTESIAN COORDINATES (ANGSTROEM)
---------------------------------
  N      2.144383    0.943689    1.387392
  C      1.971739   -0.048913    0.317057
  C      3.347538   -0.585408   -0.126533
  O      3.499669   -1.288634   -1.089817
  O      4.357944   -0.224123    0.675223
  H      3.948061    0.342244    1.365987
  C      1.161509    0.438981   -0.901876
  C     -0.257433    0.783250   -0.580119
  C     -0.805706    2.035533   -0.532908
  N     -2.138822    1.958860   -0.185729
  C     -2.481917    0.638427   -0.006198
  C     -1.318044   -0.133672   -0.246754
  C     -1.401983   -1.529651   -0.146912
  C     -2.612554   -2.107991    0.190616
  C     -3.751206   -1.320897    0.431315
  C     -3.702578    0.059180    0.334532
  H      1.461495   -0.911416    0.750748
  H      1.667652    1.311632   -1.324861
  H      1.212237   -0.340971   -1.662152
  H     -0.349483    2.989906   -0.737807
  H     -2.764965    2.739256   -0.115895
  H     -0.538307   -2.151734   -0.341881
  H     -2.688793   -3.183992    0.266850
  H     -4.683614   -1.802505    0.692328
  H     -4.582950    0.662376    0.513597
  H      2.105789    1.887369    1.020285
  H      1.416855    0.869019    2.084595

 Total Charge           Charge          ....    0
 Multiplicity           Mult            ....    1
 Number of Electrons    NEL             ....  108
 Basis Dimension        Dim             .... 1752

ORBITAL ENERGIES
----------------

  NO   OCC          E(Eh)            E(eV)
   0   2.0000     -20.589833      -560.2778
   1   2.0000     -20.529715      -558.6420
   2   2.0000     -15.610825      -424.7921
   3   2.0000     -15.576617      -423.8613
   4   2.0000     -11.370003      -309.3935
   5   2.0000     -11.289551      -307.2043
   6   2.0000     -11.278885      -306.9141
   7   2.0000     -11.276094      -306.8381
   8   2.0000     -11.244840      -305.9877
   9   2.0000     -11.239595      -305.8449
  10   2.0000     -11.239301      -305.8369
  11   2.0000     -11.237286      -305.7821
  12   2.0000     -11.235461      -305.7324
  13   2.0000     -11.234470      -305.7055
  14   2.0000     -11.228817      -305.5517
  15   2.0000      -1.447017       -39.3753
  16   2.0000      -1.351616       -36.7793
  17   2.0000      -1.307717       -35.5848
  18   2.0000      -1.219549       -33.1856
  19   2.0000      -1.142749       -31.0958
  20   2.0000      -1.092878       -29.7387
  21   2.0000      -1.024076       -27.8665
  22   2.0000      -1.007475       -27.4148
  23   2.0000      -0.984977       -26.8026
  24   2.0000      -0.904386       -24.6096
  25   2.0000      -0.853977       -23.2379
  26   2.0000      -0.819764       -22.3069
  27   2.0000      -0.801368       -21.8063
  28   2.0000      -0.773243       -21.0410
  29   2.0000      -0.737947       -20.0806
  30   2.0000      -0.733818       -19.9682
  31   2.0000      -0.689158       -18.7529
  32   2.0000      -0.675982       -18.3944
  33   2.0000      -0.664150       -18.0724
  34   2.0000      -0.656086       -17.8530
  35   2.0000      -0.628917       -17.1137
  36   2.0000      -0.613874       -16.7044
  37   2.0000      -0.611962       -16.6523
  38   2.0000      -0.606832       -16.5127
  39   2.0000      -0.600789       -16.3483
  40   2.0000      -0.589741       -16.0477
  41   2.0000      -0.568384       -15.4665
  42   2.0000      -0.553774       -15.0690
  43   2.0000      -0.536678       -14.6038
  44   2.0000      -0.530646       -14.4396
  45   2.0000      -0.508902       -13.8479
  46   2.0000      -0.487468       -13.2647
  47   2.0000      -0.477612       -12.9965
  48   2.0000      -0.464223       -12.6321
  49   2.0000      -0.461318       -12.5531
  50   2.0000      -0.420596       -11.4450
  51   2.0000      -0.388443       -10.5701
  52   2.0000      -0.312661        -8.5079
  53   2.0000      -0.295019        -8.0279
  54   0.0000       0.012306         0.3349
  55   0.0000       0.021938         0.5970
  56   0.0000       0.025726         0.7000
  57   0.0000       0.031161         0.8479
  58   0.0000       0.035972         0.9789

MULLIKEN ATOMIC CHARGES
-----------------------
   0 N :   -0.788313
   1 C :   -0.068026
   2 C :    1.302941
   3 O :   -0.864566
   4 O :   -0.945741
   5 H :    0.406520
   6 C :   -0.204444
   7 C :    0.257306
   8 C :   -0.514792
   9 N :   -0.693559
  10 C :    0.507989
  11 C :    0.576132
  12 C :   -0.729170
  13 C :   -0.405265
  14 C :   -0.362358
  15 C :   -0.368427
  16 H :    0.381563
  17 H :    0.346088
  18 H :    0.258759
  19 H :    0.391955
  20 H :    0.053187
  21 H :    0.198951
  22 H :    0.222698
  23 H :    0.263536
  24 H :    0.290390
  25 H :    0.277988
  26 H :    0.208658
Sum of atomic charges:    0.0000000

LOEWDIN ATOMIC CHARGES
----------------------
   0 N :    1.309728
   1 C :   -0.046228
   2 C :   -1.007328
   3 O :    0.683385
   4 O :    1.253209
   5 H :   -0.954070
   6 C :    0.494962
   7 C :   -0.052826
   8 C :    0.259104
   9 N :    0.856131
  10 C :   -0.266610
  11 C :   -0.120382
  12 C :    0.373298
  13 C :    0.343545
  14 C :    0.333320
  15 C :    0.381487
  16 H :   -0.304397
  17 H :   -0.281351
  18 H :   -0.301276
  19 H :   -0.284856
  20 H :   -0.445057
  21 H :   -0.315343
  22 H :   -0.331241
  23 H :   -0.328429
  24 H :   -0.319130
  25 H :   -0.471810
  26 H :   -0.457838

  Mayer bond orders larger than 0.100000
B(  0-N ,  1-C ) :   0.6931 B(  0-N ,  5-H ) :   0.1148 B(  0-N , 25-H ) :   0.8863
B(  0-N , 26-H ) :   1.0305 B(  1-C ,  2-C ) :   1.1876 B(  1-C ,  3-O ) :   0.2922
B(  1-C ,  4-O ) :   0.1690 B(  1-C ,  6-C ) :   0.9747 B(  1-C , 16-H ) :   0.7519
B(  2-C ,  3-O ) :   1.2269 B(  2-C ,  4-O ) :   0.5441 B(  3-O ,  4-O ) :   0.1730
B(  4-O ,  5-H ) :   0.7396 B(  6-C ,  7-C ) :   0.5986 B(  6-C ,  8-C ) :  -0.4048
B(  6-C , 11-C ) :  -0.2437 B(  6-C , 17-H ) :   0.9418 B(  6-C , 18-H ) :   0.8941
B(  7-C ,  8-C ) :   1.5840 B(  7-C ,  9-N ) :  -0.2890 B(  7-C , 10-C ) :  -0.5409
B(  7-C , 11-C ) :   0.6854 B(  7-C , 12-C ) :  -0.1875 B(  8-C ,  9-N ) :   1.0685
B(  8-C , 10-C ) :  -0.1131 B(  8-C , 11-C ) :   0.1088 B(  8-C , 19-H ) :   0.9306
B(  8-C , 20-H ) :  -0.1559 B(  9-N , 10-C ) :   0.6582 B(  9-N , 11-C ) :   0.2056
B(  9-N , 15-C ) :  -0.2157 B(  9-N , 20-H ) :   1.2989 B( 10-C , 11-C ) :   1.0577
B( 10-C , 12-C ) :  -0.1176 B( 10-C , 14-C ) :  -0.2931 B( 10-C , 15-C ) :   1.0983
B( 10-C , 20-H ) :  -0.1446 B( 11-C , 12-C ) :   0.9861 B( 11-C , 13-C ) :  -0.3374
B( 11-C , 15-C ) :  -0.2791 B( 11-C , 21-H ) :  -0.1487 B( 12-C , 13-C ) :   1.3479
B( 12-C , 15-C ) :   0.1258 B( 12-C , 21-H ) :   1.0839 B( 12-C , 22-H ) :  -0.1586
B( 13-C , 14-C ) :   1.1075 B( 13-C , 22-H ) :   1.1705 B( 13-C , 23-H ) :  -0.1132
B( 14-C , 15-C ) :   1.3451 B( 14-C , 23-H ) :   1.1251 B( 15-C , 23-H ) :  -0.1455
B( 15-C , 24-H ) :   0.9877

MP2 TOTAL ENERGY:     -685.301088894 Eh
FINAL SINGLE POINT ENERGY      -685.301088893801

DIPOLE MOMENT
-------------
                                X             Y             Z
Electronic contribution:      1.73603      -0.46218      -1.50972
Nuclear contribution   :     -3.64700       2.38792       2.49512
                        -----------------------------------------
Total Dipole Moment    :     -1.91097       1.92575       0.98540
                        -----------------------------------------
Magnitude (a.u.)       :      2.88640
Magnitude (Debye)      :      7.33666

Rotational constants in cm-1:     0.042335     0.010896     0.009563
Rotational constants in MHz :  1269.172289   326.646243   286.684196

                             ****ORCA TERMINATED NORMALLY****
TOTAL RUN TIME: 0 days 4 hours 52 minutes 51 seconds 1 msec
