                         Program Version 5.0.4 -  RELEASE  -
|  1> !ri-mp2 aug-cc-pvqz aug-cc-pvqz/c tightscf
|  2> %pal nprocs 16 end
|  3>
|  4> * xyz 0 1
|  5> C     0.000000     0.000000    0.340441
|  6> F     0.000000     1.256469   -0.128588
|  7> F    -1.088134    -0.628234   -0.128588
|  8> F     1.088134    -0.628234   -0.128588
|  9> H     0.000000     0.000000    1.429227
| 10> *
| 11>
| 12>                          ****END OF INPUT****

CARTESIAN COORDINATES (ANGSTROEM)
---------------------------------
  C      0.000000    0.000000    0.340441
  F      0.000000    1.256469   -0.128588
  F     -1.088134   -0.628234   -0.128588
  F      1.088134   -0.628234   -0.128588
  H      0.000000    0.000000    1.429227

 Total Charge           Charge          ....    0
 Multiplicity           Mult            ....    1
 Number of Electrons    NEL             ....   34
 Basis Dimension        Dim             ....  366

ORBITAL ENERGIES
----------------

  NO   OCC          E(Eh)            E(eV)
   0   2.0000     -26.343141      -716.8333
   1   2.0000     -26.343141      -716.8333
   2   2.0000     -26.343111      -716.8325
   3   2.0000     -11.510976      -313.2296
   4   2.0000      -1.731794       -47.1245
   5   2.0000      -1.639490       -44.6128
   6   2.0000      -1.639490       -44.6128
   7   2.0000      -0.991841       -26.9894
   8   2.0000      -0.846992       -23.0478
   9   2.0000      -0.825138       -22.4532
  10   2.0000      -0.825138       -22.4532
  11   2.0000      -0.713355       -19.4114
  12   2.0000      -0.713355       -19.4114
  13   2.0000      -0.671040       -18.2599
  14   2.0000      -0.671040       -18.2599
  15   2.0000      -0.655685       -17.8421
  16   2.0000      -0.600648       -16.3445
  17   0.0000       0.025314         0.6888
  18   0.0000       0.064460         1.7540
  19   0.0000       0.064460         1.7540
  20   0.0000       0.065522         1.7830
  21   0.0000       0.119778         3.2593

MULLIKEN ATOMIC CHARGES
-----------------------
   0 C :    1.247528
   1 F :   -0.516733
   2 F :   -0.516733
   3 F :   -0.516733
   4 H :    0.302670
Sum of atomic charges:    0.0000000

LOEWDIN ATOMIC CHARGES
----------------------
   0 C :   -1.709432
   1 F :    0.725700
   2 F :    0.725701
   3 F :    0.725701
   4 H :   -0.467670

  Mayer bond orders larger than 0.100000
B(  0-C ,  1-F ) :   0.6852 B(  0-C ,  2-F ) :   0.6852 B(  0-C ,  3-F ) :   0.6852
B(  0-C ,  4-H ) :   0.8438

MP2 TOTAL ENERGY:     -337.940060268 Eh
FINAL SINGLE POINT ENERGY      -337.940060267647

DIPOLE MOMENT
-------------
                                X             Y             Z
Electronic contribution:      0.00000      -0.00000      -0.91882
Nuclear contribution   :      0.00000      -0.00000       1.65097
                        -----------------------------------------
Total Dipole Moment    :      0.00000      -0.00000       0.73215
                        -----------------------------------------
Magnitude (a.u.)       :      0.73215
Magnitude (Debye)      :      1.86098

Rotational constants in cm-1:     0.341691     0.341691     0.187355
Rotational constants in MHz : 10243.652650 10243.648948  5616.749486

                             ****ORCA TERMINATED NORMALLY****
TOTAL RUN TIME: 0 days 0 hours 2 minutes 4 seconds 801 msec
