                         Program Version 5.0.4 -  RELEASE  -
|  1> !ri-mp2 aug-cc-pvqz aug-cc-pvqz/c tightscf
|  2> %pal nprocs 16 end
|  3> %maxcore 3800
|  4>
|  5> * xyz 0 1
|  6> C      0.303046    2.442712   -0.429029
|  7> C     -2.266973   -0.958910   -0.429029
|  8> C      1.963927   -1.483802   -0.429029
|  9> C     -0.336477    1.361557    0.436145
| 10> C     -1.010905   -0.972176    0.436145
| 11> C      1.347381   -0.389381    0.436145
| 12> N      0.000000    0.000000    0.013396
| 13> H      1.392234    2.405845   -0.399061
| 14> H     -0.007763    2.331357   -1.467880
| 15> H      0.000000    3.431615   -0.080419
| 16> H     -2.779640    0.002788   -0.399061
| 17> H     -2.015133   -1.172401   -1.467880
| 18> H     -2.971866   -1.715807   -0.080419
| 19> H      1.387406   -2.408633   -0.399061
| 20> H      2.022896   -1.158955   -1.467880
| 21> H      2.971866   -1.715807   -0.080419
| 22> H     -1.418618    1.473387    0.378135
| 23> H     -0.069001    1.520307    1.495273
| 24> H     -0.566682   -1.965253    0.378135
| 25> H     -1.282124   -0.819910    1.495273
| 26> H      1.985300    0.491866    0.378135
| 27> H      1.351125   -0.700397    1.495273
| 28> *
| 29>
| 30>                          ****END OF INPUT****

CARTESIAN COORDINATES (ANGSTROEM)
---------------------------------
  C      0.303046    2.442712   -0.429029
  C     -2.266973   -0.958910   -0.429029
  C      1.963927   -1.483802   -0.429029
  C     -0.336477    1.361557    0.436145
  C     -1.010905   -0.972176    0.436145
  C      1.347381   -0.389381    0.436145
  N      0.000000    0.000000    0.013396
  H      1.392234    2.405845   -0.399061
  H     -0.007763    2.331357   -1.467880
  H      0.000000    3.431615   -0.080419
  H     -2.779640    0.002788   -0.399061
  H     -2.015133   -1.172401   -1.467880
  H     -2.971866   -1.715807   -0.080419
  H      1.387406   -2.408633   -0.399061
  H      2.022896   -1.158955   -1.467880
  H      2.971866   -1.715807   -0.080419
  H     -1.418618    1.473387    0.378135
  H     -0.069001    1.520307    1.495273
  H     -0.566682   -1.965253    0.378135
  H     -1.282124   -0.819910    1.495273
  H      1.985300    0.491866    0.378135
  H      1.351125   -0.700397    1.495273

 Total Charge           Charge          ....    0
 Multiplicity           Mult            ....    1
 Number of Electrons    NEL             ....   58
 Basis Dimension        Dim             .... 1250

ORBITAL ENERGIES
----------------

  NO   OCC          E(Eh)            E(eV)
   0   2.0000     -15.535708      -422.7481
   1   2.0000     -11.241653      -305.9009
   2   2.0000     -11.241653      -305.9009
   3   2.0000     -11.241630      -305.9003
   4   2.0000     -11.206776      -304.9519
   5   2.0000     -11.206776      -304.9519
   6   2.0000     -11.206776      -304.9519
   7   2.0000      -1.220406       -33.2089
   8   2.0000      -1.021749       -27.8032
   9   2.0000      -1.021749       -27.8032
  10   2.0000      -0.955084       -25.9892
  11   2.0000      -0.844204       -22.9719
  12   2.0000      -0.844204       -22.9719
  13   2.0000      -0.769173       -20.9303
  14   2.0000      -0.643054       -17.4984
  15   2.0000      -0.643054       -17.4984
  16   2.0000      -0.621415       -16.9096
  17   2.0000      -0.590965       -16.0810
  18   2.0000      -0.590965       -16.0810
  19   2.0000      -0.548333       -14.9209
  20   2.0000      -0.531596       -14.4655
  21   2.0000      -0.518086       -14.0978
  22   2.0000      -0.518086       -14.0978
  23   2.0000      -0.493755       -13.4358
  24   2.0000      -0.492106       -13.3909
  25   2.0000      -0.492105       -13.3909
  26   2.0000      -0.460370       -12.5273
  27   2.0000      -0.460370       -12.5273
  28   2.0000      -0.346923        -9.4403
  29   0.0000       0.027522         0.7489
  30   0.0000       0.031243         0.8502
  31   0.0000       0.031244         0.8502
  32   0.0000       0.032591         0.8868
  33   0.0000       0.045486         1.2377

MULLIKEN ATOMIC CHARGES
-----------------------
   0 C :   -0.871157
   1 C :   -0.871279
   2 C :   -0.871170
   3 C :   -0.408960
   4 C :   -0.408925
   5 C :   -0.409065
   6 N :   -0.089754
   7 H :    0.221295
   8 H :    0.225423
   9 H :    0.286894
  10 H :    0.221265
  11 H :    0.225427
  12 H :    0.287024
  13 H :    0.221301
  14 H :    0.225395
  15 H :    0.286996
  16 H :    0.359738
  17 H :    0.216742
  18 H :    0.359770
  19 H :    0.216587
  20 H :    0.359723
  21 H :    0.216732
Sum of atomic charges:    0.0000000

LOEWDIN ATOMIC CHARGES
----------------------
   0 C :    0.942232
   1 C :    0.942231
   2 C :    0.942232
   3 C :    0.328534
   4 C :    0.328534
   5 C :    0.328534
   6 N :    0.520921
   7 H :   -0.298666
   8 H :   -0.277248
   9 H :   -0.280532
  10 H :   -0.298665
  11 H :   -0.277248
  12 H :   -0.280532
  13 H :   -0.298666
  14 H :   -0.277248
  15 H :   -0.280532
  16 H :   -0.329831
  17 H :   -0.258129
  18 H :   -0.329831
  19 H :   -0.258129
  20 H :   -0.329830
  21 H :   -0.258129

  Mayer bond orders larger than 0.100000
B(  0-C ,  3-C ) :   0.8712 B(  0-C ,  7-H ) :   0.9729 B(  0-C ,  8-H ) :   0.9756
B(  0-C ,  9-H ) :   1.0062 B(  1-C ,  4-C ) :   0.8712 B(  1-C , 10-H ) :   0.9730
B(  1-C , 11-H ) :   0.9756 B(  1-C , 12-H ) :   1.0060 B(  2-C ,  5-C ) :   0.8711
B(  2-C , 13-H ) :   0.9729 B(  2-C , 14-H ) :   0.9756 B(  2-C , 15-H ) :   1.0061
B(  3-C ,  6-N ) :   0.8147 B(  3-C ,  9-H ) :  -0.1062 B(  3-C , 16-H ) :   0.8321
B(  3-C , 17-H ) :   0.9424 B(  4-C ,  6-N ) :   0.8145 B(  4-C , 12-H ) :  -0.1063
B(  4-C , 18-H ) :   0.8321 B(  4-C , 19-H ) :   0.9426 B(  5-C ,  6-N ) :   0.8146
B(  5-C , 15-H ) :  -0.1063 B(  5-C , 20-H ) :   0.8322 B(  5-C , 21-H ) :   0.9425

MP2 TOTAL ENERGY:     -291.863436708 Eh
FINAL SINGLE POINT ENERGY      -291.863436707799

DIPOLE MOMENT
-------------
                                X             Y             Z
Electronic contribution:     -0.00000      -0.00000       0.50187
Nuclear contribution   :      0.00000       0.00000      -0.23873
                        -----------------------------------------
Total Dipole Moment    :     -0.00000      -0.00000       0.26314
                        -----------------------------------------
Magnitude (a.u.)       :      0.26314
Magnitude (Debye)      :      0.66885

Rotational constants in cm-1:     0.076686     0.076686     0.043871
Rotational constants in MHz :  2298.980328  2298.979604  1315.212121

                             ****ORCA TERMINATED NORMALLY****
TOTAL RUN TIME: 0 days 1 hours 6 minutes 30 seconds 83 msec
