                         Program Version 5.0.4 -  RELEASE  -
|  1> !ri-mp2 aug-cc-pvqz aug-cc-pvqz/c tightscf
|  2> %pal nprocs 16 end
|  3>
|  4> * xyz 0 1
|  5> C     -1.897971   -0.000097    0.008691
|  6> C     -1.196697    1.200136    0.001975
|  7> C     -1.196435   -1.200271    0.001973
|  8> C      0.193419    1.197285   -0.008982
|  9> C      0.193595   -1.197195   -0.008976
| 10> C      0.910843    0.000147   -0.011486
| 11> C      2.417290    0.000075    0.009328
| 12> H     -2.979553   -0.000212    0.014466
| 13> H     -1.731919    2.140543    0.001706
| 14> H     -1.731521   -2.140756    0.001687
| 15> H      0.729597    2.138337   -0.018405
| 16> H      0.729920   -2.138174   -0.018405
| 17> H      2.822376   -0.877771   -0.494005
| 18> H      2.822189    0.887290   -0.477332
| 19> H      2.794646   -0.009730    1.035147
| 20> *
| 21>
| 22>                          ****END OF INPUT****

CARTESIAN COORDINATES (ANGSTROEM)
---------------------------------
  C     -1.897971   -0.000097    0.008691
  C     -1.196697    1.200136    0.001975
  C     -1.196435   -1.200271    0.001973
  C      0.193419    1.197285   -0.008982
  C      0.193595   -1.197195   -0.008976
  C      0.910843    0.000147   -0.011486
  C      2.417290    0.000075    0.009328
  H     -2.979553   -0.000212    0.014466
  H     -1.731919    2.140543    0.001706
  H     -1.731521   -2.140756    0.001687
  H      0.729597    2.138337   -0.018405
  H      0.729920   -2.138174   -0.018405
  H      2.822376   -0.877771   -0.494005
  H      2.822189    0.887290   -0.477332
  H      2.794646   -0.009730    1.035147

 Total Charge           Charge          ....    0
 Multiplicity           Mult            ....    1
 Number of Electrons    NEL             ....   50
 Basis Dimension        Dim             ....  928

ORBITAL ENERGIES
----------------

  NO   OCC          E(Eh)            E(eV)
   0   2.0000     -11.239239      -305.8352
   1   2.0000     -11.230907      -305.6085
   2   2.0000     -11.230739      -305.6039
   3   2.0000     -11.226625      -305.4920
   4   2.0000     -11.226224      -305.4811
   5   2.0000     -11.226130      -305.4785
   6   2.0000     -11.222068      -305.3680
   7   2.0000      -1.152923       -31.3726
   8   2.0000      -1.044246       -28.4154
   9   2.0000      -1.011434       -27.5225
  10   2.0000      -0.932758       -25.3816
  11   2.0000      -0.824629       -22.4393
  12   2.0000      -0.797689       -21.7062
  13   2.0000      -0.693401       -18.8684
  14   2.0000      -0.633444       -17.2369
  15   2.0000      -0.630824       -17.1656
  16   2.0000      -0.583123       -15.8676
  17   2.0000      -0.576008       -15.6740
  18   2.0000      -0.566979       -15.4283
  19   2.0000      -0.539543       -14.6817
  20   2.0000      -0.489253       -13.3132
  21   2.0000      -0.487288       -13.2598
  22   2.0000      -0.485414       -13.2088
  23   2.0000      -0.334771        -9.1096
  24   2.0000      -0.324383        -8.8269
  25   0.0000       0.026426         0.7191
  26   0.0000       0.028866         0.7855
  27   0.0000       0.030125         0.8198
  28   0.0000       0.041289         1.1235
  29   0.0000       0.042398         1.1537

MULLIKEN ATOMIC CHARGES
-----------------------
   0 C :   -0.341070
   1 C :   -0.368883
   2 C :   -0.367642
   3 C :   -0.322564
   4 C :   -0.320599
   5 C :    0.291392
   6 C :   -0.760324
   7 H :    0.331583
   8 H :    0.250547
   9 H :    0.250769
  10 H :    0.318995
  11 H :    0.320645
  12 H :    0.216599
  13 H :    0.217588
  14 H :    0.282964
Sum of atomic charges:    0.0000000

LOEWDIN ATOMIC CHARGES
----------------------
   0 C :    0.331314
   1 C :    0.336989
   2 C :    0.336961
   3 C :    0.336530
   4 C :    0.336423
   5 C :   -0.081808
   6 C :    0.904497
   7 H :   -0.327774
   8 H :   -0.324228
   9 H :   -0.324235
  10 H :   -0.322624
  11 H :   -0.322413
  12 H :   -0.300172
  13 H :   -0.300784
  14 H :   -0.278676

  Mayer bond orders larger than 0.100000
B(  0-C ,  1-C ) :   1.1755 B(  0-C ,  2-C ) :   1.1744 B(  0-C ,  7-H ) :   0.9882
B(  1-C ,  3-C ) :   1.3307 B(  1-C ,  4-C ) :   0.1446 B(  1-C ,  5-C ) :  -0.1968
B(  1-C ,  8-H ) :   1.1077 B(  2-C ,  3-C ) :   0.1452 B(  2-C ,  4-C ) :   1.3296
B(  2-C ,  5-C ) :  -0.1941 B(  2-C ,  9-H ) :   1.1072 B(  3-C ,  5-C ) :   1.0324
B(  3-C ,  8-H ) :  -0.1115 B(  3-C , 10-H ) :   0.9414 B(  4-C ,  5-C ) :   1.0335
B(  4-C ,  9-H ) :  -0.1114 B(  4-C , 11-H ) :   0.9394 B(  5-C ,  6-C ) :   0.7758
B(  5-C , 12-H ) :  -0.1037 B(  5-C , 13-H ) :  -0.1042 B(  6-C , 12-H ) :   1.0361
B(  6-C , 13-H ) :   1.0360 B(  6-C , 14-H ) :   0.9294

MP2 TOTAL ENERGY:     -271.050535525 Eh
FINAL SINGLE POINT ENERGY      -271.050535525274

DIPOLE MOMENT
-------------
                                X             Y             Z
Electronic contribution:     -3.36404       0.00009      -0.03350
Nuclear contribution   :      3.52184      -0.00048       0.04572
                        -----------------------------------------
Total Dipole Moment    :      0.15781      -0.00039       0.01222
                        -----------------------------------------
Magnitude (a.u.)       :      0.15828
Magnitude (Debye)      :      0.40231

Rotational constants in cm-1:     0.186017     0.084228     0.058606
Rotational constants in MHz :  5576.652657  2525.105337  1756.975433

                             ****ORCA TERMINATED NORMALLY****
TOTAL RUN TIME: 0 days 0 hours 37 minutes 18 seconds 46 msec
