                         Program Version 5.0.4 -  RELEASE  -
|  1> !ri-mp2 aug-cc-pvqz aug-cc-pvqz/c tightscf
|  2> %pal nprocs 16 end
|  3> %maxcore 3800
|  4>
|  5> * xyz 0 1
|  6> C     -2.401528    0.502518   -0.667526
|  7> C     -2.260633   -1.021826   -0.364232
|  8> C     -1.222072    1.126694    0.106636
|  9> C     -0.997200   -1.082851    0.518924
| 10> C     -1.144453    0.209527    1.343374
| 11> C      0.221275   -0.773296   -0.380965
| 12> C      0.094854    0.782700   -0.624847
| 13> C      1.349485    1.451766    0.000179
| 14> C      1.581769   -0.992045    0.255521
| 15> C      2.270694    0.335229    0.459780
| 16> C      2.775082   -0.620972   -0.585328
| 17> H     -3.352715    0.889677   -0.300403
| 18> H     -2.352143    0.725742   -1.733924
| 19> H     -2.158654   -1.624292   -1.267296
| 20> H     -3.129856   -1.394619    0.178895
| 21> H     -1.339901    2.191878    0.303109
| 22> H     -0.899022   -2.008675    1.084603
| 23> H     -0.291880    0.414655    1.989396
| 24> H     -2.051980    0.229391    1.948912
| 25> H      0.145237   -1.338197   -1.312928
| 26> H      0.018474    1.024497   -1.684640
| 27> H      1.840307    2.119123   -0.711691
| 28> H      1.063396    2.066804    0.856481
| 29> H      1.694152   -1.794885    0.972678
| 30> H      2.893858    0.506385    1.327317
| 31> H      2.609293   -0.379963   -1.628590
| 32> H      3.707801   -1.132180   -0.391015
| 33> *
| 34>
| 35>                          ****END OF INPUT****

CARTESIAN COORDINATES (ANGSTROEM)
---------------------------------
  C     -2.401528    0.502518   -0.667526
  C     -2.260633   -1.021826   -0.364232
  C     -1.222072    1.126694    0.106636
  C     -0.997200   -1.082851    0.518924
  C     -1.144453    0.209527    1.343374
  C      0.221275   -0.773296   -0.380965
  C      0.094854    0.782700   -0.624847
  C      1.349485    1.451766    0.000179
  C      1.581769   -0.992045    0.255521
  C      2.270694    0.335229    0.459780
  C      2.775082   -0.620972   -0.585328
  H     -3.352715    0.889677   -0.300403
  H     -2.352143    0.725742   -1.733924
  H     -2.158654   -1.624292   -1.267296
  H     -3.129856   -1.394619    0.178895
  H     -1.339901    2.191878    0.303109
  H     -0.899022   -2.008675    1.084603
  H     -0.291880    0.414655    1.989396
  H     -2.051980    0.229391    1.948912
  H      0.145237   -1.338197   -1.312928
  H      0.018474    1.024497   -1.684640
  H      1.840307    2.119123   -0.711691
  H      1.063396    2.066804    0.856481
  H      1.694152   -1.794885    0.972678
  H      2.893858    0.506385    1.327317
  H      2.609293   -0.379963   -1.628590
  H      3.707801   -1.132180   -0.391015

 Total Charge           Charge          ....    0
 Multiplicity           Mult            ....    1
 Number of Electrons    NEL             ....   82
 Basis Dimension        Dim             .... 1616

ORBITAL ENERGIES
----------------

  NO   OCC          E(Eh)            E(eV)
   0   2.0000     -11.218800      -305.2791
   1   2.0000     -11.216927      -305.2281
   2   2.0000     -11.216165      -305.2074
   3   2.0000     -11.215658      -305.1936
   4   2.0000     -11.215385      -305.1862
   5   2.0000     -11.214817      -305.1707
   6   2.0000     -11.213723      -305.1409
   7   2.0000     -11.212159      -305.0984
   8   2.0000     -11.210460      -305.0521
   9   2.0000     -11.209906      -305.0371
  10   2.0000     -11.207249      -304.9648
  11   2.0000      -1.182537       -32.1785
  12   2.0000      -1.133991       -30.8575
  13   2.0000      -1.012676       -27.5563
  14   2.0000      -0.985402       -26.8141
  15   2.0000      -0.944844       -25.7105
  16   2.0000      -0.927087       -25.2273
  17   2.0000      -0.830187       -22.5905
  18   2.0000      -0.773630       -21.0515
  19   2.0000      -0.769909       -20.9503
  20   2.0000      -0.743214       -20.2239
  21   2.0000      -0.717789       -19.5320
  22   2.0000      -0.669213       -18.2102
  23   2.0000      -0.663097       -18.0438
  24   2.0000      -0.642691       -17.4885
  25   2.0000      -0.612543       -16.6681
  26   2.0000      -0.579005       -15.7555
  27   2.0000      -0.558984       -15.2107
  28   2.0000      -0.542219       -14.7545
  29   2.0000      -0.517119       -14.0715
  30   2.0000      -0.493994       -13.4423
  31   2.0000      -0.489035       -13.3073
  32   2.0000      -0.482302       -13.1241
  33   2.0000      -0.481308       -13.0971
  34   2.0000      -0.468372       -12.7450
  35   2.0000      -0.450699       -12.2641
  36   2.0000      -0.431088       -11.7305
  37   2.0000      -0.428931       -11.6718
  38   2.0000      -0.421486       -11.4692
  39   2.0000      -0.391185       -10.6447
  40   2.0000      -0.381518       -10.3816
  41   0.0000       0.024085         0.6554
  42   0.0000       0.028355         0.7716
  43   0.0000       0.029250         0.7959
  44   0.0000       0.029937         0.8146
  45   0.0000       0.040207         1.0941

MULLIKEN ATOMIC CHARGES
-----------------------
   0 C :   -0.765517
   1 C :   -0.786884
   2 C :    0.012865
   3 C :   -0.042090
   4 C :   -0.770754
   5 C :    0.261591
   6 C :    0.198769
   7 C :   -0.635976
   8 C :   -0.490296
   9 C :   -0.255577
  10 C :   -0.954518
  11 H :    0.169363
  12 H :    0.240208
  13 H :    0.254895
  14 H :    0.202591
  15 H :    0.317086
  16 H :    0.360219
  17 H :    0.243794
  18 H :    0.164727
  19 H :    0.405077
  20 H :    0.300620
  21 H :    0.231038
  22 H :    0.169548
  23 H :    0.325955
  24 H :    0.353119
  25 H :    0.201329
  26 H :    0.288817
Sum of atomic charges:   -0.0000000

LOEWDIN ATOMIC CHARGES
----------------------
   0 C :    0.570676
   1 C :    0.567096
   2 C :    0.163361
   3 C :    0.169592
   4 C :    0.552806
   5 C :    0.169755
   6 C :    0.183715
   7 C :    0.574638
   8 C :    0.212037
   9 C :    0.213932
  10 C :    0.632226
  11 H :   -0.254757
  12 H :   -0.257105
  13 H :   -0.258772
  14 H :   -0.254905
  15 H :   -0.230384
  16 H :   -0.230239
  17 H :   -0.251891
  18 H :   -0.236087
  19 H :   -0.254493
  20 H :   -0.246615
  21 H :   -0.250845
  22 H :   -0.280798
  23 H :   -0.237764
  24 H :   -0.240320
  25 H :   -0.262098
  26 H :   -0.262762

  Mayer bond orders larger than 0.100000
B(  0-C ,  1-C ) :   1.0239 B(  0-C ,  2-C ) :   0.7077 B(  0-C ,  3-C ) :  -0.1361
B(  0-C , 11-H ) :   1.0972 B(  0-C , 12-H ) :   1.0313 B(  1-C ,  3-C ) :   0.7538
B(  1-C , 13-H ) :   1.0116 B(  1-C , 14-H ) :   1.0593 B(  2-C ,  4-C ) :   0.8374
B(  2-C ,  6-C ) :   0.8372 B(  2-C , 15-H ) :   0.9508 B(  3-C ,  4-C ) :   0.8674
B(  3-C ,  5-C ) :   0.8646 B(  3-C , 16-H ) :   0.9103 B(  4-C , 17-H ) :   0.9387
B(  4-C , 18-H ) :   1.0307 B(  5-C ,  6-C ) :   0.9097 B(  5-C ,  8-C ) :   0.5484
B(  5-C , 10-C ) :  -0.3004 B(  5-C , 19-H ) :   0.8666 B(  6-C ,  7-C ) :   0.5637
B(  6-C ,  8-C ) :   0.1250 B(  6-C , 20-H ) :   0.9140 B(  7-C ,  9-C ) :   0.8200
B(  7-C , 21-H ) :   1.0478 B(  7-C , 22-H ) :   1.0874 B(  8-C ,  9-C ) :   0.8133
B(  8-C , 10-C ) :   1.0443 B(  8-C , 23-H ) :   0.9772 B(  9-C , 10-C ) :   0.9016
B(  9-C , 24-H ) :   0.8956 B( 10-C , 25-H ) :   1.0993 B( 10-C , 26-H ) :   1.0392

MP2 TOTAL ENERGY:     -427.972060630 Eh
FINAL SINGLE POINT ENERGY      -427.972060629918

DIPOLE MOMENT
-------------
                                X             Y             Z
Electronic contribution:      1.62447      -0.50431       0.44297
Nuclear contribution   :     -1.66586       0.51456      -0.38342
                        -----------------------------------------
Total Dipole Moment    :     -0.04140       0.01025       0.05955
                        -----------------------------------------
Magnitude (a.u.)       :      0.07325
Magnitude (Debye)      :      0.18618

Rotational constants in cm-1:     0.081854     0.031837     0.028419
Rotational constants in MHz :  2453.931483   954.450739   851.989861

                             ****ORCA TERMINATED NORMALLY****
TOTAL RUN TIME: 0 days 3 hours 39 minutes 51 seconds 576 msec
