                         Program Version 5.0.4 -  RELEASE  -
|  1> !ri-mp2 aug-cc-pvqz aug-cc-pvqz/c tightscf
|  2> %pal nprocs 16 end
|  3>
|  4> * xyz 0 1
|  5> C      0.328492    0.194175    0.000000
|  6> O     -1.058695    0.337244    0.000000
|  7> F      0.765646    1.447109    0.000000
|  8> F      0.765646   -0.443615    1.077970
|  9> F      0.765646   -0.443615   -1.077970
| 10> F     -1.574869   -0.989103    0.000000
| 11> *
| 12>
| 13>                          ****END OF INPUT****

CARTESIAN COORDINATES (ANGSTROEM)
---------------------------------
  C      0.328492    0.194175    0.000000
  O     -1.058695    0.337244    0.000000
  F      0.765646    1.447109    0.000000
  F      0.765646   -0.443615    1.077970
  F      0.765646   -0.443615   -1.077970
  F     -1.574869   -0.989103    0.000000

 Total Charge           Charge          ....    0
 Multiplicity           Mult            ....    1
 Number of Electrons    NEL             ....   50
 Basis Dimension        Dim             ....  480

ORBITAL ENERGIES
----------------

  NO   OCC          E(Eh)            E(eV)
   0   2.0000     -26.395219      -718.2504
   1   2.0000     -26.383497      -717.9315
   2   2.0000     -26.377984      -717.7814
   3   2.0000     -26.377961      -717.7808
   4   2.0000     -20.746220      -564.5333
   5   2.0000     -11.601929      -315.7045
   6   2.0000      -1.787581       -48.6426
   7   2.0000      -1.693747       -46.0892
   8   2.0000      -1.684051       -45.8254
   9   2.0000      -1.679277       -45.6955
  10   2.0000      -1.393675       -37.9238
  11   2.0000      -0.998817       -27.1792
  12   2.0000      -0.882913       -24.0253
  13   2.0000      -0.881969       -23.9996
  14   2.0000      -0.877637       -23.8817
  15   2.0000      -0.780300       -21.2330
  16   2.0000      -0.766463       -20.8565
  17   2.0000      -0.740875       -20.1602
  18   2.0000      -0.737497       -20.0683
  19   2.0000      -0.712534       -19.3890
  20   2.0000      -0.703855       -19.1529
  21   2.0000      -0.696804       -18.9610
  22   2.0000      -0.690872       -18.7996
  23   2.0000      -0.638752       -17.3813
  24   2.0000      -0.592752       -16.1296
  25   0.0000       0.056332         1.5329
  26   0.0000       0.061718         1.6794
  27   0.0000       0.065013         1.7691
  28   0.0000       0.065678         1.7872
  29   0.0000       0.106576         2.9001

MULLIKEN ATOMIC CHARGES
-----------------------
   0 C :    1.907396
   1 O :   -0.146537
   2 F :   -0.524963
   3 F :   -0.508557
   4 F :   -0.508557
   5 F :   -0.218781
Sum of atomic charges:    0.0000000

LOEWDIN ATOMIC CHARGES
----------------------
   0 C :   -2.699363
   1 O :    0.188507
   2 F :    0.732009
   3 F :    0.733323
   4 F :    0.733323
   5 F :    0.312201

  Mayer bond orders larger than 0.100000
B(  0-C ,  1-O ) :   0.8061 B(  0-C ,  2-F ) :   0.6507 B(  0-C ,  3-F ) :   0.6530
B(  0-C ,  4-F ) :   0.6530 B(  1-O ,  5-F ) :   0.8168

MP2 TOTAL ENERGY:     -512.123548928 Eh
FINAL SINGLE POINT ENERGY      -512.123548928293

DIPOLE MOMENT
-------------
                                X             Y             Z
Electronic contribution:      0.76560      -0.27847      -0.00000
Nuclear contribution   :     -0.65893       0.38754       0.00000
                        -----------------------------------------
Total Dipole Moment    :      0.10667       0.10907      -0.00000
                        -----------------------------------------
Magnitude (a.u.)       :      0.15256
Magnitude (Debye)      :      0.38778

Rotational constants in cm-1:     0.183878     0.102480     0.100420
Rotational constants in MHz :  5512.512944  3072.270089  3010.513577

                             ****ORCA TERMINATED NORMALLY****
TOTAL RUN TIME: 0 days 0 hours 3 minutes 54 seconds 481 msec
