                         Program Version 5.0.4 -  RELEASE  -
|  1> !ri-mp2 aug-cc-pvqz aug-cc-pvqz/c tightscf
|  2> %pal nprocs 16 end
|  3>
|  4> * xyz 0 1
|  5> C     -0.091009    0.344069    0.762763
|  6> C     -0.091009    0.344069   -0.762763
|  7> C     -1.274798    0.863593    0.000000
|  8> C      1.043254    1.383282    0.782434
|  9> C     -0.091009   -1.088216    1.246819
| 10> C      1.043254    1.383282   -0.782434
| 11> C     -0.091009   -1.088216   -1.246819
| 12> C     -0.542343   -1.905205    0.000000
| 13> H     -2.164538    0.249662    0.000000
| 14> H     -1.477867    1.927933    0.000000
| 15> H      1.969402    0.987255    1.196949
| 16> H      0.820737    2.329837    1.278331
| 17> H     -0.731511   -1.283950    2.109647
| 18> H      0.926511   -1.368063    1.532126
| 19> H      0.820737    2.329837   -1.278331
| 20> H      1.969402    0.987255   -1.196949
| 21> H      0.926511   -1.368063   -1.532126
| 22> H     -0.731511   -1.283950   -2.109647
| 23> H     -1.627719   -2.012526    0.000000
| 24> H     -0.132150   -2.915184    0.000000
| 25> *
| 26>
| 27>                          ****END OF INPUT****

CARTESIAN COORDINATES (ANGSTROEM)
---------------------------------
  C     -0.091009    0.344069    0.762763
  C     -0.091009    0.344069   -0.762763
  C     -1.274798    0.863593    0.000000
  C      1.043254    1.383282    0.782434
  C     -0.091009   -1.088216    1.246819
  C      1.043254    1.383282   -0.782434
  C     -0.091009   -1.088216   -1.246819
  C     -0.542343   -1.905205    0.000000
  H     -2.164538    0.249662    0.000000
  H     -1.477867    1.927933    0.000000
  H      1.969402    0.987255    1.196949
  H      0.820737    2.329837    1.278331
  H     -0.731511   -1.283950    2.109647
  H      0.926511   -1.368063    1.532126
  H      0.820737    2.329837   -1.278331
  H      1.969402    0.987255   -1.196949
  H      0.926511   -1.368063   -1.532126
  H     -0.731511   -1.283950   -2.109647
  H     -1.627719   -2.012526    0.000000
  H     -0.132150   -2.915184    0.000000

 Total Charge           Charge          ....    0
 Multiplicity           Mult            ....    1
 Number of Electrons    NEL             ....   60
 Basis Dimension        Dim             .... 1192

ORBITAL ENERGIES
----------------

  NO   OCC          E(Eh)            E(eV)
   0   2.0000     -11.221194      -305.3442
   1   2.0000     -11.221009      -305.3392
   2   2.0000     -11.220487      -305.3250
   3   2.0000     -11.218803      -305.2791
   4   2.0000     -11.218697      -305.2763
   5   2.0000     -11.217396      -305.2409
   6   2.0000     -11.216327      -305.2118
   7   2.0000     -11.215718      -305.1952
   8   2.0000      -1.204238       -32.7690
   9   2.0000      -1.049049       -28.5461
  10   2.0000      -0.972656       -26.4673
  11   2.0000      -0.962153       -26.1815
  12   2.0000      -0.848794       -23.0969
  13   2.0000      -0.835883       -22.7455
  14   2.0000      -0.762415       -20.7464
  15   2.0000      -0.668492       -18.1906
  16   2.0000      -0.667990       -18.1769
  17   2.0000      -0.631307       -17.1787
  18   2.0000      -0.603961       -16.4346
  19   2.0000      -0.566974       -15.4282
  20   2.0000      -0.564995       -15.3743
  21   2.0000      -0.540244       -14.7008
  22   2.0000      -0.532713       -14.4959
  23   2.0000      -0.507010       -13.7964
  24   2.0000      -0.474980       -12.9249
  25   2.0000      -0.470061       -12.7910
  26   2.0000      -0.450687       -12.2638
  27   2.0000      -0.441449       -12.0124
  28   2.0000      -0.392314       -10.6754
  29   2.0000      -0.332691        -9.0530
  30   0.0000       0.026877         0.7314
  31   0.0000       0.031130         0.8471
  32   0.0000       0.031980         0.8702
  33   0.0000       0.033598         0.9142
  34   0.0000       0.044900         1.2218

MULLIKEN ATOMIC CHARGES
-----------------------
   0 C :    0.509334
   1 C :    0.509329
   2 C :   -0.928715
   3 C :   -0.707926
   4 C :   -0.571280
   5 C :   -0.707935
   6 C :   -0.571273
   7 C :   -0.500939
   8 H :    0.370081
   9 H :    0.323703
  10 H :    0.219100
  11 H :    0.269765
  12 H :    0.296652
  13 H :    0.120155
  14 H :    0.269771
  15 H :    0.219104
  16 H :    0.120160
  17 H :    0.296647
  18 H :    0.150853
  19 H :    0.313415
Sum of atomic charges:    0.0000000

LOEWDIN ATOMIC CHARGES
----------------------
   0 C :   -0.189648
   1 C :   -0.189648
   2 C :    0.630302
   3 C :    0.591893
   4 C :    0.581710
   5 C :    0.591893
   6 C :    0.581710
   7 C :    0.552081
   8 H :   -0.269780
   9 H :   -0.253351
  10 H :   -0.266991
  11 H :   -0.253599
  12 H :   -0.256972
  13 H :   -0.270725
  14 H :   -0.253599
  15 H :   -0.266991
  16 H :   -0.270725
  17 H :   -0.256972
  18 H :   -0.274764
  19 H :   -0.255826

  Mayer bond orders larger than 0.100000
B(  0-C ,  1-C ) :   0.7996 B(  0-C ,  2-C ) :   0.8273 B(  0-C ,  3-C ) :   0.6535
B(  0-C ,  4-C ) :   0.3766 B(  0-C ,  5-C ) :  -0.1107 B(  0-C , 12-H ) :  -0.1151
B(  0-C , 13-H ) :  -0.1246 B(  1-C ,  2-C ) :   0.8273 B(  1-C ,  3-C ) :  -0.1107
B(  1-C ,  5-C ) :   0.6535 B(  1-C ,  6-C ) :   0.3766 B(  1-C , 16-H ) :  -0.1246
B(  1-C , 17-H ) :  -0.1151 B(  2-C ,  8-H ) :   0.9027 B(  2-C ,  9-H ) :   0.9894
B(  3-C ,  5-C ) :   1.2474 B(  3-C , 10-H ) :   1.0314 B(  3-C , 11-H ) :   1.0083
B(  4-C ,  7-C ) :   1.0561 B(  4-C , 12-H ) :   0.9635 B(  4-C , 13-H ) :   1.1499
B(  5-C , 14-H ) :   1.0083 B(  5-C , 15-H ) :   1.0314 B(  6-C ,  7-C ) :   1.0561
B(  6-C , 16-H ) :   1.1499 B(  6-C , 17-H ) :   0.9635 B(  7-C , 18-H ) :   0.9764
B(  7-C , 19-H ) :   0.8951

MP2 TOTAL ENERGY:     -311.414162007 Eh
FINAL SINGLE POINT ENERGY      -311.414162006838

DIPOLE MOMENT
-------------
                                X             Y             Z
Electronic contribution:     -0.49795       1.33562       0.00000
Nuclear contribution   :      0.59163      -1.47902       0.00000
                        -----------------------------------------
Total Dipole Moment    :      0.09368      -0.14340       0.00000
                        -----------------------------------------
Magnitude (a.u.)       :      0.17129
Magnitude (Debye)      :      0.43538

Rotational constants in cm-1:     0.119877     0.070995     0.062750
Rotational constants in MHz :  3593.813470  2128.384386  1881.182869

                             ****ORCA TERMINATED NORMALLY****
TOTAL RUN TIME: 0 days 1 hours 29 minutes 53 seconds 164 msec
