                         Program Version 5.0.4 -  RELEASE  -
|  1> !ri-mp2 aug-cc-pvqz aug-cc-pvqz/c tightscf
|  2> %pal nprocs 16 end
|  3>
|  4> * xyz 0 1
|  5> C      0.000000    0.000000   -0.316883
|  6> S      0.000000    0.000000    1.353097
|  7> N      0.000000    1.146987   -1.046835
|  8> N      0.000000   -1.146987   -1.046835
|  9> H      0.128543    2.000926   -0.533905
| 10> H      0.285536    1.143343   -2.012373
| 11> H     -0.128543   -2.000926   -0.533905
| 12> H     -0.285536   -1.143343   -2.012373
| 13> *
| 14>
| 15>                          ****END OF INPUT****

CARTESIAN COORDINATES (ANGSTROEM)
---------------------------------
  C      0.000000    0.000000   -0.316883
  S      0.000000    0.000000    1.353097
  N      0.000000    1.146987   -1.046835
  N      0.000000   -1.146987   -1.046835
  H      0.128543    2.000926   -0.533905
  H      0.285536    1.143343   -2.012373
  H     -0.128543   -2.000926   -0.533905
  H     -0.285536   -1.143343   -2.012373

 Total Charge           Charge          ....    0
 Multiplicity           Mult            ....    1
 Number of Electrons    NEL             ....   40
 Basis Dimension        Dim             ....  508

ORBITAL ENERGIES
----------------

  NO   OCC          E(Eh)            E(eV)
   0   2.0000     -91.887547     -2500.3873
   1   2.0000     -15.603774      -424.6003
   2   2.0000     -15.603749      -424.5996
   3   2.0000     -11.382120      -309.7232
   4   2.0000      -8.891913      -241.9613
   5   2.0000      -6.573750      -178.8808
   6   2.0000      -6.571904      -178.8306
   7   2.0000      -6.571381      -178.8164
   8   2.0000      -1.309469       -35.6325
   9   2.0000      -1.197707       -32.5913
  10   2.0000      -0.977935       -26.6110
  11   2.0000      -0.827878       -22.5277
  12   2.0000      -0.748007       -20.3543
  13   2.0000      -0.730757       -19.8849
  14   2.0000      -0.659911       -17.9571
  15   2.0000      -0.581940       -15.8354
  16   2.0000      -0.513317       -13.9681
  17   2.0000      -0.443455       -12.0670
  18   2.0000      -0.328222        -8.9314
  19   2.0000      -0.323443        -8.8013
  20   0.0000       0.013755         0.3743
  21   0.0000       0.028368         0.7719
  22   0.0000       0.042428         1.1545
  23   0.0000       0.051979         1.4144
  24   0.0000       0.071577         1.9477

MULLIKEN ATOMIC CHARGES
-----------------------
   0 C :    0.218597
   1 S :   -0.187467
   2 N :   -0.611414
   3 N :   -0.611414
   4 H :    0.307367
   5 H :    0.288482
   6 H :    0.307367
   7 H :    0.288482
Sum of atomic charges:   -0.0000000

LOEWDIN ATOMIC CHARGES
----------------------
   0 C :   -1.170842
   1 S :    0.968691
   2 N :    1.143245
   3 N :    1.143245
   4 H :   -0.550806
   5 H :   -0.491364
   6 H :   -0.550806
   7 H :   -0.491364

  Mayer bond orders larger than 0.100000
B(  0-C ,  1-S ) :   1.3548 B(  0-C ,  2-N ) :   1.1623 B(  0-C ,  3-N ) :   1.1623
B(  2-N ,  4-H ) :   0.9005 B(  2-N ,  5-H ) :   0.9120 B(  3-N ,  6-H ) :   0.9005
B(  3-N ,  7-H ) :   0.9120

MP2 TOTAL ENERGY:     -547.544315156 Eh
FINAL SINGLE POINT ENERGY      -547.544315156040

DIPOLE MOMENT
-------------
                                X             Y             Z
Electronic contribution:      0.00000       0.00000       2.91557
Nuclear contribution   :      0.00000       0.00000      -5.07938
                        -----------------------------------------
Total Dipole Moment    :      0.00000       0.00000      -2.16381
                        -----------------------------------------
Magnitude (a.u.)       :      2.16381
Magnitude (Debye)      :      5.49997

Rotational constants in cm-1:     0.352972     0.169993     0.114999
Rotational constants in MHz : 10581.832770  5096.254093  3447.592685

                             ****ORCA TERMINATED NORMALLY****
TOTAL RUN TIME: 0 days 0 hours 4 minutes 17 seconds 854 msec
