                         Program Version 5.0.4 -  RELEASE  -
|  1> !ri-mp2 aug-cc-pvqz aug-cc-pvqz/c tightscf
|  2> %pal nprocs 16 end
|  3>
|  4> * xyz 0 1
|  5> S     -0.747974   -1.318207    0.000000
|  6> C      0.805831    1.524574    0.000000
|  7> C      0.139507    1.011430    1.280779
|  8> C      0.139507    1.011430   -1.280779
|  9> C      0.139507   -0.511309    1.383433
| 10> C      0.139507   -0.511309   -1.383433
| 11> H      0.797332    2.616416    0.000000
| 12> H      1.859810    1.225806    0.000000
| 13> H      1.161031   -0.896509    1.416773
| 14> H      1.161031   -0.896509   -1.416773
| 15> H      0.661931    1.421155    2.150299
| 16> H      0.661931    1.421155   -2.150299
| 17> H     -0.890910    1.371982    1.328857
| 18> H     -0.890910    1.371982   -1.328857
| 19> H     -0.368406   -0.846533   -2.286830
| 20> H     -0.368406   -0.846533    2.286830
| 21> *
| 22>
| 23>                          ****END OF INPUT****

CARTESIAN COORDINATES (ANGSTROEM)
---------------------------------
  S     -0.747974   -1.318207    0.000000
  C      0.805831    1.524574    0.000000
  C      0.139507    1.011430    1.280779
  C      0.139507    1.011430   -1.280779
  C      0.139507   -0.511309    1.383433
  C      0.139507   -0.511309   -1.383433
  H      0.797332    2.616416    0.000000
  H      1.859810    1.225806    0.000000
  H      1.161031   -0.896509    1.416773
  H      1.161031   -0.896509   -1.416773
  H      0.661931    1.421155    2.150299
  H      0.661931    1.421155   -2.150299
  H     -0.890910    1.371982    1.328857
  H     -0.890910    1.371982   -1.328857
  H     -0.368406   -0.846533   -2.286830
  H     -0.368406   -0.846533    2.286830

 Total Charge           Charge          ....    0
 Multiplicity           Mult            ....    1
 Number of Electrons    NEL             ....   56
 Basis Dimension        Dim             ....  944

ORBITAL ENERGIES
----------------

  NO   OCC          E(Eh)            E(eV)
   0   2.0000     -91.934113     -2501.6544
   1   2.0000     -11.250287      -306.1359
   2   2.0000     -11.250279      -306.1357
   3   2.0000     -11.225395      -305.4585
   4   2.0000     -11.225312      -305.4563
   5   2.0000     -11.223326      -305.4022
   6   2.0000      -8.935902      -243.1583
   7   2.0000      -6.617419      -180.0691
   8   2.0000      -6.616547      -180.0454
   9   2.0000      -6.615707      -180.0225
  10   2.0000      -1.115540       -30.3554
  11   2.0000      -1.019670       -27.7466
  12   2.0000      -1.003503       -27.3067
  13   2.0000      -0.843066       -22.9410
  14   2.0000      -0.836917       -22.7737
  15   2.0000      -0.754631       -20.5346
  16   2.0000      -0.645842       -17.5742
  17   2.0000      -0.615633       -16.7522
  18   2.0000      -0.611691       -16.6450
  19   2.0000      -0.579019       -15.7559
  20   2.0000      -0.547388       -14.8952
  21   2.0000      -0.526309       -14.3216
  22   2.0000      -0.499597       -13.5947
  23   2.0000      -0.495617       -13.4864
  24   2.0000      -0.473553       -12.8860
  25   2.0000      -0.435727       -11.8567
  26   2.0000      -0.412647       -11.2287
  27   2.0000      -0.331191        -9.0122
  28   0.0000       0.025555         0.6954
  29   0.0000       0.029467         0.8018
  30   0.0000       0.033144         0.9019
  31   0.0000       0.035564         0.9677
  32   0.0000       0.046785         1.2731

MULLIKEN ATOMIC CHARGES
-----------------------
   0 S :   -0.168199
   1 C :   -0.384132
   2 C :   -0.420550
   3 C :   -0.420550
   4 C :   -0.576096
   5 C :   -0.576096
   6 H :    0.253749
   7 H :    0.195316
   8 H :    0.207159
   9 H :    0.207159
  10 H :    0.282330
  11 H :    0.282330
  12 H :    0.237012
  13 H :    0.237012
  14 H :    0.321777
  15 H :    0.321777
Sum of atomic charges:   -0.0000000

LOEWDIN ATOMIC CHARGES
----------------------
   0 S :    1.350008
   1 C :    0.500519
   2 C :    0.450211
   3 C :    0.450211
   4 C :    0.171045
   5 C :    0.171045
   6 H :   -0.267030
   7 H :   -0.272614
   8 H :   -0.348874
   9 H :   -0.348874
  10 H :   -0.271342
  11 H :   -0.271342
  12 H :   -0.286697
  13 H :   -0.286697
  14 H :   -0.369784
  15 H :   -0.369784

  Mayer bond orders larger than 0.100000
B(  0-S ,  4-C ) :   0.9807 B(  0-S ,  5-C ) :   0.9807 B(  1-C ,  2-C ) :   0.8922
B(  1-C ,  3-C ) :   0.8922 B(  1-C ,  6-H ) :   0.9189 B(  1-C ,  7-H ) :   0.9433
B(  2-C ,  4-C ) :   0.9852 B(  2-C , 10-H ) :   0.8778 B(  2-C , 12-H ) :   0.8955
B(  3-C ,  5-C ) :   0.9852 B(  3-C , 11-H ) :   0.8778 B(  3-C , 13-H ) :   0.8955
B(  4-C ,  8-H ) :   0.9377 B(  4-C , 15-H ) :   0.8811 B(  5-C ,  9-H ) :   0.9377
B(  5-C , 14-H ) :   0.8811

MP2 TOTAL ENERGY:     -593.915279522 Eh
FINAL SINGLE POINT ENERGY      -593.915279521803

DIPOLE MOMENT
-------------
                                X             Y             Z
Electronic contribution:     -3.38535      -5.55282       0.00000
Nuclear contribution   :      3.91843       6.15738       0.00000
                        -----------------------------------------
Total Dipole Moment    :      0.53308       0.60456       0.00000
                        -----------------------------------------
Magnitude (a.u.)       :      0.80602
Magnitude (Debye)      :      2.04875

Rotational constants in cm-1:     0.131962     0.099388     0.063002
Rotational constants in MHz :  3956.119964  2979.566327  1888.755346

                             ****ORCA TERMINATED NORMALLY****
TOTAL RUN TIME: 0 days 0 hours 38 minutes 35 seconds 250 msec
