                         Program Version 5.0.4 -  RELEASE  -
|  1> !ri-mp2 aug-cc-pvqz aug-cc-pvqz/c tightscf
|  2> %pal nprocs 16 end
|  3> %maxcore 3800
|  4>
|  5> * xyz 0 1
|  6> C      0.000000    2.646312   -0.153625
|  7> C     -0.783823    1.911812   -1.237462
|  8> C     -0.502659    1.272733    0.068369
|  9> C      0.000000    0.000000    0.571930
| 10> C     -1.280621    0.550204    1.125888
| 11> C      0.502659   -1.272733    0.068369
| 12> C      1.280621   -0.550204    1.125888
| 13> C      0.783823   -1.911812   -1.237462
| 14> C      0.000000   -2.646312   -0.153625
| 15> H      1.061695    2.787753   -0.310710
| 16> H     -0.492162    3.465471    0.354450
| 17> H     -1.792102    2.247544   -1.442544
| 18> H     -0.237243    1.571736   -2.107218
| 19> H     -1.270911    0.951885    2.132470
| 20> H     -2.207587    0.066955    0.838743
| 21> H      1.270911   -0.951885    2.132470
| 22> H      2.207587   -0.066955    0.838743
| 23> H      0.237243   -1.571736   -2.107218
| 24> H      1.792102   -2.247544   -1.442544
| 25> H      0.492162   -3.465471    0.354450
| 26> H     -1.061695   -2.787753   -0.310710
| 27> *
| 28>
| 29>                          ****END OF INPUT****

CARTESIAN COORDINATES (ANGSTROEM)
---------------------------------
  C      0.000000    2.646312   -0.153625
  C     -0.783823    1.911812   -1.237462
  C     -0.502659    1.272733    0.068369
  C      0.000000    0.000000    0.571930
  C     -1.280621    0.550204    1.125888
  C      0.502659   -1.272733    0.068369
  C      1.280621   -0.550204    1.125888
  C      0.783823   -1.911812   -1.237462
  C      0.000000   -2.646312   -0.153625
  H      1.061695    2.787753   -0.310710
  H     -0.492162    3.465471    0.354450
  H     -1.792102    2.247544   -1.442544
  H     -0.237243    1.571736   -2.107218
  H     -1.270911    0.951885    2.132470
  H     -2.207587    0.066955    0.838743
  H      1.270911   -0.951885    2.132470
  H      2.207587   -0.066955    0.838743
  H      0.237243   -1.571736   -2.107218
  H      1.792102   -2.247544   -1.442544
  H      0.492162   -3.465471    0.354450
  H     -1.061695   -2.787753   -0.310710

 Total Charge           Charge          ....    0
 Multiplicity           Mult            ....    1
 Number of Electrons    NEL             ....   66
 Basis Dimension        Dim             .... 1272

ORBITAL ENERGIES
----------------

  NO   OCC          E(Eh)            E(eV)
   0   2.0000     -11.235932      -305.7452
   1   2.0000     -11.234653      -305.7105
   2   2.0000     -11.234372      -305.7028
   3   2.0000     -11.223163      -305.3978
   4   2.0000     -11.223137      -305.3971
   5   2.0000     -11.223038      -305.3944
   6   2.0000     -11.223038      -305.3944
   7   2.0000     -11.222408      -305.3772
   8   2.0000     -11.222407      -305.3772
   9   2.0000      -1.195812       -32.5397
  10   2.0000      -1.144587       -31.1458
  11   2.0000      -1.073772       -29.2188
  12   2.0000      -1.008753       -27.4496
  13   2.0000      -0.825231       -22.4557
  14   2.0000      -0.823553       -22.4100
  15   2.0000      -0.790826       -21.5195
  16   2.0000      -0.764158       -20.7938
  17   2.0000      -0.704731       -19.1767
  18   2.0000      -0.671155       -18.2631
  19   2.0000      -0.641113       -17.4456
  20   2.0000      -0.638565       -17.3762
  21   2.0000      -0.608005       -16.5447
  22   2.0000      -0.602164       -16.3857
  23   2.0000      -0.526599       -14.3295
  24   2.0000      -0.513367       -13.9694
  25   2.0000      -0.513189       -13.9646
  26   2.0000      -0.480094       -13.0640
  27   2.0000      -0.455729       -12.4010
  28   2.0000      -0.428340       -11.6557
  29   2.0000      -0.427100       -11.6220
  30   2.0000      -0.382031       -10.3956
  31   2.0000      -0.374911       -10.2019
  32   2.0000      -0.370413       -10.0795
  33   0.0000       0.027336         0.7438
  34   0.0000       0.029230         0.7954
  35   0.0000       0.031293         0.8515
  36   0.0000       0.031960         0.8697
  37   0.0000       0.042995         1.1699

MULLIKEN ATOMIC CHARGES
-----------------------
   0 C :   -0.782702
   1 C :   -0.787194
   2 C :    0.237721
   3 C :    0.466738
   4 C :   -0.673377
   5 C :    0.237699
   6 C :   -0.673388
   7 C :   -0.787191
   8 C :   -0.782703
   9 H :    0.278070
  10 H :    0.299941
  11 H :    0.301024
  12 H :    0.316679
  13 H :    0.304150
  14 H :    0.272333
  15 H :    0.304146
  16 H :    0.272343
  17 H :    0.316677
  18 H :    0.300996
  19 H :    0.299966
  20 H :    0.278071
Sum of atomic charges:   -0.0000000

LOEWDIN ATOMIC CHARGES
----------------------
   0 C :    0.629997
   1 C :    0.629682
   2 C :   -0.213753
   3 C :   -0.179215
   4 C :    0.669315
   5 C :   -0.213753
   6 C :    0.669315
   7 C :    0.629682
   8 C :    0.629997
   9 H :   -0.272342
  10 H :   -0.273360
  11 H :   -0.273077
  12 H :   -0.273759
  13 H :   -0.266741
  14 H :   -0.266354
  15 H :   -0.266741
  16 H :   -0.266354
  17 H :   -0.273759
  18 H :   -0.273077
  19 H :   -0.273360
  20 H :   -0.272342

  Mayer bond orders larger than 0.100000
B(  0-C ,  1-C ) :   1.1172 B(  0-C ,  2-C ) :   0.6457 B(  0-C ,  9-H ) :   0.9776
B(  0-C , 10-H ) :   1.0035 B(  1-C ,  2-C ) :   0.5600 B(  1-C , 11-H ) :   1.0015
B(  1-C , 12-H ) :   0.9201 B(  2-C ,  3-C ) :  -0.1701 B(  2-C ,  4-C ) :   0.9335
B(  2-C ,  5-C ) :  -0.1506 B(  2-C , 11-H ) :  -0.1162 B(  3-C ,  4-C ) :   0.6608
B(  3-C ,  5-C ) :  -0.1701 B(  3-C ,  6-C ) :   0.6608 B(  4-C , 13-H ) :   0.9756
B(  4-C , 14-H ) :   0.9939 B(  5-C ,  6-C ) :   0.9335 B(  5-C ,  7-C ) :   0.5600
B(  5-C ,  8-C ) :   0.6457 B(  5-C , 18-H ) :  -0.1163 B(  6-C , 15-H ) :   0.9756
B(  6-C , 16-H ) :   0.9939 B(  7-C ,  8-C ) :   1.1172 B(  7-C , 17-H ) :   0.9201
B(  7-C , 18-H ) :   1.0016 B(  8-C , 19-H ) :   1.0035 B(  8-C , 20-H ) :   0.9776

MP2 TOTAL ENERGY:     -349.355403733 Eh
FINAL SINGLE POINT ENERGY      -349.355403733178

DIPOLE MOMENT
-------------
                                X             Y             Z
Electronic contribution:     -0.00000      -0.00000       1.10306
Nuclear contribution   :      0.00000       0.00000      -1.10306
                        -----------------------------------------
Total Dipole Moment    :     -0.00000      -0.00000      -0.00000
                        -----------------------------------------
Magnitude (a.u.)       :      0.00000
Magnitude (Debye)      :      0.00001

Rotational constants in cm-1:     0.106366     0.038162     0.035468
Rotational constants in MHz :  3188.773290  1144.058687  1063.315873

                             ****ORCA TERMINATED NORMALLY****
TOTAL RUN TIME: 0 days 1 hours 38 minutes 23 seconds 861 msec
