                         Program Version 5.0.4 -  RELEASE  -
|  1> !ri-mp2 aug-cc-pvqz aug-cc-pvqz/c tightscf
|  2> %pal nprocs 16 end
|  3>
|  4> * xyz 0 1
|  5> C     0.000000    0.000000     0.251893
|  6> F     0.000000    0.000000     1.591574
|  7> Cl    0.000000    1.691025    -0.310500
|  8> Cl    1.464470   -0.845512    -0.310500
|  9> Cl   -1.464470   -0.845512    -0.310500
| 10> *
| 11>
| 12>                          ****END OF INPUT****

CARTESIAN COORDINATES (ANGSTROEM)
---------------------------------
  C      0.000000    0.000000    0.251893
  F      0.000000    0.000000    1.591574
  Cl     0.000000    1.691025   -0.310500
  Cl     1.464470   -0.845512   -0.310500
  Cl    -1.464470   -0.845512   -0.310500

 Total Charge           Charge          ....    0
 Multiplicity           Mult            ....    1
 Number of Electrons    NEL             ....   66
 Basis Dimension        Dim             ....  412

ORBITAL ENERGIES
----------------

  NO   OCC          E(Eh)            E(eV)
   0   2.0000    -104.879234     -2853.9090
   1   2.0000    -104.879234     -2853.9090
   2   2.0000    -104.879233     -2853.9090
   3   2.0000     -26.362390      -717.3571
   4   2.0000     -11.530748      -313.7676
   5   2.0000     -10.604645      -288.5670
   6   2.0000     -10.604644      -288.5670
   7   2.0000     -10.604629      -288.5666
   8   2.0000      -8.071607      -219.6396
   9   2.0000      -8.071607      -219.6396
  10   2.0000      -8.071603      -219.6395
  11   2.0000      -8.069582      -219.5845
  12   2.0000      -8.069582      -219.5845
  13   2.0000      -8.069580      -219.5844
  14   2.0000      -8.069565      -219.5840
  15   2.0000      -8.069563      -219.5840
  16   2.0000      -8.069563      -219.5840
  17   2.0000      -1.693240       -46.0754
  18   2.0000      -1.236854       -33.6565
  19   2.0000      -1.131371       -30.7862
  20   2.0000      -1.131371       -30.7862
  21   2.0000      -0.900636       -24.5076
  22   2.0000      -0.765340       -20.8260
  23   2.0000      -0.765340       -20.8260
  24   2.0000      -0.740016       -20.1369
  25   2.0000      -0.604638       -16.4530
  26   2.0000      -0.604638       -16.4530
  27   2.0000      -0.524336       -14.2679
  28   2.0000      -0.510758       -13.8984
  29   2.0000      -0.510758       -13.8984
  30   2.0000      -0.478963       -13.0332
  31   2.0000      -0.478963       -13.0332
  32   2.0000      -0.464913       -12.6509
  33   0.0000       0.042786         1.1643
  34   0.0000       0.056809         1.5458
  35   0.0000       0.056809         1.5458
  36   0.0000       0.072757         1.9798
  37   0.0000       0.083368         2.2686

MULLIKEN ATOMIC CHARGES
-----------------------
   0 C :    0.660001
   1 F :   -0.459100
   2 Cl:   -0.066967
   3 Cl:   -0.066967
   4 Cl:   -0.066967
Sum of atomic charges:    0.0000000

LOEWDIN ATOMIC CHARGES
----------------------
   0 C :   -3.214833
   1 F :    0.523900
   2 Cl:    0.896977
   3 Cl:    0.896978
   4 Cl:    0.896978

  Mayer bond orders larger than 0.100000
B(  0-C ,  1-F ) :   0.6098 B(  0-C ,  2-Cl) :   0.9474 B(  0-C ,  3-Cl) :   0.9474
B(  0-C ,  4-Cl) :   0.9474

MP2 TOTAL ENERGY:    -1516.991892609 Eh
FINAL SINGLE POINT ENERGY     -1516.991892609417

DIPOLE MOMENT
-------------
                                X             Y             Z
Electronic contribution:      0.00000      -0.00000       0.02242
Nuclear contribution   :      0.00000      -0.00000      -0.21581
                        -----------------------------------------
Total Dipole Moment    :      0.00000      -0.00000      -0.19339
                        -----------------------------------------
Magnitude (a.u.)       :      0.19339
Magnitude (Debye)      :      0.49155

Rotational constants in cm-1:     0.079815     0.079815     0.055427
Rotational constants in MHz :  2392.783022  2392.782270  1661.665367

                             ****ORCA TERMINATED NORMALLY****
TOTAL RUN TIME: 0 days 0 hours 3 minutes 14 seconds 547 msec
