                         Program Version 5.0.4 -  RELEASE  -
|  1> !ri-mp2 aug-cc-pvqz aug-cc-pvqz/c tightscf
|  2> %pal nprocs 16 end
|  3>
|  4> * xyz 0 1
|  5> C     -1.136499   -0.015675   -0.013358
|  6> C     -0.351177    1.282015   -0.109345
|  7> C      1.121374    1.196395    0.288033
|  8> C      1.730375   -0.061094   -0.320692
|  9> C      0.967631   -1.274376    0.171548
| 10> O     -2.337675   -0.038845    0.011767
| 11> O     -0.460963   -1.190435   -0.035842
| 12> H     -0.435798    1.586810   -1.156969
| 13> H     -0.898296    2.025035    0.467869
| 14> H      1.649445    2.092882   -0.038416
| 15> H      1.214168    1.154900    1.376777
| 16> H      1.688686   -0.010986   -1.412045
| 17> H      2.779640   -0.174267   -0.041841
| 18> H      1.269887   -2.184408   -0.342725
| 19> H      1.131141   -1.419315    1.242831
| 20> *
| 21>
| 22>                          ****END OF INPUT****

CARTESIAN COORDINATES (ANGSTROEM)
---------------------------------
  C     -1.136499   -0.015675   -0.013358
  C     -0.351177    1.282015   -0.109345
  C      1.121374    1.196395    0.288033
  C      1.730375   -0.061094   -0.320692
  C      0.967631   -1.274376    0.171548
  O     -2.337675   -0.038845    0.011767
  O     -0.460963   -1.190435   -0.035842
  H     -0.435798    1.586810   -1.156969
  H     -0.898296    2.025035    0.467869
  H      1.649445    2.092882   -0.038416
  H      1.214168    1.154900    1.376777
  H      1.688686   -0.010986   -1.412045
  H      2.779640   -0.174267   -0.041841
  H      1.269887   -2.184408   -0.342725
  H      1.131141   -1.419315    1.242831

 Total Charge           Charge          ....    0
 Multiplicity           Mult            ....    1
 Number of Electrons    NEL             ....   54
 Basis Dimension        Dim             ....  928

ORBITAL ENERGIES
----------------

  NO   OCC          E(Eh)            E(eV)
   0   2.0000     -20.593167      -560.3686
   1   2.0000     -20.528618      -558.6121
   2   2.0000     -11.374401      -309.5132
   3   2.0000     -11.301066      -307.5176
   4   2.0000     -11.249865      -306.1244
   5   2.0000     -11.247170      -306.0510
   6   2.0000     -11.245891      -306.0163
   7   2.0000      -1.447251       -39.3817
   8   2.0000      -1.352279       -36.7974
   9   2.0000      -1.109900       -30.2019
  10   2.0000      -1.032245       -28.0888
  11   2.0000      -0.915756       -24.9190
  12   2.0000      -0.859526       -23.3889
  13   2.0000      -0.752866       -20.4865
  14   2.0000      -0.696643       -18.9566
  15   2.0000      -0.669103       -18.2072
  16   2.0000      -0.665898       -18.1200
  17   2.0000      -0.632695       -17.2165
  18   2.0000      -0.615937       -16.7605
  19   2.0000      -0.598108       -16.2754
  20   2.0000      -0.568995       -15.4832
  21   2.0000      -0.519973       -14.1492
  22   2.0000      -0.508563       -13.8387
  23   2.0000      -0.504353       -13.7241
  24   2.0000      -0.487083       -13.2542
  25   2.0000      -0.444589       -12.0979
  26   2.0000      -0.428686       -11.6651
  27   0.0000       0.018774         0.5109
  28   0.0000       0.027752         0.7552
  29   0.0000       0.029382         0.7995
  30   0.0000       0.035788         0.9739
  31   0.0000       0.046861         1.2752

MULLIKEN ATOMIC CHARGES
-----------------------
   0 C :    1.212025
   1 C :   -0.561493
   2 C :   -0.388559
   3 C :   -0.583216
   4 C :   -0.078198
   5 O :   -0.879800
   6 O :   -0.838079
   7 H :    0.224082
   8 H :    0.269554
   9 H :    0.300694
  10 H :    0.185209
  11 H :    0.210954
  12 H :    0.331128
  13 H :    0.417281
  14 H :    0.178418
Sum of atomic charges:   -0.0000000

LOEWDIN ATOMIC CHARGES
----------------------
   0 C :   -1.029286
   1 C :    0.480355
   2 C :    0.518584
   3 C :    0.512097
   4 C :    0.221427
   5 O :    0.666741
   6 O :    0.857192
   7 H :   -0.282456
   8 H :   -0.296248
   9 H :   -0.258971
  10 H :   -0.267245
  11 H :   -0.265539
  12 H :   -0.261519
  13 H :   -0.302407
  14 H :   -0.292725

  Mayer bond orders larger than 0.100000
B(  0-C ,  1-C ) :   1.0567 B(  0-C ,  5-O ) :   1.2060 B(  0-C ,  6-O ) :   0.8587
B(  1-C ,  2-C ) :   0.9701 B(  1-C ,  5-O ) :   0.1606 B(  1-C ,  7-H ) :   0.8938
B(  1-C ,  8-H ) :   0.9163 B(  2-C ,  3-C ) :   0.9420 B(  2-C ,  9-H ) :   0.8801
B(  2-C , 10-H ) :   0.9426 B(  3-C ,  4-C ) :   1.0295 B(  3-C , 11-H ) :   0.9234
B(  3-C , 12-H ) :   0.8474 B(  4-C ,  6-O ) :   0.6117 B(  4-C , 13-H ) :   0.8116
B(  4-C , 14-H ) :   0.9704

MP2 TOTAL ENERGY:     -345.277683797 Eh
FINAL SINGLE POINT ENERGY      -345.277683797008

DIPOLE MOMENT
-------------
                                X             Y             Z
Electronic contribution:     -6.39633      -2.53994      -0.06312
Nuclear contribution   :      8.46315       3.09086       0.09634
                        -----------------------------------------
Total Dipole Moment    :      2.06682       0.55092       0.03322
                        -----------------------------------------
Magnitude (a.u.)       :      2.13925
Magnitude (Debye)      :      5.43754

Rotational constants in cm-1:     0.155714     0.085037     0.058808
Rotational constants in MHz :  4668.195150  2549.354549  1763.015210

                             ****ORCA TERMINATED NORMALLY****
TOTAL RUN TIME: 0 days 0 hours 42 minutes 14 seconds 110 msec
