                         Program Version 5.0.4 -  RELEASE  -
|  1> !ri-mp2 aug-cc-pvqz aug-cc-pvqz/c tightscf
|  2> %pal nprocs 16 end
|  3>
|  4> * xyz 0 1
|  5> C      0.000000    0.000000    0.141895
|  6> O      0.000000    0.000000    1.357923
|  7> N      0.000000    1.161700   -0.607409
|  8> N      0.000000   -1.161700   -0.607409
|  9> H      0.198783    1.990644   -0.072919
| 10> H      0.395193    1.143037   -1.532593
| 11> H     -0.198783   -1.990644   -0.072919
| 12> H     -0.395193   -1.143037   -1.532593
| 13> *
| 14>
| 15>                          ****END OF INPUT****

CARTESIAN COORDINATES (ANGSTROEM)
---------------------------------
  C      0.000000    0.000000    0.141895
  O      0.000000    0.000000    1.357923
  N      0.000000    1.161700   -0.607409
  N      0.000000   -1.161700   -0.607409
  H      0.198783    1.990644   -0.072919
  H      0.395193    1.143037   -1.532593
  H     -0.198783   -1.990644   -0.072919
  H     -0.395193   -1.143037   -1.532593

 Total Charge           Charge          ....    0
 Multiplicity           Mult            ....    1
 Number of Electrons    NEL             ....   32
 Basis Dimension        Dim             ....  504

ORBITAL ENERGIES
----------------

  NO   OCC          E(Eh)            E(eV)
   0   2.0000     -20.512038      -558.1609
   1   2.0000     -15.582413      -424.0190
   2   2.0000     -15.582388      -424.0183
   3   2.0000     -11.379418      -309.6497
   4   2.0000      -1.393084       -37.9077
   5   2.0000      -1.233767       -33.5725
   6   2.0000      -1.180596       -32.1256
   7   2.0000      -0.826562       -22.4919
   8   2.0000      -0.740587       -20.1524
   9   2.0000      -0.727801       -19.8045
  10   2.0000      -0.640584       -17.4312
  11   2.0000      -0.610240       -16.6055
  12   2.0000      -0.602111       -16.3843
  13   2.0000      -0.446977       -12.1629
  14   2.0000      -0.438254       -11.9255
  15   2.0000      -0.421162       -11.4604
  16   0.0000       0.017979         0.4892
  17   0.0000       0.030434         0.8282
  18   0.0000       0.042374         1.1530
  19   0.0000       0.051948         1.4136
  20   0.0000       0.073096         1.9890

MULLIKEN ATOMIC CHARGES
-----------------------
   0 C :    0.872115
   1 O :   -0.722166
   2 N :   -0.655001
   3 N :   -0.655001
   4 H :    0.278520
   5 H :    0.301507
   6 H :    0.278520
   7 H :    0.301507
Sum of atomic charges:   -0.0000000

LOEWDIN ATOMIC CHARGES
----------------------
   0 C :   -1.031157
   1 O :    0.657308
   2 N :    1.222272
   3 N :    1.222272
   4 H :   -0.526027
   5 H :   -0.509321
   6 H :   -0.526027
   7 H :   -0.509321

  Mayer bond orders larger than 0.100000
B(  0-C ,  1-O ) :   1.5687 B(  0-C ,  2-N ) :   1.1775 B(  0-C ,  3-N ) :   1.1775
B(  2-N ,  4-H ) :   0.9091 B(  2-N ,  5-H ) :   0.8884 B(  3-N ,  6-H ) :   0.9091
B(  3-N ,  7-H ) :   0.8884

MP2 TOTAL ENERGY:     -224.974910748 Eh
FINAL SINGLE POINT ENERGY      -224.974910748292

DIPOLE MOMENT
-------------
                                X             Y             Z
Electronic contribution:     -0.00000       0.00000       1.56994
Nuclear contribution   :     -0.00000      -0.00000      -3.19900
                        -----------------------------------------
Total Dipole Moment    :     -0.00000       0.00000      -1.62906
                        -----------------------------------------
Magnitude (a.u.)       :      1.62906
Magnitude (Debye)      :      4.14075

Rotational constants in cm-1:     0.374692     0.345278     0.180980
Rotational constants in MHz : 11232.988036 10351.168441  5425.645916

                             ****ORCA TERMINATED NORMALLY****
TOTAL RUN TIME: 0 days 0 hours 3 minutes 37 seconds 59 msec
