                         Program Version 5.0.4 -  RELEASE  -
|  1> !ri-mp2 aug-cc-pvqz aug-cc-pvqz/c tightscf
|  2> %pal nprocs 16 end
|  3> %maxcore 3800
|  4>
|  5> * xyz 0 1
|  6> C     -4.806157    0.164946   -0.005623
|  7> C     -6.062810   -0.680870    0.015204
|  8> C      6.725592   -0.280291   -0.006395
|  9> C     -3.487345   -0.589442   -0.010665
| 10> C      5.426775    0.524067    0.007880
| 11> C     -2.245230    0.293358    0.007034
| 12> C      4.172804   -0.350971   -0.004536
| 13> C     -0.944153   -0.509724   -0.005659
| 14> C      2.867501    0.444990    0.008804
| 15> C      0.309146    0.366142    0.008951
| 16> C      1.614054   -0.430731   -0.003842
| 17> O     -4.857865    1.374419   -0.015761
| 18> H     -6.066233   -1.383636   -0.820306
| 19> H     -6.941478   -0.043492   -0.036220
| 20> H     -6.097895   -1.276478    0.930151
| 21> H      6.792162   -0.936999    0.863557
| 22> H      6.790716   -0.908018   -0.897593
| 23> H      7.599872    0.372101    0.003614
| 24> H     -3.487195   -1.243242   -0.890607
| 25> H     -3.492921   -1.273880    0.845326
| 26> H      5.404779    1.195795   -0.855539
| 27> H      5.406736    1.168164    0.892173
| 28> H     -2.273858    0.968070   -0.851145
| 29> H     -2.275701    0.936898    0.889030
| 30> H      4.193680   -0.996496   -0.889181
| 31> H      4.195186   -1.023399    0.859786
| 32> H     -0.922432   -1.183317    0.857933
| 33> H     -0.922105   -1.154301   -0.891131
| 34> H      2.847599    1.090299    0.893334
| 35> H      2.846263    1.117212   -0.855399
| 36> H      0.287614    1.010598    0.893780
| 37> H      0.287855    1.038888   -0.854540
| 38> H      1.635068   -1.102846    0.860594
| 39> H      1.634146   -1.076122   -0.888446
| 40> *
| 41>
| 42>                          ****END OF INPUT****

CARTESIAN COORDINATES (ANGSTROEM)
---------------------------------
  C     -4.806157    0.164946   -0.005623
  C     -6.062810   -0.680870    0.015204
  C      6.725592   -0.280291   -0.006395
  C     -3.487345   -0.589442   -0.010665
  C      5.426775    0.524067    0.007880
  C     -2.245230    0.293358    0.007034
  C      4.172804   -0.350971   -0.004536
  C     -0.944153   -0.509724   -0.005659
  C      2.867501    0.444990    0.008804
  C      0.309146    0.366142    0.008951
  C      1.614054   -0.430731   -0.003842
  O     -4.857865    1.374419   -0.015761
  H     -6.066233   -1.383636   -0.820306
  H     -6.941478   -0.043492   -0.036220
  H     -6.097895   -1.276478    0.930151
  H      6.792162   -0.936999    0.863557
  H      6.790716   -0.908018   -0.897593
  H      7.599872    0.372101    0.003614
  H     -3.487195   -1.243242   -0.890607
  H     -3.492921   -1.273880    0.845326
  H      5.404779    1.195795   -0.855539
  H      5.406736    1.168164    0.892173
  H     -2.273858    0.968070   -0.851145
  H     -2.275701    0.936898    0.889030
  H      4.193680   -0.996496   -0.889181
  H      4.195186   -1.023399    0.859786
  H     -0.922432   -1.183317    0.857933
  H     -0.922105   -1.154301   -0.891131
  H      2.847599    1.090299    0.893334
  H      2.846263    1.117212   -0.855399
  H      0.287614    1.010598    0.893780
  H      0.287855    1.038888   -0.854540
  H      1.635068   -1.102846    0.860594
  H      1.634146   -1.076122   -0.888446

 Total Charge           Charge          ....    0
 Multiplicity           Mult            ....    1
 Number of Electrons    NEL             ....   96
 Basis Dimension        Dim             .... 1972

ORBITAL ENERGIES
----------------

  NO   OCC          E(Eh)            E(eV)
   0   2.0000     -20.540024      -558.9225
   1   2.0000     -11.326798      -308.2178
   2   2.0000     -11.234710      -305.7120
   3   2.0000     -11.231705      -305.6302
   4   2.0000     -11.217751      -305.2505
   5   2.0000     -11.217129      -305.2336
   6   2.0000     -11.213864      -305.1447
   7   2.0000     -11.213799      -305.1430
   8   2.0000     -11.213100      -305.1240
   9   2.0000     -11.212263      -305.1012
  10   2.0000     -11.211659      -305.0848
  11   2.0000     -11.208046      -304.9864
  12   2.0000      -1.384214       -37.6664
  13   2.0000      -1.097068       -29.8527
  14   2.0000      -1.077350       -29.3162
  15   2.0000      -1.045802       -28.4577
  16   2.0000      -1.013914       -27.5900
  17   2.0000      -0.978669       -26.6309
  18   2.0000      -0.924682       -25.1619
  19   2.0000      -0.862648       -23.4738
  20   2.0000      -0.809283       -22.0217
  21   2.0000      -0.788249       -21.4494
  22   2.0000      -0.784492       -21.3471
  23   2.0000      -0.731633       -19.9088
  24   2.0000      -0.662946       -18.0397
  25   2.0000      -0.650071       -17.6893
  26   2.0000      -0.646309       -17.5870
  27   2.0000      -0.624004       -16.9800
  28   2.0000      -0.620600       -16.8874
  29   2.0000      -0.593026       -16.1371
  30   2.0000      -0.589109       -16.0305
  31   2.0000      -0.573621       -15.6090
  32   2.0000      -0.564792       -15.3688
  33   2.0000      -0.558057       -15.1855
  34   2.0000      -0.547089       -14.8871
  35   2.0000      -0.529696       -14.4138
  36   2.0000      -0.523370       -14.2416
  37   2.0000      -0.497022       -13.5247
  38   2.0000      -0.493714       -13.4347
  39   2.0000      -0.489998       -13.3335
  40   2.0000      -0.484504       -13.1840
  41   2.0000      -0.470748       -12.8097
  42   2.0000      -0.468400       -12.7458
  43   2.0000      -0.461368       -12.5545
  44   2.0000      -0.458486       -12.4760
  45   2.0000      -0.457154       -12.4398
  46   2.0000      -0.435321       -11.8457
  47   2.0000      -0.405042       -11.0217
  48   0.0000       0.021363         0.5813
  49   0.0000       0.025410         0.6914
  50   0.0000       0.030746         0.8366
  51   0.0000       0.031143         0.8475
  52   0.0000       0.033886         0.9221

MULLIKEN ATOMIC CHARGES
-----------------------
   0 C :    0.604905
   1 C :   -0.947351
   2 C :   -0.923069
   3 C :   -0.435523
   4 C :   -0.555098
   5 C :   -0.280602
   6 C :   -0.307995
   7 C :   -0.364449
   8 C :   -0.379271
   9 C :   -0.438706
  10 C :   -0.486599
  11 O :   -0.812478
  12 H :    0.266484
  13 H :    0.280249
  14 H :    0.282949
  15 H :    0.226304
  16 H :    0.226264
  17 H :    0.268234
  18 H :    0.225886
  19 H :    0.229403
  20 H :    0.224452
  21 H :    0.224457
  22 H :    0.199063
  23 H :    0.211070
  24 H :    0.235668
  25 H :    0.236755
  26 H :    0.241234
  27 H :    0.247536
  28 H :    0.253461
  29 H :    0.252824
  30 H :    0.250103
  31 H :    0.252167
  32 H :    0.246459
  33 H :    0.245215
Sum of atomic charges:    0.0000000

LOEWDIN ATOMIC CHARGES
----------------------
   0 C :   -0.621945
   1 C :    0.897177
   2 C :    0.925876
   3 C :    0.478509
   4 C :    0.508719
   5 C :    0.500011
   6 C :    0.512912
   7 C :    0.528402
   8 C :    0.526285
   9 C :    0.531349
  10 C :    0.529095
  11 O :    0.747895
  12 H :   -0.294827
  13 H :   -0.318427
  14 H :   -0.293009
  15 H :   -0.285795
  16 H :   -0.285781
  17 H :   -0.285017
  18 H :   -0.279361
  19 H :   -0.279570
  20 H :   -0.273470
  21 H :   -0.273421
  22 H :   -0.272479
  23 H :   -0.270745
  24 H :   -0.268174
  25 H :   -0.268173
  26 H :   -0.264712
  27 H :   -0.264884
  28 H :   -0.265041
  29 H :   -0.265130
  30 H :   -0.263339
  31 H :   -0.263464
  32 H :   -0.264704
  33 H :   -0.264764

  Mayer bond orders larger than 0.100000
B(  0-C ,  1-C ) :   1.1178 B(  0-C ,  3-C ) :   0.9006 B(  0-C ,  5-C ) :  -0.3016
B(  0-C , 11-O ) :   1.0128 B(  1-C ,  3-C ) :  -0.1385 B(  1-C , 12-H ) :   0.9444
B(  1-C , 13-H ) :   1.0134 B(  1-C , 14-H ) :   0.9152 B(  2-C ,  4-C ) :   1.0657
B(  2-C ,  6-C ) :  -0.1531 B(  2-C , 15-H ) :   0.9563 B(  2-C , 16-H ) :   0.9562
B(  2-C , 17-H ) :   1.0290 B(  3-C ,  5-C ) :   1.0963 B(  3-C ,  7-C ) :  -0.2326
B(  3-C , 11-O ) :   0.3433 B(  3-C , 18-H ) :   0.8733 B(  3-C , 19-H ) :   0.8671
B(  4-C ,  6-C ) :   1.0322 B(  4-C ,  8-C ) :  -0.1459 B(  4-C , 20-H ) :   0.8802
B(  4-C , 21-H ) :   0.8803 B(  5-C ,  7-C ) :   1.1397 B(  5-C ,  9-C ) :  -0.1858
B(  5-C , 11-O ) :  -0.1205 B(  5-C , 22-H ) :   0.8400 B(  5-C , 23-H ) :   0.8184
B(  6-C ,  8-C ) :   1.1165 B(  6-C , 10-C ) :  -0.1763 B(  6-C , 24-H ) :   0.8519
B(  6-C , 25-H ) :   0.8511 B(  7-C ,  9-C ) :   1.2839 B(  7-C , 10-C ) :  -0.1867
B(  7-C , 26-H ) :   0.8294 B(  7-C , 27-H ) :   0.8247 B(  8-C ,  9-C ) :  -0.2055
B(  8-C , 10-C ) :   1.2185 B(  8-C , 28-H ) :   0.8351 B(  8-C , 29-H ) :   0.8340
B(  9-C , 10-C ) :   1.2884 B(  9-C , 30-H ) :   0.8210 B(  9-C , 31-H ) :   0.8188
B( 10-C , 32-H ) :   0.8259 B( 10-C , 33-H ) :   0.8260

MP2 TOTAL ENERGY:     -506.735437592 Eh
FINAL SINGLE POINT ENERGY      -506.735437591852

DIPOLE MOMENT
-------------
                                X             Y             Z
Electronic contribution:    -18.25053       3.74950      -0.04971
Nuclear contribution   :     18.38489      -4.95747       0.06238
                        -----------------------------------------
Total Dipole Moment    :      0.13436      -1.20797       0.01268
                        -----------------------------------------
Magnitude (a.u.)       :      1.21548
Magnitude (Debye)      :      3.08951

Rotational constants in cm-1:     0.174532     0.005634     0.005513
Rotational constants in MHz :  5232.326483   168.891456   165.260913

                             ****ORCA TERMINATED NORMALLY****
TOTAL RUN TIME: 0 days 4 hours 52 minutes 6 seconds 20 msec
