                         Program Version 5.0.4 -  RELEASE  -
|  1> !ri-mp2 aug-cc-pvqz aug-cc-pvqz/c tightscf
|  2> %pal nprocs 16 end
|  3>
|  4> * xyz 0 1
|  5> C      2.562959   -0.246263    0.024431
|  6> H      2.684739   -0.856591   -0.869433
|  7> H      3.378057    0.477039    0.064926
|  8> H      2.630633   -0.894805    0.896772
|  9> C      1.233789    0.476855    0.001020
| 10> H      1.104781    1.083961    0.900241
| 11> H      1.171235    1.127632   -0.877417
| 12> O      0.198136   -0.516463   -0.060443
| 13> N     -1.408351    1.154815    0.055718
| 14> H     -0.750537    1.856650   -0.229457
| 15> H     -2.382975    1.377652   -0.044925
| 16> C     -1.116122   -0.185256   -0.006501
| 17> O     -1.955791   -1.049445    0.017389
| 18> *
| 19>
| 20>                          ****END OF INPUT****

CARTESIAN COORDINATES (ANGSTROEM)
---------------------------------
  C      2.562959   -0.246263    0.024431
  H      2.684739   -0.856591   -0.869433
  H      3.378057    0.477039    0.064926
  H      2.630633   -0.894805    0.896772
  C      1.233789    0.476855    0.001020
  H      1.104781    1.083961    0.900241
  H      1.171235    1.127632   -0.877417
  O      0.198136   -0.516463   -0.060443
  N     -1.408351    1.154815    0.055718
  H     -0.750537    1.856650   -0.229457
  H     -2.382975    1.377652   -0.044925
  C     -1.116122   -0.185256   -0.006501
  O     -1.955791   -1.049445    0.017389

 Total Charge           Charge          ....    0
 Multiplicity           Mult            ....    1
 Number of Electrons    NEL             ....   48
 Basis Dimension        Dim             ....  802

ORBITAL ENERGIES
----------------

  NO   OCC          E(Eh)            E(eV)
   0   2.0000     -20.598182      -560.5050
   1   2.0000     -20.516064      -558.2705
   2   2.0000     -15.593262      -424.3142
   3   2.0000     -11.402537      -310.2788
   4   2.0000     -11.307459      -307.6916
   5   2.0000     -11.232734      -305.6582
   6   2.0000      -1.457318       -39.6557
   7   2.0000      -1.354562       -36.8595
   8   2.0000      -1.218668       -33.1616
   9   2.0000      -1.050170       -28.5766
  10   2.0000      -0.884547       -24.0697
  11   2.0000      -0.820760       -22.3340
  12   2.0000      -0.765052       -20.8181
  13   2.0000      -0.704391       -19.1674
  14   2.0000      -0.694361       -18.8945
  15   2.0000      -0.632566       -17.2130
  16   2.0000      -0.605823       -16.4853
  17   2.0000      -0.582298       -15.8451
  18   2.0000      -0.562125       -15.2962
  19   2.0000      -0.532329       -14.4854
  20   2.0000      -0.517468       -14.0810
  21   2.0000      -0.473514       -12.8850
  22   2.0000      -0.451121       -12.2756
  23   2.0000      -0.426417       -11.6034
  24   0.0000       0.016533         0.4499
  25   0.0000       0.027218         0.7406
  26   0.0000       0.033356         0.9077
  27   0.0000       0.037929         1.0321
  28   0.0000       0.049124         1.3367

MULLIKEN ATOMIC CHARGES
-----------------------
   0 C :   -0.831972
   1 H :    0.258578
   2 H :    0.262440
   3 H :    0.253347
   4 C :    0.061520
   5 H :    0.245866
   6 H :    0.244301
   7 O :   -0.742351
   8 N :   -0.656695
   9 H :    0.319287
  10 H :    0.198212
  11 C :    1.154031
  12 O :   -0.766564
Sum of atomic charges:    0.0000000

LOEWDIN ATOMIC CHARGES
----------------------
   0 C :    0.920306
   1 H :   -0.287770
   2 H :   -0.287860
   3 H :   -0.287436
   4 C :    0.152634
   5 H :   -0.300344
   6 H :   -0.298592
   7 O :    0.843188
   8 N :    1.221092
   9 H :   -0.556773
  10 H :   -0.509375
  11 C :   -1.235292
  12 O :    0.626222

  Mayer bond orders larger than 0.100000
B(  0-C ,  1-H ) :   0.9477 B(  0-C ,  2-H ) :   0.9857 B(  0-C ,  3-H ) :   0.9502
B(  0-C ,  4-C ) :   0.8680 B(  4-C ,  5-H ) :   0.8889 B(  4-C ,  6-H ) :   0.8822
B(  4-C ,  7-O ) :   0.7694 B(  7-O , 11-C ) :   1.0370 B(  8-N ,  9-H ) :   0.8806
B(  8-N , 10-H ) :   1.0111 B(  8-N , 11-C ) :   1.1822 B( 11-C , 12-O ) :   1.4912

MP2 TOTAL ENERGY:     -323.296695234 Eh
FINAL SINGLE POINT ENERGY      -323.296695233663

DIPOLE MOMENT
-------------
                                X             Y             Z
Electronic contribution:     -6.76628      -2.31830      -0.04335
Nuclear contribution   :      7.89219       4.20275      -0.16153
                        -----------------------------------------
Total Dipole Moment    :      1.12591       1.88445      -0.20488
                        -----------------------------------------
Magnitude (a.u.)       :      2.20472
Magnitude (Debye)      :      5.60396

Rotational constants in cm-1:     0.295281     0.070480     0.058208
Rotational constants in MHz :  8852.299821  2112.923220  1745.031181

                             ****ORCA TERMINATED NORMALLY****
TOTAL RUN TIME: 0 days 0 hours 17 minutes 13 seconds 974 msec
