                         Program Version 5.0.4 -  RELEASE  -
|  1> !ri-mp2 aug-cc-pvqz aug-cc-pvqz/c tightscf
|  2> %pal nprocs 16 end
|  3>
|  4> * xyz 0 1
|  5> C     -1.137324    0.318072        0.000000
|  6> O     -2.279401    1.022074        0.000000
|  7> C     -1.190713   -1.078014        0.000000
|  8> C      0.031924   -1.715471        0.000000
|  9> N      1.199468   -1.061094        0.000000
| 10> C      1.110451    0.264069        0.000000
| 11> O      2.256714    0.960746        0.000000
| 12> N      0.000000    0.995036        0.000000
| 13> H     -2.038605    1.959714        0.000000
| 14> H     -2.128722   -1.608922        0.000000
| 15> H      0.091249   -2.797105        0.000000
| 16> H      2.975267    0.314212        0.000000
| 17> *
| 18>
| 19>                          ****END OF INPUT****

CARTESIAN COORDINATES (ANGSTROEM)
---------------------------------
  C     -1.137324    0.318072    0.000000
  O     -2.279401    1.022074    0.000000
  C     -1.190713   -1.078014    0.000000
  C      0.031924   -1.715471    0.000000
  N      1.199468   -1.061094    0.000000
  C      1.110451    0.264069    0.000000
  O      2.256714    0.960746    0.000000
  N      0.000000    0.995036    0.000000
  H     -2.038605    1.959714    0.000000
  H     -2.128722   -1.608922    0.000000
  H      0.091249   -2.797105    0.000000
  H      2.975267    0.314212    0.000000

 Total Charge           Charge          ....    0
 Multiplicity           Mult            ....    1
 Number of Electrons    NEL             ....   58
 Basis Dimension        Dim             ....  824

ORBITAL ENERGIES
----------------

  NO   OCC          E(Eh)            E(eV)
   0   2.0000     -20.615756      -560.9832
   1   2.0000     -20.606353      -560.7274
   2   2.0000     -15.569065      -423.6558
   3   2.0000     -15.565207      -423.5508
   4   2.0000     -11.386675      -309.8472
   5   2.0000     -11.371572      -309.4362
   6   2.0000     -11.307788      -307.7005
   7   2.0000     -11.237922      -305.7994
   8   2.0000      -1.455069       -39.5944
   9   2.0000      -1.442774       -39.2599
  10   2.0000      -1.299763       -35.3683
  11   2.0000      -1.205089       -32.7921
  12   2.0000      -1.069027       -29.0897
  13   2.0000      -0.911571       -24.8051
  14   2.0000      -0.897917       -24.4336
  15   2.0000      -0.799662       -21.7599
  16   2.0000      -0.748373       -20.3643
  17   2.0000      -0.708378       -19.2759
  18   2.0000      -0.662508       -18.0278
  19   2.0000      -0.655131       -17.8270
  20   2.0000      -0.638668       -17.3790
  21   2.0000      -0.606238       -16.4966
  22   2.0000      -0.595555       -16.2059
  23   2.0000      -0.582251       -15.8439
  24   2.0000      -0.515822       -14.0362
  25   2.0000      -0.501071       -13.6348
  26   2.0000      -0.431665       -11.7462
  27   2.0000      -0.425612       -11.5815
  28   2.0000      -0.358900        -9.7662
  29   0.0000       0.023705         0.6450
  30   0.0000       0.031037         0.8446
  31   0.0000       0.032744         0.8910
  32   0.0000       0.043330         1.1791
  33   0.0000       0.059350         1.6150

MULLIKEN ATOMIC CHARGES
-----------------------
   0 C :    1.001224
   1 O :   -0.786498
   2 C :   -0.679517
   3 C :   -0.171809
   4 N :   -0.599035
   5 C :    1.044731
   6 O :   -0.760583
   7 N :   -0.684478
   8 H :    0.374484
   9 H :    0.406411
  10 H :    0.480977
  11 H :    0.374092
Sum of atomic charges:    0.0000000

LOEWDIN ATOMIC CHARGES
----------------------
   0 C :   -0.736264
   1 O :    1.273205
   2 C :    0.315899
   3 C :    0.058183
   4 N :    0.578932
   5 C :   -0.984471
   6 O :    1.242918
   7 N :    0.570464
   8 H :   -0.810961
   9 H :   -0.340546
  10 H :   -0.338400
  11 H :   -0.828959

  Mayer bond orders larger than 0.100000
B(  0-C ,  1-O ) :   0.5724 B(  0-C ,  2-C ) :   1.2043 B(  0-C ,  3-C ) :  -0.2188
B(  0-C ,  7-N ) :   1.4062 B(  1-O ,  2-C ) :   0.1987 B(  1-O ,  7-N ) :   0.1367
B(  1-O ,  8-H ) :   0.8490 B(  2-C ,  3-C ) :   1.3590 B(  2-C ,  9-H ) :   0.8362
B(  3-C ,  4-N ) :   1.1610 B(  3-C , 10-H ) :   0.8922 B(  4-N ,  5-C ) :   1.4354
B(  5-C ,  6-O ) :   0.7332 B(  5-C ,  7-N ) :   1.3807 B(  6-O , 11-H ) :   0.8496

MP2 TOTAL ENERGY:     -414.225019937 Eh
FINAL SINGLE POINT ENERGY      -414.225019937477

DIPOLE MOMENT
-------------
                                X             Y             Z
Electronic contribution:      0.83531       1.54128       0.00000
Nuclear contribution   :     -1.06328      -2.04200       0.00000
                        -----------------------------------------
Total Dipole Moment    :     -0.22797      -0.50071       0.00000
                        -----------------------------------------
Magnitude (a.u.)       :      0.55017
Magnitude (Debye)      :      1.39841

Rotational constants in cm-1:     0.133184     0.067389     0.044748
Rotational constants in MHz :  3992.766236  2020.274737  1341.498385

                             ****ORCA TERMINATED NORMALLY****
TOTAL RUN TIME: 0 days 0 hours 22 minutes 0 seconds 421 msec
