                         Program Version 5.0.4 -  RELEASE  -
|  1> !ri-mp2 aug-cc-pvqz aug-cc-pvqz/c tightscf
|  2> %pal nprocs 16 end
|  3>
|  4> * xyz 0 1
|  5> N     -0.204180    1.865921   -0.165122
|  6> C     -0.044385    0.433011   -0.462275
|  7> C     -1.370928   -0.271392   -0.129443
|  8> O     -1.723843   -1.301180   -0.637826
|  9> O     -2.103030    0.357938    0.804964
| 10> H     -1.646282    1.209604    0.969437
| 11> C      1.128185   -0.162775    0.360267
| 12> C      2.465222    0.464609   -0.056758
| 13> C      1.217327   -1.687377    0.244479
| 14> H      0.147500    0.235377   -1.520887
| 15> H      0.941461    0.092091    1.408810
| 16> H      3.277525    0.032580    0.528053
| 17> H      2.673618    0.266976   -1.110595
| 18> H      2.508562    1.543790    0.096919
| 19> H      0.318428   -2.184121    0.600700
| 20> H      1.371984   -1.994000   -0.791577
| 21> H      2.062337   -2.049689    0.830873
| 22> H      0.683380    2.321499   -0.008696
| 23> H     -0.666802    2.353922   -0.921910
| 24> *
| 25>
| 26>                          ****END OF INPUT****

CARTESIAN COORDINATES (ANGSTROEM)
---------------------------------
  N     -0.204180    1.865921   -0.165122
  C     -0.044385    0.433011   -0.462275
  C     -1.370928   -0.271392   -0.129443
  O     -1.723843   -1.301180   -0.637826
  O     -2.103030    0.357938    0.804964
  H     -1.646282    1.209604    0.969437
  C      1.128185   -0.162775    0.360267
  C      2.465222    0.464609   -0.056758
  C      1.217327   -1.687377    0.244479
  H      0.147500    0.235377   -1.520887
  H      0.941461    0.092091    1.408810
  H      3.277525    0.032580    0.528053
  H      2.673618    0.266976   -1.110595
  H      2.508562    1.543790    0.096919
  H      0.318428   -2.184121    0.600700
  H      1.371984   -1.994000   -0.791577
  H      2.062337   -2.049689    0.830873
  H      0.683380    2.321499   -0.008696
  H     -0.666802    2.353922   -0.921910

 Total Charge           Charge          ....    0
 Multiplicity           Mult            ....    1
 Number of Electrons    NEL             ....   64
 Basis Dimension        Dim             .... 1146

ORBITAL ENERGIES
----------------

  NO   OCC          E(Eh)            E(eV)
   0   2.0000     -20.592312      -560.3453
   1   2.0000     -20.532116      -558.7073
   2   2.0000     -15.577942      -423.8973
   3   2.0000     -11.371239      -309.4272
   4   2.0000     -11.288276      -307.1696
   5   2.0000     -11.253500      -306.2233
   6   2.0000     -11.233350      -305.6750
   7   2.0000     -11.216646      -305.2204
   8   2.0000      -1.448744       -39.4223
   9   2.0000      -1.353588       -36.8330
  10   2.0000      -1.221634       -33.2423
  11   2.0000      -1.087820       -29.6011
  12   2.0000      -0.963479       -26.2176
  13   2.0000      -0.938702       -25.5434
  14   2.0000      -0.821408       -22.3516
  15   2.0000      -0.797251       -21.6943
  16   2.0000      -0.727854       -19.8059
  17   2.0000      -0.694379       -18.8950
  18   2.0000      -0.675463       -18.3803
  19   2.0000      -0.636792       -17.3280
  20   2.0000      -0.625741       -17.0273
  21   2.0000      -0.607713       -16.5367
  22   2.0000      -0.592435       -16.1210
  23   2.0000      -0.568372       -15.4662
  24   2.0000      -0.551476       -15.0064
  25   2.0000      -0.541417       -14.7327
  26   2.0000      -0.503306       -13.6957
  27   2.0000      -0.493637       -13.4325
  28   2.0000      -0.489891       -13.3306
  29   2.0000      -0.462153       -12.5758
  30   2.0000      -0.450701       -12.2642
  31   2.0000      -0.421630       -11.4731
  32   0.0000       0.017044         0.4638
  33   0.0000       0.026640         0.7249
  34   0.0000       0.030137         0.8201
  35   0.0000       0.036031         0.9804
  36   0.0000       0.046118         1.2549

MULLIKEN ATOMIC CHARGES
-----------------------
   0 N :   -0.737287
   1 C :    0.191441
   2 C :    1.217262
   3 O :   -0.868321
   4 O :   -0.956785
   5 H :    0.364676
   6 C :    0.209428
   7 C :   -0.912428
   8 C :   -0.894741
   9 H :    0.343953
  10 H :    0.253473
  11 H :    0.268041
  12 H :    0.191717
  13 H :    0.256773
  14 H :    0.240246
  15 H :    0.184506
  16 H :    0.257253
  17 H :    0.194054
  18 H :    0.196739
Sum of atomic charges:   -0.0000000

LOEWDIN ATOMIC CHARGES
----------------------
   0 N :    1.306826
   1 C :   -0.049979
   2 C :   -1.028016
   3 O :    0.697212
   4 O :    1.261946
   5 H :   -0.934153
   6 C :    0.106297
   7 C :    0.936750
   8 C :    0.921658
   9 H :   -0.296849
  10 H :   -0.270164
  11 H :   -0.272406
  12 H :   -0.263748
  13 H :   -0.288115
  14 H :   -0.309859
  15 H :   -0.265734
  16 H :   -0.275436
  17 H :   -0.528508
  18 H :   -0.447724

  Mayer bond orders larger than 0.100000
B(  0-N ,  1-C ) :   0.5401 B(  0-N ,  5-H ) :   0.1432 B(  0-N , 17-H ) :   1.0383
B(  0-N , 18-H ) :   1.0251 B(  1-C ,  2-C ) :   1.1194 B(  1-C ,  3-O ) :   0.1800
B(  1-C ,  6-C ) :   0.7844 B(  1-C ,  9-H ) :   0.8036 B(  2-C ,  3-O ) :   1.2870
B(  2-C ,  4-O ) :   0.6456 B(  3-O ,  4-O ) :   0.1564 B(  4-O ,  5-H ) :   0.7665
B(  6-C ,  7-C ) :   0.6101 B(  6-C ,  8-C ) :   0.6421 B(  6-C , 10-H ) :   0.9166
B(  7-C ,  8-C ) :   0.1165 B(  7-C , 11-H ) :   1.0133 B(  7-C , 12-H ) :   1.0108
B(  7-C , 13-H ) :   1.0116 B(  8-C , 14-H ) :   0.9933 B(  8-C , 15-H ) :   1.0174
B(  8-C , 16-H ) :   1.0357

MP2 TOTAL ENERGY:     -401.775941939 Eh
FINAL SINGLE POINT ENERGY      -401.775941938883

DIPOLE MOMENT
-------------
                                X             Y             Z
Electronic contribution:    -10.31911      -0.39609      -0.17454
Nuclear contribution   :     11.91233       1.87158       0.08495
                        -----------------------------------------
Total Dipole Moment    :      1.59322       1.47550      -0.08959
                        -----------------------------------------
Magnitude (a.u.)       :      2.17335
Magnitude (Debye)      :      5.52422

Rotational constants in cm-1:     0.094837     0.053781     0.039393
Rotational constants in MHz :  2843.154950  1612.318044  1180.980325

                             ****ORCA TERMINATED NORMALLY****
TOTAL RUN TIME: 0 days 1 hours 3 minutes 3 seconds 919 msec
