                         Program Version 5.0.4 -  RELEASE  -
|  1> !ri-mp2 aug-cc-pvqz aug-cc-pvqz/c tightscf
|  2> %pal nprocs 16 end
|  3>
|  4> * xyz 0 1
|  5> O      0.000000    0.000000    0.327847
|  6> C      0.000000    1.173022   -0.371331
|  7> C      0.000000   -1.173022   -0.371331
|  8> C      0.000000    2.350479    0.235228
|  9> C      0.000000   -2.350479    0.235228
| 10> H      0.000000    1.065115   -1.450457
| 11> H      0.000000   -1.065115   -1.450457
| 12> H      0.000000    3.252035   -0.356369
| 13> H      0.000000    2.435055    1.312056
| 14> H      0.000000   -3.252035   -0.356369
| 15> H      0.000000   -2.435055    1.312056
| 16> *
| 17>
| 18>                          ****END OF INPUT****

CARTESIAN COORDINATES (ANGSTROEM)
---------------------------------
  O      0.000000    0.000000    0.327847
  C      0.000000    1.173022   -0.371331
  C      0.000000   -1.173022   -0.371331
  C      0.000000    2.350479    0.235228
  C      0.000000   -2.350479    0.235228
  H      0.000000    1.065115   -1.450457
  H      0.000000   -1.065115   -1.450457
  H      0.000000    3.252035   -0.356369
  H      0.000000    2.435055    1.312056
  H      0.000000   -3.252035   -0.356369
  H      0.000000   -2.435055    1.312056

 Total Charge           Charge          ....    0
 Multiplicity           Mult            ....    1
 Number of Electrons    NEL             ....   38
 Basis Dimension        Dim             ....  676

ORBITAL ENERGIES
----------------

  NO   OCC          E(Eh)            E(eV)
   0   2.0000     -20.603891      -560.6604
   1   2.0000     -11.302840      -307.5659
   2   2.0000     -11.302814      -307.5652
   3   2.0000     -11.219325      -305.2933
   4   2.0000     -11.219325      -305.2933
   5   2.0000      -1.437181       -39.1077
   6   2.0000      -1.072391       -29.1813
   7   2.0000      -1.005840       -27.3703
   8   2.0000      -0.826301       -22.4848
   9   2.0000      -0.811729       -22.0883
  10   2.0000      -0.708015       -19.2661
  11   2.0000      -0.659732       -17.9522
  12   2.0000      -0.623812       -16.9748
  13   2.0000      -0.590383       -16.0651
  14   2.0000      -0.587281       -15.9807
  15   2.0000      -0.543879       -14.7997
  16   2.0000      -0.518096       -14.0981
  17   2.0000      -0.397869       -10.8266
  18   2.0000      -0.329849        -8.9757
  19   0.0000       0.026396         0.7183
  20   0.0000       0.030405         0.8274
  21   0.0000       0.034112         0.9282
  22   0.0000       0.046388         1.2623
  23   0.0000       0.048647         1.3238

MULLIKEN ATOMIC CHARGES
-----------------------
   0 O :   -0.673206
   1 C :   -0.126657
   2 C :   -0.126656
   3 C :   -0.772316
   4 C :   -0.772316
   5 H :    0.488041
   6 H :    0.488041
   7 H :    0.319480
   8 H :    0.428055
   9 H :    0.319480
  10 H :    0.428055
Sum of atomic charges:   -0.0000000

LOEWDIN ATOMIC CHARGES
----------------------
   0 O :    0.811455
   1 C :   -0.029400
   2 C :   -0.029400
   3 C :    0.758298
   4 C :    0.758298
   5 H :   -0.376144
   6 H :   -0.376144
   7 H :   -0.386569
   8 H :   -0.371914
   9 H :   -0.386569
  10 H :   -0.371914

  Mayer bond orders larger than 0.100000
B(  0-O ,  1-C ) :   0.9251 B(  0-O ,  2-C ) :   0.9251 B(  1-C ,  3-C ) :   1.6100
B(  1-C ,  5-H ) :   0.7059 B(  2-C ,  4-C ) :   1.6100 B(  2-C ,  6-H ) :   0.7059
B(  3-C ,  7-H ) :   1.0202 B(  3-C ,  8-H ) :   0.8149 B(  4-C ,  9-H ) :   1.0202
B(  4-C , 10-H ) :   0.8149

MP2 TOTAL ENERGY:     -230.814027366 Eh
FINAL SINGLE POINT ENERGY      -230.814027365556

DIPOLE MOMENT
-------------
                                X             Y             Z
Electronic contribution:     -0.00000      -0.00000       0.46731
Nuclear contribution   :      0.00000       0.00000      -1.00229
                        -----------------------------------------
Total Dipole Moment    :     -0.00000      -0.00000      -0.53498
                        -----------------------------------------
Magnitude (a.u.)       :      0.53498
Magnitude (Debye)      :      1.35980

Rotational constants in cm-1:     1.177592     0.083731     0.078173
Rotational constants in MHz : 35303.329451  2510.191926  2343.556731

                             ****ORCA TERMINATED NORMALLY****
TOTAL RUN TIME: 0 days 0 hours 11 minutes 52 seconds 158 msec
