                         Program Version 5.0.4 -  RELEASE  -
|  1> !ri-mp2 aug-cc-pvqz aug-cc-pvqz/c tightscf
|  2> %pal nprocs 16 end
|  3> %maxcore 3800
|  4>
|  5> * xyz 0 1
|  6> C     -2.760426   -1.207325    1.207306
|  7> C     -1.942526   -0.170313    1.165936
|  8> S     -1.209568    0.357864   -0.377660
|  9> O     -1.661482   -0.546197   -1.429486
| 10> O     -1.432644    1.796435   -0.478409
| 11> C      0.549958    0.093229   -0.128571
| 12> C      1.327317    1.134136    0.365938
| 13> C      2.688495    0.926492    0.555460
| 14> C      3.254893   -0.306208    0.249360
| 15> C      2.466154   -1.336958   -0.253252
| 16> C      1.104750   -1.142081   -0.445145
| 17> H     -2.971203   -1.781796    0.315349
| 18> H     -3.245923   -1.496562    2.129835
| 19> H     -1.694653    0.461090    2.008205
| 20> H      0.872163    2.091493    0.574475
| 21> H      3.306169    1.729235    0.933931
| 22> H      4.315074   -0.462596    0.395508
| 23> H      2.912325   -2.289975   -0.502003
| 24> H      0.480456   -1.924459   -0.851784
| 25> *
| 26>
| 27>                          ****END OF INPUT****

CARTESIAN COORDINATES (ANGSTROEM)
---------------------------------
  C     -2.760426   -1.207325    1.207306
  C     -1.942526   -0.170313    1.165936
  S     -1.209568    0.357864   -0.377660
  O     -1.661482   -0.546197   -1.429486
  O     -1.432644    1.796435   -0.478409
  C      0.549958    0.093229   -0.128571
  C      1.327317    1.134136    0.365938
  C      2.688495    0.926492    0.555460
  C      3.254893   -0.306208    0.249360
  C      2.466154   -1.336958   -0.253252
  C      1.104750   -1.142081   -0.445145
  H     -2.971203   -1.781796    0.315349
  H     -3.245923   -1.496562    2.129835
  H     -1.694653    0.461090    2.008205
  H      0.872163    2.091493    0.574475
  H      3.306169    1.729235    0.933931
  H      4.315074   -0.462596    0.395508
  H      2.912325   -2.289975   -0.502003
  H      0.480456   -1.924459   -0.851784

 Total Charge           Charge          ....    0
 Multiplicity           Mult            ....    1
 Number of Electrons    NEL             ....   88
 Basis Dimension        Dim             .... 1252

ORBITAL ENERGIES
----------------

  NO   OCC          E(Eh)            E(eV)
   0   2.0000     -92.176648     -2508.2541
   1   2.0000     -20.542306      -558.9846
   2   2.0000     -20.540115      -558.9249
   3   2.0000     -11.278224      -306.8961
   4   2.0000     -11.277583      -306.8786
   5   2.0000     -11.271005      -306.6996
   6   2.0000     -11.264784      -306.5304
   7   2.0000     -11.264604      -306.5255
   8   2.0000     -11.261892      -306.4517
   9   2.0000     -11.255654      -306.2819
  10   2.0000     -11.255457      -306.2765
  11   2.0000      -9.145307      -248.8565
  12   2.0000      -6.830672      -185.8720
  13   2.0000      -6.830321      -185.8625
  14   2.0000      -6.829792      -185.8481
  15   2.0000      -1.441024       -39.2123
  16   2.0000      -1.331540       -36.2330
  17   2.0000      -1.183743       -32.2113
  18   2.0000      -1.095354       -29.8061
  19   2.0000      -1.054722       -28.7005
  20   2.0000      -1.043585       -28.3974
  21   2.0000      -0.928883       -25.2762
  22   2.0000      -0.855276       -23.2732
  23   2.0000      -0.846587       -23.0368
  24   2.0000      -0.784062       -21.3354
  25   2.0000      -0.736588       -20.0436
  26   2.0000      -0.700499       -19.0615
  27   2.0000      -0.668312       -18.1857
  28   2.0000      -0.665159       -18.0999
  29   2.0000      -0.652010       -17.7421
  30   2.0000      -0.638439       -17.3728
  31   2.0000      -0.618418       -16.8280
  32   2.0000      -0.615505       -16.7487
  33   2.0000      -0.575023       -15.6472
  34   2.0000      -0.546576       -14.8731
  35   2.0000      -0.534113       -14.5339
  36   2.0000      -0.522305       -14.2126
  37   2.0000      -0.498412       -13.5625
  38   2.0000      -0.494247       -13.4492
  39   2.0000      -0.472929       -12.8691
  40   2.0000      -0.441509       -12.0141
  41   2.0000      -0.424429       -11.5493
  42   2.0000      -0.366614        -9.9761
  43   2.0000      -0.361504        -9.8370
  44   0.0000       0.019186         0.5221
  45   0.0000       0.023552         0.6409
  46   0.0000       0.026662         0.7255
  47   0.0000       0.036341         0.9889
  48   0.0000       0.039014         1.0616

MULLIKEN ATOMIC CHARGES
-----------------------
   0 C :   -0.793718
   1 C :   -0.768128
   2 S :    3.224690
   3 O :   -1.346547
   4 O :   -1.336552
   5 C :   -0.131002
   6 C :   -0.407440
   7 C :   -0.295988
   8 C :   -0.308864
   9 C :   -0.270584
  10 C :   -0.390293
  11 H :    0.461982
  12 H :    0.376684
  13 H :    0.457630
  14 H :    0.353594
  15 H :    0.230042
  16 H :    0.361032
  17 H :    0.243898
  18 H :    0.339565
Sum of atomic charges:   -0.0000000

LOEWDIN ATOMIC CHARGES
----------------------
   0 C :    0.745138
   1 C :    0.229636
   2 S :   -0.243324
   3 O :    0.315394
   4 O :    0.303671
   5 C :   -0.238846
   6 C :    0.283623
   7 C :    0.355847
   8 C :    0.349425
   9 C :    0.355954
  10 C :    0.286047
  11 H :   -0.381671
  12 H :   -0.339184
  13 H :   -0.377343
  14 H :   -0.348005
  15 H :   -0.319818
  16 H :   -0.316489
  17 H :   -0.319649
  18 H :   -0.340407

  Mayer bond orders larger than 0.100000
B(  0-C ,  1-C ) :   1.6716 B(  0-C ,  3-O ) :   0.1135 B(  0-C , 11-H ) :   0.7652
B(  0-C , 12-H ) :   0.9906 B(  1-C ,  2-S ) :   0.6832 B(  1-C ,  3-O ) :  -0.1414
B(  1-C , 13-H ) :   0.8340 B(  2-S ,  3-O ) :   0.8945 B(  2-S ,  4-O ) :   0.7110
B(  2-S ,  5-C ) :   0.9035 B(  2-S ,  6-C ) :  -0.1158 B(  2-S , 10-C ) :  -0.1373
B(  3-O ,  5-C ) :  -0.1231 B(  3-O , 10-C ) :   0.1166 B(  4-O ,  6-C ) :   0.1068
B(  5-C ,  6-C ) :   1.0052 B(  5-C ,  7-C ) :  -0.3617 B(  5-C ,  9-C ) :  -0.3657
B(  5-C , 10-C ) :   0.9094 B(  6-C ,  7-C ) :   1.3912 B(  6-C ,  9-C ) :   0.1308
B(  6-C , 14-H ) :   0.8769 B(  6-C , 15-H ) :  -0.1186 B(  7-C ,  8-C ) :   1.1358
B(  7-C , 10-C ) :   0.1170 B(  7-C , 15-H ) :   1.1436 B(  8-C ,  9-C ) :   1.1231
B(  8-C , 10-C ) :   0.1064 B(  8-C , 15-H ) :  -0.1121 B(  8-C , 16-H ) :   0.9660
B(  8-C , 17-H ) :  -0.1043 B(  9-C , 10-C ) :   1.3798 B(  9-C , 17-H ) :   1.1263
B( 10-C , 17-H ) :  -0.1233 B( 10-C , 18-H ) :   0.8995

MP2 TOTAL ENERGY:     -857.080777784 Eh
FINAL SINGLE POINT ENERGY      -857.080777784348

DIPOLE MOMENT
-------------
                                X             Y             Z
Electronic contribution:     -2.77315       2.61747      -3.30565
Nuclear contribution   :      3.89370      -3.60086       4.89798
                        -----------------------------------------
Total Dipole Moment    :      1.12055      -0.98339       1.59233
                        -----------------------------------------
Magnitude (a.u.)       :      2.18133
Magnitude (Debye)      :      5.54450

Rotational constants in cm-1:     0.064924     0.022654     0.020712
Rotational constants in MHz :  1946.385375   679.160892   620.929295

                             ****ORCA TERMINATED NORMALLY****
TOTAL RUN TIME: 0 days 1 hours 59 minutes 24 seconds 249 msec
