                         Program Version 5.0.4 -  RELEASE  -
|  1> !ri-mp2 aug-cc-pvqz aug-cc-pvqz/c tightscf
|  2> %pal nprocs 16 end
|  3>
|  4> * xyz 0 1
|  5> C     -1.357401    1.261636   -0.000015
|  6> C     -1.021256   -0.208745    0.000007
|  7> O      0.300018   -0.575884   -0.000304
|  8> C      1.343345    0.319637    0.000014
|  9> C      2.594789   -0.109974    0.000104
| 10> O     -1.841186   -1.081285    0.000173
| 11> H     -0.954127    1.760057    0.881924
| 12> H     -0.953586    1.760128   -0.881661
| 13> H     -2.438358    1.353144   -0.000324
| 14> H      1.083879    1.367562    0.000051
| 15> H      2.832057   -1.163725    0.000004
| 16> H      3.402610    0.604869    0.000394
| 17> *
| 18>
| 19>                          ****END OF INPUT****

CARTESIAN COORDINATES (ANGSTROEM)
---------------------------------
  C     -1.357401    1.261636   -0.000015
  C     -1.021256   -0.208745    0.000007
  O      0.300018   -0.575884   -0.000304
  C      1.343345    0.319637    0.000014
  C      2.594789   -0.109974    0.000104
  O     -1.841186   -1.081285    0.000173
  H     -0.954127    1.760057    0.881924
  H     -0.953586    1.760128   -0.881661
  H     -2.438358    1.353144   -0.000324
  H      1.083879    1.367562    0.000051
  H      2.832057   -1.163725    0.000004
  H      3.402610    0.604869    0.000394

 Total Charge           Charge          ....    0
 Multiplicity           Mult            ....    1
 Number of Electrons    NEL             ....   46
 Basis Dimension        Dim             ....  756

ORBITAL ENERGIES
----------------

  NO   OCC          E(Eh)            E(eV)
   0   2.0000     -20.619046      -561.0728
   1   2.0000     -20.549604      -559.1832
   2   2.0000     -11.394988      -310.0734
   3   2.0000     -11.313575      -307.8580
   4   2.0000     -11.259400      -306.3838
   5   2.0000     -11.233752      -305.6859
   6   2.0000      -1.473815       -40.1046
   7   2.0000      -1.379279       -37.5321
   8   2.0000      -1.061588       -28.8873
   9   2.0000      -1.031218       -28.0609
  10   2.0000      -0.862918       -23.4812
  11   2.0000      -0.788013       -21.4429
  12   2.0000      -0.717017       -19.5110
  13   2.0000      -0.677564       -18.4375
  14   2.0000      -0.668586       -18.1932
  15   2.0000      -0.620016       -16.8715
  16   2.0000      -0.607586       -16.5333
  17   2.0000      -0.588821       -16.0226
  18   2.0000      -0.568972       -15.4825
  19   2.0000      -0.534190       -14.5361
  20   2.0000      -0.506440       -13.7809
  21   2.0000      -0.458750       -12.4832
  22   2.0000      -0.369658       -10.0589
  23   0.0000       0.019824         0.5394
  24   0.0000       0.028078         0.7640
  25   0.0000       0.036328         0.9885
  26   0.0000       0.037827         1.0293
  27   0.0000       0.046545         1.2665

MULLIKEN ATOMIC CHARGES
-----------------------
   0 C :   -0.753724
   1 C :    1.057094
   2 O :   -0.676042
   3 C :   -0.137437
   4 C :   -0.730394
   5 O :   -0.763507
   6 H :    0.232964
   7 H :    0.232821
   8 H :    0.301946
   9 H :    0.490334
  10 H :    0.408225
  11 H :    0.337721
Sum of atomic charges:    0.0000000

LOEWDIN ATOMIC CHARGES
----------------------
   0 C :    0.868867
   1 C :   -1.022392
   2 O :    0.799355
   3 C :   -0.025551
   4 C :    0.770616
   5 O :    0.672462
   6 H :   -0.296258
   7 H :   -0.296324
   8 H :   -0.317994
   9 H :   -0.410377
  10 H :   -0.365045
  11 H :   -0.377358

  Mayer bond orders larger than 0.100000
B(  0-C ,  1-C ) :   0.9532 B(  0-C ,  6-H ) :   0.9535 B(  0-C ,  7-H ) :   0.9537
B(  0-C ,  8-H ) :   0.9389 B(  1-C ,  2-O ) :   0.9105 B(  1-C ,  5-O ) :   1.4039
B(  2-O ,  3-C ) :   0.8500 B(  2-O ,  5-O ) :   0.1418 B(  3-C ,  4-C ) :   1.5257
B(  3-C ,  9-H ) :   0.7143 B(  4-C , 10-H ) :   0.8497 B(  4-C , 11-H ) :   0.9990

MP2 TOTAL ENERGY:     -306.006957447 Eh
FINAL SINGLE POINT ENERGY      -306.006957446951

DIPOLE MOMENT
-------------
                                X             Y             Z
Electronic contribution:     -2.28520      -4.08850      -0.00034
Nuclear contribution   :      2.95850       5.67571       0.00039
                        -----------------------------------------
Total Dipole Moment    :      0.67330       1.58721       0.00004
                        -----------------------------------------
Magnitude (a.u.)       :      1.72411
Magnitude (Debye)      :      4.38235

Rotational constants in cm-1:     0.292123     0.075479     0.060658
Rotational constants in MHz :  8757.622372  2262.812447  1818.477172

                             ****ORCA TERMINATED NORMALLY****
TOTAL RUN TIME: 0 days 0 hours 20 minutes 9 seconds 883 msec
