                         Program Version 5.0.4 -  RELEASE  -
|  1> !ri-mp2 aug-cc-pvqz aug-cc-pvqz/c tightscf
|  2> %pal nprocs 16 end
|  3>
|  4> * xyz 0 1
|  5> C     -2.336058    0.040054   -0.754448
|  6> H     -3.277485    0.507889   -0.453946
|  7> H     -1.772566    0.765717   -1.337617
|  8> H     -2.599402   -0.788479   -1.416868
|  9> C     -1.586968   -0.461683    0.442081
| 10> H     -2.107557   -1.217663    1.022372
| 11> C     -0.380120   -0.094692    0.868817
| 12> H      0.005574   -0.582736    1.758463
| 13> C      0.533363    0.933703    0.270646
| 14> H      0.042346    1.473818   -0.542976
| 15> H      0.746217    1.697623    1.028760
| 16> C      1.855390    0.410014   -0.232532
| 17> H      2.574553    1.177611   -0.503227
| 18> C      2.197298   -0.864315   -0.374253
| 19> H      3.172382   -1.142407   -0.750747
| 20> H      1.518518   -1.669861   -0.126075
| 21> *
| 22>
| 23>                          ****END OF INPUT****

CARTESIAN COORDINATES (ANGSTROEM)
---------------------------------
  C     -2.336058    0.040054   -0.754448
  H     -3.277485    0.507889   -0.453946
  H     -1.772566    0.765717   -1.337617
  H     -2.599402   -0.788479   -1.416868
  C     -1.586968   -0.461683    0.442081
  H     -2.107557   -1.217663    1.022372
  C     -0.380120   -0.094692    0.868817
  H      0.005574   -0.582736    1.758463
  C      0.533363    0.933703    0.270646
  H      0.042346    1.473818   -0.542976
  H      0.746217    1.697623    1.028760
  C      1.855390    0.410014   -0.232532
  H      2.574553    1.177611   -0.503227
  C      2.197298   -0.864315   -0.374253
  H      3.172382   -1.142407   -0.750747
  H      1.518518   -1.669861   -0.126075

 Total Charge           Charge          ....    0
 Multiplicity           Mult            ....    1
 Number of Electrons    NEL             ....   46
 Basis Dimension        Dim             ....  940

ORBITAL ENERGIES
----------------

  NO   OCC          E(Eh)            E(eV)
   0   2.0000     -11.231529      -305.6254
   1   2.0000     -11.229734      -305.5766
   2   2.0000     -11.225807      -305.4697
   3   2.0000     -11.221535      -305.3535
   4   2.0000     -11.218677      -305.2757
   5   2.0000     -11.213980      -305.1479
   6   2.0000      -1.098249       -29.8849
   7   2.0000      -1.044310       -28.4171
   8   2.0000      -0.963798       -26.2263
   9   2.0000      -0.902341       -24.5540
  10   2.0000      -0.771619       -20.9968
  11   2.0000      -0.709457       -19.3053
  12   2.0000      -0.657656       -17.8957
  13   2.0000      -0.637161       -17.3380
  14   2.0000      -0.589497       -16.0410
  15   2.0000      -0.565477       -15.3874
  16   2.0000      -0.558156       -15.1882
  17   2.0000      -0.543032       -14.7767
  18   2.0000      -0.520140       -14.1537
  19   2.0000      -0.495641       -13.4871
  20   2.0000      -0.467004       -12.7078
  21   2.0000      -0.362010        -9.8508
  22   2.0000      -0.346966        -9.4414
  23   0.0000       0.026747         0.7278
  24   0.0000       0.030456         0.8287
  25   0.0000       0.033163         0.9024
  26   0.0000       0.034824         0.9476
  27   0.0000       0.045134         1.2282

MULLIKEN ATOMIC CHARGES
-----------------------
   0 C :   -0.730397
   1 H :    0.258207
   2 H :    0.229548
   3 H :    0.232545
   4 C :   -0.373452
   5 H :    0.309091
   6 C :   -0.383949
   7 H :    0.341679
   8 C :   -0.212141
   9 H :    0.277327
  10 H :    0.278036
  11 C :   -0.509399
  12 H :    0.415388
  13 C :   -0.907769
  14 H :    0.337932
  15 H :    0.437354
Sum of atomic charges:    0.0000000

LOEWDIN ATOMIC CHARGES
----------------------
   0 C :    0.898215
   1 H :   -0.290036
   2 H :   -0.328046
   3 H :   -0.291507
   4 C :    0.394416
   5 H :   -0.332928
   6 C :    0.346590
   7 H :   -0.329560
   8 C :    0.448218
   9 H :   -0.330614
  10 H :   -0.290758
  11 C :    0.367147
  12 H :   -0.329591
  13 C :    0.790686
  14 H :   -0.356492
  15 H :   -0.365740

  Mayer bond orders larger than 0.100000
B(  0-C ,  1-H ) :   0.9740 B(  0-C ,  2-H ) :   0.9620 B(  0-C ,  3-H ) :   0.9828
B(  0-C ,  4-C ) :   0.7626 B(  4-C ,  5-H ) :   0.9554 B(  4-C ,  6-C ) :   1.7932
B(  6-C ,  7-H ) :   0.9184 B(  6-C ,  8-C ) :   0.8105 B(  6-C , 11-C ) :  -0.1630
B(  8-C ,  9-H ) :   0.9126 B(  8-C , 10-H ) :   0.8670 B(  8-C , 11-C ) :   0.8815
B( 11-C , 12-H ) :   0.8091 B( 11-C , 13-C ) :   1.8698 B( 13-C , 14-H ) :   0.9700
B( 13-C , 15-H ) :   0.7939

MP2 TOTAL ENERGY:     -234.151381210 Eh
FINAL SINGLE POINT ENERGY      -234.151381209991

DIPOLE MOMENT
-------------
                                X             Y             Z
Electronic contribution:      1.64348      -0.08630       1.32647
Nuclear contribution   :     -1.78515       0.23296      -1.39018
                        -----------------------------------------
Total Dipole Moment    :     -0.14166       0.14666      -0.06371
                        -----------------------------------------
Magnitude (a.u.)       :      0.21363
Magnitude (Debye)      :      0.54300

Rotational constants in cm-1:     0.241141     0.060870     0.059461
Rotational constants in MHz :  7229.224529  1824.829456  1782.603302

                             ****ORCA TERMINATED NORMALLY****
TOTAL RUN TIME: 0 days 0 hours 34 minutes 53 seconds 169 msec
