                         Program Version 5.0.4 -  RELEASE  -
|  1> !ri-mp2 aug-cc-pvqz aug-cc-pvqz/c tightscf
|  2> %pal nprocs 16 end
|  3>
|  4> * xyz 0 1
|  5> C     -1.222725    0.248264    0.000000
|  6> N     -2.224302   -0.323411    0.000000
|  7> C      0.000000    0.979779    0.000000
|  8> H     -0.097533    2.057310    0.000000
|  9> C      1.206868    0.404586    0.000000
| 10> H      2.065769    1.066361    0.000000
| 11> C      1.490613   -1.057531    0.000000
| 12> H      0.580711   -1.654271    0.000000
| 13> H      2.086316   -1.328056    0.875372
| 14> H      2.086316   -1.328056   -0.875372
| 15> *
| 16>
| 17>                          ****END OF INPUT****

CARTESIAN COORDINATES (ANGSTROEM)
---------------------------------
  C     -1.222725    0.248264    0.000000
  N     -2.224302   -0.323411    0.000000
  C      0.000000    0.979779    0.000000
  H     -0.097533    2.057310    0.000000
  C      1.206868    0.404586    0.000000
  H      2.065769    1.066361    0.000000
  C      1.490613   -1.057531    0.000000
  H      0.580711   -1.654271    0.000000
  H      2.086316   -1.328056    0.875372
  H      2.086316   -1.328056   -0.875372

 Total Charge           Charge          ....    0
 Multiplicity           Mult            ....    1
 Number of Electrons    NEL             ....   36
 Basis Dimension        Dim             ....  630

ORBITAL ENERGIES
----------------

  NO   OCC          E(Eh)            E(eV)
   0   2.0000     -15.567460      -423.6121
   1   2.0000     -11.284949      -307.0791
   2   2.0000     -11.275499      -306.8219
   3   2.0000     -11.272754      -306.7472
   4   2.0000     -11.246063      -306.0209
   5   2.0000      -1.220853       -33.2211
   6   2.0000      -1.116910       -30.3927
   7   2.0000      -0.988309       -26.8932
   8   2.0000      -0.846486       -23.0341
   9   2.0000      -0.698699       -19.0126
  10   2.0000      -0.671938       -18.2843
  11   2.0000      -0.596743       -16.2382
  12   2.0000      -0.568030       -15.4569
  13   2.0000      -0.559218       -15.2171
  14   2.0000      -0.538510       -14.6536
  15   2.0000      -0.510179       -13.8827
  16   2.0000      -0.465651       -12.6710
  17   2.0000      -0.381575       -10.3832
  18   0.0000       0.018748         0.5102
  19   0.0000       0.029401         0.8001
  20   0.0000       0.036149         0.9837
  21   0.0000       0.036915         1.0045
  22   0.0000       0.055726         1.5164

MULLIKEN ATOMIC CHARGES
-----------------------
   0 C :    0.431833
   1 N :   -0.671204
   2 C :   -0.530474
   3 H :    0.444890
   4 C :   -0.218808
   5 H :    0.408716
   6 C :   -0.655794
   7 H :    0.312824
   8 H :    0.239008
   9 H :    0.239008
Sum of atomic charges:   -0.0000000

LOEWDIN ATOMIC CHARGES
----------------------
   0 C :   -0.347270
   1 N :    0.404116
   2 C :    0.269204
   3 H :   -0.370509
   4 C :    0.355374
   5 H :   -0.316416
   6 C :    0.900032
   7 H :   -0.323821
   8 H :   -0.285355
   9 H :   -0.285355

  Mayer bond orders larger than 0.100000
B(  0-C ,  1-N ) :   2.5185 B(  0-C ,  2-C ) :   1.2555 B(  0-C ,  4-C ) :  -0.1175
B(  2-C ,  3-H ) :   0.7982 B(  2-C ,  4-C ) :   1.6216 B(  4-C ,  5-H ) :   0.8273
B(  4-C ,  6-C ) :   0.8016 B(  6-C ,  7-H ) :   0.9143 B(  6-C ,  8-H ) :   0.9620
B(  6-C ,  9-H ) :   0.9620

MP2 TOTAL ENERGY:     -209.783568519 Eh
FINAL SINGLE POINT ENERGY      -209.783568519052

DIPOLE MOMENT
-------------
                                X             Y             Z
Electronic contribution:     -4.98174       1.67535      -0.00000
Nuclear contribution   :      6.76048      -1.19782       0.00000
                        -----------------------------------------
Total Dipole Moment    :      1.77874       0.47753      -0.00000
                        -----------------------------------------
Magnitude (a.u.)       :      1.84172
Magnitude (Debye)      :      4.68129

Rotational constants in cm-1:     0.409012     0.114743     0.091101
Rotational constants in MHz : 12261.879072  3439.896898  2731.147380

                             ****ORCA TERMINATED NORMALLY****
TOTAL RUN TIME: 0 days 0 hours 7 minutes 53 seconds 141 msec
