                         Program Version 5.0.4 -  RELEASE  -
|  1> !ri-mp2 aug-cc-pvqz aug-cc-pvqz/c tightscf
|  2> %pal nprocs 16 end
|  3>
|  4> * xyz 0 1
|  5> C     -1.766341   -0.115464   -0.079800
|  6> N     -2.492129   -1.010435   -0.031960
|  7> C     -0.894931    1.009998   -0.149808
|  8> H     -1.357106    1.941241   -0.450071
|  9> C      0.411013    0.955887    0.131841
| 10> H      0.972979    1.879716    0.039002
| 11> C      1.185347   -0.249154    0.551313
| 12> H      0.526822   -1.114981    0.622590
| 13> H      1.581474   -0.068108    1.556020
| 14> C      2.357367   -0.548639   -0.394504
| 15> H      2.000836   -0.775983   -1.399184
| 16> H      3.038423    0.301062   -0.463225
| 17> H      2.926753   -1.405678   -0.035660
| 18> *
| 19>
| 20>                          ****END OF INPUT****

CARTESIAN COORDINATES (ANGSTROEM)
---------------------------------
  C     -1.766341   -0.115464   -0.079800
  N     -2.492129   -1.010435   -0.031960
  C     -0.894931    1.009998   -0.149808
  H     -1.357106    1.941241   -0.450071
  C      0.411013    0.955887    0.131841
  H      0.972979    1.879716    0.039002
  C      1.185347   -0.249154    0.551313
  H      0.526822   -1.114981    0.622590
  H      1.581474   -0.068108    1.556020
  C      2.357367   -0.548639   -0.394504
  H      2.000836   -0.775983   -1.399184
  H      3.038423    0.301062   -0.463225
  H      2.926753   -1.405678   -0.035660

 Total Charge           Charge          ....    0
 Multiplicity           Mult            ....    1
 Number of Electrons    NEL             ....   44
 Basis Dimension        Dim             ....  802

ORBITAL ENERGIES
----------------

  NO   OCC          E(Eh)            E(eV)
   0   2.0000     -15.566486      -423.5856
   1   2.0000     -11.280851      -306.9676
   2   2.0000     -11.274483      -306.7943
   3   2.0000     -11.271971      -306.7259
   4   2.0000     -11.248852      -306.0968
   5   2.0000     -11.233863      -305.6890
   6   2.0000      -1.219978       -33.1973
   7   2.0000      -1.123081       -30.5606
   8   2.0000      -1.033706       -28.1286
   9   2.0000      -0.903347       -24.5813
  10   2.0000      -0.830000       -22.5855
  11   2.0000      -0.693927       -18.8827
  12   2.0000      -0.681103       -18.5337
  13   2.0000      -0.618582       -16.8325
  14   2.0000      -0.586041       -15.9470
  15   2.0000      -0.553799       -15.0696
  16   2.0000      -0.546419       -14.8688
  17   2.0000      -0.516953       -14.0670
  18   2.0000      -0.511818       -13.9273
  19   2.0000      -0.505383       -13.7522
  20   2.0000      -0.463528       -12.6132
  21   2.0000      -0.380001       -10.3403
  22   0.0000       0.019782         0.5383
  23   0.0000       0.027233         0.7410
  24   0.0000       0.033212         0.9037
  25   0.0000       0.034675         0.9436
  26   0.0000       0.049337         1.3425

MULLIKEN ATOMIC CHARGES
-----------------------
   0 C :    0.390851
   1 N :   -0.683041
   2 C :   -0.528271
   3 H :    0.447812
   4 C :   -0.268685
   5 H :    0.391226
   6 C :   -0.279783
   7 H :    0.296153
   8 H :    0.285481
   9 C :   -0.842521
  10 H :    0.264172
  11 H :    0.232451
  12 H :    0.294155
Sum of atomic charges:    0.0000000

LOEWDIN ATOMIC CHARGES
----------------------
   0 C :   -0.341192
   1 N :    0.406709
   2 C :    0.283198
   3 H :   -0.366810
   4 C :    0.354116
   5 H :   -0.308327
   6 C :    0.481350
   7 H :   -0.318597
   8 H :   -0.274649
   9 C :    0.931929
  10 H :   -0.279913
  11 H :   -0.286561
  12 H :   -0.281253

  Mayer bond orders larger than 0.100000
B(  0-C ,  1-N ) :   2.5024 B(  0-C ,  2-C ) :   1.2887 B(  2-C ,  3-H ) :   0.8032
B(  2-C ,  4-C ) :   1.6394 B(  2-C ,  6-C ) :  -0.1026 B(  4-C ,  5-H ) :   0.8622
B(  4-C ,  6-C ) :   0.7944 B(  6-C ,  7-H ) :   0.8905 B(  6-C ,  8-H ) :   0.8520
B(  6-C ,  9-C ) :   1.0353 B(  9-C , 10-H ) :   0.9350 B(  9-C , 11-H ) :   0.9344
B(  9-C , 12-H ) :   0.9367

MP2 TOTAL ENERGY:     -249.019667891 Eh
FINAL SINGLE POINT ENERGY      -249.019667890969

DIPOLE MOMENT
-------------
                                X             Y             Z
Electronic contribution:     -8.34495       0.29805       0.17168
Nuclear contribution   :      9.85652       0.76539      -0.13316
                        -----------------------------------------
Total Dipole Moment    :      1.51157       1.06344       0.03852
                        -----------------------------------------
Magnitude (a.u.)       :      1.84858
Magnitude (Debye)      :      4.69872

Rotational constants in cm-1:     0.261480     0.065419     0.056277
Rotational constants in MHz :  7838.967451  1961.199200  1687.140108

                             ****ORCA TERMINATED NORMALLY****
TOTAL RUN TIME: 0 days 0 hours 15 minutes 57 seconds 768 msec
