                         Program Version 5.0.4 -  RELEASE  -
|  1> !ri-mp2 aug-cc-pvqz aug-cc-pvqz/c tightscf
|  2> %pal nprocs 16 end
|  3>
|  4> * xyz 0 1
|  5> Cl    -0.219933    1.550529   -0.000002
|  6> N     -2.880130   -0.962984    0.000001
|  7> N      3.077266   -0.391223    0.000000
|  8> C     -0.432054   -0.165225    0.000000
|  9> C      0.591544   -1.033696    0.000001
| 10> C     -1.783875   -0.609615    0.000001
| 11> C      1.955445   -0.655823    0.000001
| 12> H      0.372561   -2.093385    0.000003
| 13> *
| 14>
| 15>                          ****END OF INPUT****

CARTESIAN COORDINATES (ANGSTROEM)
---------------------------------
  Cl    -0.219933    1.550529   -0.000002
  N     -2.880130   -0.962984    0.000001
  N      3.077266   -0.391223    0.000000
  C     -0.432054   -0.165225    0.000000
  C      0.591544   -1.033696    0.000001
  C     -1.783875   -0.609615    0.000001
  C      1.955445   -0.655823    0.000001
  H      0.372561   -2.093385    0.000003

 Total Charge           Charge          ....    0
 Multiplicity           Mult            ....    1
 Number of Electrons    NEL             ....   56
 Basis Dimension        Dim             ....  610

ORBITAL ENERGIES
----------------

  NO   OCC          E(Eh)            E(eV)
   0   2.0000    -104.899541     -2854.4616
   1   2.0000     -15.620713      -425.0612
   2   2.0000     -15.612222      -424.8301
   3   2.0000     -11.402123      -310.2675
   4   2.0000     -11.345907      -308.7378
   5   2.0000     -11.319325      -308.0145
   6   2.0000     -11.311024      -307.7886
   7   2.0000     -10.624391      -289.1044
   8   2.0000      -8.091511      -220.1812
   9   2.0000      -8.089432      -220.1246
  10   2.0000      -8.089428      -220.1245
  11   2.0000      -1.278746       -34.7964
  12   2.0000      -1.259904       -34.2837
  13   2.0000      -1.223435       -33.2914
  14   2.0000      -1.110362       -30.2145
  15   2.0000      -0.968907       -26.3653
  16   2.0000      -0.789059       -21.4714
  17   2.0000      -0.757335       -20.6081
  18   2.0000      -0.645673       -17.5696
  19   2.0000      -0.613145       -16.6845
  20   2.0000      -0.604122       -16.4390
  21   2.0000      -0.592823       -16.1315
  22   2.0000      -0.532763       -14.4972
  23   2.0000      -0.527737       -14.3604
  24   2.0000      -0.515533       -14.0284
  25   2.0000      -0.510110       -13.8808
  26   2.0000      -0.496345       -13.5062
  27   2.0000      -0.412187       -11.2162
  28   0.0000       0.006525         0.1775
  29   0.0000       0.019287         0.5248
  30   0.0000       0.043755         1.1906
  31   0.0000       0.049550         1.3483
  32   0.0000       0.056162         1.5282

MULLIKEN ATOMIC CHARGES
-----------------------
   0 Cl:   -0.098831
   1 N :   -0.603647
   2 N :   -0.599186
   3 C :    0.002359
   4 C :   -0.341548
   5 C :    0.670945
   6 C :    0.537883
   7 H :    0.432025
Sum of atomic charges:    0.0000000

LOEWDIN ATOMIC CHARGES
----------------------
   0 Cl:    1.248903
   1 N :    0.414934
   2 N :    0.419031
   3 C :   -0.968461
   4 C :    0.089819
   5 C :   -0.472065
   6 C :   -0.365602
   7 H :   -0.366558

  Mayer bond orders larger than 0.100000
B(  0-Cl,  3-C ) :   0.8838 B(  1-N ,  5-C ) :   2.5354 B(  2-N ,  6-C ) :   2.5093
B(  3-C ,  4-C ) :   1.3583 B(  3-C ,  5-C ) :   1.2523 B(  3-C ,  6-C ) :  -0.2176
B(  4-C ,  5-C ) :  -0.2139 B(  4-C ,  6-C ) :   1.3310 B(  4-C ,  7-H ) :   0.7738

MP2 TOTAL ENERGY:     -721.781782473 Eh
FINAL SINGLE POINT ENERGY      -721.781782472676

DIPOLE MOMENT
-------------
                                X             Y             Z
Electronic contribution:     -0.73024       3.79007      -0.00000
Nuclear contribution   :      0.64342      -4.03756       0.00001
                        -----------------------------------------
Total Dipole Moment    :     -0.08682      -0.24749       0.00000
                        -----------------------------------------
Magnitude (a.u.)       :      0.26228
Magnitude (Debye)      :      0.66666

Rotational constants in cm-1:     0.132308     0.049396     0.035968
Rotational constants in MHz :  3966.506189  1480.855957  1078.287832

                             ****ORCA TERMINATED NORMALLY****
TOTAL RUN TIME: 0 days 0 hours 8 minutes 27 seconds 892 msec
