                         Program Version 5.0.4 -  RELEASE  -
|  1> !ri-mp2 aug-cc-pvqz aug-cc-pvqz/c tightscf
|  2> %pal nprocs 16 end
|  3>
|  4> * xyz 0 1
|  5> C      2.504241    0.931319   -0.085192
|  6> C      1.998142   -0.478800   -0.128417
|  7> C      0.769296   -0.918216    0.140008
|  8> C     -0.434805   -0.119302    0.542445
|  9> C     -1.601727   -0.257472   -0.447654
| 10> C     -2.851525    0.501404   -0.006889
| 11> H      1.734783    1.651980    0.184380
| 12> H      3.319775    1.027195    0.636764
| 13> H      2.913879    1.224357   -1.055460
| 14> H      2.738677   -1.220567   -0.412233
| 15> H      0.595713   -1.987355    0.051531
| 16> H     -0.185051    0.936381    0.659414
| 17> H     -0.776153   -0.463279    1.525879
| 18> H     -1.278423    0.098753   -1.429077
| 19> H     -1.840844   -1.317309   -0.573189
| 20> H     -3.661297    0.386912   -0.728721
| 21> H     -3.213611    0.139892    0.957916
| 22> H     -2.649176    1.569437    0.096993
| 23> *
| 24>
| 25>                          ****END OF INPUT****

CARTESIAN COORDINATES (ANGSTROEM)
---------------------------------
  C      2.504241    0.931319   -0.085192
  C      1.998142   -0.478800   -0.128417
  C      0.769296   -0.918216    0.140008
  C     -0.434805   -0.119302    0.542445
  C     -1.601727   -0.257472   -0.447654
  C     -2.851525    0.501404   -0.006889
  H      1.734783    1.651980    0.184380
  H      3.319775    1.027195    0.636764
  H      2.913879    1.224357   -1.055460
  H      2.738677   -1.220567   -0.412233
  H      0.595713   -1.987355    0.051531
  H     -0.185051    0.936381    0.659414
  H     -0.776153   -0.463279    1.525879
  H     -1.278423    0.098753   -1.429077
  H     -1.840844   -1.317309   -0.573189
  H     -3.661297    0.386912   -0.728721
  H     -3.213611    0.139892    0.957916
  H     -2.649176    1.569437    0.096993

 Total Charge           Charge          ....    0
 Multiplicity           Mult            ....    1
 Number of Electrons    NEL             ....   48
 Basis Dimension        Dim             .... 1032

ORBITAL ENERGIES
----------------

  NO   OCC          E(Eh)            E(eV)
   0   2.0000     -11.221426      -305.3505
   1   2.0000     -11.218438      -305.2692
   2   2.0000     -11.217589      -305.2461
   3   2.0000     -11.217099      -305.2328
   4   2.0000     -11.216099      -305.2056
   5   2.0000     -11.209914      -305.0373
   6   2.0000      -1.089938       -29.6587
   7   2.0000      -1.038533       -28.2599
   8   2.0000      -0.959941       -26.1213
   9   2.0000      -0.894747       -24.3473
  10   2.0000      -0.806849       -21.9555
  11   2.0000      -0.721243       -19.6260
  12   2.0000      -0.658136       -17.9088
  13   2.0000      -0.611125       -16.6296
  14   2.0000      -0.590971       -16.0811
  15   2.0000      -0.567336       -15.4380
  16   2.0000      -0.557505       -15.1705
  17   2.0000      -0.534853       -14.5541
  18   2.0000      -0.522744       -14.2246
  19   2.0000      -0.500639       -13.6231
  20   2.0000      -0.479590       -13.0503
  21   2.0000      -0.468623       -12.7519
  22   2.0000      -0.458310       -12.4712
  23   2.0000      -0.341811        -9.3011
  24   0.0000       0.026288         0.7153
  25   0.0000       0.030502         0.8300
  26   0.0000       0.032387         0.8813
  27   0.0000       0.034887         0.9493
  28   0.0000       0.044938         1.2228

MULLIKEN ATOMIC CHARGES
-----------------------
   0 C :   -0.754553
   1 C :   -0.339605
   2 C :   -0.617072
   3 C :   -0.205471
   4 C :   -0.350694
   5 C :   -0.832359
   6 H :    0.232943
   7 H :    0.254145
   8 H :    0.232842
   9 H :    0.316068
  10 H :    0.276027
  11 H :    0.304226
  12 H :    0.322619
  13 H :    0.243410
  14 H :    0.216131
  15 H :    0.255045
  16 H :    0.222940
  17 H :    0.223358
Sum of atomic charges:    0.0000000

LOEWDIN ATOMIC CHARGES
----------------------
   0 C :    0.894910
   1 C :    0.393485
   2 C :    0.388552
   3 C :    0.477752
   4 C :    0.503153
   5 C :    0.924998
   6 H :   -0.329234
   7 H :   -0.291542
   8 H :   -0.292238
   9 H :   -0.337417
  10 H :   -0.329882
  11 H :   -0.320838
  12 H :   -0.275977
  13 H :   -0.271964
  14 H :   -0.278223
  15 H :   -0.284708
  16 H :   -0.285941
  17 H :   -0.284886

  Mayer bond orders larger than 0.100000
B(  0-C ,  1-C ) :   0.8015 B(  0-C ,  6-H ) :   0.9576 B(  0-C ,  7-H ) :   0.9743
B(  0-C ,  8-H ) :   0.9770 B(  1-C ,  2-C ) :   1.8007 B(  1-C ,  3-C ) :  -0.1864
B(  1-C ,  9-H ) :   0.9531 B(  2-C ,  3-C ) :   0.8357 B(  2-C ,  9-H ) :  -0.1096
B(  2-C , 10-H ) :   1.0026 B(  3-C ,  4-C ) :   0.9415 B(  3-C , 11-H ) :   0.8666
B(  3-C , 12-H ) :   0.8230 B(  4-C ,  5-C ) :   0.9589 B(  4-C , 13-H ) :   0.9005
B(  4-C , 14-H ) :   0.8863 B(  5-C , 15-H ) :   0.9948 B(  5-C , 16-H ) :   0.9529
B(  5-C , 17-H ) :   0.9604

MP2 TOTAL ENERGY:     -235.379352190 Eh
FINAL SINGLE POINT ENERGY      -235.379352189567

DIPOLE MOMENT
-------------
                                X             Y             Z
Electronic contribution:      2.43357      -2.09627       0.08715
Nuclear contribution   :     -2.46543       2.19194      -0.09191
                        -----------------------------------------
Total Dipole Moment    :     -0.03185       0.09566      -0.00476
                        -----------------------------------------
Magnitude (a.u.)       :      0.10094
Magnitude (Debye)      :      0.25656

Rotational constants in cm-1:     0.288702     0.049113     0.045320
Rotational constants in MHz :  8655.072664  1472.380421  1358.673586

                             ****ORCA TERMINATED NORMALLY****
TOTAL RUN TIME: 0 days 0 hours 41 minutes 40 seconds 26 msec
