                         Program Version 5.0.4 -  RELEASE  -
|  1> !ri-mp2 aug-cc-pvqz aug-cc-pvqz/c tightscf
|  2> %pal nprocs 16 end
|  3>
|  4> * xyz 0 1
|  5> H      0.296999    2.638501    0.000000
|  6> Cl    -1.282302   -0.692895    0.000000
|  7> C      1.865985   -1.198419    0.000000
|  8> C     -0.527300    1.925834    0.000000
|  9> H     -1.148337    2.109135    0.878732
| 10> H     -1.148337    2.109135   -0.878732
| 11> C      0.000000    0.528312    0.000000
| 12> C      1.279580    0.174679    0.000000
| 13> H      1.985598    0.999563    0.000000
| 14> H      1.099594   -1.969354    0.000000
| 15> H      2.502012   -1.345103   -0.876739
| 16> H      2.502012   -1.345103    0.876739
| 17> *
| 18>
| 19>                          ****END OF INPUT****

CARTESIAN COORDINATES (ANGSTROEM)
---------------------------------
  H      0.296999    2.638501    0.000000
  Cl    -1.282302   -0.692895    0.000000
  C      1.865985   -1.198419    0.000000
  C     -0.527300    1.925834    0.000000
  H     -1.148337    2.109135    0.878732
  H     -1.148337    2.109135   -0.878732
  C      0.000000    0.528312    0.000000
  C      1.279580    0.174679    0.000000
  H      1.985598    0.999563    0.000000
  H      1.099594   -1.969354    0.000000
  H      2.502012   -1.345103   -0.876739
  H      2.502012   -1.345103    0.876739

 Total Charge           Charge          ....    0
 Multiplicity           Mult            ....    1
 Number of Electrons    NEL             ....   48
 Basis Dimension        Dim             ....  726

ORBITAL ENERGIES
----------------

  NO   OCC          E(Eh)            E(eV)
   0   2.0000    -104.827784     -2852.5090
   1   2.0000     -11.294528      -307.3397
   2   2.0000     -11.240910      -305.8807
   3   2.0000     -11.234465      -305.7053
   4   2.0000     -11.224988      -305.4474
   5   2.0000     -10.553264      -287.1689
   6   2.0000      -8.020311      -218.2437
   7   2.0000      -8.018726      -218.2006
   8   2.0000      -8.018688      -218.1996
   9   2.0000      -1.156926       -31.4816
  10   2.0000      -1.045041       -28.4370
  11   2.0000      -0.996674       -27.1209
  12   2.0000      -0.897240       -24.4151
  13   2.0000      -0.723391       -19.6845
  14   2.0000      -0.639949       -17.4139
  15   2.0000      -0.614924       -16.7329
  16   2.0000      -0.595615       -16.2075
  17   2.0000      -0.567234       -15.4352
  18   2.0000      -0.538984       -14.6665
  19   2.0000      -0.532091       -14.4789
  20   2.0000      -0.497490       -13.5374
  21   2.0000      -0.478100       -13.0098
  22   2.0000      -0.443136       -12.0584
  23   2.0000      -0.349085        -9.4991
  24   0.0000       0.025305         0.6886
  25   0.0000       0.030336         0.8255
  26   0.0000       0.037363         1.0167
  27   0.0000       0.039080         1.0634
  28   0.0000       0.051172         1.3925

MULLIKEN ATOMIC CHARGES
-----------------------
   0 H :    0.240460
   1 Cl:   -0.333649
   2 C :   -0.626178
   3 C :   -0.641434
   4 H :    0.253969
   5 H :    0.253969
   6 C :    0.220449
   7 C :   -0.398059
   8 H :    0.299291
   9 H :    0.279320
  10 H :    0.225930
  11 H :    0.225930
Sum of atomic charges:    0.0000000

LOEWDIN ATOMIC CHARGES
----------------------
   0 H :   -0.322537
   1 Cl:    1.176286
   2 C :    0.851284
   3 C :    0.755098
   4 H :   -0.317038
   5 H :   -0.317038
   6 C :   -0.744849
   7 C :    0.231919
   8 H :   -0.349123
   9 H :   -0.373281
  10 H :   -0.295361
  11 H :   -0.295361

  Mayer bond orders larger than 0.100000
B(  0-H ,  3-C ) :   0.9684 B(  1-Cl,  6-C ) :   0.7465 B(  2-C ,  6-C ) :  -0.1021
B(  2-C ,  7-C ) :   0.8596 B(  2-C ,  9-H ) :   0.9213 B(  2-C , 10-H ) :   1.0013
B(  2-C , 11-H ) :   1.0013 B(  3-C ,  4-H ) :   0.9874 B(  3-C ,  5-H ) :   0.9874
B(  3-C ,  6-C ) :   0.7299 B(  6-C ,  7-C ) :   1.5820 B(  7-C ,  8-H ) :   0.8867

MP2 TOTAL ENERGY:     -616.056397711 Eh
FINAL SINGLE POINT ENERGY      -616.056397711290

DIPOLE MOMENT
-------------
                                X             Y             Z
Electronic contribution:     -7.28343      -3.70300       0.00000
Nuclear contribution   :      7.88859       4.16931       0.00000
                        -----------------------------------------
Total Dipole Moment    :      0.60516       0.46631       0.00000
                        -----------------------------------------
Magnitude (a.u.)       :      0.76398
Magnitude (Debye)      :      1.94189

Rotational constants in cm-1:     0.162506     0.110636     0.067459
Rotational constants in MHz :  4871.801443  3316.791414  2022.383759

                             ****ORCA TERMINATED NORMALLY****
TOTAL RUN TIME: 0 days 0 hours 15 minutes 34 seconds 559 msec
