                         Program Version 5.0.4 -  RELEASE  -
|  1> !ri-mp2 aug-cc-pvqz aug-cc-pvqz/c tightscf
|  2> %pal nprocs 16 end
|  3>
|  4> * xyz 0 1
|  5> C     0.000000     1.361719    0.498953
|  6> N     0.000000     0.616634   -0.777570
|  7> N     0.000000    -0.616634   -0.777570
|  8> C     0.000000    -1.361719    0.498953
|  9> H     0.885227     1.126165    1.094742
| 10> H    -0.885227     1.126165    1.094742
| 11> H     0.000000     2.420611    0.259791
| 12> H     0.885227    -1.126165    1.094742
| 13> H    -0.885227    -1.126165    1.094742
| 14> H     0.000000    -2.420611    0.259791
| 15> *
| 16>
| 17>                          ****END OF INPUT****

CARTESIAN COORDINATES (ANGSTROEM)
---------------------------------
  C      0.000000    1.361719    0.498953
  N      0.000000    0.616634   -0.777570
  N      0.000000   -0.616634   -0.777570
  C      0.000000   -1.361719    0.498953
  H      0.885227    1.126165    1.094742
  H     -0.885227    1.126165    1.094742
  H      0.000000    2.420611    0.259791
  H      0.885227   -1.126165    1.094742
  H     -0.885227   -1.126165    1.094742
  H      0.000000   -2.420611    0.259791

 Total Charge           Charge          ....    0
 Multiplicity           Mult            ....    1
 Number of Electrons    NEL             ....   32
 Basis Dimension        Dim             ....  596

ORBITAL ENERGIES
----------------

  NO   OCC          E(Eh)            E(eV)
   0   2.0000     -15.617021      -424.9607
   1   2.0000     -15.615610      -424.9224
   2   2.0000     -11.258384      -306.3562
   3   2.0000     -11.258372      -306.3559
   4   2.0000      -1.355287       -36.8792
   5   2.0000      -1.046666       -28.4812
   6   2.0000      -0.975787       -26.5525
   7   2.0000      -0.775396       -21.0996
   8   2.0000      -0.668772       -18.1982
   9   2.0000      -0.651076       -17.7167
  10   2.0000      -0.640892       -17.4396
  11   2.0000      -0.571979       -15.5643
  12   2.0000      -0.562528       -15.3072
  13   2.0000      -0.504232       -13.7208
  14   2.0000      -0.459637       -12.5074
  15   2.0000      -0.367542       -10.0013
  16   0.0000       0.022715         0.6181
  17   0.0000       0.032715         0.8902
  18   0.0000       0.037812         1.0289
  19   0.0000       0.044553         1.2124
  20   0.0000       0.054775         1.4905

MULLIKEN ATOMIC CHARGES
-----------------------
   0 C :   -0.687475
   1 N :   -0.202421
   2 N :   -0.202421
   3 C :   -0.687475
   4 H :    0.229203
   5 H :    0.229203
   6 H :    0.431490
   7 H :    0.229203
   8 H :    0.229203
   9 H :    0.431490
Sum of atomic charges:   -0.0000000

LOEWDIN ATOMIC CHARGES
----------------------
   0 C :    0.663299
   1 N :    0.322199
   2 N :    0.322199
   3 C :    0.663299
   4 H :   -0.326704
   5 H :   -0.326704
   6 H :   -0.332091
   7 H :   -0.326704
   8 H :   -0.326704
   9 H :   -0.332091

  Mayer bond orders larger than 0.100000
B(  0-C ,  1-N ) :   0.8840 B(  0-C ,  4-H ) :   0.9427 B(  0-C ,  5-H ) :   0.9427
B(  0-C ,  6-H ) :   0.8246 B(  1-N ,  2-N ) :   1.4966 B(  2-N ,  3-C ) :   0.8840
B(  3-C ,  7-H ) :   0.9427 B(  3-C ,  8-H ) :   0.9427 B(  3-C ,  9-H ) :   0.8246

MP2 TOTAL ENERGY:     -188.944836318 Eh
FINAL SINGLE POINT ENERGY      -188.944836318225

DIPOLE MOMENT
-------------
                                X             Y             Z
Electronic contribution:      0.00000      -0.00000      -3.74634
Nuclear contribution   :      0.00000       0.00000       5.05898
                        -----------------------------------------
Total Dipole Moment    :      0.00000      -0.00000       1.31264
                        -----------------------------------------
Magnitude (a.u.)       :      1.31264
Magnitude (Debye)      :      3.33646

Rotational constants in cm-1:     0.550195     0.223929     0.169251
Rotational constants in MHz : 16494.443036  6713.233908  5074.025517

                             ****ORCA TERMINATED NORMALLY****
TOTAL RUN TIME: 0 days 0 hours 5 minutes 3 seconds 376 msec
