                         Program Version 5.0.4 -  RELEASE  -
|  1> !ri-mp2 aug-cc-pvqz aug-cc-pvqz/c tightscf
|  2> %pal nprocs 16 end
|  3>
|  4> * xyz 0 1
|  5> C      0.000000    0.915171    0.000000
|  6> C     -1.234906    0.436582    0.000000
|  7> C     -1.665685   -0.992435    0.000000
|  8> Cl     1.445564   -0.071997    0.000000
|  9> H      0.228804    1.968959    0.000000
| 10> H     -2.020171    1.186064    0.000000
| 11> H     -0.816904   -1.671987    0.000000
| 12> H     -2.281387   -1.207498    0.876786
| 13> H     -2.281387   -1.207498   -0.876786
| 14> *
| 15>
| 16>                          ****END OF INPUT****

CARTESIAN COORDINATES (ANGSTROEM)
---------------------------------
  C      0.000000    0.915171    0.000000
  C     -1.234906    0.436582    0.000000
  C     -1.665685   -0.992435    0.000000
  Cl     1.445564   -0.071997    0.000000
  H      0.228804    1.968959    0.000000
  H     -2.020171    1.186064    0.000000
  H     -0.816904   -1.671987    0.000000
  H     -2.281387   -1.207498    0.876786
  H     -2.281387   -1.207498   -0.876786

 Total Charge           Charge          ....    0
 Multiplicity           Mult            ....    1
 Number of Electrons    NEL             ....   40
 Basis Dimension        Dim             ....  554

ORBITAL ENERGIES
----------------

  NO   OCC          E(Eh)            E(eV)
   0   2.0000    -104.833855     -2852.6742
   1   2.0000     -11.289288      -307.1972
   2   2.0000     -11.250987      -306.1549
   3   2.0000     -11.230387      -305.5944
   4   2.0000     -10.559121      -287.3283
   5   2.0000      -8.026235      -218.4050
   6   2.0000      -8.024568      -218.3596
   7   2.0000      -8.024543      -218.3589
   8   2.0000      -1.151206       -31.3259
   9   2.0000      -1.049811       -28.5668
  10   2.0000      -0.937150       -25.5012
  11   2.0000      -0.752353       -20.4726
  12   2.0000      -0.675694       -18.3866
  13   2.0000      -0.590888       -16.0789
  14   2.0000      -0.581042       -15.8110
  15   2.0000      -0.545973       -14.8567
  16   2.0000      -0.508130       -13.8269
  17   2.0000      -0.497813       -13.5462
  18   2.0000      -0.448236       -12.1971
  19   2.0000      -0.359259        -9.7759
  20   0.0000       0.025238         0.6868
  21   0.0000       0.033063         0.8997
  22   0.0000       0.038970         1.0604
  23   0.0000       0.041342         1.1250
  24   0.0000       0.054057         1.4710

MULLIKEN ATOMIC CHARGES
-----------------------
   0 C :   -0.447569
   1 C :   -0.311043
   2 C :   -0.606534
   3 Cl:   -0.253603
   4 H :    0.444736
   5 H :    0.402476
   6 H :    0.313814
   7 H :    0.228861
   8 H :    0.228861
Sum of atomic charges:   -0.0000000

LOEWDIN ATOMIC CHARGES
----------------------
   0 C :   -0.376418
   1 C :    0.212243
   2 C :    0.843460
   3 Cl:    1.112123
   4 H :   -0.481688
   5 H :   -0.353216
   6 H :   -0.362693
   7 H :   -0.296906
   8 H :   -0.296906

  Mayer bond orders larger than 0.100000
B(  0-C ,  1-C ) :   1.7682 B(  0-C ,  3-Cl) :   0.8685 B(  0-C ,  4-H ) :   0.7770
B(  1-C ,  2-C ) :   0.8314 B(  1-C ,  5-H ) :   0.8147 B(  2-C ,  6-H ) :   0.9062
B(  2-C ,  7-H ) :   0.9738 B(  2-C ,  8-H ) :   0.9738

MP2 TOTAL ENERGY:     -576.812200137 Eh
FINAL SINGLE POINT ENERGY      -576.812200137107

DIPOLE MOMENT
-------------
                                X             Y             Z
Electronic contribution:      8.32527       1.00014      -0.00000
Nuclear contribution   :     -9.06975      -0.81376       0.00000
                        -----------------------------------------
Total Dipole Moment    :     -0.74448       0.18639      -0.00000
                        -----------------------------------------
Magnitude (a.u.)       :      0.76745
Magnitude (Debye)      :      1.95071

Rotational constants in cm-1:     0.481697     0.117478     0.096114
Rotational constants in MHz : 14440.899528  3521.900431  2881.411472

                             ****ORCA TERMINATED NORMALLY****
TOTAL RUN TIME: 0 days 0 hours 7 minutes 17 seconds 303 msec
