                         Program Version 5.0.4 -  RELEASE  -
|  1> !ri-mp2 aug-cc-pvqz aug-cc-pvqz/c tightscf
|  2> %pal nprocs 16 end
|  3>
|  4> * xyz 0 1
|  5> C     -0.795540   -1.498083    0.000000
|  6> F      0.356729   -2.191946    0.000000
|  7> H     -1.660114   -2.146002    0.000000
|  8> C     -0.829762   -0.177917    0.000000
|  9> H     -1.791395    0.315467    0.000000
| 10> C      0.375366    0.693448    0.000000
| 11> H      1.319452    0.152643    0.000000
| 12> F      0.356729    1.516706    1.098964
| 13> F      0.356729    1.516706   -1.098964
| 14> *
| 15>
| 16>                          ****END OF INPUT****

CARTESIAN COORDINATES (ANGSTROEM)
---------------------------------
  C     -0.795540   -1.498083    0.000000
  F      0.356729   -2.191946    0.000000
  H     -1.660114   -2.146002    0.000000
  C     -0.829762   -0.177917    0.000000
  H     -1.791395    0.315467    0.000000
  C      0.375366    0.693448    0.000000
  H      1.319452    0.152643    0.000000
  F      0.356729    1.516706    1.098964
  F      0.356729    1.516706   -1.098964

 Total Charge           Charge          ....    0
 Multiplicity           Mult            ....    1
 Number of Electrons    NEL             ....   48
 Basis Dimension        Dim             ....  618

ORBITAL ENERGIES
----------------

  NO   OCC          E(Eh)            E(eV)
   0   2.0000     -26.333164      -716.5618
   1   2.0000     -26.307660      -715.8678
   2   2.0000     -26.307642      -715.8673
   3   2.0000     -11.419223      -310.7328
   4   2.0000     -11.357061      -309.0413
   5   2.0000     -11.263415      -306.4931
   6   2.0000      -1.656037       -45.0631
   7   2.0000      -1.651528       -44.9404
   8   2.0000      -1.594895       -43.3993
   9   2.0000      -1.110444       -30.2167
  10   2.0000      -0.967676       -26.3318
  11   2.0000      -0.854036       -23.2395
  12   2.0000      -0.792896       -21.5758
  13   2.0000      -0.764953       -20.8154
  14   2.0000      -0.753700       -20.5092
  15   2.0000      -0.746869       -20.3233
  16   2.0000      -0.715466       -19.4688
  17   2.0000      -0.665802       -18.1174
  18   2.0000      -0.659055       -17.9338
  19   2.0000      -0.629266       -17.1232
  20   2.0000      -0.629023       -17.1166
  21   2.0000      -0.599048       -16.3009
  22   2.0000      -0.533460       -14.5162
  23   2.0000      -0.415227       -11.2989
  24   0.0000       0.022621         0.6156
  25   0.0000       0.035773         0.9734
  26   0.0000       0.036899         1.0041
  27   0.0000       0.066387         1.8065
  28   0.0000       0.070513         1.9188

MULLIKEN ATOMIC CHARGES
-----------------------
   0 C :    0.164866
   1 F :   -0.663138
   2 H :    0.527132
   3 C :   -0.575394
   4 H :    0.398130
   5 C :    1.028797
   6 H :    0.389601
   7 F :   -0.634997
   8 F :   -0.634997
Sum of atomic charges:    0.0000000

LOEWDIN ATOMIC CHARGES
----------------------
   0 C :   -0.211906
   1 F :    0.757879
   2 H :   -0.388516
   3 C :    0.231736
   4 H :   -0.370988
   5 C :   -1.086779
   6 H :   -0.425184
   7 F :    0.746878
   8 F :    0.746878

  Mayer bond orders larger than 0.100000
B(  0-C ,  1-F ) :   0.4523 B(  0-C ,  2-H ) :   0.7449 B(  0-C ,  3-C ) :   1.7460
B(  1-F ,  3-C ) :   0.1343 B(  3-C ,  4-H ) :   0.7999 B(  3-C ,  5-C ) :   0.9371
B(  5-C ,  6-H ) :   0.8149 B(  5-C ,  7-F ) :   0.4668 B(  5-C ,  8-F ) :   0.4668

MP2 TOTAL ENERGY:     -415.167014734 Eh
FINAL SINGLE POINT ENERGY      -415.167014734013

DIPOLE MOMENT
-------------
                                X             Y             Z
Electronic contribution:      2.37050       1.57558      -0.00000
Nuclear contribution   :     -2.99296      -2.35471       0.00000
                        -----------------------------------------
Total Dipole Moment    :     -0.62246      -0.77913      -0.00000
                        -----------------------------------------
Magnitude (a.u.)       :      0.99725
Magnitude (Debye)      :      2.53481

Rotational constants in cm-1:     0.227239     0.067708     0.063239
Rotational constants in MHz :  6812.448737  2029.827690  1895.867120

                             ****ORCA TERMINATED NORMALLY****
TOTAL RUN TIME: 0 days 0 hours 8 minutes 51 seconds 797 msec
