                         Program Version 5.0.4 -  RELEASE  -
|  1> !ri-mp2 aug-cc-pvqz aug-cc-pvqz/c tightscf
|  2> %pal nprocs 16 end
|  3>
|  4> * xyz 0 1
|  5> C     0.000000     0.665985    0.661718
|  6> C     0.000000    -0.665985    0.661718
|  7> C     0.000000     1.586665   -0.520621
|  8> C     0.000000    -1.586665   -0.520621
|  9> H     0.000000     1.161212    1.627911
| 10> H     0.000000    -1.161212    1.627911
| 11> H     0.000000     1.057812   -1.471692
| 12> H     0.000000    -1.057812   -1.471692
| 13> H    -0.875737     2.240903   -0.501401
| 14> H     0.875737     2.240903   -0.501401
| 15> H     0.875737    -2.240903   -0.501401
| 16> H    -0.875737    -2.240903   -0.501401
| 17> *
| 18>
| 19>                          ****END OF INPUT****

CARTESIAN COORDINATES (ANGSTROEM)
---------------------------------
  C      0.000000    0.665985    0.661718
  C      0.000000   -0.665985    0.661718
  C      0.000000    1.586665   -0.520621
  C      0.000000   -1.586665   -0.520621
  H      0.000000    1.161212    1.627911
  H      0.000000   -1.161212    1.627911
  H      0.000000    1.057812   -1.471692
  H      0.000000   -1.057812   -1.471692
  H     -0.875737    2.240903   -0.501401
  H      0.875737    2.240903   -0.501401
  H      0.875737   -2.240903   -0.501401
  H     -0.875737   -2.240903   -0.501401

 Total Charge           Charge          ....    0
 Multiplicity           Mult            ....    1
 Number of Electrons    NEL             ....   32
 Basis Dimension        Dim             ....  688

ORBITAL ENERGIES
----------------

  NO   OCC          E(Eh)            E(eV)
   0   2.0000     -11.221938      -305.3644
   1   2.0000     -11.220220      -305.3177
   2   2.0000     -11.216269      -305.2102
   3   2.0000     -11.216263      -305.2100
   4   2.0000      -1.076595       -29.2956
   5   2.0000      -0.978455       -26.6251
   6   2.0000      -0.894141       -24.3308
   7   2.0000      -0.720096       -19.5948
   8   2.0000      -0.652399       -17.7527
   9   2.0000      -0.571970       -15.5641
  10   2.0000      -0.570698       -15.5295
  11   2.0000      -0.552745       -15.0410
  12   2.0000      -0.535640       -14.5755
  13   2.0000      -0.512742       -13.9524
  14   2.0000      -0.471407       -12.8276
  15   2.0000      -0.342926        -9.3315
  16   0.0000       0.027728         0.7545
  17   0.0000       0.032646         0.8883
  18   0.0000       0.035391         0.9630
  19   0.0000       0.040480         1.1015
  20   0.0000       0.047537         1.2936

MULLIKEN ATOMIC CHARGES
-----------------------
   0 C :   -0.404026
   1 C :   -0.404026
   2 C :   -0.654234
   3 C :   -0.654234
   4 H :    0.321937
   5 H :    0.321937
   6 H :    0.269328
   7 H :    0.269328
   8 H :    0.233497
   9 H :    0.233497
  10 H :    0.233497
  11 H :    0.233497
Sum of atomic charges:    0.0000000

LOEWDIN ATOMIC CHARGES
----------------------
   0 C :    0.374848
   1 C :    0.374848
   2 C :    0.887021
   3 C :    0.887021
   4 H :   -0.342032
   5 H :   -0.342032
   6 H :   -0.333582
   7 H :   -0.333582
   8 H :   -0.293128
   9 H :   -0.293128
  10 H :   -0.293128
  11 H :   -0.293128

  Mayer bond orders larger than 0.100000
B(  0-C ,  1-C ) :   1.7264 B(  0-C ,  2-C ) :   0.7598 B(  0-C ,  4-H ) :   0.9314
B(  1-C ,  3-C ) :   0.7598 B(  1-C ,  5-H ) :   0.9314 B(  2-C ,  6-H ) :   0.9382
B(  2-C ,  8-H ) :   0.9818 B(  2-C ,  9-H ) :   0.9818 B(  3-C ,  7-H ) :   0.9382
B(  3-C , 10-H ) :   0.9818 B(  3-C , 11-H ) :   0.9818

MP2 TOTAL ENERGY:     -156.906763787 Eh
FINAL SINGLE POINT ENERGY      -156.906763787392

DIPOLE MOMENT
-------------
                                X             Y             Z
Electronic contribution:     -0.00000      -0.00000       1.71179
Nuclear contribution   :      0.00000       0.00000      -1.81358
                        -----------------------------------------
Total Dipole Moment    :     -0.00000      -0.00000      -0.10179
                        -----------------------------------------
Magnitude (a.u.)       :      0.10179
Magnitude (Debye)      :      0.25873

Rotational constants in cm-1:     0.547433     0.169519     0.135890
Rotational constants in MHz : 16411.624667  5082.057928  4073.884792

                             ****ORCA TERMINATED NORMALLY****
TOTAL RUN TIME: 0 days 0 hours 11 minutes 29 seconds 397 msec
