                         Program Version 5.0.4 -  RELEASE  -
|  1> !ri-mp2 aug-cc-pvqz aug-cc-pvqz/c tightscf
|  2> %pal nprocs 16 end
|  3>
|  4> * xyz 0 1
|  5> C      1.302290    0.615163   -0.139445
|  6> C      0.013355    0.809181    0.136131
|  7> C      2.074570   -0.668347   -0.088094
|  8> C     -2.202655   -0.271676   -0.404781
|  9> C     -1.010350   -0.203515    0.558717
| 10> H      1.881490    1.484329   -0.436504
| 11> H     -0.366648    1.822918    0.039577
| 12> H      2.535067   -0.880541   -1.056528
| 13> H      1.460917   -1.524351    0.185335
| 14> H      2.891800   -0.598640    0.634949
| 15> H     -2.954741   -0.977144   -0.048720
| 16> H     -1.884282   -0.587950   -1.398923
| 17> H     -2.681767    0.703860   -0.505963
| 18> H     -1.381230    0.065717    1.553563
| 19> H     -0.563862   -1.193034    0.658048
| 20> *
| 21>
| 22>                          ****END OF INPUT****

CARTESIAN COORDINATES (ANGSTROEM)
---------------------------------
  C      1.302290    0.615163   -0.139445
  C      0.013355    0.809181    0.136131
  C      2.074570   -0.668347   -0.088094
  C     -2.202655   -0.271676   -0.404781
  C     -1.010350   -0.203515    0.558717
  H      1.881490    1.484329   -0.436504
  H     -0.366648    1.822918    0.039577
  H      2.535067   -0.880541   -1.056528
  H      1.460917   -1.524351    0.185335
  H      2.891800   -0.598640    0.634949
  H     -2.954741   -0.977144   -0.048720
  H     -1.884282   -0.587950   -1.398923
  H     -2.681767    0.703860   -0.505963
  H     -1.381230    0.065717    1.553563
  H     -0.563862   -1.193034    0.658048

 Total Charge           Charge          ....    0
 Multiplicity           Mult            ....    1
 Number of Electrons    NEL             ....   40
 Basis Dimension        Dim             ....  860

ORBITAL ENERGIES
----------------

  NO   OCC          E(Eh)            E(eV)
   0   2.0000     -11.221662      -305.3570
   1   2.0000     -11.220898      -305.3362
   2   2.0000     -11.217987      -305.2569
   3   2.0000     -11.216295      -305.2109
   4   2.0000     -11.211777      -305.0880
   5   2.0000      -1.085061       -29.5260
   6   2.0000      -1.014931       -27.6177
   7   2.0000      -0.927930       -25.2503
   8   2.0000      -0.843440       -22.9512
   9   2.0000      -0.720082       -19.5944
  10   2.0000      -0.654348       -17.8057
  11   2.0000      -0.596011       -16.2183
  12   2.0000      -0.586777       -15.9670
  13   2.0000      -0.562664       -15.3109
  14   2.0000      -0.532035       -14.4774
  15   2.0000      -0.517995       -14.0954
  16   2.0000      -0.511903       -13.9296
  17   2.0000      -0.484343       -13.1796
  18   2.0000      -0.460390       -12.5278
  19   2.0000      -0.342611        -9.3229
  20   0.0000       0.027303         0.7429
  21   0.0000       0.031345         0.8529
  22   0.0000       0.033783         0.9193
  23   0.0000       0.036718         0.9992
  24   0.0000       0.046158         1.2560

MULLIKEN ATOMIC CHARGES
-----------------------
   0 C :   -0.398515
   1 C :   -0.421731
   2 C :   -0.724546
   3 C :   -0.835814
   4 C :   -0.278370
   5 H :    0.311892
   6 H :    0.284872
   7 H :    0.233368
   8 H :    0.239579
   9 H :    0.248065
  10 H :    0.277938
  11 H :    0.250229
  12 H :    0.230770
  13 H :    0.300109
  14 H :    0.282152
Sum of atomic charges:   -0.0000000

LOEWDIN ATOMIC CHARGES
----------------------
   0 C :    0.389679
   1 C :    0.376217
   2 C :    0.893248
   3 C :    0.920012
   4 C :    0.473686
   5 H :   -0.338071
   6 H :   -0.333470
   7 H :   -0.292604
   8 H :   -0.330307
   9 H :   -0.291739
  10 H :   -0.285578
  11 H :   -0.284160
  12 H :   -0.290577
  13 H :   -0.280612
  14 H :   -0.325725

  Mayer bond orders larger than 0.100000
B(  0-C ,  1-C ) :   1.7458 B(  0-C ,  2-C ) :   0.7944 B(  0-C ,  5-H ) :   0.9546
B(  1-C ,  4-C ) :   0.7334 B(  1-C ,  6-H ) :   0.9920 B(  2-C ,  7-H ) :   0.9756
B(  2-C ,  8-H ) :   0.9618 B(  2-C ,  9-H ) :   0.9793 B(  3-C ,  4-C ) :   1.0380
B(  3-C , 10-H ) :   0.9488 B(  3-C , 11-H ) :   0.9467 B(  3-C , 12-H ) :   0.9395
B(  4-C , 13-H ) :   0.8461 B(  4-C , 14-H ) :   0.8925

MP2 TOTAL ENERGY:     -196.142790786 Eh
FINAL SINGLE POINT ENERGY      -196.142790786310

DIPOLE MOMENT
-------------
                                X             Y             Z
Electronic contribution:      1.13746       1.69119       0.42972
Nuclear contribution   :     -1.13887      -1.80466      -0.40185
                        -----------------------------------------
Total Dipole Moment    :     -0.00141      -0.11347       0.02787
                        -----------------------------------------
Magnitude (a.u.)       :      0.11685
Magnitude (Debye)      :      0.29701

Rotational constants in cm-1:     0.378493     0.084991     0.077809
Rotational constants in MHz : 11346.945562  2547.969506  2332.644990

                             ****ORCA TERMINATED NORMALLY****
TOTAL RUN TIME: 0 days 0 hours 22 minutes 19 seconds 730 msec
