                         Program Version 5.0.4 -  RELEASE  -
|  1> !ri-mp2 aug-cc-pvqz aug-cc-pvqz/c tightscf
|  2> %pal nprocs 16 end
|  3>
|  4> * xyz 0 1
|  5> C      0.000000    0.674455    0.756935
|  6> C      0.000000   -0.674455    0.756935
|  7> C      0.000000    1.546499   -0.398566
|  8> C      0.000000   -1.546499   -0.398566
|  9> C      0.000000    2.881171   -0.319932
| 10> C      0.000000   -2.881171   -0.319932
| 11> H      0.000000    1.175747    1.719147
| 12> H      0.000000   -1.175747    1.719147
| 13> H      0.000000    1.087294   -1.380064
| 14> H      0.000000   -1.087294   -1.380064
| 15> H      0.000000    3.391009    0.635734
| 16> H      0.000000   -3.391009    0.635734
| 17> H      0.000000    3.500756   -1.205438
| 18> H      0.000000   -3.500756   -1.205438
| 19> *
| 20>
| 21>                          ****END OF INPUT****

CARTESIAN COORDINATES (ANGSTROEM)
---------------------------------
  C      0.000000    0.674455    0.756935
  C      0.000000   -0.674455    0.756935
  C      0.000000    1.546499   -0.398566
  C      0.000000   -1.546499   -0.398566
  C      0.000000    2.881171   -0.319932
  C      0.000000   -2.881171   -0.319932
  H      0.000000    1.175747    1.719147
  H      0.000000   -1.175747    1.719147
  H      0.000000    1.087294   -1.380064
  H      0.000000   -1.087294   -1.380064
  H      0.000000    3.391009    0.635734
  H      0.000000   -3.391009    0.635734
  H      0.000000    3.500756   -1.205438
  H      0.000000   -3.500756   -1.205438

 Total Charge           Charge          ....    0
 Multiplicity           Mult            ....    1
 Number of Electrons    NEL             ....   44
 Basis Dimension        Dim             ....  848

ORBITAL ENERGIES
----------------

  NO   OCC          E(Eh)            E(eV)
   0   2.0000     -11.239425      -305.8403
   1   2.0000     -11.239290      -305.8366
   2   2.0000     -11.238379      -305.8118
   3   2.0000     -11.236942      -305.7727
   4   2.0000     -11.230206      -305.5895
   5   2.0000     -11.230206      -305.5894
   6   2.0000      -1.112442       -30.2711
   7   2.0000      -1.058999       -28.8168
   8   2.0000      -0.986322       -26.8392
   9   2.0000      -0.846690       -23.0396
  10   2.0000      -0.796428       -21.6719
  11   2.0000      -0.728872       -19.8336
  12   2.0000      -0.675652       -18.3854
  13   2.0000      -0.636376       -17.3167
  14   2.0000      -0.601098       -16.3567
  15   2.0000      -0.567270       -15.4362
  16   2.0000      -0.548243       -14.9184
  17   2.0000      -0.528152       -14.3717
  18   2.0000      -0.482440       -13.1279
  19   2.0000      -0.469435       -12.7740
  20   2.0000      -0.397366       -10.8129
  21   2.0000      -0.297124        -8.0851
  22   0.0000       0.026926         0.7327
  23   0.0000       0.028163         0.7664
  24   0.0000       0.030855         0.8396
  25   0.0000       0.042487         1.1561
  26   0.0000       0.044684         1.2159

MULLIKEN ATOMIC CHARGES
-----------------------
   0 C :   -0.231244
   1 C :   -0.231252
   2 C :   -0.513437
   3 C :   -0.513414
   4 C :   -0.631089
   5 C :   -0.631100
   6 H :    0.319548
   7 H :    0.319540
   8 H :    0.399524
   9 H :    0.399512
  10 H :    0.348271
  11 H :    0.348270
  12 H :    0.308432
  13 H :    0.308439
Sum of atomic charges:   -0.0000000

LOEWDIN ATOMIC CHARGES
----------------------
   0 C :    0.330158
   1 C :    0.330158
   2 C :    0.312784
   3 C :    0.312784
   4 C :    0.794083
   5 C :    0.794083
   6 H :   -0.355360
   7 H :   -0.355360
   8 H :   -0.370418
   9 H :   -0.370418
  10 H :   -0.356697
  11 H :   -0.356697
  12 H :   -0.354551
  13 H :   -0.354551

  Mayer bond orders larger than 0.100000
B(  0-C ,  1-C ) :   1.4817 B(  0-C ,  2-C ) :   0.8540 B(  0-C ,  3-C ) :  -0.1348
B(  0-C ,  4-C ) :  -0.1957 B(  0-C ,  6-H ) :   0.9296 B(  0-C ,  7-H ) :  -0.1335
B(  1-C ,  2-C ) :  -0.1348 B(  1-C ,  3-C ) :   0.8540 B(  1-C ,  5-C ) :  -0.1957
B(  1-C ,  6-H ) :  -0.1335 B(  1-C ,  7-H ) :   0.9296 B(  2-C ,  4-C ) :   1.4675
B(  2-C ,  8-H ) :   0.8475 B(  2-C , 12-H ) :  -0.1413 B(  3-C ,  5-C ) :   1.4675
B(  3-C ,  9-H ) :   0.8475 B(  3-C , 13-H ) :  -0.1413 B(  4-C , 10-H ) :   0.9262
B(  4-C , 12-H ) :   1.0248 B(  5-C , 11-H ) :   0.9262 B(  5-C , 13-H ) :   1.0248

MP2 TOTAL ENERGY:     -232.938099880 Eh
FINAL SINGLE POINT ENERGY      -232.938099880458

DIPOLE MOMENT
-------------
                                X             Y             Z
Electronic contribution:     -0.00000       0.00000       0.46551
Nuclear contribution   :      0.00000       0.00000      -0.47566
                        -----------------------------------------
Total Dipole Moment    :     -0.00000       0.00000      -0.01015
                        -----------------------------------------
Magnitude (a.u.)       :      0.01015
Magnitude (Debye)      :      0.02581

Rotational constants in cm-1:     0.502049     0.052541     0.047563
Rotational constants in MHz : 15051.065257  1575.133428  1425.908379

                             ****ORCA TERMINATED NORMALLY****
TOTAL RUN TIME: 0 days 0 hours 24 minutes 11 seconds 53 msec
