                         Program Version 5.0.4 -  RELEASE  -
|  1> !ri-mp2 aug-cc-pvqz aug-cc-pvqz/c tightscf
|  2> %pal nprocs 16 end
|  3>
|  4> * xyz 0 1
|  5> C      1.701604   -1.275001   -0.436236
|  6> H      2.374174   -0.561889   -0.914203
|  7> H      2.313484   -2.070904   -0.008931
|  8> H      1.074007   -1.711323   -1.214157
|  9> C      0.842683   -0.605101    0.647356
| 10> H      1.502107   -0.227760    1.434975
| 11> H      0.212380   -1.360114    1.116333
| 12> C      0.743877    1.839260   -0.066279
| 13> H      0.096872    2.613381   -0.477032
| 14> H      1.149562    2.202250    0.882755
| 15> H      1.594614    1.719062   -0.742276
| 16> C     -2.193807   -0.745612   -0.035612
| 17> H     -3.043183   -0.530327    0.618671
| 18> H     -2.614514   -1.013203   -1.008980
| 19> H     -1.686431   -1.625328    0.355250
| 20> C      0.004778    0.540753    0.128637
| 21> C     -1.296904    0.449290   -0.156534
| 22> H     -1.786454    1.344617   -0.530396
| 23> *
| 24>
| 25>                          ****END OF INPUT****

CARTESIAN COORDINATES (ANGSTROEM)
---------------------------------
  C      1.701604   -1.275001   -0.436236
  H      2.374174   -0.561889   -0.914203
  H      2.313484   -2.070904   -0.008931
  H      1.074007   -1.711323   -1.214157
  C      0.842683   -0.605101    0.647356
  H      1.502107   -0.227760    1.434975
  H      0.212380   -1.360114    1.116333
  C      0.743877    1.839260   -0.066279
  H      0.096872    2.613381   -0.477032
  H      1.149562    2.202250    0.882755
  H      1.594614    1.719062   -0.742276
  C     -2.193807   -0.745612   -0.035612
  H     -3.043183   -0.530327    0.618671
  H     -2.614514   -1.013203   -1.008980
  H     -1.686431   -1.625328    0.355250
  C      0.004778    0.540753    0.128637
  C     -1.296904    0.449290   -0.156534
  H     -1.786454    1.344617   -0.530396

 Total Charge           Charge          ....    0
 Multiplicity           Mult            ....    1
 Number of Electrons    NEL             ....   48
 Basis Dimension        Dim             .... 1032

ORBITAL ENERGIES
----------------

  NO   OCC          E(Eh)            E(eV)
   0   2.0000     -11.224102      -305.4233
   1   2.0000     -11.218959      -305.2834
   2   2.0000     -11.213513      -305.1352
   3   2.0000     -11.212585      -305.1099
   4   2.0000     -11.212310      -305.1025
   5   2.0000     -11.211734      -305.0868
   6   2.0000      -1.100026       -29.9332
   7   2.0000      -1.011059       -27.5123
   8   2.0000      -0.975029       -26.5319
   9   2.0000      -0.882129       -24.0039
  10   2.0000      -0.844061       -22.9681
  11   2.0000      -0.698553       -19.0086
  12   2.0000      -0.640072       -17.4173
  13   2.0000      -0.604266       -16.4429
  14   2.0000      -0.583473       -15.8771
  15   2.0000      -0.569711       -15.5026
  16   2.0000      -0.554640       -15.0925
  17   2.0000      -0.539525       -14.6812
  18   2.0000      -0.518374       -14.1057
  19   2.0000      -0.509213       -13.8564
  20   2.0000      -0.503143       -13.6912
  21   2.0000      -0.478847       -13.0301
  22   2.0000      -0.451855       -12.2956
  23   2.0000      -0.330429        -8.9914
  24   0.0000       0.027176         0.7395
  25   0.0000       0.030656         0.8342
  26   0.0000       0.031724         0.8633
  27   0.0000       0.035146         0.9564
  28   0.0000       0.045045         1.2257

MULLIKEN ATOMIC CHARGES
-----------------------
   0 C :   -0.918272
   1 H :    0.226709
   2 H :    0.301025
   3 H :    0.247839
   4 C :   -0.261407
   5 H :    0.253327
   6 H :    0.280147
   7 C :   -0.875737
   8 H :    0.252173
   9 H :    0.271440
  10 H :    0.226730
  11 C :   -0.823836
  12 H :    0.265528
  13 H :    0.214290
  14 H :    0.250739
  15 C :    0.329909
  16 C :   -0.483422
  17 H :    0.242818
Sum of atomic charges:    0.0000000

LOEWDIN ATOMIC CHARGES
----------------------
   0 C :    0.934464
   1 H :   -0.292694
   2 H :   -0.279390
   3 H :   -0.278697
   4 C :    0.483777
   5 H :   -0.282650
   6 H :   -0.322584
   7 C :    0.891686
   8 H :   -0.311085
   9 H :   -0.279474
  10 H :   -0.290286
  11 C :    0.904158
  12 H :   -0.288296
  13 H :   -0.289141
  14 H :   -0.331463
  15 C :   -0.025140
  16 C :    0.394903
  17 H :   -0.338087

  Mayer bond orders larger than 0.100000
B(  0-C ,  1-H ) :   0.9683 B(  0-C ,  2-H ) :   0.9414 B(  0-C ,  3-H ) :   0.9589
B(  0-C ,  4-C ) :   0.9686 B(  4-C ,  5-H ) :   0.9437 B(  4-C ,  6-H ) :   0.9113
B(  4-C , 15-C ) :   0.6111 B(  7-C ,  8-H ) :   1.0274 B(  7-C ,  9-H ) :   0.9760
B(  7-C , 10-H ) :   1.0302 B(  7-C , 15-C ) :   0.7077 B( 11-C , 12-H ) :   0.9936
B( 11-C , 13-H ) :   1.0271 B( 11-C , 14-H ) :   0.9454 B( 11-C , 16-C ) :   0.8423
B( 15-C , 16-C ) :   1.5017 B( 16-C , 17-H ) :   1.0263

MP2 TOTAL ENERGY:     -235.384195372 Eh
FINAL SINGLE POINT ENERGY      -235.384195372349

DIPOLE MOMENT
-------------
                                X             Y             Z
Electronic contribution:     -1.20719       1.24559       0.54904
Nuclear contribution   :      1.27101      -1.30841      -0.52270
                        -----------------------------------------
Total Dipole Moment    :      0.06381      -0.06282       0.02635
                        -----------------------------------------
Magnitude (a.u.)       :      0.09334
Magnitude (Debye)      :      0.23726

Rotational constants in cm-1:     0.135827     0.090787     0.061092
Rotational constants in MHz :  4072.001697  2721.716757  1831.498979

                             ****ORCA TERMINATED NORMALLY****
TOTAL RUN TIME: 0 days 0 hours 43 minutes 41 seconds 46 msec
