                         Program Version 5.0.4 -  RELEASE  -
|  1> !ri-mp2 aug-cc-pvqz aug-cc-pvqz/c tightscf
|  2> %pal nprocs 16 end
|  3>
|  4> * xyz 0 1
|  5> C     -0.894816   -0.631696    0.000000
|  6> H     -0.633553   -1.676755    0.000000
|  7> F     -2.212388   -0.376299    0.000000
|  8> C      0.000000    0.341550    0.000000
|  9> F     -0.371902    1.637064    0.000000
| 10> C      1.486201    0.188572    0.000000
| 11> F      1.834576   -1.152835    0.000000
| 12> H      1.916333    0.657416    0.888334
| 13> H      1.916333    0.657416   -0.888334
| 14> *
| 15>
| 16>                          ****END OF INPUT****

CARTESIAN COORDINATES (ANGSTROEM)
---------------------------------
  C     -0.894816   -0.631696    0.000000
  H     -0.633553   -1.676755    0.000000
  F     -2.212388   -0.376299    0.000000
  C      0.000000    0.341550    0.000000
  F     -0.371902    1.637064    0.000000
  C      1.486201    0.188572    0.000000
  F      1.834576   -1.152835    0.000000
  H      1.916333    0.657416    0.888334
  H      1.916333    0.657416   -0.888334

 Total Charge           Charge          ....    0
 Multiplicity           Mult            ....    1
 Number of Electrons    NEL             ....   48
 Basis Dimension        Dim             ....  618

ORBITAL ENERGIES
----------------

  NO   OCC          E(Eh)            E(eV)
   0   2.0000     -26.329330      -716.4575
   1   2.0000     -26.319587      -716.1924
   2   2.0000     -26.307277      -715.8574
   3   2.0000     -11.347739      -308.7877
   4   2.0000     -11.345427      -308.7248
   5   2.0000     -11.334403      -308.4248
   6   2.0000      -1.650537       -44.9134
   7   2.0000      -1.633094       -44.4388
   8   2.0000      -1.618681       -44.0465
   9   2.0000      -1.100045       -29.9337
  10   2.0000      -0.987215       -26.8635
  11   2.0000      -0.843782       -22.9605
  12   2.0000      -0.777676       -21.1616
  13   2.0000      -0.770023       -20.9534
  14   2.0000      -0.744041       -20.2464
  15   2.0000      -0.711758       -19.3679
  16   2.0000      -0.706458       -19.2237
  17   2.0000      -0.703505       -19.1433
  18   2.0000      -0.692775       -18.8514
  19   2.0000      -0.663221       -18.0472
  20   2.0000      -0.607471       -16.5301
  21   2.0000      -0.567956       -15.4549
  22   2.0000      -0.556263       -15.1367
  23   2.0000      -0.389238       -10.5917
  24   0.0000       0.025616         0.6970
  25   0.0000       0.033873         0.9217
  26   0.0000       0.037781         1.0281
  27   0.0000       0.054033         1.4703
  28   0.0000       0.073609         2.0030

MULLIKEN ATOMIC CHARGES
-----------------------
   0 C :    0.292159
   1 H :    0.430552
   2 F :   -0.664787
   3 C :    0.405060
   4 F :   -0.653762
   5 C :    0.235601
   6 F :   -0.660870
   7 H :    0.308023
   8 H :    0.308023
Sum of atomic charges:    0.0000000

LOEWDIN ATOMIC CHARGES
----------------------
   0 C :   -0.286916
   1 H :   -0.419964
   2 F :    0.733207
   3 C :   -0.745670
   4 F :    0.761914
   5 C :   -0.120771
   6 F :    0.773517
   7 H :   -0.347659
   8 H :   -0.347659

  Mayer bond orders larger than 0.100000
B(  0-C ,  1-H ) :   0.8034 B(  0-C ,  2-F ) :   0.4964 B(  0-C ,  3-C ) :   1.8699
B(  0-C ,  4-F ) :   0.1020 B(  3-C ,  4-F ) :   0.3517 B(  3-C ,  5-C ) :   0.9284
B(  5-C ,  6-F ) :   0.5147 B(  5-C ,  7-H ) :   0.8835 B(  5-C ,  8-H ) :   0.8835

MP2 TOTAL ENERGY:     -415.146740846 Eh
FINAL SINGLE POINT ENERGY      -415.146740845519

DIPOLE MOMENT
-------------
                                X             Y             Z
Electronic contribution:     -3.00481       0.43782       0.00000
Nuclear contribution   :      3.69739      -0.43972       0.00000
                        -----------------------------------------
Total Dipole Moment    :      0.69259      -0.00190       0.00000
                        -----------------------------------------
Magnitude (a.u.)       :      0.69259
Magnitude (Debye)      :      1.76042

Rotational constants in cm-1:     0.194608     0.080624     0.057627
Rotational constants in MHz :  5834.207822  2417.059931  1727.614644

                             ****ORCA TERMINATED NORMALLY****
TOTAL RUN TIME: 0 days 0 hours 8 minutes 31 seconds 569 msec
