                         Program Version 5.0.4 -  RELEASE  -
|  1> !ri-mp2 aug-cc-pvqz aug-cc-pvqz/c tightscf
|  2> %pal nprocs 16 end
|  3>
|  4> * xyz 0 1
|  5> H      3.165275   -0.906366    0.000000
|  6> C      2.248373   -0.372188    0.000000
|  7> C      1.205752    0.228394    0.000000
|  8> H      0.114647    2.056770    0.000000
|  9> C      0.000000    0.978779    0.000000
| 10> H     -2.064969    1.154769    0.000000
| 11> C     -1.233830    0.458318    0.000000
| 12> H     -0.691320   -1.620929    0.000000
| 13> H     -2.183701   -1.244462    0.875775
| 14> H     -2.183701   -1.244462   -0.875775
| 15> C     -1.579666   -0.992523    0.000000
| 16> *
| 17>
| 18>                          ****END OF INPUT****

CARTESIAN COORDINATES (ANGSTROEM)
---------------------------------
  H      3.165275   -0.906366    0.000000
  C      2.248373   -0.372188    0.000000
  C      1.205752    0.228394    0.000000
  H      0.114647    2.056770    0.000000
  C      0.000000    0.978779    0.000000
  H     -2.064969    1.154769    0.000000
  C     -1.233830    0.458318    0.000000
  H     -0.691320   -1.620929    0.000000
  H     -2.183701   -1.244462    0.875775
  H     -2.183701   -1.244462   -0.875775
  C     -1.579666   -0.992523    0.000000

 Total Charge           Charge          ....    0
 Multiplicity           Mult            ....    1
 Number of Electrons    NEL             ....   36
 Basis Dimension        Dim             ....  676

ORBITAL ENERGIES
----------------

  NO   OCC          E(Eh)            E(eV)
   0   2.0000     -11.251947      -306.1811
   1   2.0000     -11.247451      -306.0587
   2   2.0000     -11.234825      -305.7151
   3   2.0000     -11.225818      -305.4700
   4   2.0000     -11.223604      -305.4098
   5   2.0000      -1.103105       -30.0170
   6   2.0000      -1.021778       -27.8040
   7   2.0000      -0.948722       -25.8160
   8   2.0000      -0.810202       -22.0467
   9   2.0000      -0.709049       -19.2942
  10   2.0000      -0.665212       -18.1013
  11   2.0000      -0.629867       -17.1396
  12   2.0000      -0.575417       -15.6579
  13   2.0000      -0.537300       -14.6207
  14   2.0000      -0.517617       -14.0851
  15   2.0000      -0.454986       -12.3808
  16   2.0000      -0.392910       -10.6916
  17   2.0000      -0.332989        -9.0611
  18   0.0000       0.025699         0.6993
  19   0.0000       0.029505         0.8029
  20   0.0000       0.033578         0.9137
  21   0.0000       0.042241         1.1494
  22   0.0000       0.044071         1.1992

MULLIKEN ATOMIC CHARGES
-----------------------
   0 H :    0.475877
   1 C :   -0.738762
   2 C :   -0.057654
   3 H :    0.417140
   4 C :   -0.324542
   5 H :    0.401083
   6 C :   -0.298491
   7 H :    0.315811
   8 H :    0.230933
   9 H :    0.230933
  10 C :   -0.652327
Sum of atomic charges:   -0.0000000

LOEWDIN ATOMIC CHARGES
----------------------
   0 H :   -0.463828
   1 C :    0.564122
   2 C :    0.016174
   3 H :   -0.372414
   4 C :    0.252422
   5 H :   -0.326105
   6 C :    0.349457
   7 H :   -0.328223
   8 H :   -0.289778
   9 H :   -0.289778
  10 C :    0.887953

  Mayer bond orders larger than 0.100000
B(  0-H ,  1-C ) :   0.8848 B(  1-C ,  2-C ) :   2.7248 B(  1-C ,  4-C ) :  -0.2636
B(  2-C ,  4-C ) :   0.9420 B(  2-C ,  6-C ) :  -0.1728 B(  3-H ,  4-C ) :   0.8258
B(  4-C ,  6-C ) :   1.6756 B(  5-H ,  6-C ) :   0.8464 B(  6-C , 10-C ) :   0.7975
B(  7-H , 10-C ) :   0.9056 B(  8-H , 10-C ) :   0.9708 B(  9-H , 10-C ) :   0.9708

MP2 TOTAL ENERGY:     -193.682986860 Eh
FINAL SINGLE POINT ENERGY      -193.682986860452

DIPOLE MOMENT
-------------
                                X             Y             Z
Electronic contribution:      3.55093       1.75140       0.00000
Nuclear contribution   :     -3.93144      -1.84584       0.00000
                        -----------------------------------------
Total Dipole Moment    :     -0.38050      -0.09444       0.00000
                        -----------------------------------------
Magnitude (a.u.)       :      0.39205
Magnitude (Debye)      :      0.99650

Rotational constants in cm-1:     0.406735     0.110413     0.088245
Rotational constants in MHz : 12193.597472  3310.107968  2645.529977

                             ****ORCA TERMINATED NORMALLY****
TOTAL RUN TIME: 0 days 0 hours 12 minutes 29 seconds 745 msec
