                         Program Version 5.0.4 -  RELEASE  -
|  1> !ri-mp2 aug-cc-pvqz aug-cc-pvqz/c tightscf
|  2> %pal nprocs 16 end
|  3>
|  4> * xyz 0 1
|  5> C      0.000000    0.661946    0.959662
|  6> C      0.000000   -0.661946    0.959662
|  7> Cl     0.000000    1.660082   -0.449807
|  8> Cl     0.000000   -1.660082   -0.449807
|  9> H      0.000000    1.210752    1.888744
| 10> H      0.000000   -1.210752    1.888744
| 11> *
| 12>
| 13>                          ****END OF INPUT****

CARTESIAN COORDINATES (ANGSTROEM)
---------------------------------
  C      0.000000    0.661946    0.959662
  C      0.000000   -0.661946    0.959662
  Cl     0.000000    1.660082   -0.449807
  Cl     0.000000   -1.660082   -0.449807
  H      0.000000    1.210752    1.888744
  H      0.000000   -1.210752    1.888744

 Total Charge           Charge          ....    0
 Multiplicity           Mult            ....    1
 Number of Electrons    NEL             ....   48
 Basis Dimension        Dim             ....  420

ORBITAL ENERGIES
----------------

  NO   OCC          E(Eh)            E(eV)
   0   2.0000    -104.853234     -2853.2015
   1   2.0000    -104.853234     -2853.2015
   2   2.0000     -11.316531      -307.9385
   3   2.0000     -11.314740      -307.8897
   4   2.0000     -10.578345      -287.8514
   5   2.0000     -10.578343      -287.8513
   6   2.0000      -8.045504      -218.9293
   7   2.0000      -8.045502      -218.9293
   8   2.0000      -8.043667      -218.8793
   9   2.0000      -8.043666      -218.8793
  10   2.0000      -8.043645      -218.8787
  11   2.0000      -8.043645      -218.8787
  12   2.0000      -1.193894       -32.4875
  13   2.0000      -1.133997       -30.8576
  14   2.0000      -1.003333       -27.3021
  15   2.0000      -0.784186       -21.3388
  16   2.0000      -0.700259       -19.0550
  17   2.0000      -0.617760       -16.8101
  18   2.0000      -0.551041       -14.9946
  19   2.0000      -0.548059       -14.9134
  20   2.0000      -0.489300       -13.3145
  21   2.0000      -0.472328       -12.8527
  22   2.0000      -0.458362       -12.4727
  23   2.0000      -0.370488       -10.0815
  24   0.0000       0.024422         0.6645
  25   0.0000       0.035324         0.9612
  26   0.0000       0.052186         1.4201
  27   0.0000       0.068524         1.8646
  28   0.0000       0.078551         2.1375

MULLIKEN ATOMIC CHARGES
-----------------------
   0 C :   -0.332900
   1 C :   -0.332900
   2 Cl:   -0.102666
   3 Cl:   -0.102666
   4 H :    0.435566
   5 H :    0.435566
Sum of atomic charges:   -0.0000000

LOEWDIN ATOMIC CHARGES
----------------------
   0 C :   -0.596792
   1 C :   -0.596792
   2 Cl:    1.095232
   3 Cl:    1.095232
   4 H :   -0.498440
   5 H :   -0.498440

  Mayer bond orders larger than 0.100000
B(  0-C ,  1-C ) :   1.7124 B(  0-C ,  2-Cl) :   0.9649 B(  0-C ,  4-H ) :   0.7651
B(  1-C ,  3-Cl) :   0.9649 B(  1-C ,  5-H ) :   0.7651

MP2 TOTAL ENERGY:     -996.710716019 Eh
FINAL SINGLE POINT ENERGY      -996.710716019277

DIPOLE MOMENT
-------------
                                X             Y             Z
Electronic contribution:     -0.00000      -0.00000      -3.86691
Nuclear contribution   :      0.00000       0.00000       4.70946
                        -----------------------------------------
Total Dipole Moment    :     -0.00000      -0.00000       0.84255
                        -----------------------------------------
Magnitude (a.u.)       :      0.84255
Magnitude (Debye)      :      2.14159

Rotational constants in cm-1:     0.388428     0.080701     0.066819
Rotational constants in MHz : 11644.769661  2419.369107  2003.179607

                             ****ORCA TERMINATED NORMALLY****
TOTAL RUN TIME: 0 days 0 hours 2 minutes 57 seconds 832 msec
