                         Program Version 5.0.4 -  RELEASE  -
|  1> !ri-mp2 aug-cc-pvqz aug-cc-pvqz/c tightscf
|  2> %pal nprocs 16 end
|  3>
|  4> * xyz 0 1
|  5> C     -1.951735   -0.180434    0.100405
|  6> C     -0.883932    0.542857   -0.210248
|  7> C      1.381983   -0.094680    0.182826
|  8> C     -2.041959   -1.672002    0.148175
|  9> C     -0.803865    2.031933   -0.270242
| 10> C      2.547078   -0.777270   -0.480474
| 11> O      1.391725    0.406289    1.275264
| 12> O      0.290604   -0.118487   -0.630137
| 13> H     -2.849211    0.374513    0.346595
| 14> H     -2.835495   -2.034166   -0.509960
| 15> H     -1.110051   -2.145591   -0.151752
| 16> H     -2.289315   -2.012966    1.156589
| 17> H     -1.765809    2.473463   -0.017477
| 18> H     -0.524541    2.360081   -1.274356
| 19> H     -0.054472    2.408994    0.426265
| 20> H      2.828171   -0.232808   -1.382252
| 21> H      2.270172   -1.786382   -0.783928
| 22> H      3.386497   -0.809977    0.206602
| 23> *
| 24>
| 25>                          ****END OF INPUT****

CARTESIAN COORDINATES (ANGSTROEM)
---------------------------------
  C     -1.951735   -0.180434    0.100405
  C     -0.883932    0.542857   -0.210248
  C      1.381983   -0.094680    0.182826
  C     -2.041959   -1.672002    0.148175
  C     -0.803865    2.031933   -0.270242
  C      2.547078   -0.777270   -0.480474
  O      1.391725    0.406289    1.275264
  O      0.290604   -0.118487   -0.630137
  H     -2.849211    0.374513    0.346595
  H     -2.835495   -2.034166   -0.509960
  H     -1.110051   -2.145591   -0.151752
  H     -2.289315   -2.012966    1.156589
  H     -1.765809    2.473463   -0.017477
  H     -0.524541    2.360081   -1.274356
  H     -0.054472    2.408994    0.426265
  H      2.828171   -0.232808   -1.382252
  H      2.270172   -1.786382   -0.783928
  H      3.386497   -0.809977    0.206602

 Total Charge           Charge          ....    0
 Multiplicity           Mult            ....    1
 Number of Electrons    NEL             ....   62
 Basis Dimension        Dim             .... 1100

ORBITAL ENERGIES
----------------

  NO   OCC          E(Eh)            E(eV)
   0   2.0000     -20.603164      -560.6406
   1   2.0000     -20.544918      -559.0556
   2   2.0000     -11.384289      -309.7823
   3   2.0000     -11.292376      -307.2812
   4   2.0000     -11.242229      -305.9166
   5   2.0000     -11.226462      -305.4876
   6   2.0000     -11.223052      -305.3948
   7   2.0000     -11.220878      -305.3356
   8   2.0000      -1.462394       -39.7938
   9   2.0000      -1.366121       -37.1740
  10   2.0000      -1.090609       -29.6770
  11   2.0000      -1.020038       -27.7566
  12   2.0000      -0.993078       -27.0230
  13   2.0000      -0.899020       -24.4636
  14   2.0000      -0.829784       -22.5796
  15   2.0000      -0.715819       -19.4784
  16   2.0000      -0.689118       -18.7519
  17   2.0000      -0.677774       -18.4432
  18   2.0000      -0.652061       -17.7435
  19   2.0000      -0.613883       -16.7046
  20   2.0000      -0.594884       -16.1876
  21   2.0000      -0.583340       -15.8735
  22   2.0000      -0.569094       -15.4858
  23   2.0000      -0.561004       -15.2657
  24   2.0000      -0.552606       -15.0372
  25   2.0000      -0.532399       -14.4873
  26   2.0000      -0.523972       -14.2580
  27   2.0000      -0.506457       -13.7814
  28   2.0000      -0.469034       -12.7631
  29   2.0000      -0.453106       -12.3296
  30   2.0000      -0.349150        -9.5009
  31   0.0000       0.024774         0.6741
  32   0.0000       0.029146         0.7931
  33   0.0000       0.030411         0.8275
  34   0.0000       0.038254         1.0409
  35   0.0000       0.044739         1.2174

MULLIKEN ATOMIC CHARGES
-----------------------
   0 C :   -0.322356
   1 C :    0.539706
   2 C :    0.957336
   3 C :   -0.774772
   4 C :   -0.812523
   5 C :   -0.775311
   6 O :   -0.796626
   7 O :   -0.742575
   8 H :    0.276638
   9 H :    0.253968
  10 H :    0.264460
  11 H :    0.235158
  12 H :    0.243384
  13 H :    0.264597
  14 H :    0.276708
  15 H :    0.292378
  16 H :    0.285545
  17 H :    0.334288
Sum of atomic charges:    0.0000000

LOEWDIN ATOMIC CHARGES
----------------------
   0 C :    0.359367
   1 C :   -0.417423
   2 C :   -1.058956
   3 C :    0.894815
   4 C :    0.880262
   5 C :    0.875682
   6 O :    0.719263
   7 O :    0.826962
   8 H :   -0.338619
   9 H :   -0.293638
  10 H :   -0.324845
  11 H :   -0.291887
  12 H :   -0.309996
  13 H :   -0.285441
  14 H :   -0.315887
  15 H :   -0.297633
  16 H :   -0.301195
  17 H :   -0.320830

  Mayer bond orders larger than 0.100000
B(  0-C ,  1-C ) :   1.4049 B(  0-C ,  3-C ) :   0.8505 B(  0-C ,  8-H ) :   0.9982
B(  1-C ,  4-C ) :   0.7000 B(  1-C ,  7-O ) :   0.3597 B(  2-C ,  5-C ) :   0.9103
B(  2-C ,  6-O ) :   1.3451 B(  2-C ,  7-O ) :   0.9294 B(  3-C ,  9-H ) :   0.9843
B(  3-C , 10-H ) :   0.9191 B(  3-C , 11-H ) :   0.9988 B(  4-C , 12-H ) :   1.0236
B(  4-C , 13-H ) :   0.9585 B(  4-C , 14-H ) :   0.9614 B(  5-C , 15-H ) :   0.9047
B(  5-C , 16-H ) :   0.9328 B(  5-C , 17-H ) :   0.9412

MP2 TOTAL ENERGY:     -384.498776822 Eh
FINAL SINGLE POINT ENERGY      -384.498776822010

DIPOLE MOMENT
-------------
                                X             Y             Z
Electronic contribution:      2.89141       1.15436       1.27768
Nuclear contribution   :     -2.97623      -1.42848      -2.01321
                        -----------------------------------------
Total Dipole Moment    :     -0.08482      -0.27412      -0.73553
                        -----------------------------------------
Magnitude (a.u.)       :      0.78952
Magnitude (Debye)      :      2.00680

Rotational constants in cm-1:     0.096211     0.049490     0.039273
Rotational constants in MHz :  2884.323443  1483.674810  1177.372395

                             ****ORCA TERMINATED NORMALLY****
TOTAL RUN TIME: 0 days 1 hours 0 minutes 4 seconds 91 msec
