                         Program Version 5.0.4 -  RELEASE  -
|  1> !ri-mp2 aug-cc-pvqz aug-cc-pvqz/c tightscf
|  2> %pal nprocs 16 end
|  3>
|  4> * xyz 0 1
|  5> N     -0.000879    0.657327   -0.156908
|  6> N      0.000879   -0.657327   -0.156908
|  7> O      0.011007    1.297461   -1.232955
|  8> O     -0.011007   -1.297461   -1.232955
|  9> C      0.000879    1.397974    1.121153
| 10> C     -0.000879   -1.397974    1.121153
| 11> H     -0.261515    2.413654    0.851840
| 12> H     -0.729762    0.994639    1.816917
| 13> H      0.995166    1.380452    1.566321
| 14> H      0.261515   -2.413654    0.851840
| 15> H      0.729762   -0.994639    1.816917
| 16> H     -0.995166   -1.380452    1.566321
| 17> *
| 18>
| 19>                          ****END OF INPUT****

CARTESIAN COORDINATES (ANGSTROEM)
---------------------------------
  N     -0.000879    0.657327   -0.156908
  N      0.000879   -0.657327   -0.156908
  O      0.011007    1.297461   -1.232955
  O     -0.011007   -1.297461   -1.232955
  C      0.000879    1.397974    1.121153
  C     -0.000879   -1.397974    1.121153
  H     -0.261515    2.413654    0.851840
  H     -0.729762    0.994639    1.816917
  H      0.995166    1.380452    1.566321
  H      0.261515   -2.413654    0.851840
  H      0.729762   -0.994639    1.816917
  H     -0.995166   -1.380452    1.566321

 Total Charge           Charge          ....    0
 Multiplicity           Mult            ....    1
 Number of Electrons    NEL             ....   48
 Basis Dimension        Dim             ....  756

ORBITAL ENERGIES
----------------

  NO   OCC          E(Eh)            E(eV)
   0   2.0000     -20.543361      -559.0133
   1   2.0000     -20.543358      -559.0132
   2   2.0000     -15.771767      -429.1716
   3   2.0000     -15.770851      -429.1467
   4   2.0000     -11.312837      -307.8379
   5   2.0000     -11.312832      -307.8378
   6   2.0000      -1.546957       -42.0948
   7   2.0000      -1.422595       -38.7108
   8   2.0000      -1.223232       -33.2858
   9   2.0000      -1.072227       -29.1768
  10   2.0000      -1.032642       -28.0996
  11   2.0000      -0.816902       -22.2290
  12   2.0000      -0.775623       -21.1058
  13   2.0000      -0.746069       -20.3016
  14   2.0000      -0.706927       -19.2365
  15   2.0000      -0.641990       -17.4694
  16   2.0000      -0.623218       -16.9586
  17   2.0000      -0.622241       -16.9320
  18   2.0000      -0.613519       -16.6947
  19   2.0000      -0.601410       -16.3652
  20   2.0000      -0.514434       -13.9985
  21   2.0000      -0.454380       -12.3643
  22   2.0000      -0.449307       -12.2263
  23   2.0000      -0.320121        -8.7109
  24   0.0000       0.011067         0.3012
  25   0.0000       0.026887         0.7316
  26   0.0000       0.028184         0.7669
  27   0.0000       0.040542         1.1032
  28   0.0000       0.047774         1.3000

MULLIKEN ATOMIC CHARGES
-----------------------
   0 N :    0.582970
   1 N :    0.582970
   2 O :   -0.803053
   3 O :   -0.803053
   4 C :   -0.797551
   5 C :   -0.797551
   6 H :    0.416609
   7 H :    0.273857
   8 H :    0.327168
   9 H :    0.416609
  10 H :    0.273857
  11 H :    0.327168
Sum of atomic charges:   -0.0000000

LOEWDIN ATOMIC CHARGES
----------------------
   0 N :   -0.381738
   1 N :   -0.381738
   2 O :    0.502818
   3 O :    0.502818
   4 C :    0.776353
   5 C :    0.776353
   6 H :   -0.320812
   7 H :   -0.304388
   8 H :   -0.272234
   9 H :   -0.320812
  10 H :   -0.304388
  11 H :   -0.272234

  Mayer bond orders larger than 0.100000
B(  0-N ,  1-N ) :   1.3147 B(  0-N ,  2-O ) :   0.8095 B(  0-N ,  3-O ) :   0.2816
B(  0-N ,  4-C ) :   0.7469 B(  1-N ,  2-O ) :   0.2816 B(  1-N ,  3-O ) :   0.8095
B(  1-N ,  5-C ) :   0.7469 B(  4-C ,  6-H ) :   0.8350 B(  4-C ,  7-H ) :   0.9524
B(  4-C ,  8-H ) :   0.9097 B(  5-C ,  9-H ) :   0.8350 B(  5-C , 10-H ) :   0.9524
B(  5-C , 11-H ) :   0.9097

MP2 TOTAL ENERGY:     -339.162786127 Eh
FINAL SINGLE POINT ENERGY      -339.162786127026

DIPOLE MOMENT
-------------
                                X             Y             Z
Electronic contribution:      0.00000       0.00000      -5.33131
Nuclear contribution   :      0.00000       0.00000       8.43557
                        -----------------------------------------
Total Dipole Moment    :      0.00000       0.00000       3.10426
                        -----------------------------------------
Magnitude (a.u.)       :      3.10426
Magnitude (Debye)      :      7.89041

Rotational constants in cm-1:     0.177407     0.126076     0.075829
Rotational constants in MHz :  5318.520507  3779.678112  2273.286451

                             ****ORCA TERMINATED NORMALLY****
TOTAL RUN TIME: 0 days 0 hours 15 minutes 13 seconds 611 msec
