                         Program Version 5.0.4 -  RELEASE  -
|  1> !ri-mp2 aug-cc-pvqz aug-cc-pvqz/c tightscf
|  2> %pal nprocs 16 end
|  3>
|  4> * xyz 0 1
|  5> F     2.712836   -0.183297   -0.382192
|  6> F    -0.780636    1.809141   -0.002362
|  7> N     0.499090   -1.575311    0.231574
|  8> N    -3.035226   -0.748871   -0.138204
|  9> C     0.398551   -0.217436    0.121358
| 10> C     1.691625    0.542189    0.236949
| 11> C    -0.771372    0.445989    0.008802
| 12> C    -2.034053   -0.175673   -0.069809
| 13> H     1.624059    1.515903   -0.239488
| 14> H     1.970850    0.661136    1.285812
| 15> H     1.376086   -1.979329   -0.052815
| 16> H    -0.316350   -2.131455    0.030091
| 17> *
| 18>
| 19>                          ****END OF INPUT****

CARTESIAN COORDINATES (ANGSTROEM)
---------------------------------
  F      2.712836   -0.183297   -0.382192
  F     -0.780636    1.809141   -0.002362
  N      0.499090   -1.575311    0.231574
  N     -3.035226   -0.748871   -0.138204
  C      0.398551   -0.217436    0.121358
  C      1.691625    0.542189    0.236949
  C     -0.771372    0.445989    0.008802
  C     -2.034053   -0.175673   -0.069809
  H      1.624059    1.515903   -0.239488
  H      1.970850    0.661136    1.285812
  H      1.376086   -1.979329   -0.052815
  H     -0.316350   -2.131455    0.030091

 Total Charge           Charge          ....    0
 Multiplicity           Mult            ....    1
 Number of Electrons    NEL             ....   60
 Basis Dimension        Dim             ....  824

ORBITAL ENERGIES
----------------

  NO   OCC          E(Eh)            E(eV)
   0   2.0000     -26.327409      -716.4052
   1   2.0000     -26.315321      -716.0763
   2   2.0000     -15.608670      -424.7335
   3   2.0000     -15.586935      -424.1421
   4   2.0000     -11.355365      -308.9952
   5   2.0000     -11.350413      -308.8604
   6   2.0000     -11.343725      -308.6784
   7   2.0000     -11.289770      -307.2103
   8   2.0000      -1.641605       -44.6703
   9   2.0000      -1.625219       -44.2245
  10   2.0000      -1.278716       -34.7956
  11   2.0000      -1.233067       -33.5535
  12   2.0000      -1.087801       -29.6006
  13   2.0000      -1.011737       -27.5308
  14   2.0000      -0.870689       -23.6926
  15   2.0000      -0.798777       -21.7358
  16   2.0000      -0.785831       -21.3836
  17   2.0000      -0.742759       -20.2115
  18   2.0000      -0.718571       -19.5533
  19   2.0000      -0.716014       -19.4837
  20   2.0000      -0.705946       -19.2098
  21   2.0000      -0.682093       -18.5607
  22   2.0000      -0.648505       -17.6467
  23   2.0000      -0.587182       -15.9780
  24   2.0000      -0.584086       -15.8938
  25   2.0000      -0.563525       -15.3343
  26   2.0000      -0.544360       -14.8128
  27   2.0000      -0.501812       -13.6550
  28   2.0000      -0.489028       -13.3071
  29   2.0000      -0.352162        -9.5828
  30   0.0000       0.019880         0.5410
  31   0.0000       0.028895         0.7863
  32   0.0000       0.036424         0.9911
  33   0.0000       0.046017         1.2522
  34   0.0000       0.059431         1.6172

MULLIKEN ATOMIC CHARGES
-----------------------
   0 F :   -0.696294
   1 F :   -0.673686
   2 N :   -0.685376
   3 N :   -0.656453
   4 C :    0.008420
   5 C :    0.264666
   6 C :    0.672419
   7 C :    0.497555
   8 H :    0.324447
   9 H :    0.357339
  10 H :    0.308937
  11 H :    0.278027
Sum of atomic charges:   -0.0000000

LOEWDIN ATOMIC CHARGES
----------------------
   0 F :    0.791063
   1 F :    0.738280
   2 N :    1.263760
   3 N :    0.409352
   4 C :   -0.320668
   5 C :   -0.022651
   6 C :   -0.768431
   7 C :   -0.389404
   8 H :   -0.358071
   9 H :   -0.315950
  10 H :   -0.526069
  11 H :   -0.501213

  Mayer bond orders larger than 0.100000
B(  0-F ,  5-C ) :   0.4209 B(  1-F ,  4-C ) :   0.1401 B(  1-F ,  6-C ) :   0.1152
B(  1-F ,  7-C ) :   0.1087 B(  2-N ,  4-C ) :   0.9624 B(  2-N , 10-H ) :   0.9134
B(  2-N , 11-H ) :   0.9148 B(  3-N ,  7-C ) :   2.4662 B(  4-C ,  5-C ) :   0.9433
B(  4-C ,  6-C ) :   1.3025 B(  4-C ,  7-C ) :  -0.1721 B(  5-C ,  8-H ) :   0.9240
B(  5-C ,  9-H ) :   0.8329 B(  6-C ,  7-C ) :   1.3281

MP2 TOTAL ENERGY:     -463.385663705 Eh
FINAL SINGLE POINT ENERGY      -463.385663704542

DIPOLE MOMENT
-------------
                                X             Y             Z
Electronic contribution:     -1.13023       3.22981      -1.11339
Nuclear contribution   :      2.60659      -3.39053       1.33971
                        -----------------------------------------
Total Dipole Moment    :      1.47636      -0.16072       0.22632
                        -----------------------------------------
Magnitude (a.u.)       :      1.50223
Magnitude (Debye)      :      3.81836

Rotational constants in cm-1:     0.129858     0.043002     0.033115
Rotational constants in MHz :  3893.045822  1289.153959   992.766209

                             ****ORCA TERMINATED NORMALLY****
TOTAL RUN TIME: 0 days 0 hours 18 minutes 57 seconds 742 msec
