                         Program Version 5.0.4 -  RELEASE  -
|  1> !ri-mp2 aug-cc-pvqz aug-cc-pvqz/c tightscf
|  2> %pal nprocs 16 end
|  3>
|  4> * xyz 0 1
|  5> H     -2.046077    1.260629    0.000000
|  6> C     -1.219389    0.555593    0.000000
|  7> H      0.021554    2.201006    0.000000
|  8> C      0.000000    1.114678    0.000000
|  9> H      1.392911   -0.573551    0.000000
| 10> C      1.319865    0.504047    0.000000
| 11> H      3.420124    0.739387    0.000000
| 12> H      2.436778    2.299849    0.000000
| 13> C      2.450226    1.216544    0.000000
| 14> H     -2.367696   -0.977943    0.864681
| 15> H     -2.367696   -0.977943   -0.864681
| 16> C     -1.702301   -0.867901    0.000000
| 17> H     -1.238007   -2.971360    0.000000
| 18> H     -0.064100   -2.005323   -0.883366
| 19> H     -0.064100   -2.005323    0.883366
| 20> C     -0.702350   -2.021198    0.000000
| 21> *
| 22>
| 23>                          ****END OF INPUT****

CARTESIAN COORDINATES (ANGSTROEM)
---------------------------------
  H     -2.046077    1.260629    0.000000
  C     -1.219389    0.555593    0.000000
  H      0.021554    2.201006    0.000000
  C      0.000000    1.114678    0.000000
  H      1.392911   -0.573551    0.000000
  C      1.319865    0.504047    0.000000
  H      3.420124    0.739387    0.000000
  H      2.436778    2.299849    0.000000
  C      2.450226    1.216544    0.000000
  H     -2.367696   -0.977943    0.864681
  H     -2.367696   -0.977943   -0.864681
  C     -1.702301   -0.867901    0.000000
  H     -1.238007   -2.971360    0.000000
  H     -0.064100   -2.005323   -0.883366
  H     -0.064100   -2.005323    0.883366
  C     -0.702350   -2.021198    0.000000

 Total Charge           Charge          ....    0
 Multiplicity           Mult            ....    1
 Number of Electrons    NEL             ....   46
 Basis Dimension        Dim             ....  940

ORBITAL ENERGIES
----------------

  NO   OCC          E(Eh)            E(eV)
   0   2.0000     -11.233273      -305.6729
   1   2.0000     -11.231407      -305.6221
   2   2.0000     -11.230978      -305.6105
   3   2.0000     -11.225798      -305.4695
   4   2.0000     -11.221633      -305.3562
   5   2.0000     -11.216915      -305.2278
   6   2.0000      -1.098961       -29.9042
   7   2.0000      -1.046072       -28.4651
   8   2.0000      -0.979466       -26.6526
   9   2.0000      -0.879579       -23.9346
  10   2.0000      -0.793681       -21.5972
  11   2.0000      -0.728499       -19.8235
  12   2.0000      -0.646532       -17.5930
  13   2.0000      -0.620076       -16.8731
  14   2.0000      -0.614803       -16.7296
  15   2.0000      -0.569798       -15.5050
  16   2.0000      -0.563461       -15.3325
  17   2.0000      -0.522494       -14.2178
  18   2.0000      -0.504695       -13.7334
  19   2.0000      -0.491849       -13.3839
  20   2.0000      -0.464005       -12.6262
  21   2.0000      -0.432591       -11.7714
  22   2.0000      -0.311031        -8.4636
  23   0.0000       0.025647         0.6979
  24   0.0000       0.029376         0.7994
  25   0.0000       0.031251         0.8504
  26   0.0000       0.039006         1.0614
  27   0.0000       0.043443         1.1821

MULLIKEN ATOMIC CHARGES
-----------------------
   0 H :    0.282112
   1 C :   -0.221968
   2 H :    0.323634
   3 C :   -0.459185
   4 H :    0.480829
   5 C :   -0.459894
   6 H :    0.309935
   7 H :    0.283518
   8 C :   -0.692981
   9 H :    0.238312
  10 H :    0.238312
  11 C :   -0.261887
  12 H :    0.308596
  13 H :    0.191799
  14 H :    0.191799
  15 C :   -0.752931
Sum of atomic charges:   -0.0000000

LOEWDIN ATOMIC CHARGES
----------------------
   0 H :   -0.339163
   1 C :    0.407170
   2 H :   -0.371598
   3 C :    0.344125
   4 H :   -0.409934
   5 C :    0.320898
   6 H :   -0.355110
   7 H :   -0.358451
   8 C :    0.794524
   9 H :   -0.291158
  10 H :   -0.291158
  11 C :    0.494403
  12 H :   -0.278349
  13 H :   -0.289777
  14 H :   -0.289777
  15 C :    0.913354

  Mayer bond orders larger than 0.100000
B(  0-H ,  1-C ) :   0.9715 B(  0-H ,  3-C ) :  -0.1467 B(  1-C ,  2-H ) :  -0.1038
B(  1-C ,  3-C ) :   1.6463 B(  1-C ,  5-C ) :  -0.1964 B(  1-C , 11-C ) :   0.7408
B(  2-H ,  3-C ) :   0.9094 B(  3-C ,  5-C ) :   0.7958 B(  3-C ,  8-C ) :  -0.2073
B(  4-H ,  5-C ) :   0.7440 B(  5-C ,  6-H ) :  -0.1375 B(  5-C ,  8-C ) :   1.4626
B(  6-H ,  8-C ) :   1.0128 B(  7-H ,  8-C ) :   1.0114 B(  9-H , 11-C ) :   0.9057
B( 10-H , 11-C ) :   0.9057 B( 11-C , 15-C ) :   1.0020 B( 12-H , 15-C ) :   0.9405
B( 13-H , 15-C ) :   0.9785 B( 14-H , 15-C ) :   0.9785

MP2 TOTAL ENERGY:     -234.153114110 Eh
FINAL SINGLE POINT ENERGY      -234.153114109792

DIPOLE MOMENT
-------------
                                X             Y             Z
Electronic contribution:      0.70274       2.96600       0.00000
Nuclear contribution   :     -0.92160      -3.16616       0.00000
                        -----------------------------------------
Total Dipole Moment    :     -0.21886      -0.20016       0.00000
                        -----------------------------------------
Magnitude (a.u.)       :      0.29659
Magnitude (Debye)      :      0.75386

Rotational constants in cm-1:     0.231384     0.067209     0.053092
Rotational constants in MHz :  6936.717363  2014.865875  1591.645375

                             ****ORCA TERMINATED NORMALLY****
TOTAL RUN TIME: 0 days 0 hours 35 minutes 9 seconds 946 msec
