                         Program Version 5.0.4 -  RELEASE  -
|  1> !ri-mp2 aug-cc-pvqz aug-cc-pvqz/c tightscf
|  2> %pal nprocs 16 end
|  3>
|  4> * xyz 0 1
|  5> C      0.000000    0.673836    1.076580
|  6> C      0.000000   -0.673836    1.076580
|  7> C      0.000000    1.493940   -0.073575
|  8> C      0.000000   -1.493940   -0.073575
|  9> H      0.000000    1.184203    2.032282
| 10> H      0.000000   -1.184203    2.032282
| 11> C      0.000000    2.225403   -1.028515
| 12> C      0.000000   -2.225403   -1.028515
| 13> H      0.000000    2.859977   -1.879220
| 14> H      0.000000   -2.859977   -1.879220
| 15> *
| 16>
| 17>                          ****END OF INPUT****

CARTESIAN COORDINATES (ANGSTROEM)
---------------------------------
  C      0.000000    0.673836    1.076580
  C      0.000000   -0.673836    1.076580
  C      0.000000    1.493940   -0.073575
  C      0.000000   -1.493940   -0.073575
  H      0.000000    1.184203    2.032282
  H      0.000000   -1.184203    2.032282
  C      0.000000    2.225403   -1.028515
  C      0.000000   -2.225403   -1.028515
  H      0.000000    2.859977   -1.879220
  H      0.000000   -2.859977   -1.879220

 Total Charge           Charge          ....    0
 Multiplicity           Mult            ....    1
 Number of Electrons    NEL             ....   40
 Basis Dimension        Dim             ....  664

ORBITAL ENERGIES
----------------

  NO   OCC          E(Eh)            E(eV)
   0   2.0000     -11.275888      -306.8325
   1   2.0000     -11.274306      -306.7895
   2   2.0000     -11.243175      -305.9423
   3   2.0000     -11.243171      -305.9422
   4   2.0000     -11.236490      -305.7604
   5   2.0000     -11.236490      -305.7604
   6   2.0000      -1.123602       -30.5748
   7   2.0000      -1.046017       -28.4636
   8   2.0000      -1.002000       -27.2658
   9   2.0000      -0.880287       -23.9538
  10   2.0000      -0.759768       -20.6743
  11   2.0000      -0.715796       -19.4778
  12   2.0000      -0.691270       -18.8104
  13   2.0000      -0.654746       -17.8165
  14   2.0000      -0.583375       -15.8744
  15   2.0000      -0.498613       -13.5680
  16   2.0000      -0.424469       -11.5504
  17   2.0000      -0.405324       -11.0294
  18   2.0000      -0.400142       -10.8884
  19   2.0000      -0.329099        -8.9552
  20   0.0000       0.025510         0.6942
  21   0.0000       0.028505         0.7757
  22   0.0000       0.028929         0.7872
  23   0.0000       0.040762         1.1092
  24   0.0000       0.059969         1.6318

MULLIKEN ATOMIC CHARGES
-----------------------
   0 C :   -0.197047
   1 C :   -0.197030
   2 C :    0.154679
   3 C :    0.154710
   4 H :    0.447329
   5 H :    0.447333
   6 C :   -0.814861
   7 C :   -0.814916
   8 H :    0.409905
   9 H :    0.409899
Sum of atomic charges:    0.0000000

LOEWDIN ATOMIC CHARGES
----------------------
   0 C :    0.220904
   1 C :    0.220904
   2 C :    0.025839
   3 C :    0.025839
   4 H :   -0.362962
   5 H :   -0.362962
   6 C :    0.572094
   7 C :    0.572094
   8 H :   -0.455876
   9 H :   -0.455876

  Mayer bond orders larger than 0.100000
B(  0-C ,  1-C ) :   1.6328 B(  0-C ,  2-C ) :   0.8562 B(  0-C ,  3-C ) :  -0.1032
B(  0-C ,  4-H ) :   0.8113 B(  0-C ,  6-C ) :  -0.1709 B(  1-C ,  2-C ) :  -0.1032
B(  1-C ,  3-C ) :   0.8562 B(  1-C ,  5-H ) :   0.8113 B(  1-C ,  7-C ) :  -0.1709
B(  2-C ,  6-C ) :   2.3039 B(  2-C ,  8-H ) :  -0.1650 B(  3-C ,  7-C ) :   2.3039
B(  3-C ,  9-H ) :  -0.1650 B(  6-C ,  8-H ) :   1.0778 B(  7-C ,  9-H ) :   1.0778

MP2 TOTAL ENERGY:     -230.454366464 Eh
FINAL SINGLE POINT ENERGY      -230.454366463782

DIPOLE MOMENT
-------------
                                X             Y             Z
Electronic contribution:     -0.00000       0.00000      -0.23556
Nuclear contribution   :      0.00000       0.00000       0.30220
                        -----------------------------------------
Total Dipole Moment    :     -0.00000       0.00000       0.06664
                        -----------------------------------------
Magnitude (a.u.)       :      0.06664
Magnitude (Debye)      :      0.16939

Rotational constants in cm-1:     0.244923     0.083122     0.062060
Rotational constants in MHz :  7342.614118  2491.949217  1860.522006

                             ****ORCA TERMINATED NORMALLY****
TOTAL RUN TIME: 0 days 0 hours 13 minutes 29 seconds 355 msec
