                         Program Version 5.0.4 -  RELEASE  -
|  1> !ri-mp2 aug-cc-pvqz aug-cc-pvqz/c tightscf
|  2> %pal nprocs 16 end
|  3>
|  4> * xyz 0 1
|  5> C      0.000000    0.660572    0.578468
|  6> C      0.000000   -0.660572    0.578468
|  7> F      0.000000    1.383039   -0.550638
|  8> F      0.000000   -1.383039   -0.550638
|  9> H      0.000000    1.245818    1.484934
| 10> H      0.000000   -1.245818    1.484934
| 11> *
| 12>
| 13>                          ****END OF INPUT****

CARTESIAN COORDINATES (ANGSTROEM)
---------------------------------
  C      0.000000    0.660572    0.578468
  C      0.000000   -0.660572    0.578468
  F      0.000000    1.383039   -0.550638
  F      0.000000   -1.383039   -0.550638
  H      0.000000    1.245818    1.484934
  H      0.000000   -1.245818    1.484934

 Total Charge           Charge          ....    0
 Multiplicity           Mult            ....    1
 Number of Electrons    NEL             ....   32
 Basis Dimension        Dim             ....  412

ORBITAL ENERGIES
----------------

  NO   OCC          E(Eh)            E(eV)
   0   2.0000     -26.320017      -716.2041
   1   2.0000     -26.320016      -716.2040
   2   2.0000     -11.336504      -308.4820
   3   2.0000     -11.334689      -308.4326
   4   2.0000      -1.644065       -44.7373
   5   2.0000      -1.630975       -44.3811
   6   2.0000      -1.068649       -29.0794
   7   2.0000      -0.860649       -23.4195
   8   2.0000      -0.779398       -21.2085
   9   2.0000      -0.755193       -20.5498
  10   2.0000      -0.715623       -19.4731
  11   2.0000      -0.700851       -19.0711
  12   2.0000      -0.689474       -18.7615
  13   2.0000      -0.619329       -16.8528
  14   2.0000      -0.582175       -15.8418
  15   2.0000      -0.393221       -10.7001
  16   0.0000       0.023401         0.6368
  17   0.0000       0.034322         0.9340
  18   0.0000       0.067790         1.8447
  19   0.0000       0.072742         1.9794
  20   0.0000       0.077331         2.1043

MULLIKEN ATOMIC CHARGES
-----------------------
   0 C :    0.104568
   1 C :    0.104568
   2 F :   -0.581418
   3 F :   -0.581418
   4 H :    0.476850
   5 H :    0.476850
Sum of atomic charges:    0.0000000

LOEWDIN ATOMIC CHARGES
----------------------
   0 C :   -0.299074
   1 C :   -0.299074
   2 F :    0.723724
   3 F :    0.723724
   4 H :   -0.424650
   5 H :   -0.424650

  Mayer bond orders larger than 0.100000
B(  0-C ,  1-C ) :   1.8222 B(  0-C ,  2-F ) :   0.5571 B(  0-C ,  4-H ) :   0.7766
B(  1-C ,  3-F ) :   0.5571 B(  1-C ,  5-H ) :   0.7766

MP2 TOTAL ENERGY:     -276.747786020 Eh
FINAL SINGLE POINT ENERGY      -276.747786019654

DIPOLE MOMENT
-------------
                                X             Y             Z
Electronic contribution:      0.00000      -0.00000      -2.75058
Nuclear contribution   :      0.00000       0.00000       3.80810
                        -----------------------------------------
Total Dipole Moment    :      0.00000      -0.00000       1.05752
                        -----------------------------------------
Magnitude (a.u.)       :      1.05752
Magnitude (Debye)      :      2.68799

Rotational constants in cm-1:     0.709788     0.195361     0.153196
Rotational constants in MHz : 21278.922647  5856.775281  4592.690724

                             ****ORCA TERMINATED NORMALLY****
TOTAL RUN TIME: 0 days 0 hours 2 minutes 41 seconds 837 msec
