 Gaussian 16, Revision C.01,

 ----------------------------------------------------------------------
 #t hf aug-cc-pvdz symm=none int=(grid=ultrafine) guess=(read,tcheck) s
 table=(opt,rrhf)
 ----------------------------------------------------------------------
 -----
 title
 -----
 Symbolic Z-matrix:
 Charge =  0 Multiplicity = 1

 SCF Done:  E(RHF) =  -1542.35955732     A.U. after   17 cycles
 Normal termination of Gaussian 16 at Tue Apr  8 19:02:11 2025.
 Gaussian 16:  ES64L-G16RevC.01  3-Jul-2019

 ----------------------------------------------------------------------
 #t hf aug-cc-pvdz iop(5/13=1,5/36=2,99/5=2) pseudo=read geom=check gue
 ss=(read,tcheck) scf=(maxcycle=1)
 ----------------------------------------------------------------------
 -----
 title
 -----
 Structure from the checkpoint file:  "37Conf8_Indometacin_7_mol1.chk"
 Charge =  0 Multiplicity = 1

                         Standard orientation:
 ---------------------------------------------------------------------
 Center     Atomic      Atomic             Coordinates (Angstroms)
 Number     Number       Type             X           Y           Z
 ---------------------------------------------------------------------
      1          1           0       -6.172101   -0.812960   -1.269200
      2          8           0       -6.132341   -1.103710   -0.338530
      3          6           0       -4.822751   -1.233041    0.043330
      4          6           0       -3.805141   -0.971811   -1.075350
      5          8           0       -4.550501   -1.566081    1.167670
      6          6           0       -2.412351   -0.763351   -0.590880
      7          1           0       -3.863971   -1.840411   -1.754370
      8          1           0       -4.130901   -0.100271   -1.668290
      9          6           0       -1.824891    0.517789   -0.291090
     10          6           0       -1.483791   -1.736721   -0.310970
     11          6           0       -2.333610    1.817739   -0.327270
     12          6           0       -0.496201    0.282149    0.147310
     13          7           0       -0.287411   -1.116531    0.111590
     14          6           0       -1.619461   -3.210211   -0.450790
     15          1           0       -3.355650    2.032009   -0.642980
     16          6           0       -1.517780    2.874799    0.088570
     17          6           0        0.301860    1.328609    0.600300
     18          6           0        0.861289   -1.818561    0.533600
     19          1           0       -2.529301   -3.441751   -1.019860
     20          1           0       -0.758531   -3.657361   -0.966780
     21          1           0       -1.692321   -3.699541    0.529970
     22          8           0       -2.081300    4.121799    0.020410
     23          6           0       -0.212990    2.627869    0.558460
     24          1           0        1.305900    1.164969    0.986120
     25          6           0        2.181109   -1.177621    0.270560
     26          8           0        0.781229   -2.929311    1.041390
     27          6           0       -1.301360    5.222279    0.471780
     28          1           0        0.413300    3.446549    0.907410
     29          6           0        2.428479   -0.432491   -0.891610
     30          6           0        3.233179   -1.432311    1.161290
     31          1           0       -0.379210    5.337319   -0.123030
     32          1           0       -1.930660    6.109739    0.339350
     33          1           0       -1.034810    5.120099    1.537350
     34          1           0        1.618599   -0.240131   -1.595940
     35          6           0        3.703079    0.059429   -1.158410
     36          1           0        3.037509   -2.038411    2.046620
     37          6           0        4.505539   -0.923971    0.919810
     38          1           0        3.905669    0.626909   -2.066160
     39          6           0        4.730749   -0.180881   -0.242640
     40          1           0        5.323639   -1.103392    1.616740
     41         17           0        6.319309    0.448978   -0.558920
 ---------------------------------------------------------------------

 SCF Done:  E(RHF) =  -1547.54156778     A.U. after    2 cycles

 The electronic state is 1-A.
 Alpha  occ. eigenvalues --  -99.91045 -21.12487 -21.07537 -21.05905 -21.05202
 Alpha  occ. eigenvalues --  -15.78818 -11.56137 -11.55596 -11.55012 -11.54231
 Alpha  occ. eigenvalues --  -11.50890 -11.48791 -11.48460 -11.48039 -11.47631
 Alpha  occ. eigenvalues --  -11.46978 -11.46582 -11.46218 -11.44737 -11.44499
 Alpha  occ. eigenvalues --  -11.42264 -11.41859 -11.40939 -11.40350 -11.38679
 Alpha  occ. eigenvalues --  -10.48450  -9.68490  -9.67571  -9.67382  -1.81584
 Alpha  occ. eigenvalues --   -1.78608  -1.73373  -1.65109  -1.53102  -1.41885
 Alpha  occ. eigenvalues --   -1.30622  -1.28823  -1.23369  -1.13145  -1.12657
 Alpha  occ. eigenvalues --   -1.11948  -1.10890  -1.07945  -1.00104  -0.98876
 Alpha  occ. eigenvalues --   -0.93040  -0.90697  -0.87733  -0.85590  -0.82154
 Alpha  occ. eigenvalues --   -0.78829  -0.75672  -0.74057  -0.70613  -0.68745
 Alpha  occ. eigenvalues --   -0.68061  -0.66171  -0.64995  -0.64521  -0.64122
 Alpha  occ. eigenvalues --   -0.62446  -0.61708  -0.61203  -0.61076  -0.59454
 Alpha  occ. eigenvalues --   -0.58767  -0.58317  -0.56540  -0.56207  -0.54679
 Alpha  occ. eigenvalues --   -0.54073  -0.53554  -0.51763  -0.51112  -0.50538
 Alpha  occ. eigenvalues --   -0.50021  -0.49742  -0.49027  -0.47956  -0.46724
 Alpha  occ. eigenvalues --   -0.45077  -0.44679  -0.43365  -0.39634  -0.39210
 Alpha  occ. eigenvalues --   -0.36814  -0.36104  -0.34128  -0.33803  -0.30866
 Alpha  occ. eigenvalues --   -0.30087  -0.27679  -0.24835
 Alpha virt. eigenvalues --    0.02753   0.03899   0.04164   0.04569   0.04748
 Alpha virt. eigenvalues --    0.05189   0.05607   0.05984   0.06287   0.06446
 Alpha virt. eigenvalues --    0.06837   0.07087   0.07253   0.07575   0.07854

 Mulliken charges:
               1
     1  H    1.063545
     2  O   -3.234023
     3  C    5.493834
     4  C   -3.421982
     5  O   -3.099825
     6  C    0.196166
     7  H    1.362674
     8  H    1.244469
     9  C    2.829113
    10  C    2.814943
    11  C   -0.088667
    12  C    1.689684
    13  N   -6.174862
    14  C   -5.277171
    15  H    2.065315
    16  C    5.988494
    17  C   -2.852413
    18  C    4.560167
    19  H    1.045931
    20  H    1.006376
    21  H    1.190662
    22  O   -5.113338
    23  C   -5.103698
    24  H    2.780604
    25  C    3.107797
    26  O   -3.754852
    27  C   -4.024337
    28  H    1.839380
    29  C   -1.458254
    30  C   -1.944860
    31  H    1.415902
    32  H    1.523294
    33  H    1.416758
    34  H    2.513928
    35  C   -1.901386
    36  H    1.786010
    37  C   -1.280891
    38  H    1.785968
    39  C   -2.905689
    40  H    1.797365
    41  Cl  -0.882131
 Sum of Mulliken charges =  -0.00000

 Dipole moment (field-independent basis, Debye):
    X=             -0.1826    Y=              0.4763    Z=             -1.2835  Tot=              1.3812

 Test job not archived.
 1\1\GINC-SE159\SP\RHF\Aug-CC-pVDZ\C19H16Cl1N1O4\OHZDE\08-Apr-2025\0\\#
 t hf aug-cc-pvdz iop(5/13=1,5/36=2,99/5=2) pseudo=read geom=check gues
 s=(read,tcheck) scf=(maxcycle=1)\\title\\0,1\H,0,-6.1721,-0.81296,-1.2
 692\O,0,-6.13234,-1.10371,-0.33853\C,0,-4.82275,-1.23304,0.04333\C,0,-
 3.80514,-0.97181,-1.07535\O,0,-4.5505,-1.56608,1.16767\C,0,-2.41235,-0
 .76335,-0.59088\H,0,-3.86397,-1.84041,-1.75437\H,0,-4.1309,-0.10027,-1
 .66829\C,0,-1.82489,0.51779,-0.29109\C,0,-1.48379,-1.73672,-0.31097\C,
 0,-2.33361,1.81774,-0.32727\C,0,-0.4962,0.28215,0.14731\N,0,-0.28741,-

 Normal termination of Gaussian 16 at Tue Apr  8 19:04:14 2025.
