 Gaussian 16, Revision C.01,

 ----------------------------------------------------------------------
 #t hf aug-cc-pvdz symm=none int=(grid=ultrafine) guess=(read,tcheck) s
 table=(opt,rrhf)
 ----------------------------------------------------------------------
 -----
 title
 -----
 Symbolic Z-matrix:
 Charge =  0 Multiplicity = 1

 SCF Done:  E(RHF) =  -360.953455062     A.U. after   14 cycles
 Normal termination of Gaussian 16 at Tue Apr  8 18:02:30 2025.
 Gaussian 16:  ES64L-G16RevC.01  3-Jul-2019

 ----------------------------------------------------------------------
 #t hf aug-cc-pvdz iop(5/13=1,5/36=2,99/5=2) pseudo=read geom=check gue
 ss=(read,tcheck) scf=(maxcycle=1)
 ----------------------------------------------------------------------
 -----
 title
 -----
 Structure from the checkpoint file:  "37Conf8_GABA_8_mol2.chk"
 Charge =  0 Multiplicity = 1

                         Standard orientation:
 ---------------------------------------------------------------------
 Center     Atomic      Atomic             Coordinates (Angstroms)
 Number     Number       Type             X           Y           Z
 ---------------------------------------------------------------------
      1          1           0        0.126437   -1.368137    0.333659
      2          8           0       -0.830293   -1.394946    0.006739
      3          6           0       -1.336831   -0.141976    0.049279
      4          6           0       -0.434449    0.896593    0.714809
      5          8           0       -2.432601    0.115776   -0.403661
      6          6           0        0.789811    1.319502   -0.123091
      7          1           0       -1.051068    1.779854    0.921389
      8          1           0       -0.097270    0.492313    1.682479
      9          6           0        1.639530    0.171750   -0.676311
     10          1           0        0.458932    1.935242   -0.973081
     11          1           0        1.418352    1.972781    0.505009
     12          7           0        1.836578   -0.885080    0.337869
     13          1           0        1.118739   -0.298299   -1.524321
     14          1           0        2.589750    0.579829   -1.064221
     15          1           0        2.434167   -1.628851   -0.027821
     16          1           0        2.300699   -0.511030    1.169059
 ---------------------------------------------------------------------

 SCF Done:  E(RHF) =  -362.598259891     A.U. after    2 cycles

 The electronic state is 1-A.
 Alpha  occ. eigenvalues --  -21.07710 -21.02746 -15.76862 -11.50809 -11.46001
 Alpha  occ. eigenvalues --  -11.42903 -11.38421  -1.78709  -1.62341  -1.37711
 Alpha  occ. eigenvalues --   -1.18995  -1.02201  -0.87943  -0.76643  -0.70606
 Alpha  occ. eigenvalues --   -0.69193  -0.64538  -0.61153  -0.58799  -0.55292
 Alpha  occ. eigenvalues --   -0.51638  -0.49983  -0.47323  -0.45855  -0.43792
 Alpha  occ. eigenvalues --   -0.36400  -0.30889  -0.27339
 Alpha virt. eigenvalues --    0.02883   0.04241   0.04325   0.05144   0.05326
 Alpha virt. eigenvalues --    0.05765   0.07251   0.07732   0.08777   0.11374
 Alpha virt. eigenvalues --    0.12288   0.13254   0.13328   0.13788   0.14068

 Mulliken charges:
               1
     1  H    1.592610
     2  O   -3.338298
     3  C    5.949788
     4  C   -3.211731
     5  O   -3.223101
     6  C   -2.416721
     7  H    1.125229
     8  H    1.383027
     9  C   -2.336245
    10  H    1.306797
    11  H    1.285460
    12  N   -2.123765
    13  H    1.518581
    14  H    1.214225
    15  H    0.605636
    16  H    0.668507
 Sum of Mulliken charges =   0.00000

 Dipole moment (field-independent basis, Debye):
    X=              4.7140    Y=              0.3746    Z=              0.7171  Tot=              4.7829

 Test job not archived.
 1\1\GINC-SE117\SP\RHF\Aug-CC-pVDZ\C4H9N1O2\OHZDE\08-Apr-2025\0\\#t hf
 aug-cc-pvdz iop(5/13=1,5/36=2,99/5=2) pseudo=read geom=check guess=(re
 ad,tcheck) scf=(maxcycle=1)\\title\\0,1\H,0,0.12644,-1.36814,0.33366\O
 ,0,-0.83029,-1.39495,0.00674\C,0,-1.33683,-0.14198,0.04928\C,0,-0.4344
 5,0.89659,0.71481\O,0,-2.4326,0.11577,-0.40366\C,0,0.78981,1.3195,-0.1
 2309\H,0,-1.05107,1.77985,0.92139\H,0,-0.09727,0.49231,1.68248\C,0,1.6
 3953,0.17175,-0.67631\H,0,0.45893,1.93524,-0.97308\H,0,1.41835,1.97278
 ,0.50501\N,0,1.83658,-0.88508,0.33787\H,0,1.11874,-0.2983,-1.52432\H,0

 Normal termination of Gaussian 16 at Tue Apr  8 18:02:37 2025.
