 Gaussian 16, Revision C.01,

 ----------------------------------------------------------------------
 #t hf aug-cc-pvdz symm=none int=(grid=ultrafine) guess=(read,tcheck) s
 table=(opt,rrhf)
 ----------------------------------------------------------------------
 -----
 title
 -----
 Symbolic Z-matrix:
 Charge =  0 Multiplicity = 1

 SCF Done:  E(RHF) =  -1673.89510137     A.U. after   17 cycles
 Normal termination of Gaussian 16 at Tue Apr  8 19:18:41 2025.
 Gaussian 16:  ES64L-G16RevC.01  3-Jul-2019

 ----------------------------------------------------------------------
 #t hf aug-cc-pvdz iop(5/13=1,5/36=2,99/5=2) pseudo=read geom=check gue
 ss=(read,tcheck) scf=(maxcycle=1)
 ----------------------------------------------------------------------
 -----
 title
 -----
 Structure from the checkpoint file:  "37Conf8_Pantoprazole_3_mol1.chk"
 Charge =  0 Multiplicity = 1

                         Standard orientation:
 ---------------------------------------------------------------------
 Center     Atomic      Atomic             Coordinates (Angstroms)
 Number     Number       Type             X           Y           Z
 ---------------------------------------------------------------------
      1          1           0       -4.939500    2.739069    0.728331
      2          6           0       -4.440330    1.863889    0.315001
      3          6           0       -5.154289    0.678929    0.123051
      4          6           0       -3.083220    1.885119   -0.018659
      5          1           0       -6.218249    0.643018    0.374901
      6          7           0       -4.624079   -0.445441   -0.357349
      7          8           0       -2.255430    2.948840    0.145621
      8          6           0       -2.505889    0.707399   -0.548569
      9          6           0       -3.317629   -0.429691   -0.690489
     10          6           0       -2.818030    4.139569    0.699571
     11          8           0       -1.172479    0.619750   -0.842459
     12          6           0       -2.766379   -1.716551   -1.205169
     13          1           0       -3.617230    4.540639    0.055931
     14          1           0       -1.993980    4.858960    0.753771
     15          1           0       -3.216420    3.957589    1.710401
     16          6           0       -0.681029    1.457810   -1.903229
     17         16           0       -2.054548   -2.798740    0.172401
     18          1           0       -1.936839   -1.611560   -1.916309
     19          1           0       -3.580738   -2.322801   -1.618789
     20          6           0       -0.430889   -2.024530    0.177891
     21          8           0       -2.651108   -2.395401    1.490921
     22          7           0        0.482721   -2.060940   -0.767109
     23          7           0       -0.077459   -1.314810    1.290391
     24          6           0        1.511461   -1.276779   -0.263429
     25          1           0       -0.712919   -1.157220    2.069461
     26          6           0        1.174451   -0.789840    1.034511
     27          6           0        2.739131   -0.936959   -0.842069
     28          6           0        2.027511    0.039111    1.759551
     29          1           0        3.033261   -1.303479   -1.824889
     30          6           0        3.581021   -0.105079   -0.111409
     31          1           0        1.762851    0.423691    2.744861
     32          6           0        3.238881    0.390171    1.163971
     33          8           0        4.777881    0.247421   -0.741069
     34          1           0        3.910251    1.078771    1.675101
     35          6           0        5.878391    0.435002    0.054361
     36          9           0        6.972341    0.223482   -0.718729
     37          9           0        5.952850    1.740822    0.497531
     38          1           0        5.899571   -0.227098    0.936361
     39          1           0       -1.240859    1.266560   -2.832999
     40          1           0        0.367941    1.171190   -2.040139
     41          1           0       -0.749260    2.521810   -1.638569
 ---------------------------------------------------------------------

 SCF Done:  E(RHF) =  -1679.67752799     A.U. after    2 cycles

 The electronic state is 1-A.
 Alpha  occ. eigenvalues --  -75.81040 -29.29161 -29.28453 -21.10282 -21.10152
 Alpha  occ. eigenvalues --  -21.07379 -21.01897 -15.80546 -15.74233 -15.73925
 Alpha  occ. eigenvalues --  -13.37356 -13.30674 -13.23346 -11.56831 -11.55530
 Alpha  occ. eigenvalues --  -11.55177 -11.50606 -11.48807 -11.48324 -11.46948
 Alpha  occ. eigenvalues --  -11.46559 -11.46317 -11.45739 -11.44601 -11.44033
 Alpha  occ. eigenvalues --  -11.43278 -11.42358 -11.40325 -11.39322  -8.15178
 Alpha  occ. eigenvalues --   -1.84882  -1.82962  -1.77193  -1.70662  -1.57874
 Alpha  occ. eigenvalues --   -1.44505  -1.30681  -1.29701  -1.22395  -1.20740
 Alpha  occ. eigenvalues --   -1.17107  -1.12312  -1.09024  -1.06325  -1.03418
 Alpha  occ. eigenvalues --   -1.00107  -0.96522  -0.90052  -0.87121  -0.86467
 Alpha  occ. eigenvalues --   -0.85329  -0.83207  -0.81267  -0.78237  -0.74007
 Alpha  occ. eigenvalues --   -0.71227  -0.70909  -0.70269  -0.66471  -0.65155
 Alpha  occ. eigenvalues --   -0.64750  -0.63940  -0.62318  -0.61838  -0.61229
 Alpha  occ. eigenvalues --   -0.60845  -0.60614  -0.60133  -0.59063  -0.56079
 Alpha  occ. eigenvalues --   -0.54771  -0.54477  -0.53315  -0.52299  -0.51568
 Alpha  occ. eigenvalues --   -0.49882  -0.49126  -0.45684  -0.44958  -0.44450
 Alpha  occ. eigenvalues --   -0.43764  -0.43271  -0.42462  -0.41605  -0.39748
 Alpha  occ. eigenvalues --   -0.39587  -0.38171  -0.37331  -0.35245  -0.34030
 Alpha  occ. eigenvalues --   -0.32356  -0.31739  -0.31104  -0.30202  -0.28747
 Alpha  occ. eigenvalues --   -0.28474  -0.26713  -0.25653  -0.21696
 Alpha virt. eigenvalues --    0.02812   0.03658   0.04041   0.04594   0.04825
 Alpha virt. eigenvalues --    0.04942   0.05576   0.05634   0.06463   0.06732
 Alpha virt. eigenvalues --    0.07036   0.07635   0.07868   0.08134   0.08404

 Mulliken charges:
               1
     1  H    1.902984
     2  C   -3.087822
     3  C   -0.654376
     4  C    8.439231
     5  H    1.830040
     6  N   -4.571187
     7  O   -5.217975
     8  C    3.325323
     9  C    4.450375
    10  C   -3.950105
    11  O   -4.573612
    12  C   -5.502732
    13  H    1.459730
    14  H    1.559696
    15  H    1.418172
    16  C   -4.713538
    17  S    3.911271
    18  H    1.615432
    19  H    1.334663
    20  C    2.866972
    21  O   -2.560459
    22  N   -5.038286
    23  N   -5.767621
    24  C    3.934376
    25  H    1.002998
    26  C    4.555752
    27  C   -5.153187
    28  C   -2.360238
    29  H    1.941557
    30  C    3.280704
    31  H    1.874119
    32  C   -1.273895
    33  O   -4.125823
    34  H    1.831503
    35  C   -0.655807
    36  F    0.396440
    37  F    0.151471
    38  H    1.459423
    39  H    1.463270
    40  H    1.494584
    41  H    1.706578
 Sum of Mulliken charges =   0.00000

 Dipole moment (field-independent basis, Debye):
    X=              0.0290    Y=              4.8820    Z=              1.5755  Tot=              5.1300

 Test job not archived.
 1\1\GINC-SE040\SP\RHF\Aug-CC-pVDZ\C16H15F2N3O4S1\OHZDE\08-Apr-2025\0\\
 #t hf aug-cc-pvdz iop(5/13=1,5/36=2,99/5=2) pseudo=read geom=check gue
 ss=(read,tcheck) scf=(maxcycle=1)\\title\\0,1\H,0,-4.9395,2.73907,0.72
 833\C,0,-4.44033,1.86389,0.315\C,0,-5.15429,0.67893,0.12305\C,0,-3.083
 22,1.88512,-0.01866\H,0,-6.21825,0.64302,0.3749\N,0,-4.62408,-0.44544,
 -0.35735\O,0,-2.25543,2.94884,0.14562\C,0,-2.50589,0.7074,-0.54857\C,0
 ,-3.31763,-0.42969,-0.69049\C,0,-2.81803,4.13957,0.69957\O,0,-1.17248,
 0.61975,-0.84246\C,0,-2.76638,-1.71655,-1.20517\H,0,-3.61723,4.54064,0

 Normal termination of Gaussian 16 at Tue Apr  8 19:20:40 2025.
