 Gaussian 16, Revision C.01,

 ----------------------------------------------------------------------
 #t hf aug-cc-pvdz symm=none int=(grid=ultrafine) guess=(read,tcheck) s
 table=(opt,rrhf)
 ----------------------------------------------------------------------
 -----
 title
 -----
 Symbolic Z-matrix:
 Charge =  0 Multiplicity = 1

 SCF Done:  E(RHF) =  -917.596349192     A.U. after   12 cycles
 Normal termination of Gaussian 16 at Tue Apr  8 17:44:41 2025.
 Gaussian 16:  ES64L-G16RevC.01  3-Jul-2019

 ----------------------------------------------------------------------
 #t hf aug-cc-pvdz iop(5/13=1,5/36=2,99/5=2) pseudo=read geom=check gue
 ss=(read,tcheck) scf=(maxcycle=1)
 ----------------------------------------------------------------------
 -----
 title
 -----
 Structure from the checkpoint file:  "37Conf8_18crown6_4_mol1.chk"
 Charge =  0 Multiplicity = 1

                         Standard orientation:
 ---------------------------------------------------------------------
 Center     Atomic      Atomic             Coordinates (Angstroms)
 Number     Number       Type             X           Y           Z
 ---------------------------------------------------------------------
      1          1           0       -0.614810    2.755790    1.989520
      2          6           0       -0.215240    2.741910    0.964600
      3          1           0       -0.250969    3.776400    0.574490
      4          8           0        1.125190    2.266950    1.053260
      5          6           0       -1.068480    1.822580    0.096860
      6          6           0        1.957820    2.707840   -0.011960
      7          1           0       -0.652910    1.756050   -0.928220
      8          1           0       -1.072140    0.804230    0.517510
      9          8           0       -2.382060    2.381040    0.056120
     10          1           0        1.432760    2.653760   -0.983430
     11          1           0        2.266591    3.760090    0.151800
     12          6           0        3.183030    1.825319   -0.069620
     13          6           0       -3.253460    1.776700   -0.887660
     14          1           0        3.959560    2.304649   -0.700570
     15          1           0        3.597330    1.706579    0.950640
     16          8           0        2.809120    0.565220   -0.604400
     17          1           0       -2.748880    1.667320   -1.868330
     18          1           0       -4.094380    2.477391   -1.008720
     19          6           0       -3.812490    0.428821   -0.463630
     20          6           0        3.812490   -0.428821   -0.463630
     21          1           0       -4.694340    0.185621   -1.094690
     22          1           0       -4.154770    0.487711    0.588580
     23          8           0       -2.809120   -0.565220   -0.604400
     24          1           0        4.154770   -0.487711    0.588580
     25          1           0        4.694340   -0.185621   -1.094690
     26          6           0        3.253460   -1.776701   -0.887660
     27          6           0       -3.183030   -1.825320   -0.069620
     28          1           0        2.748880   -1.667320   -1.868330
     29          1           0        4.094380   -2.477391   -1.008720
     30          8           0        2.382060   -2.381040    0.056120
     31          1           0       -3.597330   -1.706580    0.950640
     32          1           0       -3.959560   -2.304649   -0.700560
     33          6           0       -1.957820   -2.707840   -0.011960
     34          6           0        1.068480   -1.822580    0.096860
     35          1           0       -2.266591   -3.760090    0.151800
     36          1           0       -1.432760   -2.653760   -0.983430
     37          8           0       -1.125190   -2.266950    1.053260
     38          1           0        0.652910   -1.756050   -0.928220
     39          1           0        1.072140   -0.804230    0.517500
     40          6           0        0.215240   -2.741910    0.964600
     41          1           0        0.250969   -3.776400    0.574500
     42          1           0        0.614810   -2.755780    1.989520
 ---------------------------------------------------------------------

 SCF Done:  E(RHF) =  -921.767524592     A.U. after    2 cycles

 The electronic state is 1-A.
 Alpha  occ. eigenvalues --  -21.04066 -21.04057 -21.03607 -21.03599 -21.03552
 Alpha  occ. eigenvalues --  -21.03551 -11.48494 -11.48421 -11.46445 -11.46028
 Alpha  occ. eigenvalues --  -11.45550 -11.44873 -11.39864 -11.39813 -11.39136
 Alpha  occ. eigenvalues --  -11.38987 -11.38207 -11.38117  -1.78820  -1.76849
 Alpha  occ. eigenvalues --   -1.76090  -1.72217  -1.71795  -1.70334  -1.14787
 Alpha  occ. eigenvalues --   -1.12178  -1.11002  -1.05074  -1.03654  -0.98609
 Alpha  occ. eigenvalues --   -0.89580  -0.86814  -0.85850  -0.84678  -0.83492
 Alpha  occ. eigenvalues --   -0.83354  -0.67662  -0.67586  -0.66345  -0.66251
 Alpha  occ. eigenvalues --   -0.65201  -0.64727  -0.63509  -0.63341  -0.61138
 Alpha  occ. eigenvalues --   -0.60680  -0.59649  -0.57203  -0.56416  -0.55812
 Alpha  occ. eigenvalues --   -0.54336  -0.52752  -0.52718  -0.51599  -0.50434
 Alpha  occ. eigenvalues --   -0.49684  -0.48440  -0.47702  -0.45179  -0.45006
 Alpha  occ. eigenvalues --   -0.39306  -0.39113  -0.37863  -0.37525  -0.36741
 Alpha  occ. eigenvalues --   -0.36248  -0.31421  -0.30998  -0.29220  -0.28620
 Alpha  occ. eigenvalues --   -0.27920  -0.27121
 Alpha virt. eigenvalues --    0.04415   0.04600   0.04756   0.04815   0.04946
 Alpha virt. eigenvalues --    0.05336   0.05405   0.05497   0.05990   0.06101
 Alpha virt. eigenvalues --    0.06504   0.06751   0.06924   0.07162   0.07461

 Mulliken charges:
               1
     1  H    1.369201
     2  C   -2.047792
     3  H    1.672054
     4  O   -3.258703
     5  C   -1.304806
     6  C   -1.961058
     7  H    1.908440
     8  H    2.317104
     9  O   -3.539911
    10  H    2.150316
    11  H    1.446422
    12  C   -1.032358
    13  C   -2.757341
    14  H    1.433527
    15  H    1.808514
    16  O   -3.450068
    17  H    1.884829
    18  H    1.253513
    19  C   -1.217049
    20  C   -1.217050
    21  H    1.495676
    22  H    1.829485
    23  O   -3.450072
    24  H    1.829486
    25  H    1.495677
    26  C   -2.757337
    27  C   -1.032347
    28  H    1.884828
    29  H    1.253513
    30  O   -3.539910
    31  H    1.808515
    32  H    1.433537
    33  C   -1.961071
    34  C   -1.304809
    35  H    1.446421
    36  H    2.150318
    37  O   -3.258705
    38  H    1.908436
    39  H    2.317119
    40  C   -2.047806
    41  H    1.672067
    42  H    1.369195
 Sum of Mulliken charges =   0.00000

 Dipole moment (field-independent basis, Debye):
    X=             -0.0000    Y=             -0.0000    Z=             -0.5587  Tot=              0.5587

 Test job not archived.
 1\1\GINC-SE452\SP\RHF\Aug-CC-pVDZ\C12H24O6\OHZDE\08-Apr-2025\0\\#t hf
 aug-cc-pvdz iop(5/13=1,5/36=2,99/5=2) pseudo=read geom=check guess=(re
 ad,tcheck) scf=(maxcycle=1)\\title\\0,1\H,0,0.61481,-2.75579,1.98952\C
 ,0,0.21524,-2.74191,0.9646\H,0,0.25097,-3.7764,0.57449\O,0,-1.12519,-2
 .26695,1.05326\C,0,1.06848,-1.82258,0.09686\C,0,-1.95782,-2.70784,-0.0
 1196\H,0,0.65291,-1.75605,-0.92822\H,0,1.07214,-0.80423,0.51751\O,0,2.
 38206,-2.38104,0.05612\H,0,-1.43276,-2.65376,-0.98343\H,0,-2.26659,-3.
 76009,0.1518\C,0,-3.18303,-1.82532,-0.06962\C,0,3.25346,-1.7767,-0.887

 Normal termination of Gaussian 16 at Tue Apr  8 17:45:49 2025.
