 Gaussian 16, Revision C.01,

 ----------------------------------------------------------------------
 #t hf aug-cc-pvdz symm=none int=(grid=ultrafine) guess=(read,tcheck) s
 table=(opt,rrhf)
 ----------------------------------------------------------------------
 -----
 title
 -----
 Symbolic Z-matrix:
 Charge =  0 Multiplicity = 1

 SCF Done:  E(RHF) =  -1587.90209467     A.U. after   16 cycles
 Normal termination of Gaussian 16 at Tue Apr  8 19:36:49 2025.
 Gaussian 16:  ES64L-G16RevC.01  3-Jul-2019

 ----------------------------------------------------------------------
 #t hf aug-cc-pvdz iop(5/13=1,5/36=2,99/5=2) pseudo=read geom=check gue
 ss=(read,tcheck) scf=(maxcycle=1)
 ----------------------------------------------------------------------
 -----
 title
 -----
 Structure from the checkpoint file:  "37Conf8_XylitolPentanit_8_mol1.chk"
 Charge =  0 Multiplicity = 1

                         Standard orientation:
 ---------------------------------------------------------------------
 Center     Atomic      Atomic             Coordinates (Angstroms)
 Number     Number       Type             X           Y           Z
 ---------------------------------------------------------------------
      1          1           0       -2.779091   -0.568478   -1.870040
      2          6           0       -2.449960   -0.272908   -0.863780
      3          6           0       -0.930470   -0.048709   -0.843300
      4          8           0       -2.970070    1.025952   -0.517560
      5          1           0       -2.784521   -1.024488   -0.140190
      6          6           0       -0.365450    0.028031    0.583830
      7          8           0       -0.161111   -0.891589   -1.715870
      8          1           0       -0.753010    0.933131   -1.308140
      9          7           0       -4.441430    1.028642   -0.357530
     10          6           0        1.071130    0.571730    0.792520
     11          8           0       -0.420371   -1.293759    1.133940
     12          1           0       -1.032920    0.696361    1.152810
     13          7           0       -0.372501   -2.381579   -1.631800
     14          8           0       -5.005780   -0.018868   -0.565480
     15          8           0       -4.850100    2.111242   -0.040890
     16          6           0        2.155790   -0.085700   -0.053380
     17          8           0        1.115810    2.016400    0.886750
     18          1           0        1.307990    0.333540    1.843440
     19          7           0       -0.856781   -1.353069    2.581280
     20          8           0        0.558249   -2.962009   -2.111040
     21          8           0       -1.412681   -2.768309   -1.166750
     22          8           0        3.395470    0.336280    0.541700
     23          1           0        2.116730    0.188920   -1.111880
     24          1           0        2.037379   -1.177170    0.031010
     25          7           0        4.567810   -0.265141   -0.119920
     26          8           0        4.341039   -1.029521   -1.028650
     27          8           0        5.597100    0.111859    0.369790
     28          7           0        1.167721    2.817350   -0.349600
     29          8           0       -0.838591   -2.478839    2.982160
     30          8           0       -1.152080   -0.306439    3.099650
     31          8           0        1.038580    2.237790   -1.407050
     32          8           0        1.332971    3.977320   -0.104370
 ---------------------------------------------------------------------

 SCF Done:  E(RHF) =  -1594.55299004     A.U. after    2 cycles

 The electronic state is 1-A.
 Alpha  occ. eigenvalues --  -21.18230 -21.17975 -21.17892 -21.17785 -21.17665
 Alpha  occ. eigenvalues --  -21.17214 -21.17062 -21.16972 -21.16823 -21.16282
 Alpha  occ. eigenvalues --  -21.16195 -21.16148 -21.15907 -21.15237 -21.14994
 Alpha  occ. eigenvalues --  -16.10984 -16.10059 -16.09779 -16.09122 -16.08206
 Alpha  occ. eigenvalues --  -11.61512 -11.59436 -11.54579 -11.51378 -11.47978
 Alpha  occ. eigenvalues --   -2.10997  -2.10313  -2.09982  -2.08968  -2.08616
 Alpha  occ. eigenvalues --   -1.83385  -1.80300  -1.79242  -1.78579  -1.78424
 Alpha  occ. eigenvalues --   -1.77750  -1.77411  -1.76816  -1.76696  -1.75965
 Alpha  occ. eigenvalues --   -1.25493  -1.18198  -1.08804  -1.03126  -1.01266
 Alpha  occ. eigenvalues --   -0.94784  -0.93885  -0.92247  -0.90066  -0.86070
 Alpha  occ. eigenvalues --   -0.80729  -0.78927  -0.77112  -0.76455  -0.76267
 Alpha  occ. eigenvalues --   -0.75864  -0.75607  -0.74923  -0.74723  -0.74666
 Alpha  occ. eigenvalues --   -0.72776  -0.71134  -0.70343  -0.69507  -0.68393
 Alpha  occ. eigenvalues --   -0.67858  -0.66822  -0.66032  -0.63136  -0.61033
 Alpha  occ. eigenvalues --   -0.59308  -0.56186  -0.55087  -0.52842  -0.51119
 Alpha  occ. eigenvalues --   -0.50334  -0.45458  -0.43373  -0.41378  -0.40741
 Alpha  occ. eigenvalues --   -0.40637  -0.40071  -0.39907  -0.39645  -0.39050
 Alpha  occ. eigenvalues --   -0.38758  -0.38237  -0.37907  -0.37183  -0.37059
 Alpha  occ. eigenvalues --   -0.36850  -0.36581  -0.36092  -0.35878  -0.35660
 Alpha  occ. eigenvalues --   -0.34719
 Alpha virt. eigenvalues --    0.03773   0.05286   0.05479   0.05818   0.06008
 Alpha virt. eigenvalues --    0.06636   0.07252   0.08857   0.09242   0.09902
 Alpha virt. eigenvalues --    0.10336   0.11049   0.11234   0.11441   0.11840

 Mulliken charges:
               1
     1  H    1.916600
     2  C   -4.791052
     3  C    3.155735
     4  O   -2.713037
     5  H    2.149036
     6  C    0.476633
     7  O   -3.529249
     8  H    2.426826
     9  N    6.344567
    10  C    2.394644
    11  O   -3.098233
    12  H    2.694800
    13  N    6.154887
    14  O   -2.726730
    15  O   -2.809753
    16  C   -3.690902
    17  O   -3.421395
    18  H    1.882994
    19  N    5.786216
    20  O   -2.850419
    21  O   -2.918544
    22  O   -3.087858
    23  H    2.265658
    24  H    1.893099
    25  N    6.833508
    26  O   -2.807041
    27  O   -2.868490
    28  N    5.629420
    29  O   -2.702347
    30  O   -2.637129
    31  O   -2.731847
    32  O   -2.620599
 Sum of Mulliken charges =  -0.00000

 Dipole moment (field-independent basis, Debye):
    X=             -0.5503    Y=             -0.0274    Z=              0.1773  Tot=              0.5788

 Test job not archived.
 1\1\GINC-SE132\SP\RHF\Aug-CC-pVDZ\C5H7N5O15\OHZDE\08-Apr-2025\0\\#t hf
  aug-cc-pvdz iop(5/13=1,5/36=2,99/5=2) pseudo=read geom=check guess=(r
 ead,tcheck) scf=(maxcycle=1)\\title\\0,1\H,0,-2.77909,-0.56848,-1.8700
 4\C,0,-2.44996,-0.27291,-0.86378\C,0,-0.93047,-0.04871,-0.8433\O,0,-2.
 97007,1.02595,-0.51756\H,0,-2.78452,-1.02449,-0.14019\C,0,-0.36545,0.0
 2803,0.58383\O,0,-0.16111,-0.89159,-1.71587\H,0,-0.75301,0.93313,-1.30
 814\N,0,-4.44143,1.02864,-0.35753\C,0,1.07113,0.57173,0.79252\O,0,-0.4
 2037,-1.29376,1.13394\H,0,-1.03292,0.69636,1.15281\N,0,-0.3725,-2.3815

 Normal termination of Gaussian 16 at Tue Apr  8 19:37:59 2025.
