 Gaussian 16, Revision C.01,

 ----------------------------------------------------------------------
 #t hf aug-cc-pvdz symm=none int=(grid=ultrafine) guess=(read,tcheck) s
 table=(opt,rrhf)
 ----------------------------------------------------------------------
 -----
 title
 -----
 Symbolic Z-matrix:
 Charge =  0 Multiplicity = 1

 SCF Done:  E(RHF) =  -936.305321952     A.U. after   16 cycles
 Normal termination of Gaussian 16 at Tue Apr  8 17:58:11 2025.
 Gaussian 16:  ES64L-G16RevC.01  3-Jul-2019

 ----------------------------------------------------------------------
 #t hf aug-cc-pvdz iop(5/13=1,5/36=2,99/5=2) pseudo=read geom=check gue
 ss=(read,tcheck) scf=(maxcycle=1)
 ----------------------------------------------------------------------
 -----
 title
 -----
 Structure from the checkpoint file:  "37Conf8_Atropine_6_mol2.chk"
 Charge =  0 Multiplicity = 1

                         Standard orientation:
 ---------------------------------------------------------------------
 Center     Atomic      Atomic             Coordinates (Angstroms)
 Number     Number       Type             X           Y           Z
 ---------------------------------------------------------------------
      1          1           0       -3.159960   -2.254900    1.149651
      2          8           0       -3.899000   -1.730460    0.775351
      3          6           0       -3.558890   -1.559230   -0.589469
      4          6           0       -2.200710   -0.862030   -0.822809
      5          1           0       -3.540070   -2.531560   -1.120109
      6          1           0       -4.350450   -0.944579   -1.042129
      7          6           0       -2.148160    0.589330   -0.381839
      8          6           0       -1.068990   -1.628680   -0.147019
      9          1           0       -1.998120   -0.885130   -1.906349
     10          6           0       -1.937250    1.601340   -1.327199
     11          6           0       -2.278610    0.944880    0.969401
     12          8           0        0.123200   -1.240930   -0.628669
     13          8           0       -1.215930   -2.461350    0.738341
     14          1           0       -1.821780    1.334100   -2.380289
     15          6           0       -1.860879    2.939520   -0.938739
     16          1           0       -2.452730    0.168300    1.713921
     17          6           0       -2.203839    2.283220    1.357971
     18          6           0        1.322790   -1.777860    0.038541
     19          1           0       -1.692739    3.713320   -1.689759
     20          6           0       -1.992449    3.284470    0.407541
     21          1           0       -2.309219    2.544510    2.412391
     22          1           0        1.104560   -2.830330    0.264941
     23          6           0        1.590300   -1.011040    1.339041
     24          6           0        2.468960   -1.659941   -0.966019
     25          1           0       -1.928589    4.329380    0.715311
     26          1           0        2.193220   -1.661161    1.991411
     27          1           0        0.637790   -0.825410    1.856331
     28          6           0        2.368310    0.293079    1.120941
     29          1           0        3.228160   -2.411791   -0.702779
     30          1           0        2.092350   -1.903121   -1.971119
     31          6           0        3.147590   -0.282831   -0.945829
     32          1           0        2.594990    0.740529    2.100051
     33          7           0        3.629850   -0.060351    0.433771
     34          6           0        1.647720    1.288460    0.169941
     35          1           0        4.002440   -0.294601   -1.638159
     36          6           0        2.167300    0.890929   -1.234339
     37          6           0        4.637490    0.990309    0.520381
     38          1           0        0.556020    1.229530    0.250941
     39          1           0        1.931491    2.320919    0.416251
     40          1           0        1.356600    0.595320   -1.911519
     41          1           0        2.702400    1.725119   -1.708799
     42          1           0        5.533460    0.678359   -0.035439
     43          1           0        4.315430    1.975899    0.123221
     44          1           0        4.925540    1.128109    1.572491
 ---------------------------------------------------------------------

 SCF Done:  E(RHF) =  -940.719357864     A.U. after    2 cycles

 The electronic state is 1-A.
 Alpha  occ. eigenvalues --  -21.08844 -21.05761 -21.05139 -15.69368 -11.56995
 Alpha  occ. eigenvalues --  -11.54899 -11.53335 -11.49626 -11.48549 -11.44944
 Alpha  occ. eigenvalues --  -11.44461 -11.44206 -11.43903 -11.43073 -11.41748
 Alpha  occ. eigenvalues --  -11.41519 -11.39387 -11.39254 -11.38399 -11.37172
 Alpha  occ. eigenvalues --  -11.35041  -1.84626  -1.69991  -1.66873  -1.47640
 Alpha  occ. eigenvalues --   -1.35541  -1.21233  -1.18181  -1.13702  -1.13059
 Alpha  occ. eigenvalues --   -1.09354  -1.05779  -0.99445  -0.94697  -0.93117
 Alpha  occ. eigenvalues --   -0.87798  -0.86804  -0.84260  -0.82133  -0.77455
 Alpha  occ. eigenvalues --   -0.73133  -0.72185  -0.70711  -0.67779  -0.67001
 Alpha  occ. eigenvalues --   -0.64036  -0.63180  -0.61862  -0.60644  -0.60517
 Alpha  occ. eigenvalues --   -0.60094  -0.58464  -0.58102  -0.55595  -0.55339
 Alpha  occ. eigenvalues --   -0.54895  -0.54071  -0.53598  -0.52194  -0.51553
 Alpha  occ. eigenvalues --   -0.50712  -0.49620  -0.48836  -0.45047  -0.44395
 Alpha  occ. eigenvalues --   -0.43823  -0.42787  -0.41289  -0.40606  -0.40419
 Alpha  occ. eigenvalues --   -0.40216  -0.38673  -0.34109  -0.33453  -0.32126
 Alpha  occ. eigenvalues --   -0.30708  -0.30531  -0.28529
 Alpha virt. eigenvalues --    0.03342   0.03611   0.03973   0.04469   0.04808
 Alpha virt. eigenvalues --    0.05429   0.05689   0.05964   0.06014   0.06197
 Alpha virt. eigenvalues --    0.06355   0.06601   0.07227   0.07233   0.07586

 Mulliken charges:
               1
     1  H    1.042338
     2  O   -2.736794
     3  C   -1.734328
     4  C   -4.512338
     5  H    1.487902
     6  H    1.449842
     7  C    6.716830
     8  C    8.688746
     9  H    1.762042
    10  C   -5.129488
    11  C   -3.099941
    12  O   -3.832171
    13  O   -3.841448
    14  H    1.882065
    15  C   -2.031215
    16  H    2.161619
    17  C   -1.712498
    18  C    3.143353
    19  H    1.673458
    20  C   -2.880851
    21  H    1.656031
    22  H    2.181683
    23  C   -6.185179
    24  C   -5.530892
    25  H    1.699005
    26  H    1.265766
    27  H    1.790664
    28  C    0.383803
    29  H    1.268260
    30  H    1.394064
    31  C    0.202314
    32  H    2.207362
    33  N   -2.622046
    34  C   -3.639365
    35  H    2.082664
    36  C   -4.665467
    37  C   -4.496768
    38  H    3.657745
    39  H    1.266434
    40  H    1.742623
    41  H    1.390726
    42  H    1.367583
    43  H    1.657763
    44  H    1.428101
 Sum of Mulliken charges =   0.00000

 Dipole moment (field-independent basis, Debye):
    X=              1.6764    Y=              1.3619    Z=             -0.8136  Tot=              2.3081

 Test job not archived.
 1\1\GINC-SE393\SP\RHF\Aug-CC-pVDZ\C17H23N1O3\OHZDE\08-Apr-2025\0\\#t h
 f aug-cc-pvdz iop(5/13=1,5/36=2,99/5=2) pseudo=read geom=check guess=(
 read,tcheck) scf=(maxcycle=1)\\title\\0,1\H,0,-3.15996,-2.2549,1.14965
 \O,0,-3.899,-1.73046,0.77535\C,0,-3.55889,-1.55923,-0.58947\C,0,-2.200
 71,-0.86203,-0.82281\H,0,-3.54007,-2.53156,-1.12011\H,0,-4.35045,-0.94
 458,-1.04213\C,0,-2.14816,0.58933,-0.38184\C,0,-1.06899,-1.62868,-0.14
 702\H,0,-1.99812,-0.88513,-1.90635\C,0,-1.93725,1.60134,-1.3272\C,0,-2
 .27861,0.94488,0.9694\O,0,0.1232,-1.24093,-0.62867\O,0,-1.21593,-2.461

 Normal termination of Gaussian 16 at Tue Apr  8 18:00:07 2025.
