 Gaussian 16, Revision C.01,

 ----------------------------------------------------------------------
 #t hf aug-cc-pvdz symm=none int=(grid=ultrafine) guess=(read,tcheck) s
 table=(opt,rrhf)
 ----------------------------------------------------------------------
 -----
 title
 -----
 Symbolic Z-matrix:
 Charge =  0 Multiplicity = 1

 SCF Done:  E(RHF) =  -891.126844676     A.U. after   14 cycles
 Normal termination of Gaussian 16 at Tue Apr  8 18:11:28 2025.
 Gaussian 16:  ES64L-G16RevC.01  3-Jul-2019

 ----------------------------------------------------------------------
 #t hf aug-cc-pvdz iop(5/13=1,5/36=2,99/5=2) pseudo=read geom=check gue
 ss=(read,tcheck) scf=(maxcycle=1)
 ----------------------------------------------------------------------
 -----
 title
 -----
 Structure from the checkpoint file:  "37Conf8_Glufosinate_4_mol1.chk"
 Charge =  0 Multiplicity = 1

                         Standard orientation:
 ---------------------------------------------------------------------
 Center     Atomic      Atomic             Coordinates (Angstroms)
 Number     Number       Type             X           Y           Z
 ---------------------------------------------------------------------
      1          1           0       -0.407310   -1.461930   -0.830531
      2          8           0       -1.250980   -1.811390   -0.405291
      3          6           0       -2.041690   -0.801090   -0.004921
      4          6           0       -1.554380    0.633000   -0.311541
      5          8           0       -3.082760   -1.004930    0.590229
      6          6           0       -0.671010    1.145690    0.846299
      7          7           0       -2.654060    1.578280   -0.489951
      8          1           0       -0.961720    0.613160   -1.239341
      9          6           0        0.531530    0.275350    1.242799
     10          1           0       -0.334770    2.157570    0.576259
     11          1           0       -1.319070    1.258440    1.730199
     12         15           0        1.707420   -0.037120   -0.106911
     13          1           0        0.208560   -0.713120    1.608889
     14          1           0        1.085970    0.759330    2.062029
     15          6           0        3.191040   -0.761240    0.612099
     16          8           0        2.260000    1.419480   -0.572981
     17          8           0        1.101160   -0.829660   -1.233931
     18          1           0        3.900050   -0.971660   -0.199131
     19          1           0        2.925130   -1.702810    1.110229
     20          1           0        3.652210   -0.076080    1.335099
     21          1           0        1.747300    1.756960   -1.330111
     22          1           0       -3.136620    1.367060   -1.366981
     23          1           0       -3.344900    1.383670    0.244059
 ---------------------------------------------------------------------

 SCF Done:  E(RHF) =  -893.800610308     A.U. after    2 cycles

 The electronic state is 1-A.
 Alpha  occ. eigenvalues -- -105.29494 -21.12759 -21.08607 -21.03410 -21.03365
 Alpha  occ. eigenvalues --  -15.73769 -11.51885 -11.47642 -11.44201 -11.41800
 Alpha  occ. eigenvalues --  -11.39821  -2.91106  -1.93927  -1.84674  -1.79517
 Alpha  occ. eigenvalues --   -1.63253  -1.62572  -1.49144  -1.36119  -1.31485
 Alpha  occ. eigenvalues --   -1.16834  -1.03403  -0.99894  -0.89377  -0.76655
 Alpha  occ. eigenvalues --   -0.72192  -0.69507  -0.65695  -0.64775  -0.61680
 Alpha  occ. eigenvalues --   -0.60740  -0.60251  -0.56888  -0.54554  -0.54032
 Alpha  occ. eigenvalues --   -0.53283  -0.48387  -0.46931  -0.45877  -0.43953
 Alpha  occ. eigenvalues --   -0.37834  -0.36719  -0.33787  -0.31319  -0.29345
 Alpha  occ. eigenvalues --   -0.28004  -0.23513  -0.18297
 Alpha virt. eigenvalues --    0.02848   0.04507   0.04702   0.05078   0.05515
 Alpha virt. eigenvalues --    0.05861   0.06216   0.07257   0.07808   0.08371
 Alpha virt. eigenvalues --    0.08630   0.09943   0.10803   0.11384   0.11904

 Mulliken charges:
               1
     1  H    1.601619
     2  O   -3.409857
     3  C    6.178957
     4  C   -0.309233
     5  O   -3.343975
     6  C   -3.208771
     7  N   -3.168332
     8  H    1.806660
     9  C   -5.320959
    10  H    1.321135
    11  H    1.180264
    12  P   12.541331
    13  H    1.317185
    14  H    1.167443
    15  C   -7.150717
    16  O   -3.069196
    17  O   -3.142374
    18  H    0.916078
    19  H    1.051997
    20  H    1.091759
    21  H    0.844319
    22  H    0.535086
    23  H    0.569582
 Sum of Mulliken charges =  -0.00000

 Dipole moment (field-independent basis, Debye):
    X=              4.3515    Y=              2.0591    Z=              1.1202  Tot=              4.9427

 Test job not archived.
 1\1\GINC-SE023\SP\RHF\Aug-CC-pVDZ\C5H12N1O4P1\OHZDE\08-Apr-2025\0\\#t
 hf aug-cc-pvdz iop(5/13=1,5/36=2,99/5=2) pseudo=read geom=check guess=
 (read,tcheck) scf=(maxcycle=1)\\title\\0,1\H,0,-0.40731,-1.46193,-0.83
 053\O,0,-1.25098,-1.81139,-0.40529\C,0,-2.04169,-0.80109,-0.00492\C,0,
 -1.55438,0.633,-0.31154\O,0,-3.08276,-1.00493,0.59023\C,0,-0.67101,1.1
 4569,0.8463\N,0,-2.65406,1.57828,-0.48995\H,0,-0.96172,0.61316,-1.2393
 4\C,0,0.53153,0.27535,1.2428\H,0,-0.33477,2.15757,0.57626\H,0,-1.31907
 ,1.25844,1.7302\P,0,1.70742,-0.03712,-0.10691\H,0,0.20856,-0.71312,1.6

 Normal termination of Gaussian 16 at Tue Apr  8 18:11:44 2025.
