 Gaussian 16, Revision C.01,

 ----------------------------------------------------------------------
 #t hf aug-cc-pvdz symm=none int=(grid=ultrafine) guess=(read,tcheck) s
 table=(opt,rrhf)
 ----------------------------------------------------------------------
 -----
 title
 -----
 Symbolic Z-matrix:
 Charge =  0 Multiplicity = 1

 SCF Done:  E(RHF) =  -1689.89144450     A.U. after   18 cycles
 Normal termination of Gaussian 16 at Tue Apr  8 18:13:55 2025.
 Gaussian 16:  ES64L-G16RevC.01  3-Jul-2019

 ----------------------------------------------------------------------
 #t hf aug-cc-pvdz iop(5/13=1,5/36=2,99/5=2) pseudo=read geom=check gue
 ss=(read,tcheck) scf=(maxcycle=1)
 ----------------------------------------------------------------------
 -----
 title
 -----
 Structure from the checkpoint file:  "37Conf8_Fotemustin_5_mol1.chk"
 Charge =  0 Multiplicity = 1

                         Standard orientation:
 ---------------------------------------------------------------------
 Center     Atomic      Atomic             Coordinates (Angstroms)
 Number     Number       Type             X           Y           Z
 ---------------------------------------------------------------------
      1          8           0        2.444039   -1.959720   -2.078280
      2          7           0        1.657009   -2.187710   -1.173890
      3          7           0        1.793489   -1.364870   -0.085970
      4          6           0        2.856969   -0.363990   -0.008210
      5          6           0        1.012269   -1.665840    1.082680
      6          6           0        2.449619    0.893440   -0.773190
      7          1           0        3.772589   -0.795050   -0.435440
      8          1           0        3.011849   -0.151860    1.055030
      9         17           0        3.602958    2.224860   -0.418510
     10          1           0        2.467579    0.727200   -1.855510
     11          1           0        1.452979    1.230730   -0.466760
     12          7           0       -0.252201   -2.127871    0.854740
     13          8           0        1.501919   -1.528640    2.195670
     14          6           0       -1.143091   -1.748831   -0.243000
     15          1           0       -0.723591   -2.354691    1.730690
     16         15           0       -1.978421   -0.171141    0.216000
     17          6           0       -2.154941   -2.851791   -0.533880
     18          1           0       -0.538701   -1.557331   -1.136310
     19          8           0       -2.477601    0.303159   -1.231990
     20          8           0       -0.773371    0.855219    0.557930
     21          8           0       -2.992431   -0.288041    1.295750
     22          6           0       -3.373491    1.450969   -1.343670
     23          6           0       -0.557171    1.317579    1.931400
     24          6           0       -2.608352    2.685109   -1.775300
     25          1           0       -4.123381    1.159219   -2.091680
     26          1           0       -3.888631    1.596929   -0.381960
     27          6           0       -0.053322    2.743169    1.885610
     28          1           0        0.177869    0.645619    2.399650
     29          1           0       -1.507471    1.232079    2.475660
     30          1           0       -2.092022    2.510169   -2.729050
     31          1           0       -3.305932    3.525039   -1.909410
     32          1           0       -1.861302    2.970309   -1.022910
     33          1           0        0.890458    2.822340    1.327480
     34          1           0       -0.793292    3.410249    1.421630
     35          1           0        0.131268    3.096269    2.910630
     36          1           0       -2.817411   -2.551031   -1.355720
     37          1           0       -1.626450   -3.770891   -0.820510
     38          1           0       -2.779841   -3.052341    0.347660
 ---------------------------------------------------------------------

 SCF Done:  E(RHF) =  -1694.37145510     A.U. after    2 cycles

 The electronic state is 1-A.
 Alpha  occ. eigenvalues -- -105.30629 -99.88645 -21.12157 -21.08676 -21.08288
 Alpha  occ. eigenvalues --  -21.05903 -21.02561 -15.91577 -15.80959 -15.79174
 Alpha  occ. eigenvalues --  -11.56117 -11.48772 -11.47915 -11.46753 -11.46295
 Alpha  occ. eigenvalues --  -11.42801 -11.40202 -11.38871 -11.38727 -10.45924
 Alpha  occ. eigenvalues --   -9.65887  -9.65138  -9.65098  -2.92620  -1.97513
 Alpha  occ. eigenvalues --   -1.91759  -1.89067  -1.81383  -1.75057  -1.57286
 Alpha  occ. eigenvalues --   -1.48932  -1.44128  -1.40745  -1.33585  -1.28826
 Alpha  occ. eigenvalues --   -1.14908  -1.13412  -1.12143  -1.11671  -1.00417
 Alpha  occ. eigenvalues --   -0.94288  -0.91008  -0.89257  -0.88182  -0.80758
 Alpha  occ. eigenvalues --   -0.74519  -0.71792  -0.70669  -0.66849  -0.66037
 Alpha  occ. eigenvalues --   -0.65908  -0.65190  -0.63019  -0.61585  -0.60625
 Alpha  occ. eigenvalues --   -0.59950  -0.58848  -0.56497  -0.56223  -0.56147
 Alpha  occ. eigenvalues --   -0.55315  -0.55018  -0.54486  -0.53986  -0.52513
 Alpha  occ. eigenvalues --   -0.52342  -0.52156  -0.50254  -0.48253  -0.48061
 Alpha  occ. eigenvalues --   -0.47422  -0.46360  -0.41108  -0.40493  -0.37222
 Alpha  occ. eigenvalues --   -0.35356  -0.35098  -0.34401  -0.32544  -0.30329
 Alpha  occ. eigenvalues --   -0.27088  -0.23437  -0.15501
 Alpha virt. eigenvalues --    0.03520   0.04355   0.04697   0.04802   0.05124
 Alpha virt. eigenvalues --    0.05585   0.06200   0.06362   0.06693   0.06853
 Alpha virt. eigenvalues --    0.07018   0.07350   0.07448   0.07694   0.08116

 Mulliken charges:
               1
     1  O   -2.310926
     2  N    1.104464
     3  N   -1.032565
     4  C   -2.369376
     5  C    6.358096
     6  C   -4.579633
     7  H    1.601138
     8  H    1.906889
     9  Cl   0.026502
    10  H    1.633316
    11  H    2.758595
    12  N   -2.587685
    13  O   -3.512791
    14  C   -4.916139
    15  H    0.615464
    16  P   14.110225
    17  C   -4.285442
    18  H    2.155757
    19  O   -3.547401
    20  O   -4.158287
    21  O   -3.541582
    22  C   -2.486372
    23  C   -3.974112
    24  C   -4.183771
    25  H    1.425706
    26  H    1.760426
    27  C   -3.893613
    28  H    1.829849
    29  H    1.793702
    30  H    1.347172
    31  H    1.148426
    32  H    1.711691
    33  H    1.520041
    34  H    1.547221
    35  H    1.127690
    36  H    1.210059
    37  H    1.363810
    38  H    1.323454
 Sum of Mulliken charges =   0.00000

 Dipole moment (field-independent basis, Debye):
    X=             -1.3698    Y=              0.6933    Z=             -2.6174  Tot=              3.0345

 Test job not archived.
 1\1\GINC-SE365\SP\RHF\Aug-CC-pVDZ\C9H19Cl1N3O5P1\OHZDE\08-Apr-2025\0\\
 #t hf aug-cc-pvdz iop(5/13=1,5/36=2,99/5=2) pseudo=read geom=check gue
 ss=(read,tcheck) scf=(maxcycle=1)\\title\\0,1\O,0,2.44404,-1.95972,-2.
 07828\N,0,1.65701,-2.18771,-1.17389\N,0,1.79349,-1.36487,-0.08597\C,0,
 2.85697,-0.36399,-0.00821\C,0,1.01227,-1.66584,1.08268\C,0,2.44962,0.8
 9344,-0.77319\H,0,3.77259,-0.79505,-0.43544\H,0,3.01185,-0.15186,1.055
 03\Cl,0,3.60296,2.22486,-0.41851\H,0,2.46758,0.7272,-1.85551\H,0,1.452
 98,1.23073,-0.46676\N,0,-0.2522,-2.12787,0.85474\O,0,1.50192,-1.52864,

 Normal termination of Gaussian 16 at Tue Apr  8 18:15:01 2025.
