 Gaussian 16, Revision C.01,

 ----------------------------------------------------------------------
 #t hf aug-cc-pvdz symm=none int=(grid=ultrafine) guess=(read,tcheck) s
 table=(opt,rrhf)
 ----------------------------------------------------------------------
 -----
 title
 -----
 Symbolic Z-matrix:
 Charge =  0 Multiplicity = 1

 SCF Done:  E(RHF) =  -1112.30643669     A.U. after   16 cycles
 Normal termination of Gaussian 16 at Tue Apr  8 17:51:19 2025.
 Gaussian 16:  ES64L-G16RevC.01  3-Jul-2019

 ----------------------------------------------------------------------
 #t hf aug-cc-pvdz iop(5/13=1,5/36=2,99/5=2) pseudo=read geom=check gue
 ss=(read,tcheck) scf=(maxcycle=1)
 ----------------------------------------------------------------------
 -----
 title
 -----
 Structure from the checkpoint file:  "37Conf8_Cimetidine_2_mol1.chk"
 Charge =  0 Multiplicity = 1

                         Standard orientation:
 ---------------------------------------------------------------------
 Center     Atomic      Atomic             Coordinates (Angstroms)
 Number     Number       Type             X           Y           Z
 ---------------------------------------------------------------------
      1          7           0       -0.642086    3.190482    0.445510
      2          6           0       -1.442947    2.326493    0.385340
      3          7           0       -2.389388    1.419034    0.359290
      4          6           0       -2.134919    0.218503   -0.151560
      5          7           0       -0.909500   -0.176778   -0.567410
      6          7           0       -3.178870   -0.640885   -0.298990
      7          6           0       -0.553371   -1.419618   -1.220550
      8          1           0       -0.129879    0.418061   -0.285810
      9          6           0       -4.516900   -0.303324    0.157120
     10          1           0       -2.956472   -1.621586   -0.415030
     11          6           0       -0.208523   -2.597429   -0.291680
     12          1           0        0.316869   -1.199119   -1.854650
     13          1           0       -1.369162   -1.719708   -1.899720
     14         16           0        0.941828   -2.259610    1.076170
     15          1           0       -1.102433   -2.977428    0.229540
     16          1           0        0.179436   -3.422049   -0.910720
     17          6           0        2.420938   -1.561802    0.227670
     18          6           0        2.267760   -0.158432   -0.256630
     19          1           0        3.204028   -1.653353    0.995300
     20          1           0        2.703408   -2.212582   -0.611370
     21          7           0        2.300980    0.139038   -1.609360
     22          6           0        2.000111    0.986229    0.482970
     23          6           0        2.051392    1.437059   -1.691950
     24          7           0        1.878613    1.993249   -0.456690
     25          6           0        1.855302    1.229319    1.944340
     26          1           0        1.976063    2.013519   -2.609460
     27          1           0        1.416044    2.884079   -0.253390
     28          1           0        1.588671    0.295549    2.455850
     29          1           0        2.789232    1.610098    2.388450
     30          1           0        1.063733    1.967550    2.139290
     31          1           0       -4.593890   -0.295434    1.256000
     32          1           0       -4.786109    0.694356   -0.208060
     33          1           0       -5.220081   -1.039143   -0.251870
 ---------------------------------------------------------------------

 SCF Done:  E(RHF) =  -1115.90663409     A.U. after    2 cycles

 The electronic state is 1-A.
 Alpha  occ. eigenvalues --  -75.68105 -15.78722 -15.78496 -15.77612 -15.73332
 Alpha  occ. eigenvalues --  -15.71994 -15.71910 -13.14185 -13.11796 -13.07131
 Alpha  occ. eigenvalues --  -11.53899 -11.47471 -11.47303 -11.45556 -11.44958
 Alpha  occ. eigenvalues --  -11.42702 -11.41590 -11.41551 -11.41274 -11.37606
 Alpha  occ. eigenvalues --   -8.02148  -1.56199  -1.55182  -1.37863  -1.36857
 Alpha  occ. eigenvalues --   -1.28078  -1.24709  -1.22234  -1.15712  -1.09486
 Alpha  occ. eigenvalues --   -1.03707  -1.00553  -0.95808  -0.89579  -0.85661
 Alpha  occ. eigenvalues --   -0.83703  -0.77000  -0.75316  -0.70851  -0.70294
 Alpha  occ. eigenvalues --   -0.67197  -0.65471  -0.63039  -0.62338  -0.61234
 Alpha  occ. eigenvalues --   -0.60023  -0.57938  -0.57111  -0.56860  -0.55624
 Alpha  occ. eigenvalues --   -0.54970  -0.53887  -0.53373  -0.51768  -0.51325
 Alpha  occ. eigenvalues --   -0.51085  -0.48070  -0.46409  -0.45439  -0.38444
 Alpha  occ. eigenvalues --   -0.37872  -0.37050  -0.35578  -0.34111  -0.31074
 Alpha  occ. eigenvalues --   -0.28346  -0.22989
 Alpha virt. eigenvalues --    0.02931   0.03956   0.04275   0.04595   0.04953
 Alpha virt. eigenvalues --    0.05685   0.05696   0.06170   0.06713   0.07182
 Alpha virt. eigenvalues --    0.07507   0.07817   0.08098   0.08815   0.09012

 Mulliken charges:
               1
     1  N   -2.792217
     2  C    3.155902
     3  N   -3.025000
     4  C    5.095973
     5  N   -1.288698
     6  N   -3.361134
     7  C   -3.223856
     8  H    1.439169
     9  C   -4.009595
    10  H    0.710043
    11  C   -4.071728
    12  H    2.017032
    13  H    1.572401
    14  S    1.191922
    15  H    1.785512
    16  H    1.391770
    17  C   -4.434207
    18  C    5.372813
    19  H    1.110095
    20  H    1.278612
    21  N   -4.086849
    22  C    1.940799
    23  C    0.420116
    24  N   -3.640001
    25  C   -5.460364
    26  H    1.951924
    27  H    0.981556
    28  H    1.325199
    29  H    1.109529
    30  H    1.278023
    31  H    1.403422
    32  H    1.417406
    33  H    1.444430
 Sum of Mulliken charges =   0.00000

 Dipole moment (field-independent basis, Debye):
    X=             -2.0614    Y=             -4.1778    Z=              0.3286  Tot=              4.6702

 Test job not archived.
 1\1\GINC-SE092\SP\RHF\Aug-CC-pVDZ\C10H16N6S1\OHZDE\08-Apr-2025\0\\#t h
 f aug-cc-pvdz iop(5/13=1,5/36=2,99/5=2) pseudo=read geom=check guess=(
 read,tcheck) scf=(maxcycle=1)\\title\\0,1\N,0,0.64209,3.19048,-0.44551
 \C,0,1.44295,2.32649,-0.38534\N,0,2.38939,1.41903,-0.35929\C,0,2.13492
 ,0.2185,0.15156\N,0,0.9095,-0.17678,0.56741\N,0,3.17887,-0.64089,0.298
 99\C,0,0.55337,-1.41962,1.22055\H,0,0.12988,0.41806,0.28581\C,0,4.5169
 ,-0.30333,-0.15712\H,0,2.95647,-1.62159,0.41503\C,0,0.20852,-2.59743,0
 .29168\H,0,-0.31687,-1.19912,1.85465\H,0,1.36916,-1.71971,1.89972\S,0,

 Normal termination of Gaussian 16 at Tue Apr  8 17:52:13 2025.
