 Gaussian 16, Revision C.01,

 ----------------------------------------------------------------------
 #t hf aug-cc-pvdz symm=none int=(grid=ultrafine) guess=(read,tcheck) s
 table=(opt,rrhf)
 ----------------------------------------------------------------------
 -----
 title
 -----
 Symbolic Z-matrix:
 Charge =  0 Multiplicity = 1

 SCF Done:  E(RHF) =  -1153.31888194     A.U. after   17 cycles
 Normal termination of Gaussian 16 at Tue Apr  8 18:57:31 2025.
 Gaussian 16:  ES64L-G16RevC.01  3-Jul-2019

 ----------------------------------------------------------------------
 #t hf aug-cc-pvdz iop(5/13=1,5/36=2,99/5=2) pseudo=read geom=check gue
 ss=(read,tcheck) scf=(maxcycle=1)
 ----------------------------------------------------------------------
 -----
 title
 -----
 Structure from the checkpoint file:  "37Conf8_Pyridoxalphosphate_8_mol1.chk"
 Charge =  0 Multiplicity = 1

                         Standard orientation:
 ---------------------------------------------------------------------
 Center     Atomic      Atomic             Coordinates (Angstroms)
 Number     Number       Type             X           Y           Z
 ---------------------------------------------------------------------
      1          1           0        4.030310    0.467988   -1.057321
      2          8           0        3.297850    1.029109   -0.740021
      3          6           0        2.379530    0.229479   -0.149091
      4          6           0        1.203170    0.791539    0.387949
      5          6           0        2.584550   -1.172131   -0.072621
      6          6           0        0.908871    2.245829    0.324699
      7          6           0        0.284190   -0.095071    0.998429
      8          7           0        1.699249   -1.986001    0.504319
      9          6           0        3.827309   -1.785032   -0.656441
     10          8           0        1.648881    3.104539   -0.120721
     11          1           0       -0.093029    2.523920    0.729849
     12          6           0        0.582750   -1.455621    1.025759
     13          6           0       -1.017530    0.358260    1.604889
     14          1           0        4.743160   -1.400342   -0.175311
     15          1           0        3.793669   -2.868912   -0.501851
     16          1           0        3.911440   -1.597132   -1.740861
     17          1           0       -0.122801   -2.157140    1.480169
     18          8           0       -1.974710    0.823790    0.605279
     19          1           0       -0.891240    1.211930    2.282159
     20          1           0       -1.470810   -0.473140    2.163129
     21         15           0       -2.654730   -0.284710   -0.339431
     22          8           0       -3.859760    0.555661   -0.982061
     23          8           0       -1.658040   -0.384110   -1.594911
     24          8           0       -2.987260   -1.568540    0.316389
     25          1           0       -4.622370    0.587801   -0.376611
     26          1           0       -1.604850   -1.309430   -1.895211
 ---------------------------------------------------------------------

 SCF Done:  E(RHF) =  -1157.05179263     A.U. after    2 cycles

 The electronic state is 1-A.
 Alpha  occ. eigenvalues -- -105.33902 -21.12663 -21.12480 -21.12014 -21.09839
 Alpha  occ. eigenvalues --  -21.06512 -21.03789 -15.76416 -11.54441 -11.50855
 Alpha  occ. eigenvalues --  -11.50231 -11.49100 -11.47805 -11.46003 -11.42624
 Alpha  occ. eigenvalues --  -11.40567  -2.96606  -2.00733  -1.93473  -1.91800
 Alpha  occ. eigenvalues --   -1.78365  -1.75796  -1.70104  -1.46900  -1.43799
 Alpha  occ. eigenvalues --   -1.41631  -1.27763  -1.23338  -1.16414  -1.07810
 Alpha  occ. eigenvalues --   -0.97950  -0.96221  -0.86129  -0.82518  -0.73544
 Alpha  occ. eigenvalues --   -0.69698  -0.68530  -0.67066  -0.64369  -0.62346
 Alpha  occ. eigenvalues --   -0.60777  -0.60526  -0.58852  -0.57510  -0.55652
 Alpha  occ. eigenvalues --   -0.54711  -0.52170  -0.52028  -0.48680  -0.48082
 Alpha  occ. eigenvalues --   -0.47915  -0.46310  -0.44622  -0.44034  -0.39130
 Alpha  occ. eigenvalues --   -0.36805  -0.35733  -0.35546  -0.35039  -0.29875
 Alpha  occ. eigenvalues --   -0.28854  -0.28771  -0.28288  -0.17906
 Alpha virt. eigenvalues --    0.02838   0.04298   0.04877   0.05483   0.05696
 Alpha virt. eigenvalues --    0.05871   0.06377   0.06484   0.07605   0.08082
 Alpha virt. eigenvalues --    0.08268   0.08966   0.09629   0.10230   0.11291

 Mulliken charges:
               1
     1  H    1.147366
     2  O   -4.913396
     3  C    5.379525
     4  C    2.098158
     5  C    1.121855
     6  C   -0.391558
     7  C    4.812542
     8  N   -4.588440
     9  C   -4.738345
    10  O   -3.181795
    11  H    1.426189
    12  C   -2.582952
    13  C   -2.614419
    14  H    1.083470
    15  H    1.231146
    16  H    1.102880
    17  H    1.795958
    18  O   -3.520421
    19  H    1.174408
    20  H    1.502751
    21  P    9.295995
    22  O   -2.683627
    23  O   -2.801191
    24  O   -2.789236
    25  H    0.847577
    26  H    0.785561
 Sum of Mulliken charges =  -0.00000

 Dipole moment (field-independent basis, Debye):
    X=              1.3223    Y=              1.7012    Z=             -1.4320  Tot=              2.5872

 Test job not archived.
 1\1\GINC-SE088\SP\RHF\Aug-CC-pVDZ\C8H10N1O6P1\OHZDE\08-Apr-2025\0\\#t
 hf aug-cc-pvdz iop(5/13=1,5/36=2,99/5=2) pseudo=read geom=check guess=
 (read,tcheck) scf=(maxcycle=1)\\title\\0,1\H,0,-4.03031,0.46799,1.0573
 2\O,0,-3.29785,1.02911,0.74002\C,0,-2.37953,0.22948,0.14909\C,0,-1.203
 17,0.79154,-0.38795\C,0,-2.58455,-1.17213,0.07262\C,0,-0.90887,2.24583
 ,-0.3247\C,0,-0.28419,-0.09507,-0.99843\N,0,-1.69925,-1.986,-0.50432\C
 ,0,-3.82731,-1.78503,0.65644\O,0,-1.64888,3.10454,0.12072\H,0,0.09303,
 2.52392,-0.72985\C,0,-0.58275,-1.45562,-1.02576\C,0,1.01753,0.35826,-1

 Normal termination of Gaussian 16 at Tue Apr  8 18:58:01 2025.
