 Gaussian 16, Revision C.01,

 ----------------------------------------------------------------------
 #t hf aug-cc-pvdz symm=none int=(grid=ultrafine) guess=(read,tcheck) s
 table=(opt,rrhf)
 ----------------------------------------------------------------------
 -----
 title
 -----
 Symbolic Z-matrix:
 Charge =  0 Multiplicity = 1

 SCF Done:  E(RHF) =  -1667.18272531     A.U. after   12 cycles
 Normal termination of Gaussian 16 at Tue Apr  8 18:28:15 2025.
 Gaussian 16:  ES64L-G16RevC.01  3-Jul-2019

 ----------------------------------------------------------------------
 #t hf aug-cc-pvdz iop(5/13=1,5/36=2,99/5=2) pseudo=read geom=check gue
 ss=(read,tcheck) scf=(maxcycle=1)
 ----------------------------------------------------------------------
 -----
 title
 -----
 Structure from the checkpoint file:  "37Conf8_N_iprit_2_mol1.chk"
 Charge =  0 Multiplicity = 1

                         Standard orientation:
 ---------------------------------------------------------------------
 Center     Atomic      Atomic             Coordinates (Angstroms)
 Number     Number       Type             X           Y           Z
 ---------------------------------------------------------------------
      1          1           0       -0.203792   -1.279998    1.999789
      2          6           0        0.051847   -1.454198    0.928379
      3          6           0        1.485677   -1.964010    0.919209
      4          7           0       -0.160071   -0.286018    0.100029
      5          1           0       -0.609774   -2.255348    0.566309
      6         17           0        2.010976   -2.501001   -0.715931
      7          1           0        2.196748   -1.191341    1.239379
      8          1           0        1.583766   -2.827300    1.589269
      9          6           0       -1.473871   -0.140367   -0.497941
     10          6           0        0.507911    0.939721    0.511559
     11          6           0       -2.583410    0.149365    0.517749
     12          1           0       -1.441750    0.674313   -1.237331
     13          1           0       -1.721892   -1.058236   -1.053281
     14          6           0        1.588681    1.316140   -0.500021
     15          1           0       -0.204478    1.776962    0.603449
     16          1           0        0.967000    0.818680    1.506959
     17         17           0       -4.165220    0.369077   -0.314491
     18          1           0       -2.389029    1.071685    1.079819
     19          1           0       -2.711592   -0.679895    1.224739
     20         17           0        2.430303    2.828478    0.006099
     21          1           0        1.154981    1.502080   -1.490021
     22          1           0        2.346300    0.529199   -0.589421
 ---------------------------------------------------------------------

 SCF Done:  E(RHF) =  -1669.37430033     A.U. after    2 cycles

 The electronic state is 1-A.
 Alpha  occ. eigenvalues --  -99.88417 -99.88363 -99.87917 -15.72550 -11.48579
 Alpha  occ. eigenvalues --  -11.48111 -11.46498 -11.42308 -11.41586 -11.41107
 Alpha  occ. eigenvalues --  -10.45692 -10.45656 -10.45200  -9.65632  -9.65581
 Alpha  occ. eigenvalues --   -9.65151  -9.65011  -9.64879  -9.64870  -9.64797
 Alpha  occ. eigenvalues --   -9.64393  -9.64339  -1.47931  -1.34098  -1.33455
 Alpha  occ. eigenvalues --   -1.31133  -1.13768  -1.13324  -1.02923  -0.92758
 Alpha  occ. eigenvalues --   -0.92509  -0.82848  -0.71593  -0.69832  -0.68468
 Alpha  occ. eigenvalues --   -0.65766  -0.65308  -0.61555  -0.60778  -0.59069
 Alpha  occ. eigenvalues --   -0.57756  -0.57667  -0.55646  -0.52626  -0.51484
 Alpha  occ. eigenvalues --   -0.51128  -0.48456  -0.48135  -0.47592  -0.46997
 Alpha  occ. eigenvalues --   -0.46450  -0.45766  -0.32449
 Alpha virt. eigenvalues --    0.03095   0.04096   0.05163   0.05265   0.05513
 Alpha virt. eigenvalues --    0.05694   0.06021   0.06501   0.06952   0.07489
 Alpha virt. eigenvalues --    0.08459   0.08618   0.08864   0.09451   0.09739

 Mulliken charges:
               1
     1  H    1.577513
     2  C   -2.010074
     3  C   -4.273159
     4  N   -2.288220
     5  H    1.741748
     6  Cl   0.033220
     7  H    1.788460
     8  H    1.184834
     9  C   -1.722014
    10  C   -2.037136
    11  C   -4.138238
    12  H    1.853924
    13  H    1.611692
    14  C   -3.964986
    15  H    1.663354
    16  H    1.890862
    17  Cl  -0.061443
    18  H    1.850448
    19  H    1.771278
    20  Cl  -0.031664
    21  H    1.705461
    22  H    1.854139
 Sum of Mulliken charges =   0.00000

 Dipole moment (field-independent basis, Debye):
    X=             -0.3094    Y=             -1.6892    Z=              2.3786  Tot=              2.9337

 Test job not archived.
 1\1\GINC-SE132\SP\RHF\Aug-CC-pVDZ\C6H12Cl3N1\OHZDE\08-Apr-2025\0\\#t h
 f aug-cc-pvdz iop(5/13=1,5/36=2,99/5=2) pseudo=read geom=check guess=(
 read,tcheck) scf=(maxcycle=1)\\title\\0,1\H,0,-0.20379,-1.28,1.99979\C
 ,0,0.05185,-1.4542,0.92838\C,0,1.48568,-1.96401,0.91921\N,0,-0.16007,-
 0.28602,0.10003\H,0,-0.60977,-2.25535,0.56631\Cl,0,2.01098,-2.501,-0.7
 1593\H,0,2.19675,-1.19134,1.23938\H,0,1.58377,-2.8273,1.58927\C,0,-1.4
 7387,-0.14037,-0.49794\C,0,0.50791,0.93972,0.51156\C,0,-2.58341,0.1493
 6,0.51775\H,0,-1.44175,0.67431,-1.23733\H,0,-1.72189,-1.05824,-1.05328

 Normal termination of Gaussian 16 at Tue Apr  8 18:28:30 2025.
