 Gaussian 16, Revision C.01,

 ----------------------------------------------------------------------
 #t hf aug-cc-pvdz symm=none int=(grid=ultrafine) guess=(read,tcheck) s
 table=(opt,rrhf)
 ----------------------------------------------------------------------
 -----
 title
 -----
 Symbolic Z-matrix:
 Charge =  0 Multiplicity = 1

 SCF Done:  E(RHF) =  -897.259083058     A.U. after   16 cycles
 Normal termination of Gaussian 16 at Tue Apr  8 19:19:53 2025.
 Gaussian 16:  ES64L-G16RevC.01  3-Jul-2019

 ----------------------------------------------------------------------
 #t hf aug-cc-pvdz iop(5/13=1,5/36=2,99/5=2) pseudo=read geom=check gue
 ss=(read,tcheck) scf=(maxcycle=1)
 ----------------------------------------------------------------------
 -----
 title
 -----
 Structure from the checkpoint file:  "37Conf8_Rolipram_2_mol2.chk"
 Charge =  0 Multiplicity = 1

                         Standard orientation:
 ---------------------------------------------------------------------
 Center     Atomic      Atomic             Coordinates (Angstroms)
 Number     Number       Type             X           Y           Z
 ---------------------------------------------------------------------
      1          1           0       -0.444535    4.178510    0.188429
      2          6           0       -0.203466    3.124030    0.060819
      3          6           0       -1.226127    2.179071   -0.012421
      4          6           0        1.139423    2.734038   -0.037141
      5          8           0       -2.559947    2.456803    0.070359
      6          6           0       -0.892049    0.810970   -0.200431
      7          1           0        1.921824    3.493707    0.024589
      8          6           0        1.482342    1.395547   -0.211601
      9          6           0       -2.925585    3.819233    0.244579
     10          8           0       -1.941790   -0.051008   -0.277661
     11          6           0        0.450120    0.444269   -0.296591
     12          6           0        2.935051    0.970145   -0.237321
     13          1           0       -2.584994    4.441233   -0.600901
     14          1           0       -4.020595    3.832125    0.287869
     15          1           0       -2.516855    4.231643    1.183039
     16          6           0       -1.651822   -1.440919   -0.543591
     17          1           0        0.698409   -0.606522   -0.429091
     18          1           0        3.546612    1.843155   -0.504001
     19          6           0        3.390300    0.425815    1.152659
     20          6           0        3.211069   -0.226875   -1.165631
     21          1           0       -0.952012   -1.484189   -1.393831
     22          6           0       -2.991263   -2.125477   -0.879121
     23          6           0       -1.087403   -2.189949    0.690729
     24          1           0        2.781361    0.845666    1.965819
     25          1           0        4.450441    0.670623    1.347249
     26          7           0        3.188858   -1.005575    1.019499
     27          1           0        2.529359   -0.293884   -2.021361
     28          1           0        4.241140   -0.207936   -1.556051
     29          6           0        3.078648   -1.459225   -0.268231
     30          1           0       -3.126803   -2.273617   -1.958611
     31          1           0       -3.795172   -1.458536   -0.532151
     32          6           0       -3.000755   -3.430057   -0.069471
     33          1           0       -0.251784   -2.834180    0.373609
     34          1           0       -0.690342   -1.486860    1.435059
     35          6           0       -2.251734   -3.045238    1.212219
     36          1           0        3.187948   -1.654545    1.799319
     37          8           0        2.907936   -2.622485   -0.611261
     38          1           0       -4.016425   -3.808665    0.111539
     39          1           0       -2.444956   -4.218668   -0.603061
     40          1           0       -2.908063   -2.438347    1.856899
     41          1           0       -1.916655   -3.910438    1.800959
 ---------------------------------------------------------------------

 SCF Done:  E(RHF) =  -901.461628575     A.U. after    2 cycles

 The electronic state is 1-A.
 Alpha  occ. eigenvalues --  -21.06934 -21.05961 -21.02227 -15.75969 -11.55824
 Alpha  occ. eigenvalues --  -11.51305 -11.49669 -11.49579 -11.48116 -11.46367
 Alpha  occ. eigenvalues --  -11.44515 -11.43871 -11.43835 -11.42382 -11.41467
 Alpha  occ. eigenvalues --  -11.40499 -11.39318 -11.38581 -11.37156 -11.34281
 Alpha  occ. eigenvalues --   -1.80594  -1.75237  -1.69227  -1.44759  -1.31456
 Alpha  occ. eigenvalues --   -1.29706  -1.17577  -1.08906  -1.07855  -1.04363
 Alpha  occ. eigenvalues --   -1.03809  -1.00941  -0.98433  -0.88642  -0.86950
 Alpha  occ. eigenvalues --   -0.82496  -0.80854  -0.80613  -0.79304  -0.70306
 Alpha  occ. eigenvalues --   -0.68579  -0.67463  -0.66412  -0.65696  -0.64066
 Alpha  occ. eigenvalues --   -0.62135  -0.61472  -0.60120  -0.58920  -0.58223
 Alpha  occ. eigenvalues --   -0.57781  -0.56663  -0.54948  -0.53767  -0.52327
 Alpha  occ. eigenvalues --   -0.51024  -0.49402  -0.49080  -0.47669  -0.47143
 Alpha  occ. eigenvalues --   -0.45359  -0.45207  -0.44614  -0.43815  -0.43098
 Alpha  occ. eigenvalues --   -0.42008  -0.39731  -0.39702  -0.38778  -0.35671
 Alpha  occ. eigenvalues --   -0.30906  -0.29170  -0.27481  -0.22907
 Alpha virt. eigenvalues --    0.03537   0.04191   0.04453   0.04654   0.04671
 Alpha virt. eigenvalues --    0.04911   0.05782   0.05947   0.06141   0.06287
 Alpha virt. eigenvalues --    0.06581   0.06916   0.07123   0.07232   0.08107

 Mulliken charges:
               1
     1  H    1.858451
     2  C   -3.519910
     3  C    2.605745
     4  C   -2.096224
     5  O   -4.999946
     6  C    2.958934
     7  H    1.975934
     8  C    5.692454
     9  C   -4.119048
    10  O   -5.513409
    11  C   -0.144898
    12  C   -2.142668
    13  H    1.361104
    14  H    1.525711
    15  H    1.330885
    16  C    1.389867
    17  H    4.920929
    18  H    1.130969
    19  C   -4.350575
    20  C   -5.834899
    21  H    1.735910
    22  C   -4.484783
    23  C   -3.455738
    24  H    1.703961
    25  H    1.487734
    26  N   -2.935484
    27  H    1.545177
    28  H    1.538938
    29  C    6.675111
    30  H    1.312867
    31  H    1.545785
    32  C   -3.245843
    33  H    1.584537
    34  H    1.984665
    35  C   -3.389990
    36  H    0.844814
    37  O   -3.866075
    38  H    1.336570
    39  H    1.477039
    40  H    1.382994
    41  H    1.192402
 Sum of Mulliken charges =  -0.00000

 Dipole moment (field-independent basis, Debye):
    X=             -1.0912    Y=              1.6585    Z=              1.4390  Tot=              2.4520

 Test job not archived.
 1\1\GINC-SE079\SP\RHF\Aug-CC-pVDZ\C16H21N1O3\OHZDE\08-Apr-2025\0\\#t h
 f aug-cc-pvdz iop(5/13=1,5/36=2,99/5=2) pseudo=read geom=check guess=(
 read,tcheck) scf=(maxcycle=1)\\title\\0,1\H,0,-0.44454,4.17851,0.18843
 \C,0,-0.20347,3.12403,0.06082\C,0,-1.22613,2.17907,-0.01242\C,0,1.1394
 2,2.73404,-0.03714\O,0,-2.55995,2.4568,0.07036\C,0,-0.89205,0.81097,-0
 .20043\H,0,1.92182,3.49371,0.02459\C,0,1.48234,1.39555,-0.2116\C,0,-2.
 92559,3.81923,0.24458\O,0,-1.94179,-0.05101,-0.27766\C,0,0.45012,0.444
 27,-0.29659\C,0,2.93505,0.97015,-0.23732\H,0,-2.585,4.44123,-0.6009\H,

 Normal termination of Gaussian 16 at Tue Apr  8 19:21:24 2025.
