 Gaussian 16, Revision C.01,

 ----------------------------------------------------------------------
 #t hf aug-cc-pvdz symm=none int=(grid=ultrafine) guess=(read,tcheck) s
 table=(opt,rrhf)
 ----------------------------------------------------------------------
 -----
 title
 -----
 Symbolic Z-matrix:
 Charge =  0 Multiplicity = 1

 SCF Done:  E(RHF) =  -1667.18579412     A.U. after   12 cycles
 Normal termination of Gaussian 16 at Tue Apr  8 18:28:12 2025.
 Gaussian 16:  ES64L-G16RevC.01  3-Jul-2019

 ----------------------------------------------------------------------
 #t hf aug-cc-pvdz iop(5/13=1,5/36=2,99/5=2) pseudo=read geom=check gue
 ss=(read,tcheck) scf=(maxcycle=1)
 ----------------------------------------------------------------------
 -----
 title
 -----
 Structure from the checkpoint file:  "37Conf8_N_iprit_2_mol2.chk"
 Charge =  0 Multiplicity = 1

                         Standard orientation:
 ---------------------------------------------------------------------
 Center     Atomic      Atomic             Coordinates (Angstroms)
 Number     Number       Type             X           Y           Z
 ---------------------------------------------------------------------
      1          1           0       -1.362562    1.527849    0.645422
      2          6           0       -0.275391    1.387276    0.561972
      3          6           0        0.255152    2.328091   -0.512518
      4          7           0        0.000011   -0.000270    0.198862
      5          1           0        0.156761    1.658652    1.545772
      6         17           0       -0.026806    4.043526   -0.048408
      7          1           0       -0.253447    2.154759   -1.468208
      8          1           0        1.336715    2.212598   -0.657598
      9          6           0       -1.064040   -0.932625    0.561482
     10          6           0        1.339413   -0.455462    0.561842
     11          6           0       -2.144844   -0.941981   -0.512238
     12          1           0       -0.642475   -1.944692    0.643252
     13          1           0       -1.514404   -0.695265    1.545942
     14          6           0        1.888822   -1.385874   -0.512188
     15          1           0        2.004759    0.415871    0.644462
     16          1           0        1.358736   -0.964726    1.546002
     17         17           0       -3.488768   -2.045131   -0.049008
     18          1           0       -1.741010   -1.293990   -1.468828
     19          1           0       -2.586225    0.052458   -0.655298
     20         17           0        3.516024   -1.998006   -0.048378
     21          1           0        1.992126   -0.859415   -1.468348
     22          1           0        1.248621   -2.265379   -0.656268
 ---------------------------------------------------------------------

 SCF Done:  E(RHF) =  -1669.37675761     A.U. after    2 cycles

 The electronic state is 1-A.
 Alpha  occ. eigenvalues --  -99.88599 -99.88598 -99.88597 -15.73461 -11.49256
 Alpha  occ. eigenvalues --  -11.47519 -11.47518 -11.42085 -11.42084 -11.41457
 Alpha  occ. eigenvalues --  -10.45884 -10.45883 -10.45882  -9.65839  -9.65825
 Alpha  occ. eigenvalues --   -9.65825  -9.65069  -9.65069  -9.65041  -9.64991
 Alpha  occ. eigenvalues --   -9.64990  -9.64974  -1.48491  -1.34243  -1.34242
 Alpha  occ. eigenvalues --   -1.31463  -1.13898  -1.13897  -1.02359  -0.92260
 Alpha  occ. eigenvalues --   -0.92257  -0.84784  -0.71052  -0.71048  -0.68772
 Alpha  occ. eigenvalues --   -0.65150  -0.65146  -0.63180  -0.59766  -0.59009
 Alpha  occ. eigenvalues --   -0.59006  -0.56454  -0.56452  -0.54020  -0.52029
 Alpha  occ. eigenvalues --   -0.52026  -0.48637  -0.48120  -0.47925  -0.47924
 Alpha  occ. eigenvalues --   -0.45102  -0.45100  -0.34578
 Alpha virt. eigenvalues --    0.03536   0.04752   0.04752   0.05409   0.05720
 Alpha virt. eigenvalues --    0.05746   0.05747   0.06532   0.06533   0.07447
 Alpha virt. eigenvalues --    0.07979   0.07980   0.08697   0.09144   0.09146

 Mulliken charges:
               1
     1  H    1.861983
     2  C   -2.111037
     3  C   -3.944640
     4  N   -2.878278
     5  H    1.718209
     6  Cl  -0.074507
     7  H    1.662024
     8  H    1.846827
     9  C   -2.109194
    10  C   -2.109823
    11  C   -3.945084
    12  H    1.861695
    13  H    1.718273
    14  C   -3.944396
    15  H    1.862326
    16  H    1.718340
    17  Cl  -0.074459
    18  H    1.662274
    19  H    1.846016
    20  Cl  -0.074561
    21  H    1.661668
    22  H    1.846345
 Sum of Mulliken charges =  -0.00000

 Dipole moment (field-independent basis, Debye):
    X=             -0.0015    Y=             -0.0010    Z=             -0.5874  Tot=              0.5874

 Test job not archived.
 1\1\GINC-SE456\SP\RHF\Aug-CC-pVDZ\C6H12Cl3N1\OHZDE\08-Apr-2025\0\\#t h
 f aug-cc-pvdz iop(5/13=1,5/36=2,99/5=2) pseudo=read geom=check guess=(
 read,tcheck) scf=(maxcycle=1)\\title\\0,1\H,0,-1.35964,1.53045,0.64542
 \C,0,-0.27274,1.3878,0.56197\C,0,0.2596,2.3276,-0.51252\N,0,0.00001,-0
 .00027,0.19886\H,0,0.15993,1.65835,1.54577\Cl,0,-0.01908,4.04357,-0.04
 841\H,0,-0.24933,2.15524,-1.46821\H,0,1.34094,2.21004,-0.6576\C,0,-1.0
 6582,-0.93059,0.56148\C,0,1.33854,-0.45802,0.56184\C,0,-2.14664,-0.937
 88,-0.51224\H,0,-0.64619,-1.94346,0.64325\H,0,-1.51573,-0.69237,1.5459

 Normal termination of Gaussian 16 at Tue Apr  8 18:28:26 2025.
