 Gaussian 16, Revision C.01,

 ----------------------------------------------------------------------
 #t hf aug-cc-pvdz symm=none int=(grid=ultrafine) guess=(read,tcheck) s
 table=(opt,rrhf)
 ----------------------------------------------------------------------
 -----
 title
 -----
 Symbolic Z-matrix:
 Charge =  0 Multiplicity = 1

 SCF Done:  E(RHF) =  -983.492311277     A.U. after   14 cycles
 Normal termination of Gaussian 16 at Tue Apr  8 19:24:25 2025.
 Gaussian 16:  ES64L-G16RevC.01  3-Jul-2019

 ----------------------------------------------------------------------
 #t hf aug-cc-pvdz iop(5/13=1,5/36=2,99/5=2) pseudo=read geom=check gue
 ss=(read,tcheck) scf=(maxcycle=1)
 ----------------------------------------------------------------------
 -----
 title
 -----
 Structure from the checkpoint file:  "37Conf8_Tsogoeva_2_mol2.chk"
 Charge =  0 Multiplicity = 1

                         Standard orientation:
 ---------------------------------------------------------------------
 Center     Atomic      Atomic             Coordinates (Angstroms)
 Number     Number       Type             X           Y           Z
 ---------------------------------------------------------------------
      1          1           0        5.258510   -0.746550   -0.973430
      2          8           0        5.889250   -0.066370   -0.575430
      3          6           0        5.044590    0.881230   -0.128130
      4          6           0        3.579290    0.584720   -0.509900
      5          8           0        5.398260    1.868520    0.480310
      6          1           0        3.371350    1.192580   -1.403420
      7          7           0        3.455150   -0.845920   -0.853310
      8          6           0        2.583170    0.891120    0.630190
      9          1           0        2.667930   -0.943000   -1.505080
     10          6           0        3.041540   -1.490190    0.404980
     11          1           0        3.071250    1.481930    1.416170
     12          1           0        1.722870    1.463260    0.262500
     13          6           0        2.110050   -0.497820    1.144630
     14          1           0        3.935060   -1.664350    1.026030
     15          1           0        2.564480   -2.458180    0.210040
     16          1           0        2.259540   -0.581320    2.229240
     17          7           0        0.687400   -0.747920    0.933020
     18          6           0        0.055210   -0.834720   -0.258050
     19          1           0        0.036860   -0.750380    1.725440
     20          6           0       -1.466500   -1.047061   -0.118790
     21          8           0        0.601530   -0.793520   -1.369190
     22          1           0       -1.628130   -2.131731   -0.216050
     23          7           0       -1.950000   -0.596791    1.198060
     24          6           0       -2.258370   -0.267761   -1.192460
     25          1           0       -2.842110   -1.071701    1.372510
     26          6           0       -2.275180    0.821579    0.995160
     27          1           0       -3.090870   -0.874111   -1.568630
     28          1           0       -1.612870   -0.004021   -2.039810
     29          6           0       -2.816650    0.979129   -0.453820
     30          1           0       -2.985130    1.172609    1.753480
     31          1           0       -1.351100    1.415799    1.088440
     32          1           0       -2.421480    1.902269   -0.898380
     33          7           0       -4.273320    1.112189   -0.538160
     34          6           0       -5.168970    0.224889   -0.018920
     35          1           0       -4.638550    1.873119   -1.099150
     36          6           0       -6.627940    0.517679   -0.312810
     37          8           0       -4.831680   -0.758011    0.648500
     38          1           0       -7.037250   -0.309821   -0.908690
     39          1           0       -6.795590    1.460499   -0.850390
     40          1           0       -7.179700    0.540479    0.635970
 ---------------------------------------------------------------------

 SCF Done:  E(RHF) =  -987.977984415     A.U. after    2 cycles

 The electronic state is 1-A.
 Alpha  occ. eigenvalues --  -21.08578 -21.03561 -21.03042 -21.02937 -15.78166
 Alpha  occ. eigenvalues --  -15.76161 -15.72785 -15.72673 -11.57391 -11.56396
 Alpha  occ. eigenvalues --  -11.52683 -11.52191 -11.50536 -11.45634 -11.45008
 Alpha  occ. eigenvalues --  -11.43188 -11.42685 -11.40761 -11.38889 -11.38363
 Alpha  occ. eigenvalues --   -1.79521  -1.71930  -1.70748  -1.63225  -1.48159
 Alpha  occ. eigenvalues --   -1.45706  -1.39222  -1.35819  -1.15067  -1.13843
 Alpha  occ. eigenvalues --   -1.11452  -1.09488  -1.06537  -0.93394  -0.91571
 Alpha  occ. eigenvalues --   -0.88936  -0.85532  -0.78815  -0.77028  -0.74585
 Alpha  occ. eigenvalues --   -0.74364  -0.73287  -0.69964  -0.69532  -0.69157
 Alpha  occ. eigenvalues --   -0.65304  -0.63925  -0.63211  -0.62829  -0.61639
 Alpha  occ. eigenvalues --   -0.57387  -0.56743  -0.54861  -0.54352  -0.52893
 Alpha  occ. eigenvalues --   -0.52688  -0.51728  -0.50243  -0.49723  -0.49168
 Alpha  occ. eigenvalues --   -0.48197  -0.47466  -0.47014  -0.46723  -0.45982
 Alpha  occ. eigenvalues --   -0.45627  -0.44727  -0.42070  -0.37588  -0.36594
 Alpha  occ. eigenvalues --   -0.31816  -0.31329  -0.30669  -0.30364  -0.28471
 Alpha  occ. eigenvalues --   -0.26947
 Alpha virt. eigenvalues --    0.02485   0.03218   0.03809   0.04268   0.04644
 Alpha virt. eigenvalues --    0.05129   0.05331   0.05664   0.05945   0.06315
 Alpha virt. eigenvalues --    0.06557   0.06722   0.07343   0.07608   0.08290

 Mulliken charges:
               1
     1  H    1.247162
     2  O   -3.423723
     3  C    6.656937
     4  C   -2.404946
     5  O   -3.443616
     6  H    2.019254
     7  N   -1.891464
     8  C   -3.474727
     9  H    0.904405
    10  C   -3.790404
    11  H    1.521019
    12  H    1.667648
    13  C    0.637156
    14  H    1.626764
    15  H    1.525072
    16  H    2.182226
    17  N   -4.052336
    18  C    7.645141
    19  H    0.884289
    20  C   -2.664328
    21  O   -3.983790
    22  H    1.924436
    23  N   -2.052826
    24  C   -3.525854
    25  H    0.980874
    26  C   -3.797999
    27  H    1.595108
    28  H    1.555433
    29  C    0.554996
    30  H    1.503792
    31  H    1.632507
    32  H    2.039144
    33  N   -3.455976
    34  C    5.723471
    35  H    0.822034
    36  C   -5.401691
    37  O   -3.409011
    38  H    1.268443
    39  H    1.409586
    40  H    1.245792
 Sum of Mulliken charges =   0.00000

 Dipole moment (field-independent basis, Debye):
    X=             -6.4154    Y=              0.1296    Z=             -0.3448  Tot=              6.4260

 Test job not archived.
 1\1\GINC-SE143\SP\RHF\Aug-CC-pVDZ\C12H20N4O4\OHZDE\08-Apr-2025\0\\#t h
 f aug-cc-pvdz iop(5/13=1,5/36=2,99/5=2) pseudo=read geom=check guess=(
 read,tcheck) scf=(maxcycle=1)\\title\\0,1\H,0,5.25851,-0.74655,-0.9734
 3\O,0,5.88925,-0.06637,-0.57543\C,0,5.04459,0.88123,-0.12813\C,0,3.579
 29,0.58472,-0.5099\O,0,5.39826,1.86852,0.48031\H,0,3.37135,1.19258,-1.
 40342\N,0,3.45515,-0.84592,-0.85331\C,0,2.58317,0.89112,0.63019\H,0,2.
 66793,-0.943,-1.50508\C,0,3.04154,-1.49019,0.40498\H,0,3.07125,1.48193
 ,1.41617\H,0,1.72287,1.46326,0.2625\C,0,2.11005,-0.49782,1.14463\H,0,3

 Normal termination of Gaussian 16 at Tue Apr  8 19:25:42 2025.
