 Gaussian 16, Revision C.01,

 ----------------------------------------------------------------------
 #t hf aug-cc-pvdz symm=none int=(grid=ultrafine) guess=(read,tcheck) s
 table=(opt,rrhf)
 ----------------------------------------------------------------------
 -----
 title
 -----
 Symbolic Z-matrix:
 Charge =  0 Multiplicity = 1

 SCF Done:  E(RHF) =  -1542.35879090     A.U. after   17 cycles
 Normal termination of Gaussian 16 at Tue Apr  8 19:01:06 2025.
 Gaussian 16:  ES64L-G16RevC.01  3-Jul-2019

 ----------------------------------------------------------------------
 #t hf aug-cc-pvdz iop(5/13=1,5/36=2,99/5=2) pseudo=read geom=check gue
 ss=(read,tcheck) scf=(maxcycle=1)
 ----------------------------------------------------------------------
 -----
 title
 -----
 Structure from the checkpoint file:  "37Conf8_Indometacin_6_mol1.chk"
 Charge =  0 Multiplicity = 1

                         Standard orientation:
 ---------------------------------------------------------------------
 Center     Atomic      Atomic             Coordinates (Angstroms)
 Number     Number       Type             X           Y           Z
 ---------------------------------------------------------------------
      1          1           0       -2.391372    4.936240    0.304881
      2          8           0       -1.631542    4.848200   -0.301249
      3          6           0       -1.100401    3.593121   -0.187829
      4          6           0       -1.758621    2.713480    0.883251
      5          8           0       -0.160661    3.272451   -0.871919
      6          6           0       -1.413000    1.269820    0.770161
      7          1           0       -2.852191    2.845720    0.847621
      8          1           0       -1.434011    3.128660    1.856011
      9          6           0       -2.297240    0.219040    0.333151
     10          6           0       -0.184800    0.714401    1.042611
     11          6           0       -3.628740    0.208500   -0.088659
     12          6           0       -1.562259   -0.992730    0.386171
     13          7           0       -0.247240   -0.670459    0.782041
     14          6           0        0.992520    1.391651    1.657061
     15          1           0       -4.226590    1.118689   -0.156849
     16          6           0       -4.212219   -1.011851   -0.446159
     17          6           0       -2.135309   -2.208070    0.028971
     18          6           0        0.803611   -1.611879    0.797691
     19          1           0        1.673819    1.817612    0.907131
     20          1           0        0.641039    2.222641    2.285521
     21          1           0        1.574450    0.709932    2.290581
     22          8           0       -5.522899   -0.945841   -0.843029
     23          6           0       -3.469889   -2.208370   -0.387719
     24          1           0       -1.570989   -3.135780    0.092841
     25          6           0        2.147761   -1.139578    0.364481
     26          8           0        0.590101   -2.787189    1.069731
     27          6           0       -6.154639   -2.159461   -1.231669
     28          1           0       -3.930779   -3.156501   -0.658189
     29          6           0        3.281341   -1.774608    0.892791
     30          6           0        2.304800   -0.179988   -0.647109
     31          1           0       -5.646449   -2.623121   -2.094109
     32          1           0       -7.177149   -1.886812   -1.517069
     33          1           0       -6.189209   -2.883491   -0.399969
     34          1           0        3.146271   -2.545208    1.652781
     35          6           0        4.554961   -1.432067    0.452891
     36          1           0        1.429850    0.305412   -1.083039
     37          6           0        3.573860    0.153472   -1.113759
     38          1           0        5.441191   -1.907987    0.871691
     39          6           0        4.691020   -0.467497   -0.550809
     40          1           0        3.700370    0.889222   -1.907329
     41         17           0        6.279170   -0.041606   -1.113419
 ---------------------------------------------------------------------

 SCF Done:  E(RHF) =  -1547.54207164     A.U. after    2 cycles

 The electronic state is 1-A.
 Alpha  occ. eigenvalues --  -99.90617 -21.13197 -21.07149 -21.05974 -21.05716
 Alpha  occ. eigenvalues --  -15.78642 -11.55938 -11.55276 -11.55019 -11.54400
 Alpha  occ. eigenvalues --  -11.51553 -11.48306 -11.48085 -11.47574 -11.46871
 Alpha  occ. eigenvalues --  -11.46816 -11.46253 -11.45545 -11.44567 -11.44166
 Alpha  occ. eigenvalues --  -11.42228 -11.41738 -11.41149 -11.39877 -11.38311
 Alpha  occ. eigenvalues --  -10.48022  -9.68064  -9.67142  -9.66952  -1.82438
 Alpha  occ. eigenvalues --   -1.78219  -1.73126  -1.65922  -1.53007  -1.41481
 Alpha  occ. eigenvalues --   -1.30731  -1.27908  -1.23315  -1.13116  -1.12347
 Alpha  occ. eigenvalues --   -1.12218  -1.10650  -1.07664  -1.00113  -0.98659
 Alpha  occ. eigenvalues --   -0.92630  -0.90268  -0.87152  -0.85648  -0.82082
 Alpha  occ. eigenvalues --   -0.78483  -0.77091  -0.72872  -0.69883  -0.69413
 Alpha  occ. eigenvalues --   -0.68339  -0.65815  -0.64789  -0.64451  -0.63986
 Alpha  occ. eigenvalues --   -0.62092  -0.61573  -0.60978  -0.60472  -0.59397
 Alpha  occ. eigenvalues --   -0.58361  -0.58358  -0.57106  -0.56553  -0.55257
 Alpha  occ. eigenvalues --   -0.54042  -0.52977  -0.51810  -0.51153  -0.50485
 Alpha  occ. eigenvalues --   -0.50110  -0.49256  -0.48604  -0.48250  -0.46668
 Alpha  occ. eigenvalues --   -0.45212  -0.44384  -0.43054  -0.39232  -0.38575
 Alpha  occ. eigenvalues --   -0.36693  -0.35719  -0.34669  -0.33816  -0.30997
 Alpha  occ. eigenvalues --   -0.30495  -0.27531  -0.24527
 Alpha virt. eigenvalues --    0.02863   0.03926   0.04366   0.04902   0.05089
 Alpha virt. eigenvalues --    0.05539   0.05705   0.05883   0.06184   0.06736
 Alpha virt. eigenvalues --    0.06930   0.07295   0.07438   0.07624   0.07773

 Mulliken charges:
               1
     1  H    1.041929
     2  O   -3.261736
     3  C    5.589619
     4  C   -2.953458
     5  O   -3.186219
     6  C   -0.299375
     7  H    1.403071
     8  H    1.295502
     9  C    3.397376
    10  C    3.255174
    11  C   -0.232767
    12  C    3.924240
    13  N   -5.840006
    14  C   -6.537842
    15  H    2.060744
    16  C    5.836415
    17  C   -3.080721
    18  C    2.174763
    19  H    1.398697
    20  H    0.900097
    21  H    1.492245
    22  O   -5.082890
    23  C   -5.420259
    24  H    2.035658
    25  C    3.958531
    26  O   -3.886825
    27  C   -3.796938
    28  H    1.814626
    29  C   -1.410916
    30  C   -1.251882
    31  H    1.376504
    32  H    1.451759
    33  H    1.392477
    34  H    1.856000
    35  C   -1.396585
    36  H    2.489499
    37  C   -2.196618
    38  H    1.779718
    39  C   -3.028378
    40  H    1.811294
    41  Cl  -0.872522
 Sum of Mulliken charges =  -0.00000

 Dipole moment (field-independent basis, Debye):
    X=             -1.7640    Y=              0.1205    Z=              1.3986  Tot=              2.2544

 Test job not archived.
 1\1\GINC-SE366\SP\RHF\Aug-CC-pVDZ\C19H16Cl1N1O4\OHZDE\08-Apr-2025\0\\#
 t hf aug-cc-pvdz iop(5/13=1,5/36=2,99/5=2) pseudo=read geom=check gues
 s=(read,tcheck) scf=(maxcycle=1)\\title\\0,1\H,0,-2.39137,4.93624,0.30
 488\O,0,-1.63154,4.8482,-0.30125\C,0,-1.1004,3.59312,-0.18783\C,0,-1.7
 5862,2.71348,0.88325\O,0,-0.16066,3.27245,-0.87192\C,0,-1.413,1.26982,
 0.77016\H,0,-2.85219,2.84572,0.84762\H,0,-1.43401,3.12866,1.85601\C,0,
 -2.29724,0.21904,0.33315\C,0,-0.1848,0.7144,1.04261\C,0,-3.62874,0.208
 5,-0.08866\C,0,-1.56226,-0.99273,0.38617\N,0,-0.24724,-0.67046,0.78204

 Normal termination of Gaussian 16 at Tue Apr  8 19:02:34 2025.
