 Gaussian 16, Revision C.01,

 ----------------------------------------------------------------------
 #t hf aug-cc-pvdz symm=none int=(grid=ultrafine) guess=(read,tcheck) s
 table=(opt,rrhf)
 ----------------------------------------------------------------------
 -----
 title
 -----
 Symbolic Z-matrix:
 Charge =  0 Multiplicity = 1

 SCF Done:  E(RHF) =  -1542.36145684     A.U. after   17 cycles
 Normal termination of Gaussian 16 at Tue Apr  8 18:57:57 2025.
 Gaussian 16:  ES64L-G16RevC.01  3-Jul-2019

 ----------------------------------------------------------------------
 #t hf aug-cc-pvdz iop(5/13=1,5/36=2,99/5=2) pseudo=read geom=check gue
 ss=(read,tcheck) scf=(maxcycle=1)
 ----------------------------------------------------------------------
 -----
 title
 -----
 Structure from the checkpoint file:  "37Conf8_Indometacin_4_mol1.chk"
 Charge =  0 Multiplicity = 1

                         Standard orientation:
 ---------------------------------------------------------------------
 Center     Atomic      Atomic             Coordinates (Angstroms)
 Number     Number       Type             X           Y           Z
 ---------------------------------------------------------------------
      1          1           0        2.441029    1.704369    1.514590
      2          8           0        3.007070    2.508249    1.545960
      3          6           0        2.945060    3.104189    0.328200
      4          6           0        2.004510    2.445189   -0.696390
      5          8           0        3.583090    4.101029    0.084980
      6          6           0        1.392809    1.145959   -0.287900
      7          1           0        2.596790    2.328489   -1.617450
      8          1           0        1.239470    3.198559   -0.933980
      9          6           0        2.089889   -0.119931   -0.242430
     10          6           0        0.105769    0.938070    0.170550
     11          6           0        3.398219   -0.486681   -0.599520
     12          6           0        1.191819   -1.076921    0.276900
     13          7           0       -0.040831   -0.427890    0.493420
     14          6           0       -0.933380    1.971310    0.452720
     15          1           0        4.089459    0.256599   -0.994010
     16          6           0        3.774479   -1.820721   -0.426290
     17          6           0        1.565489   -2.413261    0.443490
     18          6           0       -1.181741   -1.090750    1.004920
     19          1           0       -1.700610    2.041820   -0.331930
     20          1           0       -0.451820    2.953350    0.541460
     21          1           0       -1.459471    1.770280    1.396170
     22          8           0        5.013729   -2.314991   -0.721290
     23          6           0        2.859909   -2.768471    0.087200
     24          1           0        0.878389   -3.144921    0.862410
     25          6           0       -2.509791   -0.657030    0.493120
     26          8           0       -1.064451   -2.035210    1.773500
     27          6           0        5.981279   -1.394811   -1.215520
     28          1           0        3.205739   -3.794881    0.211430
     29          6           0       -3.622331   -0.759110    1.340790
     30          6           0       -2.696401   -0.279890   -0.844600
     31          1           0        5.661369   -0.949331   -2.172800
     32          1           0        6.896229   -1.976511   -1.373160
     33          1           0        6.178679   -0.589351   -0.488340
     34          1           0       -3.472841   -1.088710    2.369680
     35          6           0       -4.895851   -0.447890    0.877650
     36          1           0       -1.839481   -0.231100   -1.518540
     37          6           0       -3.970271    0.006730   -1.328400
     38          1           0       -5.762231   -0.505860    1.535820
     39          6           0       -5.060671   -0.066410   -0.457950
     40          1           0       -4.125041    0.282160   -2.371190
     41         17           0       -6.649301    0.311190   -1.047560
 ---------------------------------------------------------------------

 SCF Done:  E(RHF) =  -1547.54815524     A.U. after    2 cycles

 The electronic state is 1-A.
 Alpha  occ. eigenvalues --  -99.91745 -21.11731 -21.07889 -21.07183 -21.04676
 Alpha  occ. eigenvalues --  -15.80216 -11.57362 -11.56264 -11.55604 -11.53987
 Alpha  occ. eigenvalues --  -11.53111 -11.49413 -11.49169 -11.48764 -11.48183
 Alpha  occ. eigenvalues --  -11.47692 -11.47298 -11.46611 -11.45839 -11.45473
 Alpha  occ. eigenvalues --  -11.43385 -11.42725 -11.41880 -11.41249 -11.39418
 Alpha  occ. eigenvalues --  -10.49154  -9.69196  -9.68269  -9.68079  -1.81439
 Alpha  occ. eigenvalues --   -1.79060  -1.74558  -1.64777  -1.54353  -1.42795
 Alpha  occ. eigenvalues --   -1.31988  -1.29108  -1.24198  -1.14481  -1.13643
 Alpha  occ. eigenvalues --   -1.13372  -1.11067  -1.08114  -1.03032  -0.98033
 Alpha  occ. eigenvalues --   -0.94100  -0.91683  -0.87220  -0.86993  -0.82660
 Alpha  occ. eigenvalues --   -0.79371  -0.77431  -0.74266  -0.71206  -0.70015
 Alpha  occ. eigenvalues --   -0.68898  -0.66162  -0.65791  -0.64554  -0.64160
 Alpha  occ. eigenvalues --   -0.63409  -0.62658  -0.62109  -0.61787  -0.61439
 Alpha  occ. eigenvalues --   -0.60073  -0.58993  -0.58592  -0.57451  -0.55674
 Alpha  occ. eigenvalues --   -0.54408  -0.53898  -0.52233  -0.51548  -0.50909
 Alpha  occ. eigenvalues --   -0.50678  -0.49875  -0.49127  -0.48225  -0.47492
 Alpha  occ. eigenvalues --   -0.46119  -0.45542  -0.44802  -0.39821  -0.39605
 Alpha  occ. eigenvalues --   -0.38226  -0.37117  -0.35234  -0.33189  -0.31869
 Alpha  occ. eigenvalues --   -0.30880  -0.27447  -0.25740
 Alpha virt. eigenvalues --    0.02292   0.03901   0.04326   0.04629   0.04781
 Alpha virt. eigenvalues --    0.05148   0.05673   0.05729   0.05966   0.06438
 Alpha virt. eigenvalues --    0.06510   0.07031   0.07201   0.07394   0.08026

 Mulliken charges:
               1
     1  H    1.553108
     2  O   -3.405150
     3  C    5.703756
     4  C   -4.585187
     5  O   -3.368786
     6  C    0.079557
     7  H    1.181333
     8  H    1.377442
     9  C    3.605039
    10  C    2.966298
    11  C    0.508872
    12  C    2.559551
    13  N   -5.438539
    14  C   -6.030538
    15  H    2.081526
    16  C    4.941937
    17  C   -2.501891
    18  C    1.877615
    19  H    1.234355
    20  H    1.116568
    21  H    1.510584
    22  O   -4.890495
    23  C   -3.911885
    24  H    1.918244
    25  C    4.166981
    26  O   -3.742828
    27  C   -3.885696
    28  H    1.935185
    29  C   -1.342155
    30  C   -1.433093
    31  H    1.424498
    32  H    1.335610
    33  H    1.412060
    34  H    1.822847
    35  C   -1.357914
    36  H    2.362689
    37  C   -2.293471
    38  H    1.781448
    39  C   -3.196434
    40  H    1.795073
    41  Cl  -0.868115
 Sum of Mulliken charges =   0.00000

 Dipole moment (field-independent basis, Debye):
    X=             -1.3161    Y=             -2.1320    Z=             -0.0719  Tot=              2.5065

 Test job not archived.
 1\1\GINC-SE452\SP\RHF\Aug-CC-pVDZ\C19H16Cl1N1O4\OHZDE\08-Apr-2025\0\\#
 t hf aug-cc-pvdz iop(5/13=1,5/36=2,99/5=2) pseudo=read geom=check gues
 s=(read,tcheck) scf=(maxcycle=1)\\title\\0,1\H,0,2.44103,1.70437,1.514
 59\O,0,3.00707,2.50825,1.54596\C,0,2.94506,3.10419,0.3282\C,0,2.00451,
 2.44519,-0.69639\O,0,3.58309,4.10103,0.08498\C,0,1.39281,1.14596,-0.28
 79\H,0,2.59679,2.32849,-1.61745\H,0,1.23947,3.19856,-0.93398\C,0,2.089
 89,-0.11993,-0.24243\C,0,0.10577,0.93807,0.17055\C,0,3.39822,-0.48668,
 -0.59952\C,0,1.19182,-1.07692,0.2769\N,0,-0.04083,-0.42789,0.49342\C,0

 Normal termination of Gaussian 16 at Tue Apr  8 18:59:54 2025.
