 Gaussian 16, Revision C.01,

 ----------------------------------------------------------------------
 #t hf aug-cc-pvdz symm=none int=(grid=ultrafine) guess=(read,tcheck) s
 table=(opt,rrhf)
 ----------------------------------------------------------------------
 -----
 title
 -----
 Symbolic Z-matrix:
 Charge =  0 Multiplicity = 1

 SCF Done:  E(RHF) =  -1673.88318717     A.U. after   16 cycles
 Normal termination of Gaussian 16 at Tue Apr  8 19:16:45 2025.
 Gaussian 16:  ES64L-G16RevC.01  3-Jul-2019

 ----------------------------------------------------------------------
 #t hf aug-cc-pvdz iop(5/13=1,5/36=2,99/5=2) pseudo=read geom=check gue
 ss=(read,tcheck) scf=(maxcycle=1)
 ----------------------------------------------------------------------
 -----
 title
 -----
 Structure from the checkpoint file:  "37Conf8_Pantoprazole_6_mol1.chk"
 Charge =  0 Multiplicity = 1

                         Standard orientation:
 ---------------------------------------------------------------------
 Center     Atomic      Atomic             Coordinates (Angstroms)
 Number     Number       Type             X           Y           Z
 ---------------------------------------------------------------------
      1          1           0       -6.935960   -0.389639   -0.543699
      2          6           0       -5.906830   -0.035829   -0.576929
      3          6           0       -5.618770    1.225661   -1.098109
      4          6           0       -4.847610   -0.825959   -0.116739
      5          1           0       -6.433460    1.861841   -1.455669
      6          7           0       -4.387740    1.732020   -1.202339
      7          8           0       -4.971421   -2.084089    0.375611
      8          6           0       -3.544570   -0.286350   -0.182949
      9          6           0       -3.363070    0.981520   -0.756039
     10          6           0       -6.286561   -2.644359    0.430481
     11          8           0       -2.433700   -0.996990    0.227231
     12          6           0       -1.990430    1.554770   -0.914989
     13          1           0       -6.730671   -2.710679   -0.575029
     14          1           0       -6.161581   -3.650649    0.843881
     15          1           0       -6.943881   -2.053359    1.087451
     16          6           0       -2.406720   -1.377170    1.624361
     17         16           0       -1.123350    1.847080    0.736731
     18          1           0       -1.340280    0.930290   -1.540309
     19          1           0       -2.054480    2.564770   -1.338639
     20          6           0        0.400770    0.950339    0.300861
     21          8           0       -0.798019    3.295380    0.829221
     22          7           0        1.607540    1.420869    0.515011
     23          7           0        0.380040   -0.358331   -0.136259
     24          6           0        2.453250    0.371419    0.182011
     25          1           0       -0.468600   -0.894030   -0.316729
     26          6           0        1.700940   -0.762871   -0.225109
     27          6           0        3.854210    0.319489    0.221791
     28          6           0        2.309719   -1.960891   -0.604179
     29          1           0        4.425830    1.173449    0.581861
     30          6           0        4.450260   -0.874941   -0.173449
     31          1           0        1.734999   -2.832901   -0.918049
     32          6           0        3.699649   -1.997921   -0.577429
     33          8           0        5.830470   -1.071482   -0.181549
     34          1           0        4.240209   -2.897571   -0.870829
     35          6           0        6.626760    0.037628   -0.326629
     36          9           0        7.825530   -0.395062   -0.790169
     37          9           0        6.859740    0.640818    0.888901
     38          1           0        6.202190    0.792048   -1.010479
     39          1           0       -1.395450   -1.757130    1.812671
     40          1           0       -3.148201   -2.158120    1.830951
     41          1           0       -2.588000   -0.495070    2.255671
 ---------------------------------------------------------------------

 SCF Done:  E(RHF) =  -1679.66369487     A.U. after    2 cycles

 The electronic state is 1-A.
 Alpha  occ. eigenvalues --  -75.81156 -29.28977 -29.28244 -21.11630 -21.10208
 Alpha  occ. eigenvalues --  -21.10135 -21.01526 -15.80718 -15.75576 -15.74160
 Alpha  occ. eigenvalues --  -13.38953 -13.30578 -13.22601 -11.57573 -11.55293
 Alpha  occ. eigenvalues --  -11.55200 -11.52320 -11.48452 -11.48172 -11.48020
 Alpha  occ. eigenvalues --  -11.47854 -11.46557 -11.46118 -11.45537 -11.45094
 Alpha  occ. eigenvalues --  -11.44230 -11.43103 -11.41649 -11.39336  -8.15264
 Alpha  occ. eigenvalues --   -1.84921  -1.84570  -1.79188  -1.70184  -1.58101
 Alpha  occ. eigenvalues --   -1.45872  -1.30715  -1.29674  -1.22437  -1.21023
 Alpha  occ. eigenvalues --   -1.18493  -1.12528  -1.10067  -1.06369  -1.04687
 Alpha  occ. eigenvalues --   -1.00988  -0.97651  -0.90137  -0.88284  -0.87472
 Alpha  occ. eigenvalues --   -0.86291  -0.83142  -0.81513  -0.78098  -0.74129
 Alpha  occ. eigenvalues --   -0.72214  -0.71190  -0.70647  -0.67934  -0.67672
 Alpha  occ. eigenvalues --   -0.66055  -0.64742  -0.63541  -0.62626  -0.62419
 Alpha  occ. eigenvalues --   -0.62019  -0.61289  -0.59502  -0.58906  -0.58607
 Alpha  occ. eigenvalues --   -0.55471  -0.54397  -0.53543  -0.53089  -0.51359
 Alpha  occ. eigenvalues --   -0.50073  -0.49264  -0.47373  -0.46294  -0.44981
 Alpha  occ. eigenvalues --   -0.44303  -0.43648  -0.43036  -0.41739  -0.41023
 Alpha  occ. eigenvalues --   -0.39644  -0.38982  -0.37498  -0.36993  -0.34237
 Alpha  occ. eigenvalues --   -0.32324  -0.32098  -0.31404  -0.30265  -0.29721
 Alpha  occ. eigenvalues --   -0.28778  -0.26868  -0.25089  -0.21561
 Alpha virt. eigenvalues --    0.02198   0.03254   0.03797   0.03953   0.04435
 Alpha virt. eigenvalues --    0.04578   0.04875   0.05517   0.06097   0.06464
 Alpha virt. eigenvalues --    0.07178   0.07365   0.07915   0.07992   0.08401

 Mulliken charges:
               1
     1  H    1.803306
     2  C   -2.880511
     3  C   -1.062703
     4  C    8.701065
     5  H    1.764212
     6  N   -4.634671
     7  O   -5.235869
     8  C    3.932949
     9  C    3.508049
    10  C   -3.952635
    11  O   -4.416778
    12  C   -5.209720
    13  H    1.392597
    14  H    1.506740
    15  H    1.421876
    16  C   -4.433051
    17  S    3.792615
    18  H    1.582555
    19  H    1.529506
    20  C    1.234981
    21  O   -2.733043
    22  N   -4.775199
    23  N   -5.436762
    24  C    4.290040
    25  H    0.845731
    26  C    5.907111
    27  C   -2.038577
    28  C   -2.740359
    29  H    1.966430
    30  C    4.010914
    31  H    1.871271
    32  C   -4.955322
    33  O   -4.341918
    34  H    1.849316
    35  C   -0.223294
    36  F   -0.003981
    37  F    0.199538
    38  H    1.433188
    39  H    1.375209
    40  H    1.542803
    41  H    1.612389
 Sum of Mulliken charges =   0.00000

 Dipole moment (field-independent basis, Debye):
    X=             -4.4259    Y=             -5.7023    Z=              1.3753  Tot=              7.3482

 Test job not archived.
 1\1\GINC-SE018\SP\RHF\Aug-CC-pVDZ\C16H15F2N3O4S1\OHZDE\08-Apr-2025\0\\
 #t hf aug-cc-pvdz iop(5/13=1,5/36=2,99/5=2) pseudo=read geom=check gue
 ss=(read,tcheck) scf=(maxcycle=1)\\title\\0,1\H,0,-6.93596,-0.38964,-0
 .5437\C,0,-5.90683,-0.03583,-0.57693\C,0,-5.61877,1.22566,-1.09811\C,0
 ,-4.84761,-0.82596,-0.11674\H,0,-6.43346,1.86184,-1.45567\N,0,-4.38774
 ,1.73202,-1.20234\O,0,-4.97142,-2.08409,0.37561\C,0,-3.54457,-0.28635,
 -0.18295\C,0,-3.36307,0.98152,-0.75604\C,0,-6.28656,-2.64436,0.43048\O
 ,0,-2.4337,-0.99699,0.22723\C,0,-1.99043,1.55477,-0.91499\H,0,-6.73067

 Normal termination of Gaussian 16 at Tue Apr  8 19:18:31 2025.
