 Gaussian 16, Revision C.01,

 ----------------------------------------------------------------------
 #t hf aug-cc-pvdz symm=none int=(grid=ultrafine) guess=(read,tcheck) s
 table=(opt,rrhf)
 ----------------------------------------------------------------------
 -----
 title
 -----
 Symbolic Z-matrix:
 Charge =  0 Multiplicity = 1

 SCF Done:  E(RHF) =  -917.597002552     A.U. after   12 cycles
 Normal termination of Gaussian 16 at Tue Apr  8 17:42:11 2025.
 Gaussian 16:  ES64L-G16RevC.01  3-Jul-2019

 ----------------------------------------------------------------------
 #t hf aug-cc-pvdz iop(5/13=1,5/36=2,99/5=2) pseudo=read geom=check gue
 ss=(read,tcheck) scf=(maxcycle=1)
 ----------------------------------------------------------------------
 -----
 title
 -----
 Structure from the checkpoint file:  "37Conf8_18crown6_6_mol1.chk"
 Charge =  0 Multiplicity = 1

                         Standard orientation:
 ---------------------------------------------------------------------
 Center     Atomic      Atomic             Coordinates (Angstroms)
 Number     Number       Type             X           Y           Z
 ---------------------------------------------------------------------
      1          1           0        3.592939    2.004389   -0.272840
      2          6           0        2.640857    1.438558   -0.293330
      3          1           0        2.345979    1.312498   -1.353320
      4          8           0        2.782033    0.174465    0.339930
      5          6           0        1.540303    2.182732    0.443750
      6          6           0        3.669436   -0.704255   -0.338250
      7          1           0        0.660434    1.526450    0.529500
      8          1           0        1.868225    2.452123    1.466790
      9          8           0        1.236430    3.358275   -0.305840
     10          1           0        3.471813   -0.683715   -1.427930
     11          1           0        4.723741   -0.394265   -0.177670
     12          6           0        3.476145   -2.122996    0.172180
     13          6           0        0.100457    4.071010    0.170970
     14          1           0        3.504404   -2.127965    1.278660
     15          1           0        4.313559   -2.737830   -0.193840
     16          8           0        2.290925   -2.748896   -0.306700
     17          1           0        0.214011    5.103475   -0.195590
     18          1           0        0.089065    4.098703    1.277450
     19          6           0       -1.223858    3.527772   -0.340790
     20          6           0        1.120893   -2.426720    0.443910
     21          1           0       -2.019918    4.285974   -0.183150
     22          1           0       -1.140844    3.344317   -1.429990
     23          8           0       -1.542405    2.321169    0.339150
     24          1           0        1.189084   -2.850871    1.464760
     25          1           0        0.993704   -1.336902    0.535170
     26          6           0       -0.074022   -3.002608   -0.296890
     27          6           0       -2.565114    1.565779   -0.295140
     28          1           0       -0.034924   -2.678569   -1.355130
     29          1           0       -0.060958   -4.110152   -0.282290
     30          8           0       -1.239318   -2.495293    0.338380
     31          1           0       -3.530499    2.108783   -0.280410
     32          1           0       -2.304714    1.369190   -1.353420
     33          6           0       -2.664286    0.243340    0.446240
     34          6           0       -2.444068   -2.823968   -0.339980
     35          1           0       -1.656918   -0.191347    0.538330
     36          1           0       -3.066429    0.396692    1.466760
     37          8           0       -3.527805   -0.609078   -0.304730
     38          1           0       -2.701772   -3.892549   -0.181410
     39          1           0       -2.328078   -2.660843   -1.429390
     40          6           0       -3.576592   -1.949103    0.172580
     41          1           0       -4.527629   -2.367415   -0.193160
     42          1           0       -3.594079   -1.972548    1.279050
 ---------------------------------------------------------------------

 SCF Done:  E(RHF) =  -921.762740064     A.U. after    2 cycles

 The electronic state is 1-A.
 Alpha  occ. eigenvalues --  -21.04213 -21.04212 -21.04211 -21.03872 -21.03870
 Alpha  occ. eigenvalues --  -21.03864 -11.47886 -11.47878 -11.47740 -11.45707
 Alpha  occ. eigenvalues --  -11.45699 -11.45110 -11.39548 -11.39546 -11.39544
 Alpha  occ. eigenvalues --  -11.38831 -11.38808 -11.38805  -1.79211  -1.76715
 Alpha  occ. eigenvalues --   -1.76713  -1.72254  -1.72252  -1.70827  -1.15148
 Alpha  occ. eigenvalues --   -1.11966  -1.11964  -1.04251  -1.04250  -0.97565
 Alpha  occ. eigenvalues --   -0.89499  -0.86276  -0.86274  -0.85205  -0.83971
 Alpha  occ. eigenvalues --   -0.83969  -0.68784  -0.67745  -0.67741  -0.65001
 Alpha  occ. eigenvalues --   -0.64997  -0.64802  -0.63700  -0.63697  -0.62064
 Alpha  occ. eigenvalues --   -0.59911  -0.57917  -0.57916  -0.56239  -0.56237
 Alpha  occ. eigenvalues --   -0.55408  -0.52796  -0.52793  -0.52151  -0.51772
 Alpha  occ. eigenvalues --   -0.51768  -0.49519  -0.44431  -0.44426  -0.44377
 Alpha  occ. eigenvalues --   -0.40756  -0.38705  -0.38703  -0.37390  -0.37388
 Alpha  occ. eigenvalues --   -0.36664  -0.32275  -0.30552  -0.30544  -0.28480
 Alpha  occ. eigenvalues --   -0.28475  -0.27428
 Alpha virt. eigenvalues --    0.04294   0.04747   0.05071   0.05073   0.05173
 Alpha virt. eigenvalues --    0.05328   0.05331   0.05962   0.05964   0.06210
 Alpha virt. eigenvalues --    0.06376   0.06382   0.06687   0.07197   0.07204

 Mulliken charges:
               1
     1  H    1.600442
     2  C   -1.687284
     3  H    1.817586
     4  O   -3.522630
     5  C   -2.076485
     6  C   -1.145268
     7  H    2.640814
     8  H    1.686607
     9  O   -3.492384
    10  H    1.966529
    11  H    1.500158
    12  C   -2.402217
    13  C   -2.397332
    14  H    1.846750
    15  H    1.272058
    16  O   -3.491956
    17  H    1.272488
    18  H    1.847105
    19  C   -1.150832
    20  C   -2.087824
    21  H    1.500151
    22  H    1.967640
    23  O   -3.527405
    24  H    1.687100
    25  H    2.622482
    26  C   -1.666830
    27  C   -1.657926
    28  H    1.819273
    29  H    1.600911
    30  O   -3.523316
    31  H    1.601349
    32  H    1.820224
    33  C   -2.095599
    34  C   -1.142190
    35  H    2.620424
    36  H    1.686531
    37  O   -3.491670
    38  H    1.500316
    39  H    1.966053
    40  C   -2.402763
    41  H    1.271871
    42  H    1.847051
 Sum of Mulliken charges =   0.00000

 Dipole moment (field-independent basis, Debye):
    X=              0.0001    Y=             -0.0008    Z=              0.2485  Tot=              0.2485

 Test job not archived.
 1\1\GINC-SE424\SP\RHF\Aug-CC-pVDZ\C12H24O6\OHZDE\08-Apr-2025\0\\#t hf
 aug-cc-pvdz iop(5/13=1,5/36=2,99/5=2) pseudo=read geom=check guess=(re
 ad,tcheck) scf=(maxcycle=1)\\title\\0,1\H,0,3.59233,2.00548,-0.27284\C
 ,0,2.64042,1.43936,-0.29333\H,0,2.34558,1.31321,-1.35332\O,0,2.78198,0
 .17531,0.33993\C,0,1.53964,2.1832,0.44375\C,0,3.66965,-0.70314,-0.3382
 5\H,0,0.65997,1.52665,0.5295\H,0,1.86748,2.45269,1.46679\O,0,1.23541,3
 .35865,-0.30584\H,0,3.47202,-0.68266,-1.42793\H,0,4.72386,-0.39283,-0.
 17767\C,0,3.47679,-2.12194,0.17218\C,0,0.09922,4.07104,0.17097\H,0,3.5

 Normal termination of Gaussian 16 at Tue Apr  8 17:43:16 2025.
