 Gaussian 16, Revision C.01,

 ----------------------------------------------------------------------
 #t hf aug-cc-pvdz symm=none int=(grid=ultrafine) guess=(read,tcheck) s
 table=(opt,rrhf)
 ----------------------------------------------------------------------
 -----
 title
 -----
 Symbolic Z-matrix:
 Charge =  0 Multiplicity = 1

 SCF Done:  E(RHF) =  -535.051684767     A.U. after   13 cycles
 Normal termination of Gaussian 16 at Tue Apr  8 18:55:22 2025.
 Gaussian 16:  ES64L-G16RevC.01  3-Jul-2019

 ----------------------------------------------------------------------
 #t hf aug-cc-pvdz iop(5/13=1,5/36=2,99/5=2) pseudo=read geom=check gue
 ss=(read,tcheck) scf=(maxcycle=1)
 ----------------------------------------------------------------------
 -----
 title
 -----
 Structure from the checkpoint file:  "37Conf8_RAMBO_2_mol1.chk"
 Charge =  0 Multiplicity = 1

                         Standard orientation:
 ---------------------------------------------------------------------
 Center     Atomic      Atomic             Coordinates (Angstroms)
 Number     Number       Type             X           Y           Z
 ---------------------------------------------------------------------
      1          1           0       -0.863118    2.360390   -0.058370
      2          7           0       -0.187719    1.652850    0.233890
      3          7           0        0.091891    0.846400   -0.916360
      4          1           0       -0.641209    1.103220    0.974550
      5          6           0        1.496301    0.334019   -0.954310
      6          6           0       -0.723280   -0.389330   -1.005400
      7          1           0        1.794961    0.349179   -2.014340
      8          6           0        2.498941    1.091709   -0.081500
      9          6           0        1.477440   -1.142901   -0.405460
     10          1           0       -0.627450   -0.734270   -2.052950
     11          6           0       -2.210119   -0.194069   -0.761360
     12          6           0       -0.006100   -1.405690   -0.101040
     13          1           0        3.491361    1.039299   -0.558050
     14          1           0        2.222741    2.146559    0.034440
     15          6           0        2.519501    0.321519    1.246050
     16          1           0        1.823080   -1.846461   -1.177800
     17          6           0        2.427000   -1.149421    0.810770
     18          8           0       -2.504439   -0.156939    0.633460
     19          1           0       -2.546369    0.743471   -1.248590
     20          1           0       -2.767990   -1.029449   -1.229250
     21          6           0       -3.884039    0.054391    0.872470
     22          1           0       -4.498830   -0.749378    0.423860
     23          1           0       -4.224989    1.023402    0.459640
     24          1           0       -4.031579    0.054342    1.959860
     25          1           0       -0.310530   -2.444810   -0.292920
     26          1           0       -0.239300   -1.189250    0.953450
     27          1           0        1.639071    0.605279    1.843400
     28          1           0        3.410831    0.531829    1.854790
     29          1           0        3.423760   -1.505611    0.504600
     30          1           0        2.078000   -1.818351    1.612010
 ---------------------------------------------------------------------

 SCF Done:  E(RHF) =  -537.656788386     A.U. after    2 cycles

 The electronic state is 1-A.
 Alpha  occ. eigenvalues --  -21.04794 -15.72631 -15.70510 -11.51051 -11.46624
 Alpha  occ. eigenvalues --  -11.44062 -11.43375 -11.40970 -11.39433 -11.38277
 Alpha  occ. eigenvalues --  -11.36510 -11.32844  -1.75525  -1.49765  -1.29758
 Alpha  occ. eigenvalues --   -1.19805  -1.09428  -1.06348  -0.98824  -0.96982
 Alpha  occ. eigenvalues --   -0.92336  -0.80935  -0.80022  -0.76092  -0.70208
 Alpha  occ. eigenvalues --   -0.66447  -0.64476  -0.63778  -0.63144  -0.60592
 Alpha  occ. eigenvalues --   -0.59556  -0.57992  -0.55605  -0.52901  -0.52798
 Alpha  occ. eigenvalues --   -0.50332  -0.46697  -0.44490  -0.43017  -0.42574
 Alpha  occ. eigenvalues --   -0.41201  -0.40502  -0.40303  -0.38229  -0.34890
 Alpha  occ. eigenvalues --   -0.30004  -0.29599
 Alpha virt. eigenvalues --    0.03954   0.04476   0.04798   0.05082   0.05164
 Alpha virt. eigenvalues --    0.05486   0.05917   0.06406   0.06679   0.06712
 Alpha virt. eigenvalues --    0.07062   0.07380   0.07635   0.07983   0.09459

 Mulliken charges:
               1
     1  H    0.663421
     2  N   -2.344287
     3  N   -1.122503
     4  H    0.780530
     5  C    0.024347
     6  C    0.456147
     7  H    1.710195
     8  C   -3.516579
     9  C   -0.769921
    10  H    1.847890
    11  C   -2.412944
    12  C   -2.756155
    13  H    1.290009
    14  H    1.491865
    15  C   -2.889771
    16  H    1.511063
    17  C   -3.508205
    18  O   -2.760470
    19  H    1.702741
    20  H    1.421304
    21  C   -3.491383
    22  H    1.373535
    23  H    1.454809
    24  H    1.336373
    25  H    1.284353
    26  H    1.670453
    27  H    1.552749
    28  H    1.302128
    29  H    1.278699
    30  H    1.419609
 Sum of Mulliken charges =  -0.00000

 Dipole moment (field-independent basis, Debye):
    X=             -1.3816    Y=             -0.6130    Z=              0.3524  Tot=              1.5521

 Test job not archived.
 1\1\GINC-SE404\SP\RHF\Aug-CC-pVDZ\C9H18N2O1\OHZDE\08-Apr-2025\0\\#t hf
  aug-cc-pvdz iop(5/13=1,5/36=2,99/5=2) pseudo=read geom=check guess=(r
 ead,tcheck) scf=(maxcycle=1)\\title\\0,1\H,0,-0.86312,2.36039,-0.05837
 \N,0,-0.18772,1.65285,0.23389\N,0,0.09189,0.8464,-0.91636\H,0,-0.64121
 ,1.10322,0.97455\C,0,1.4963,0.33402,-0.95431\C,0,-0.72328,-0.38933,-1.
 0054\H,0,1.79496,0.34918,-2.01434\C,0,2.49894,1.09171,-0.0815\C,0,1.47
 744,-1.1429,-0.40546\H,0,-0.62745,-0.73427,-2.05295\C,0,-2.21012,-0.19
 407,-0.76136\C,0,-0.0061,-1.40569,-0.10104\H,0,3.49136,1.0393,-0.55805

 Normal termination of Gaussian 16 at Tue Apr  8 18:55:51 2025.
