 Gaussian 16, Revision C.01,

 ----------------------------------------------------------------------
 #t hf aug-cc-pvdz symm=none int=(grid=ultrafine) guess=(read,tcheck) s
 table=(opt,rrhf)
 ----------------------------------------------------------------------
 -----
 title
 -----
 Symbolic Z-matrix:
 Charge =  0 Multiplicity = 1

 SCF Done:  E(RHF) =  -1542.37124881     A.U. after   17 cycles
 Normal termination of Gaussian 16 at Tue Apr  8 19:06:23 2025.
 Gaussian 16:  ES64L-G16RevC.01  3-Jul-2019

 ----------------------------------------------------------------------
 #t hf aug-cc-pvdz iop(5/13=1,5/36=2,99/5=2) pseudo=read geom=check gue
 ss=(read,tcheck) scf=(maxcycle=1)
 ----------------------------------------------------------------------
 -----
 title
 -----
 Structure from the checkpoint file:  "37Conf8_Indometacin_2_mol2.chk"
 Charge =  0 Multiplicity = 1

                         Standard orientation:
 ---------------------------------------------------------------------
 Center     Atomic      Atomic             Coordinates (Angstroms)
 Number     Number       Type             X           Y           Z
 ---------------------------------------------------------------------
      1          1           0       -5.569039   -1.284741    2.520750
      2          8           0       -5.428549   -1.245111    1.551450
      3          6           0       -4.086889   -1.423060    1.366410
      4          6           0       -3.741099   -1.451160   -0.114840
      5          8           0       -3.310919   -1.566740    2.285390
      6          6           0       -2.332249   -1.059660   -0.403220
      7          1           0       -4.454209   -0.807940   -0.652360
      8          1           0       -3.949149   -2.477600   -0.458700
      9          6           0       -1.859590    0.299360   -0.468710
     10          6           0       -1.259009   -1.896120   -0.600760
     11          6           0       -2.528890    1.530960   -0.378230
     12          6           0       -0.466260    0.253130   -0.700260
     13          7           0       -0.098549   -1.109390   -0.761900
     14          6           0       -1.215229   -3.382490   -0.559560
     15          1           0       -3.601340    1.558740   -0.189800
     16          6           0       -1.785790    2.700700   -0.549060
     17          6           0        0.265430    1.424821   -0.914650
     18          6           0        1.183151   -1.635059   -1.032320
     19          1           0       -0.970449   -3.815090   -1.538750
     20          1           0       -2.186109   -3.768360   -0.224750
     21          1           0       -0.451159   -3.742450    0.144850
     22          8           0       -2.308350    3.964930   -0.480210
     23          6           0       -0.403210    2.640160   -0.827030
     24          1           0        1.329490    1.409011   -1.142010
     25          6           0        2.345121   -0.906669   -0.450970
     26          8           0        1.325911   -2.672909   -1.665820
     27          6           0       -3.699380    4.077430   -0.208990
     28          1           0        0.132110    3.577901   -0.976440
     29          6           0        3.569591   -0.953119   -1.132230
     30          6           0        2.276641   -0.278769    0.801660
     31          1           0       -4.305070    3.599130   -0.997840
     32          1           0       -3.916441    5.151370   -0.185600
     33          1           0       -3.958040    3.629810    0.765910
     34          1           0        3.618421   -1.469779   -2.091480
     35          6           0        4.703221   -0.353189   -0.593800
     36          1           0        1.331661   -0.251739    1.345110
     37          6           0        3.409850    0.302931    1.362940
     38          1           0        5.654221   -0.370088   -1.125300
     39          6           0        4.613460    0.271081    0.654010
     40          1           0        3.367310    0.780321    2.341350
     41         17           0        6.027040    1.014012    1.339380
 ---------------------------------------------------------------------

 SCF Done:  E(RHF) =  -1547.55104027     A.U. after    2 cycles

 The electronic state is 1-A.
 Alpha  occ. eigenvalues --  -99.90718 -21.12877 -21.07422 -21.06117 -21.05785
 Alpha  occ. eigenvalues --  -15.78512 -11.55959 -11.55274 -11.54677 -11.54597
 Alpha  occ. eigenvalues --  -11.50367 -11.48484 -11.48152 -11.47511 -11.47253
 Alpha  occ. eigenvalues --  -11.46960 -11.46328 -11.46115 -11.44395 -11.44130
 Alpha  occ. eigenvalues --  -11.42283 -11.41689 -11.40843 -11.40001 -11.38433
 Alpha  occ. eigenvalues --  -10.48123  -9.68164  -9.67246  -9.67055  -1.82592
 Alpha  occ. eigenvalues --   -1.78518  -1.73203  -1.65583  -1.52901  -1.41548
 Alpha  occ. eigenvalues --   -1.30308  -1.28530  -1.23109  -1.12948  -1.12313
 Alpha  occ. eigenvalues --   -1.11935  -1.10345  -1.07303  -1.02049  -0.96975
 Alpha  occ. eigenvalues --   -0.93034  -0.90352  -0.86700  -0.85871  -0.82909
 Alpha  occ. eigenvalues --   -0.78526  -0.75391  -0.73522  -0.70208  -0.67844
 Alpha  occ. eigenvalues --   -0.65961  -0.64776  -0.64094  -0.63989  -0.63281
 Alpha  occ. eigenvalues --   -0.62986  -0.62321  -0.61398  -0.60774  -0.60177
 Alpha  occ. eigenvalues --   -0.59040  -0.58338  -0.57105  -0.55805  -0.55510
 Alpha  occ. eigenvalues --   -0.53620  -0.53272  -0.51992  -0.51202  -0.50541
 Alpha  occ. eigenvalues --   -0.49767  -0.49297  -0.48153  -0.47172  -0.46843
 Alpha  occ. eigenvalues --   -0.46495  -0.44673  -0.43817  -0.39020  -0.38738
 Alpha  occ. eigenvalues --   -0.36820  -0.35731  -0.34559  -0.33755  -0.30781
 Alpha  occ. eigenvalues --   -0.30448  -0.27356  -0.24901
 Alpha virt. eigenvalues --    0.03003   0.04222   0.04371   0.05016   0.05117
 Alpha virt. eigenvalues --    0.05441   0.05687   0.06261   0.06512   0.06826
 Alpha virt. eigenvalues --    0.07042   0.07241   0.07438   0.07745   0.07795

 Mulliken charges:
               1
     1  H    0.975270
     2  O   -3.288719
     3  C    6.457662
     4  C   -5.310173
     5  O   -3.031167
     6  C    0.521293
     7  H    1.190719
     8  H    1.391051
     9  C    2.595099
    10  C    3.146042
    11  C    0.802471
    12  C   -0.032957
    13  N   -5.864678
    14  C   -5.155115
    15  H    2.100190
    16  C    5.123265
    17  C   -2.183215
    18  C    4.333696
    19  H    1.191901
    20  H    1.126559
    21  H    1.011278
    22  O   -4.906749
    23  C   -4.206132
    24  H    2.462462
    25  C    3.229188
    26  O   -3.818348
    27  C   -3.974794
    28  H    2.003502
    29  C   -1.903281
    30  C   -1.209791
    31  H    1.408845
    32  H    1.438569
    33  H    1.409070
    34  H    1.787227
    35  C   -1.358483
    36  H    2.542651
    37  C   -1.931855
    38  H    1.795425
    39  C   -2.759826
    40  H    1.773703
    41  Cl  -0.881858
 Sum of Mulliken charges =   0.00000

 Dipole moment (field-independent basis, Debye):
    X=             -1.7849    Y=             -0.2774    Z=             -0.5722  Tot=              1.8948

 Test job not archived.
 1\1\GINC-SE023\SP\RHF\Aug-CC-pVDZ\C19H16Cl1N1O4\OHZDE\08-Apr-2025\0\\#
 t hf aug-cc-pvdz iop(5/13=1,5/36=2,99/5=2) pseudo=read geom=check gues
 s=(read,tcheck) scf=(maxcycle=1)\\title\\0,1\H,0,-5.56904,-1.28474,2.5
 2075\O,0,-5.42855,-1.24511,1.55145\C,0,-4.08689,-1.42306,1.36641\C,0,-
 3.7411,-1.45116,-0.11484\O,0,-3.31092,-1.56674,2.28539\C,0,-2.33225,-1
 .05966,-0.40322\H,0,-4.45421,-0.80794,-0.65236\H,0,-3.94915,-2.4776,-0
 .4587\C,0,-1.85959,0.29936,-0.46871\C,0,-1.25901,-1.89612,-0.60076\C,0
 ,-2.52889,1.53096,-0.37823\C,0,-0.46626,0.25313,-0.70026\N,0,-0.09855,

 Normal termination of Gaussian 16 at Tue Apr  8 19:08:19 2025.
