 Gaussian 16, Revision C.01,

 ----------------------------------------------------------------------
 #t hf aug-cc-pvdz symm=none int=(grid=ultrafine) guess=(read,tcheck) s
 table=(opt,rrhf)
 ----------------------------------------------------------------------
 -----
 title
 -----
 Symbolic Z-matrix:
 Charge =  0 Multiplicity = 1

 SCF Done:  E(RHF) =  -1673.89003381     A.U. after   17 cycles
 Normal termination of Gaussian 16 at Tue Apr  8 19:21:35 2025.
 Gaussian 16:  ES64L-G16RevC.01  3-Jul-2019

 ----------------------------------------------------------------------
 #t hf aug-cc-pvdz iop(5/13=1,5/36=2,99/5=2) pseudo=read geom=check gue
 ss=(read,tcheck) scf=(maxcycle=1)
 ----------------------------------------------------------------------
 -----
 title
 -----
 Structure from the checkpoint file:  "37Conf8_Pantoprazole_5_mol1.chk"
 Charge =  0 Multiplicity = 1

                         Standard orientation:
 ---------------------------------------------------------------------
 Center     Atomic      Atomic             Coordinates (Angstroms)
 Number     Number       Type             X           Y           Z
 ---------------------------------------------------------------------
      1          1           0       -1.014160    2.690870    2.831741
      2          6           0       -1.510340    2.177150    2.007261
      3          6           0       -2.728120    1.523520    2.174531
      4          6           0       -0.901530    2.166870    0.748961
      5          1           0       -3.230760    1.535580    3.146061
      6          7           0       -3.347360    0.846180    1.199731
      7          8           0        0.281890    2.830440    0.596991
      8          6           0       -1.574790    1.518200   -0.308769
      9          6           0       -2.775950    0.833180   -0.017309
     10          6           0        1.382540    2.052390    0.073281
     11          8           0       -1.094170    1.506620   -1.595269
     12          6           0       -3.442370    0.011230   -1.065939
     13          1           0        1.164510    1.649350   -0.924399
     14          1           0        2.235790    2.736850    0.027851
     15          1           0        1.612060    1.223460    0.758441
     16          6           0       -1.002670    2.804450   -2.213069
     17         16           0       -3.184260   -1.844900   -0.849839
     18          1           0       -3.069890    0.220390   -2.076639
     19          1           0       -4.536670    0.091881   -1.017619
     20          6           0       -1.419790   -1.738210   -0.503839
     21          8           0       -3.782440   -2.268140    0.457801
     22          7           0       -0.429660   -1.638610   -1.361909
     23          7           0       -1.034940   -1.767720    0.811231
     24          6           0        0.700820   -1.564850   -0.559109
     25          1           0       -1.696880   -1.834560    1.582101
     26          6           0        0.339280   -1.643940    0.818621
     27          6           0        2.044840   -1.418970   -0.924269
     28          6           0        1.285860   -1.589310    1.843691
     29          1           0        2.350490   -1.352090   -1.967149
     30          6           0        2.971230   -1.346470    0.106451
     31          1           0        1.005780   -1.654780    2.895231
     32          6           0        2.617420   -1.436300    1.465241
     33          8           0        4.343110   -1.244421   -0.217039
     34          1           0        3.405420   -1.378780    2.214961
     35          6           0        4.855100    0.014209   -0.338689
     36          9           0        4.214080    0.746269   -1.313809
     37          9           0        4.717880    0.746729    0.819271
     38          1           0        5.921010   -0.067911   -0.591179
     39          1           0       -0.609570    2.628850   -3.220879
     40          1           0       -2.000909    3.266390   -2.278749
     41          1           0       -0.328309    3.472050   -1.656949
 ---------------------------------------------------------------------

 SCF Done:  E(RHF) =  -1679.67907034     A.U. after    2 cycles

 The electronic state is 1-A.
 Alpha  occ. eigenvalues --  -75.81116 -29.29575 -29.29517 -21.10747 -21.08030
 Alpha  occ. eigenvalues --  -21.07855 -21.01668 -15.80754 -15.74547 -15.74468
 Alpha  occ. eigenvalues --  -13.37245 -13.30355 -13.23627 -11.57287 -11.57191
 Alpha  occ. eigenvalues --  -11.55558 -11.51028 -11.48759 -11.48580 -11.46628
 Alpha  occ. eigenvalues --  -11.46471 -11.46393 -11.45857 -11.44098 -11.43571
 Alpha  occ. eigenvalues --  -11.43286 -11.42725 -11.40144 -11.39781  -8.15240
 Alpha  occ. eigenvalues --   -1.85007  -1.81233  -1.76640  -1.70507  -1.58207
 Alpha  occ. eigenvalues --   -1.44519  -1.30878  -1.29999  -1.22477  -1.20808
 Alpha  occ. eigenvalues --   -1.16916  -1.12193  -1.09746  -1.06270  -1.01317
 Alpha  occ. eigenvalues --   -0.99232  -0.97179  -0.90232  -0.87478  -0.86729
 Alpha  occ. eigenvalues --   -0.85533  -0.83038  -0.82063  -0.78316  -0.73998
 Alpha  occ. eigenvalues --   -0.70891  -0.70511  -0.68547  -0.66840  -0.66137
 Alpha  occ. eigenvalues --   -0.64640  -0.63108  -0.62581  -0.62199  -0.61370
 Alpha  occ. eigenvalues --   -0.60442  -0.59951  -0.59408  -0.58423  -0.57079
 Alpha  occ. eigenvalues --   -0.55461  -0.54268  -0.52977  -0.51570  -0.50486
 Alpha  occ. eigenvalues --   -0.49418  -0.49212  -0.46816  -0.45402  -0.44272
 Alpha  occ. eigenvalues --   -0.43718  -0.43300  -0.42578  -0.41146  -0.39917
 Alpha  occ. eigenvalues --   -0.39069  -0.37926  -0.35463  -0.34916  -0.34705
 Alpha  occ. eigenvalues --   -0.32925  -0.31863  -0.30926  -0.30177  -0.29715
 Alpha  occ. eigenvalues --   -0.29194  -0.27946  -0.25981  -0.22219
 Alpha virt. eigenvalues --    0.03153   0.04214   0.04366   0.04600   0.04960
 Alpha virt. eigenvalues --    0.05618   0.05722   0.05826   0.06149   0.06828
 Alpha virt. eigenvalues --    0.07218   0.07525   0.07971   0.08318   0.08728

 Mulliken charges:
               1
     1  H    1.865743
     2  C   -4.027752
     3  C   -0.310673
     4  C    8.348335
     5  H    1.839615
     6  N   -4.942132
     7  O   -5.292726
     8  C    4.142249
     9  C    4.423843
    10  C   -4.376359
    11  O   -4.707455
    12  C   -5.517572
    13  H    2.069771
    14  H    1.169937
    15  H    2.148236
    16  C   -4.390693
    17  S    4.486878
    18  H    1.757832
    19  H    1.397934
    20  C    3.713095
    21  O   -2.627815
    22  N   -5.050922
    23  N   -6.182665
    24  C    4.735765
    25  H    1.086620
    26  C    3.788709
    27  C   -4.347722
    28  C   -2.773809
    29  H    2.040625
    30  C    6.715487
    31  H    1.863453
    32  C   -5.516559
    33  O   -5.269882
    34  H    1.832718
    35  C   -0.414245
    36  F    0.057118
    37  F    0.055200
    38  H    1.761183
    39  H    1.407548
    40  H    1.410324
    41  H    1.630763
 Sum of Mulliken charges =   0.00000

 Dipole moment (field-independent basis, Debye):
    X=              0.0276    Y=              3.6697    Z=              0.7294  Tot=              3.7416

 Test job not archived.
 1\1\GINC-SE367\SP\RHF\Aug-CC-pVDZ\C16H15F2N3O4S1\OHZDE\08-Apr-2025\0\\
 #t hf aug-cc-pvdz iop(5/13=1,5/36=2,99/5=2) pseudo=read geom=check gue
 ss=(read,tcheck) scf=(maxcycle=1)\\title\\0,1\H,0,-1.01416,2.69087,2.8
 3174\C,0,-1.51034,2.17715,2.00726\C,0,-2.72812,1.52352,2.17453\C,0,-0.
 90153,2.16687,0.74896\H,0,-3.23076,1.53558,3.14606\N,0,-3.34736,0.8461
 8,1.19973\O,0,0.28189,2.83044,0.59699\C,0,-1.57479,1.5182,-0.30877\C,0
 ,-2.77595,0.83318,-0.01731\C,0,1.38254,2.05239,0.07328\O,0,-1.09417,1.
 50662,-1.59527\C,0,-3.44237,0.01123,-1.06594\H,0,1.16451,1.64935,-0.92

 Normal termination of Gaussian 16 at Tue Apr  8 19:23:25 2025.
