 Gaussian 16, Revision C.01,

 ----------------------------------------------------------------------
 #t hf aug-cc-pvdz symm=none int=(grid=ultrafine) guess=(read,tcheck) s
 table=(opt,rrhf)
 ----------------------------------------------------------------------
 -----
 title
 -----
 Symbolic Z-matrix:
 Charge =  0 Multiplicity = 1

 SCF Done:  E(RHF) =  -1689.90401739     A.U. after   18 cycles
 Normal termination of Gaussian 16 at Tue Apr  8 18:09:17 2025.
 Gaussian 16:  ES64L-G16RevC.01  3-Jul-2019

 ----------------------------------------------------------------------
 #t hf aug-cc-pvdz iop(5/13=1,5/36=2,99/5=2) pseudo=read geom=check gue
 ss=(read,tcheck) scf=(maxcycle=1)
 ----------------------------------------------------------------------
 -----
 title
 -----
 Structure from the checkpoint file:  "37Conf8_Fotemustin_2_mol1.chk"
 Charge =  0 Multiplicity = 1

                         Standard orientation:
 ---------------------------------------------------------------------
 Center     Atomic      Atomic             Coordinates (Angstroms)
 Number     Number       Type             X           Y           Z
 ---------------------------------------------------------------------
      1          8           0        3.469870   -2.764593   -0.507709
      2          7           0        2.385790   -2.459813   -0.040489
      3          7           0        2.287910   -1.182983    0.430241
      4          6           0        3.387620   -0.226383    0.341611
      5          6           0        1.003480   -0.740362    0.889051
      6          6           0        3.327750    0.524787   -0.986169
      7          1           0        4.322170   -0.795673    0.421141
      8          1           0        3.288990    0.470957    1.180301
      9         17           0        4.657731    1.727977   -1.057799
     10          1           0        3.456390   -0.156193   -1.835019
     11          1           0        2.380881    1.067717   -1.085049
     12          7           0        0.037510   -1.688942    0.876951
     13          8           0        0.859280    0.421068    1.253581
     14          6           0       -1.368090   -1.323622    1.013201
     15          1           0        0.278260   -2.556082    0.400341
     16         15           0       -1.839180   -0.058982   -0.270629
     17          6           0       -1.766980   -0.934542    2.435881
     18          1           0       -1.938470   -2.213872    0.710521
     19          8           0       -3.328610   -0.604421   -0.559399
     20          8           0       -2.156549    1.338728    0.459731
     21          8           0       -0.904390    0.015678   -1.422429
     22          6           0       -4.169990    0.133199   -1.488489
     23          6           0       -1.282949    2.494958    0.297661
     24          6           0       -5.433000   -0.667201   -1.715469
     25          1           0       -3.612040    0.282009   -2.426169
     26          1           0       -4.390409    1.119239   -1.049979
     27          6           0       -1.026629    3.117808    1.651251
     28          1           0       -1.807949    3.190218   -0.375139
     29          1           0       -0.350839    2.175858   -0.186509
     30          1           0       -6.095150   -0.128661   -2.408609
     31          1           0       -5.200890   -1.648591   -2.150989
     32          1           0       -5.973110   -0.821881   -0.771239
     33          1           0       -0.432359    4.035118    1.526541
     34          1           0       -1.969819    3.383768    2.148701
     35          1           0       -0.462149    2.426818    2.290111
     36          1           0       -2.841920   -0.714261    2.477701
     37          1           0       -1.218250   -0.044742    2.763891
     38          1           0       -1.549620   -1.764002    3.123211
 ---------------------------------------------------------------------

 SCF Done:  E(RHF) =  -1694.38573662     A.U. after    2 cycles

 The electronic state is 1-A.
 Alpha  occ. eigenvalues -- -105.29805 -99.87950 -21.12171 -21.07418 -21.07005
 Alpha  occ. eigenvalues --  -21.05259 -21.01554 -15.91597 -15.81166 -15.78612
 Alpha  occ. eigenvalues --  -11.55753 -11.47666 -11.47392 -11.45605 -11.44953
 Alpha  occ. eigenvalues --  -11.42126 -11.39545 -11.38240 -11.37141 -10.45241
 Alpha  occ. eigenvalues --   -9.65188  -9.64418  -9.64358  -2.91622  -1.97035
 Alpha  occ. eigenvalues --   -1.90350  -1.89047  -1.80176  -1.75262  -1.55757
 Alpha  occ. eigenvalues --   -1.49422  -1.43098  -1.40485  -1.33057  -1.27880
 Alpha  occ. eigenvalues --   -1.15328  -1.12033  -1.11272  -1.10288  -1.00154
 Alpha  occ. eigenvalues --   -0.95012  -0.88659  -0.87625  -0.86941  -0.78957
 Alpha  occ. eigenvalues --   -0.77368  -0.70480  -0.69627  -0.67822  -0.66071
 Alpha  occ. eigenvalues --   -0.65145  -0.64464  -0.63292  -0.59883  -0.59634
 Alpha  occ. eigenvalues --   -0.59031  -0.57974  -0.56300  -0.55394  -0.55081
 Alpha  occ. eigenvalues --   -0.54547  -0.53955  -0.53586  -0.52545  -0.52345
 Alpha  occ. eigenvalues --   -0.52244  -0.51151  -0.50293  -0.47442  -0.47345
 Alpha  occ. eigenvalues --   -0.47063  -0.45345  -0.39798  -0.38162  -0.36836
 Alpha  occ. eigenvalues --   -0.35189  -0.34132  -0.33922  -0.32371  -0.30383
 Alpha  occ. eigenvalues --   -0.25956  -0.22251  -0.15238
 Alpha virt. eigenvalues --    0.03691   0.04268   0.04423   0.04873   0.05123
 Alpha virt. eigenvalues --    0.05619   0.05855   0.06092   0.06378   0.06677
 Alpha virt. eigenvalues --    0.06896   0.07108   0.07644   0.07851   0.08159

 Mulliken charges:
               1
     1  O   -2.262377
     2  N    1.021107
     3  N   -1.525968
     4  C   -1.777636
     5  C    6.530877
     6  C   -4.260742
     7  H    1.751990
     8  H    1.778593
     9  Cl   0.015365
    10  H    1.687060
    11  H    1.996089
    12  N   -4.121839
    13  O   -2.934364
    14  C   -2.541306
    15  H    0.882672
    16  P   12.711685
    17  C   -4.841859
    18  H    2.015281
    19  O   -4.159250
    20  O   -4.029304
    21  O   -3.459438
    22  C   -2.275452
    23  C   -2.852419
    24  C   -4.378425
    25  H    1.604589
    26  H    1.666892
    27  C   -4.174010
    28  H    1.454994
    29  H    2.501017
    30  H    1.110079
    31  H    1.325470
    32  H    1.368653
    33  H    1.190006
    34  H    1.353994
    35  H    1.544547
    36  H    1.283434
    37  H    1.562358
    38  H    1.237638
 Sum of Mulliken charges =  -0.00000

 Dipole moment (field-independent basis, Debye):
    X=             -4.1738    Y=             -0.8753    Z=              1.8128  Tot=              4.6339

 Test job not archived.
 1\1\GINC-SE073\SP\RHF\Aug-CC-pVDZ\C9H19Cl1N3O5P1\OHZDE\08-Apr-2025\0\\
 #t hf aug-cc-pvdz iop(5/13=1,5/36=2,99/5=2) pseudo=read geom=check gue
 ss=(read,tcheck) scf=(maxcycle=1)\\title\\0,1\O,0,3.46987,-2.76459,-0.
 50771\N,0,2.38579,-2.45981,-0.04049\N,0,2.28791,-1.18298,0.43024\C,0,3
 .38762,-0.22638,0.34161\C,0,1.00348,-0.74036,0.88905\C,0,3.32775,0.524
 79,-0.98617\H,0,4.32217,-0.79567,0.42114\H,0,3.28899,0.47096,1.1803\Cl
 ,0,4.65773,1.72798,-1.0578\H,0,3.45639,-0.15619,-1.83502\H,0,2.38088,1
 .06772,-1.08505\N,0,0.03751,-1.68894,0.87695\O,0,0.85928,0.42107,1.253

 Normal termination of Gaussian 16 at Tue Apr  8 18:10:31 2025.
