 Gaussian 16, Revision C.01,

 ----------------------------------------------------------------------
 #t hf aug-cc-pvdz symm=none int=(grid=ultrafine) guess=(read,tcheck) s
 table=(opt,rrhf)
 ----------------------------------------------------------------------
 -----
 title
 -----
 Symbolic Z-matrix:
 Charge =  0 Multiplicity = 1

 SCF Done:  E(RHF) =  -1587.91495475     A.U. after   16 cycles
 Normal termination of Gaussian 16 at Tue Apr  8 19:32:42 2025.
 Gaussian 16:  ES64L-G16RevC.01  3-Jul-2019

 ----------------------------------------------------------------------
 #t hf aug-cc-pvdz iop(5/13=1,5/36=2,99/5=2) pseudo=read geom=check gue
 ss=(read,tcheck) scf=(maxcycle=1)
 ----------------------------------------------------------------------
 -----
 title
 -----
 Structure from the checkpoint file:  "37Conf8_XylitolPentanit_3_mol2.chk"
 Charge =  0 Multiplicity = 1

                         Standard orientation:
 ---------------------------------------------------------------------
 Center     Atomic      Atomic             Coordinates (Angstroms)
 Number     Number       Type             X           Y           Z
 ---------------------------------------------------------------------
      1          1           0       -2.515061    1.948671    0.739510
      2          6           0       -2.546391    1.164591   -0.028680
      3          6           0       -1.333891    0.242931    0.112730
      4          8           0       -3.774091    0.481721    0.240490
      5          1           0       -2.564191    1.629941   -1.025620
      6          6           0       -0.035121    0.951080   -0.289520
      7          8           0       -1.218191   -0.196129    1.474620
      8          1           0       -1.465581   -0.633789   -0.537640
      9          7           0       -4.244051   -0.345938   -0.897760
     10          6           0        1.242089    0.141340    0.016300
     11          8           0        0.057620    2.190050    0.420100
     12          1           0       -0.088961    1.166000   -1.369300
     13          7           0       -1.756691   -1.572489    1.732040
     14          8           0       -3.577401   -0.310419   -1.908010
     15          8           0       -5.251021   -0.935618   -0.629070
     16          6           0        1.280759   -1.201810   -0.706250
     17          8           0        2.341229    0.936930   -0.430110
     18          1           0        1.318359   -0.010100    1.102990
     19          7           0        0.360030    3.388550   -0.450790
     20          8           0       -2.112192   -2.213729    0.772110
     21          8           0       -1.727351   -1.829159    2.898920
     22          8           0        2.439139   -1.871950   -0.192980
     23          1           0        1.368349   -1.053330   -1.793680
     24          1           0        0.377619   -1.796090   -0.498130
     25          7           0        2.687578   -3.164580   -0.862800
     26          8           0        1.892158   -3.490860   -1.713480
     27          8           0        3.670868   -3.704180   -0.437980
     28          7           0        3.389219    1.219990    0.626710
     29          8           0        0.323470    3.225180   -1.643110
     30          8           0        0.573340    4.351650    0.224630
     31          8           0        4.275969    1.875049    0.162590
     32          8           0        3.195479    0.776610    1.726610
 ---------------------------------------------------------------------

 SCF Done:  E(RHF) =  -1594.56816644     A.U. after    2 cycles

 The electronic state is 1-A.
 Alpha  occ. eigenvalues --  -21.17694 -21.17648 -21.17599 -21.17588 -21.17449
 Alpha  occ. eigenvalues --  -21.17369 -21.17069 -21.16785 -21.16587 -21.16550
 Alpha  occ. eigenvalues --  -21.16478 -21.16298 -21.16023 -21.15770 -21.15473
 Alpha  occ. eigenvalues --  -16.10492 -16.10353 -16.09444 -16.09167 -16.08687
 Alpha  occ. eigenvalues --  -11.61023 -11.58551 -11.56370 -11.52067 -11.47734
 Alpha  occ. eigenvalues --   -2.10645  -2.10086  -2.09569  -2.09277  -2.08860
 Alpha  occ. eigenvalues --   -1.83900  -1.80419  -1.78836  -1.78376  -1.78346
 Alpha  occ. eigenvalues --   -1.77578  -1.77384  -1.77140  -1.76722  -1.76082
 Alpha  occ. eigenvalues --   -1.26388  -1.17753  -1.08849  -1.02906  -1.00019
 Alpha  occ. eigenvalues --   -0.95638  -0.93986  -0.91514  -0.89745  -0.87102
 Alpha  occ. eigenvalues --   -0.81500  -0.79481  -0.78503  -0.77951  -0.77232
 Alpha  occ. eigenvalues --   -0.76012  -0.75831  -0.74775  -0.74192  -0.73909
 Alpha  occ. eigenvalues --   -0.71423  -0.71118  -0.69744  -0.69243  -0.68298
 Alpha  occ. eigenvalues --   -0.67242  -0.66440  -0.66110  -0.64386  -0.62517
 Alpha  occ. eigenvalues --   -0.60078  -0.55133  -0.53392  -0.52215  -0.51130
 Alpha  occ. eigenvalues --   -0.49344  -0.44108  -0.43346  -0.42788  -0.41041
 Alpha  occ. eigenvalues --   -0.40707  -0.40329  -0.39905  -0.39222  -0.38742
 Alpha  occ. eigenvalues --   -0.38563  -0.38237  -0.38118  -0.37446  -0.37431
 Alpha  occ. eigenvalues --   -0.36884  -0.36645  -0.36583  -0.36489  -0.35864
 Alpha  occ. eigenvalues --   -0.35269
 Alpha virt. eigenvalues --    0.03976   0.04287   0.04490   0.06523   0.06770
 Alpha virt. eigenvalues --    0.07211   0.07630   0.09062   0.09758   0.10106
 Alpha virt. eigenvalues --    0.10276   0.10932   0.11350   0.11639   0.12081

 Mulliken charges:
               1
     1  H    1.512603
     2  C   -1.378577
     3  C    0.210212
     4  O   -3.062089
     5  H    1.764712
     6  C    1.027817
     7  O   -3.221248
     8  H    2.826381
     9  N    6.427383
    10  C    0.420880
    11  O   -3.450651
    12  H    2.357245
    13  N    6.215674
    14  O   -2.643671
    15  O   -2.817889
    16  C   -2.380249
    17  O   -3.430861
    18  H    2.270964
    19  N    6.006242
    20  O   -2.842154
    21  O   -2.726628
    22  O   -2.806014
    23  H    1.739509
    24  H    1.795913
    25  N    6.480557
    26  O   -2.744685
    27  O   -2.799503
    28  N    6.060123
    29  O   -2.656980
    30  O   -2.735188
    31  O   -2.749077
    32  O   -2.670750
 Sum of Mulliken charges =   0.00000

 Dipole moment (field-independent basis, Debye):
    X=             -1.0197    Y=              1.7405    Z=              0.2916  Tot=              2.0382

 Test job not archived.
 1\1\GINC-SE456\SP\RHF\Aug-CC-pVDZ\C5H7N5O15\OHZDE\08-Apr-2025\0\\#t hf
  aug-cc-pvdz iop(5/13=1,5/36=2,99/5=2) pseudo=read geom=check guess=(r
 ead,tcheck) scf=(maxcycle=1)\\title\\0,1\H,0,-2.51506,1.94867,0.73951\
 C,0,-2.54639,1.16459,-0.02868\C,0,-1.33389,0.24293,0.11273\O,0,-3.7740
 9,0.48172,0.24049\H,0,-2.56419,1.62994,-1.02562\C,0,-0.03512,0.95108,-
 0.28952\O,0,-1.21819,-0.19613,1.47462\H,0,-1.46558,-0.63379,-0.53764\N
 ,0,-4.24405,-0.34594,-0.89776\C,0,1.24209,0.14134,0.0163\O,0,0.05762,2
 .19005,0.4201\H,0,-0.08896,1.166,-1.3693\N,0,-1.75669,-1.57249,1.73204

 Normal termination of Gaussian 16 at Tue Apr  8 19:33:58 2025.
