 Gaussian 16, Revision C.01,

 ----------------------------------------------------------------------
 #t hf aug-cc-pvdz symm=none int=(grid=ultrafine) guess=(read,tcheck) s
 table=(opt,rrhf)
 ----------------------------------------------------------------------
 -----
 title
 -----
 Symbolic Z-matrix:
 Charge =  0 Multiplicity = 1

 SCF Done:  E(RHF) =  -914.173278131     A.U. after   14 cycles
 Normal termination of Gaussian 16 at Tue Apr  8 19:17:19 2025.
 Gaussian 16:  ES64L-G16RevC.01  3-Jul-2019

 ----------------------------------------------------------------------
 #t hf aug-cc-pvdz iop(5/13=1,5/36=2,99/5=2) pseudo=read geom=check gue
 ss=(read,tcheck) scf=(maxcycle=1)
 ----------------------------------------------------------------------
 -----
 title
 -----
 Structure from the checkpoint file:  "37Conf8_shiepox_depox_7_mol1.chk"
 Charge =  0 Multiplicity = 1

                         Standard orientation:
 ---------------------------------------------------------------------
 Center     Atomic      Atomic             Coordinates (Angstroms)
 Number     Number       Type             X           Y           Z
 ---------------------------------------------------------------------
      1          8           0        0.043481   -1.769770   -1.599030
      2          6           0       -0.006809   -0.873900   -0.784060
      3          6           0       -1.177159   -0.672631    0.196310
      4          6           0        1.083210    0.169750   -0.571960
      5          8           0       -0.734559   -0.854790    1.532110
      6          8           0       -1.634060    0.665589   -0.013470
      7          6           0       -2.419479   -1.523521   -0.061090
      8          1           0        0.778120    1.083700   -1.116640
      9          8           0        2.347860   -0.306439   -0.986590
     10          6           0        1.260980    0.466830    0.941360
     11          6           0        0.675831   -0.678780    1.762730
     12          6           0       -3.089160    0.661999   -0.126810
     13          1           0       -2.467999   -2.391481    0.605200
     14          1           0       -2.439599   -1.857601   -1.112670
     15          8           0       -3.496629   -0.646852    0.257980
     16          6           0        3.311240    0.359781   -0.160480
     17          1           0        0.795170    1.424890    1.220600
     18          8           0        2.672650    0.508581    1.129100
     19          1           0        0.784941   -0.493700    2.838970
     20          1           0        1.226551   -1.603800    1.510280
     21          6           0       -3.666540    1.656238    0.862640
     22          6           0       -3.459170    0.962588   -1.576630
     23          6           0        4.516521   -0.545699   -0.009320
     24          6           0        3.659590    1.736571   -0.724180
     25          1           0       -3.328901    2.672369    0.620410
     26          1           0       -4.763650    1.629838    0.820340
     27          1           0       -3.338050    1.394739    1.875690
     28          1           0       -3.045620    0.196929   -2.246680
     29          1           0       -3.056620    1.939469   -1.876310
     30          1           0       -4.551510    0.979078   -1.689220
     31          1           0        5.003051   -0.691938   -0.982410
     32          1           0        4.198101   -1.518699    0.383990
     33          1           0        5.238360   -0.093978    0.683210
     34          1           0        4.128830    1.634341   -1.711960
     35          1           0        2.758929    2.357601   -0.825130
     36          1           0        4.355630    2.252331   -0.049560
 ---------------------------------------------------------------------

 SCF Done:  E(RHF) =  -918.246493636     A.U. after    2 cycles

 The electronic state is 1-A.
 Alpha  occ. eigenvalues --  -21.08009 -21.06852 -21.06416 -21.06188 -21.05832
 Alpha  occ. eigenvalues --  -21.05820 -11.58375 -11.56116 -11.52756 -11.50790
 Alpha  occ. eigenvalues --  -11.50081 -11.48147 -11.46276 -11.42350 -11.41241
 Alpha  occ. eigenvalues --  -11.41126 -11.37377 -11.37108  -1.89965  -1.85917
 Alpha  occ. eigenvalues --   -1.75839  -1.72039  -1.68004  -1.67148  -1.22285
 Alpha  occ. eigenvalues --   -1.19865  -1.11415  -1.08839  -1.03265  -1.02982
 Alpha  occ. eigenvalues --   -1.00702  -0.92081  -0.88236  -0.81627  -0.81090
 Alpha  occ. eigenvalues --   -0.75408  -0.73327  -0.70180  -0.67579  -0.65177
 Alpha  occ. eigenvalues --   -0.63506  -0.62925  -0.61726  -0.61254  -0.59379
 Alpha  occ. eigenvalues --   -0.58809  -0.57627  -0.55989  -0.55487  -0.54731
 Alpha  occ. eigenvalues --   -0.53958  -0.51915  -0.50734  -0.50404  -0.49741
 Alpha  occ. eigenvalues --   -0.49134  -0.46680  -0.45480  -0.43312  -0.42935
 Alpha  occ. eigenvalues --   -0.39449  -0.37547  -0.37416  -0.35318  -0.32396
 Alpha  occ. eigenvalues --   -0.31701  -0.30858  -0.29309  -0.25879
 Alpha virt. eigenvalues --    0.03173   0.03458   0.03898   0.04486   0.05004
 Alpha virt. eigenvalues --    0.05216   0.05778   0.05987   0.06367   0.07110
 Alpha virt. eigenvalues --    0.07127   0.07334   0.07434   0.08532   0.08848

 Mulliken charges:
               1
     1  O   -4.132410
     2  C    3.522808
     3  C    5.378500
     4  C    0.580962
     5  O   -4.502739
     6  O   -4.156800
     7  C   -2.600488
     8  H    2.008137
     9  O   -4.757656
    10  C   -0.332325
    11  C   -1.960396
    12  C    7.297419
    13  H    1.440888
    14  H    1.599033
    15  O   -4.185937
    16  C    7.245512
    17  H    1.936868
    18  O   -4.528177
    19  H    1.530063
    20  H    1.695533
    21  C   -4.565018
    22  C   -4.562020
    23  C   -5.398263
    24  C   -4.321297
    25  H    1.292384
    26  H    1.284775
    27  H    1.366598
    28  H    1.486511
    29  H    1.308695
    30  H    1.194805
    31  H    1.251492
    32  H    1.382879
    33  H    1.271316
    34  H    1.301972
    35  H    1.411349
    36  H    1.215027
 Sum of Mulliken charges =  -0.00000

 Dipole moment (field-independent basis, Debye):
    X=              0.2544    Y=              0.8687    Z=              0.5089  Tot=              1.0384

 Test job not archived.
 1\1\GINC-SE086\SP\RHF\Aug-CC-pVDZ\C12H18O6\OHZDE\08-Apr-2025\0\\#t hf
 aug-cc-pvdz iop(5/13=1,5/36=2,99/5=2) pseudo=read geom=check guess=(re
 ad,tcheck) scf=(maxcycle=1)\\title\\0,1\O,0,0.04348,-1.76977,-1.59903\
 C,0,-0.00681,-0.8739,-0.78406\C,0,-1.17716,-0.67263,0.19631\C,0,1.0832
 1,0.16975,-0.57196\O,0,-0.73456,-0.85479,1.53211\O,0,-1.63406,0.66559,
 -0.01347\C,0,-2.41948,-1.52352,-0.06109\H,0,0.77812,1.0837,-1.11664\O,
 0,2.34786,-0.30644,-0.98659\C,0,1.26098,0.46683,0.94136\C,0,0.67583,-0
 .67878,1.76273\C,0,-3.08916,0.662,-0.12681\H,0,-2.468,-2.39148,0.6052\

 Normal termination of Gaussian 16 at Tue Apr  8 19:18:22 2025.
