 Gaussian 16, Revision C.01,

 ----------------------------------------------------------------------
 #t hf aug-cc-pvdz symm=none int=(grid=ultrafine) guess=(read,tcheck) s
 table=(opt,rrhf)
 ----------------------------------------------------------------------
 -----
 title
 -----
 Symbolic Z-matrix:
 Charge =  0 Multiplicity = 1

 SCF Done:  E(RHF) =  -891.124605003     A.U. after   14 cycles
 Normal termination of Gaussian 16 at Tue Apr  8 18:10:19 2025.
 Gaussian 16:  ES64L-G16RevC.01  3-Jul-2019

 ----------------------------------------------------------------------
 #t hf aug-cc-pvdz iop(5/13=1,5/36=2,99/5=2) pseudo=read geom=check gue
 ss=(read,tcheck) scf=(maxcycle=1)
 ----------------------------------------------------------------------
 -----
 title
 -----
 Structure from the checkpoint file:  "37Conf8_Glufosinate_2_mol1.chk"
 Charge =  0 Multiplicity = 1

                         Standard orientation:
 ---------------------------------------------------------------------
 Center     Atomic      Atomic             Coordinates (Angstroms)
 Number     Number       Type             X           Y           Z
 ---------------------------------------------------------------------
      1          1           0       -4.299780    1.108482    0.211600
      2          8           0       -3.337570    1.187062    0.380400
      3          6           0       -2.798920   -0.015948    0.058530
      4          6           0       -1.291430   -0.044839    0.268420
      5          8           0       -3.462451   -0.950198   -0.347650
      6          6           0       -0.597950    1.022761   -0.613020
      7          7           0       -0.787921   -1.403059   -0.004360
      8          1           0       -1.112050    0.220021    1.324290
      9          6           0        0.824760    1.393180   -0.162930
     10          1           0       -0.575980    0.637351   -1.644260
     11          1           0       -1.210129    1.935691   -0.617160
     12         15           0        1.929860   -0.042150    0.143250
     13          1           0        1.283781    2.039550   -0.927330
     14          1           0        0.792861    1.964910    0.777960
     15          6           0        3.624460    0.506469   -0.164490
     16          8           0        1.659619   -1.027290   -1.102650
     17          8           0        1.693819   -0.623450    1.503050
     18          1           0        3.744390    0.863689   -1.195340
     19          1           0        4.293200   -0.347252    0.007290
     20          1           0        3.882800    1.305579    0.542540
     21          1           0        0.706979   -1.354010   -0.943390
     22          1           0       -1.578801   -1.995179   -0.278000
     23          1           0       -0.352581   -1.783879    0.839340
 ---------------------------------------------------------------------

 SCF Done:  E(RHF) =  -893.800657451     A.U. after    2 cycles

 The electronic state is 1-A.
 Alpha  occ. eigenvalues -- -105.25334 -21.14090 -21.07454 -21.06415 -20.99090
 Alpha  occ. eigenvalues --  -15.74992 -11.55502 -11.48521 -11.43862 -11.38971
 Alpha  occ. eigenvalues --  -11.38847  -2.87091  -1.90893  -1.84339  -1.79528
 Alpha  occ. eigenvalues --   -1.67291  -1.58079  -1.44665  -1.37093  -1.25688
 Alpha  occ. eigenvalues --   -1.16866  -1.02638  -0.99772  -0.88353  -0.79939
 Alpha  occ. eigenvalues --   -0.72320  -0.68043  -0.64575  -0.63423  -0.62075
 Alpha  occ. eigenvalues --   -0.60092  -0.58607  -0.57935  -0.56056  -0.54461
 Alpha  occ. eigenvalues --   -0.53239  -0.51298  -0.48082  -0.46027  -0.39713
 Alpha  occ. eigenvalues --   -0.36778  -0.35594  -0.33023  -0.31657  -0.31319
 Alpha  occ. eigenvalues --   -0.23665  -0.21537  -0.13571
 Alpha virt. eigenvalues --    0.03608   0.04497   0.05091   0.05371   0.05947
 Alpha virt. eigenvalues --    0.06607   0.06741   0.06779   0.07384   0.08052
 Alpha virt. eigenvalues --    0.08665   0.09399   0.11032   0.11355   0.12210

 Mulliken charges:
               1
     1  H    0.885139
     2  O   -3.242448
     3  C    7.217845
     4  C   -2.658685
     5  O   -3.250204
     6  C   -2.575643
     7  N   -2.632915
     8  H    2.035264
     9  C   -5.210321
    10  H    1.392500
    11  H    1.368379
    12  P   12.233702
    13  H    1.197406
    14  H    1.113595
    15  C   -7.172928
    16  O   -3.522465
    17  O   -3.074478
    18  H    1.097889
    19  H    1.047623
    20  H    1.037608
    21  H    1.448367
    22  H    0.676620
    23  H    0.588153
 Sum of Mulliken charges =  -0.00000

 Dipole moment (field-independent basis, Debye):
    X=             -0.9100    Y=              2.1293    Z=             -1.6023  Tot=              2.8159

 Test job not archived.
 1\1\GINC-SE073\SP\RHF\Aug-CC-pVDZ\C5H12N1O4P1\OHZDE\08-Apr-2025\0\\#t
 hf aug-cc-pvdz iop(5/13=1,5/36=2,99/5=2) pseudo=read geom=check guess=
 (read,tcheck) scf=(maxcycle=1)\\title\\0,1\H,0,-4.29978,1.10848,0.2116
 \O,0,-3.33757,1.18706,0.3804\C,0,-2.79892,-0.01595,0.05853\C,0,-1.2914
 3,-0.04484,0.26842\O,0,-3.46245,-0.9502,-0.34765\C,0,-0.59795,1.02276,
 -0.61302\N,0,-0.78792,-1.40306,-0.00436\H,0,-1.11205,0.22002,1.32429\C
 ,0,0.82476,1.39318,-0.16293\H,0,-0.57598,0.63735,-1.64426\H,0,-1.21013
 ,1.93569,-0.61716\P,0,1.92986,-0.04215,0.14325\H,0,1.28378,2.03955,-0.

 Normal termination of Gaussian 16 at Tue Apr  8 18:10:35 2025.
