 Gaussian 16, Revision C.01,

 ----------------------------------------------------------------------
 #t hf aug-cc-pvdz symm=none int=(grid=ultrafine) guess=(read,tcheck) s
 table=(opt,rrhf)
 ----------------------------------------------------------------------
 -----
 title
 -----
 Symbolic Z-matrix:
 Charge =  0 Multiplicity = 1

 SCF Done:  E(RHF) =  -917.588429628     A.U. after   12 cycles
 Normal termination of Gaussian 16 at Tue Apr  8 17:44:17 2025.
 Gaussian 16:  ES64L-G16RevC.01  3-Jul-2019

 ----------------------------------------------------------------------
 #t hf aug-cc-pvdz iop(5/13=1,5/36=2,99/5=2) pseudo=read geom=check gue
 ss=(read,tcheck) scf=(maxcycle=1)
 ----------------------------------------------------------------------
 -----
 title
 -----
 Structure from the checkpoint file:  "37Conf8_18crown6_8_mol1.chk"
 Charge =  0 Multiplicity = 1

                         Standard orientation:
 ---------------------------------------------------------------------
 Center     Atomic      Atomic             Coordinates (Angstroms)
 Number     Number       Type             X           Y           Z
 ---------------------------------------------------------------------
      1          1           0       -1.118510   -1.321201    1.240790
      2          6           0       -1.175889   -2.021031    0.384530
      3          1           0       -1.300859   -3.041961    0.795360
      4          8           0        0.000000   -1.926790   -0.405780
      5          6           0       -2.362670   -1.631921   -0.481860
      6          6           0        1.175891   -2.021030    0.384530
      7          1           0       -2.124720   -0.693811   -1.009490
      8          1           0       -2.569759   -2.407261   -1.244170
      9          8           0       -3.483820   -1.469801    0.385220
     10          1           0        1.300861   -3.041950    0.795360
     11          1           0        1.118520   -1.321200    1.240790
     12          6           0        2.362670   -1.631920   -0.481860
     13          6           0       -4.564380   -0.737931   -0.191420
     14          1           0        2.124730   -0.693810   -1.009490
     15          1           0        2.569771   -2.407260   -1.244170
     16          8           0        3.483820   -1.469800    0.385220
     17          1           0       -5.499020   -1.190971    0.183330
     18          1           0       -4.557610   -0.836801   -1.291820
     19          6           0       -4.564390    0.737929    0.191410
     20          6           0        4.564390   -0.737930   -0.191420
     21          1           0       -5.499030    1.190959   -0.183350
     22          1           0       -4.557630    0.836799    1.291810
     23          8           0       -3.483820    1.469799   -0.385230
     24          1           0        4.557620   -0.836800   -1.291820
     25          1           0        5.499030   -1.190959    0.183330
     26          6           0        4.564390    0.737930    0.191410
     27          6           0       -2.362670    1.631919    0.481860
     28          1           0        4.557620    0.836800    1.291810
     29          1           0        5.499020    1.190971   -0.183340
     30          8           0        3.483810    1.469800   -0.385230
     31          1           0       -2.569780    2.407239    1.244180
     32          1           0       -2.124730    0.693799    1.009480
     33          6           0       -1.175890    2.021039   -0.384520
     34          6           0        2.362670    1.631920    0.481860
     35          1           0       -1.118520    1.321229   -1.240790
     36          1           0       -1.300860    3.041969   -0.795330
     37          8           0       -0.000000    1.926780    0.405790
     38          1           0        2.569770    2.407240    1.244180
     39          1           0        2.124720    0.693800    1.009480
     40          6           0        1.175890    2.021040   -0.384520
     41          1           0        1.300860    3.041970   -0.795330
     42          1           0        1.118510    1.321230   -1.240790
 ---------------------------------------------------------------------

 SCF Done:  E(RHF) =  -921.756261713     A.U. after    2 cycles

 The electronic state is 1-A.
 Alpha  occ. eigenvalues --  -21.04569 -21.04563 -21.04273 -21.04267 -21.04241
 Alpha  occ. eigenvalues --  -21.04233 -11.49060 -11.48756 -11.47810 -11.47047
 Alpha  occ. eigenvalues --  -11.45575 -11.45538 -11.41234 -11.39951 -11.39876
 Alpha  occ. eigenvalues --  -11.39669 -11.39368 -11.39070  -1.79030  -1.77125
 Alpha  occ. eigenvalues --   -1.76534  -1.72831  -1.72597  -1.71116  -1.15701
 Alpha  occ. eigenvalues --   -1.12354  -1.11893  -1.04790  -1.03752  -0.98088
 Alpha  occ. eigenvalues --   -0.89358  -0.87104  -0.86511  -0.86072  -0.84488
 Alpha  occ. eigenvalues --   -0.84294  -0.69758  -0.68073  -0.67956  -0.65953
 Alpha  occ. eigenvalues --   -0.65826  -0.64677  -0.63237  -0.63071  -0.61416
 Alpha  occ. eigenvalues --   -0.60130  -0.59651  -0.58156  -0.57674  -0.55303
 Alpha  occ. eigenvalues --   -0.54776  -0.54596  -0.54007  -0.52075  -0.51901
 Alpha  occ. eigenvalues --   -0.50407  -0.50259  -0.48030  -0.42425  -0.41854
 Alpha  occ. eigenvalues --   -0.40520  -0.39404  -0.38449  -0.38370  -0.38317
 Alpha  occ. eigenvalues --   -0.37480  -0.33895  -0.32169  -0.30516  -0.29455
 Alpha  occ. eigenvalues --   -0.27047  -0.26698
 Alpha virt. eigenvalues --    0.04093   0.04554   0.04787   0.05261   0.05308
 Alpha virt. eigenvalues --    0.05413   0.05540   0.05549   0.05726   0.05822
 Alpha virt. eigenvalues --    0.06057   0.06541   0.07200   0.07410   0.07576

 Mulliken charges:
               1
     1  H    2.183829
     2  C   -1.209389
     3  H    1.612436
     4  O   -3.619330
     5  C   -2.895988
     6  C   -1.209369
     7  H    2.514376
     8  H    1.539267
     9  O   -3.420418
    10  H    1.612451
    11  H    2.183839
    12  C   -2.896016
    13  C   -1.624994
    14  H    2.514372
    15  H    1.539270
    16  O   -3.420396
    17  H    1.312591
    18  H    1.797959
    19  C   -1.625037
    20  C   -1.625039
    21  H    1.312587
    22  H    1.797956
    23  O   -3.420379
    24  H    1.797961
    25  H    1.312590
    26  C   -1.625080
    27  C   -2.896046
    28  H    1.797966
    29  H    1.312604
    30  O   -3.420391
    31  H    1.539273
    32  H    2.514387
    33  C   -1.209363
    34  C   -2.895982
    35  H    2.183840
    36  H    1.612437
    37  O   -3.619329
    38  H    1.539271
    39  H    2.514382
    40  C   -1.209368
    41  H    1.612438
    42  H    2.183831
 Sum of Mulliken charges =   0.00000

 Dipole moment (field-independent basis, Debye):
    X=              0.0001    Y=              0.0000    Z=             -0.0000  Tot=              0.0001

 Test job not archived.
 1\1\GINC-SE046\SP\RHF\Aug-CC-pVDZ\C12H24O6\OHZDE\08-Apr-2025\0\\#t hf
 aug-cc-pvdz iop(5/13=1,5/36=2,99/5=2) pseudo=read geom=check guess=(re
 ad,tcheck) scf=(maxcycle=1)\\title\\0,1\H,0,1.11851,-1.3212,-1.24079\C
 ,0,1.17589,-2.02103,-0.38453\H,0,1.30086,-3.04196,-0.79536\O,0,0.,-1.9
 2679,0.40578\C,0,2.36267,-1.63192,0.48186\C,0,-1.17589,-2.02103,-0.384
 53\H,0,2.12472,-0.69381,1.00949\H,0,2.56976,-2.40726,1.24417\O,0,3.483
 82,-1.4698,-0.38522\H,0,-1.30086,-3.04195,-0.79536\H,0,-1.11852,-1.321
 2,-1.24079\C,0,-2.36267,-1.63192,0.48186\C,0,4.56438,-0.73793,0.19142\

 Normal termination of Gaussian 16 at Tue Apr  8 17:45:36 2025.
