 Gaussian 16, Revision C.01,

 ----------------------------------------------------------------------
 #t hf aug-cc-pvdz symm=none int=(grid=ultrafine) guess=(read,tcheck) s
 table=(opt,rrhf)
 ----------------------------------------------------------------------
 -----
 title
 -----
 Symbolic Z-matrix:
 Charge =  0 Multiplicity = 1

 SCF Done:  E(RHF) =  -1667.18152590     A.U. after   12 cycles
 Normal termination of Gaussian 16 at Tue Apr  8 18:29:02 2025.
 Gaussian 16:  ES64L-G16RevC.01  3-Jul-2019

 ----------------------------------------------------------------------
 #t hf aug-cc-pvdz iop(5/13=1,5/36=2,99/5=2) pseudo=read geom=check gue
 ss=(read,tcheck) scf=(maxcycle=1)
 ----------------------------------------------------------------------
 -----
 title
 -----
 Structure from the checkpoint file:  "37Conf8_N_iprit_3_mol1.chk"
 Charge =  0 Multiplicity = 1

                         Standard orientation:
 ---------------------------------------------------------------------
 Center     Atomic      Atomic             Coordinates (Angstroms)
 Number     Number       Type             X           Y           Z
 ---------------------------------------------------------------------
      1          1           0       -1.066301    0.457135   -1.178040
      2          6           0       -1.225308   -0.194896   -0.305820
      3          6           0       -2.398800    0.336528    0.514270
      4          7           0       -0.018758   -0.240420    0.503860
      5          1           0       -1.493343   -1.186657   -0.712350
      6         17           0       -3.919970    0.313691   -0.452630
      7          1           0       -2.226565    1.372879    0.828270
      8          1           0       -2.576457   -0.280163    1.404110
      9          6           0        1.101449    0.571075    0.049960
     10          6           0        0.265418   -1.499889    1.162910
     11          6           0        0.850262    2.039004    0.385500
     12          1           0        1.296179    0.468106   -1.034160
     13          1           0        2.012700    0.236719    0.563070
     14          6           0        0.587144   -2.707048    0.280210
     15          1           0       -0.615930   -1.790063    1.765430
     16          1           0        1.089428   -1.344795    1.875330
     17         17           0        2.210747    3.064610   -0.196610
     18          1           0       -0.057350    2.418849   -0.101580
     19          1           0        0.764631    2.184883    1.469050
     20         17           0        2.146443   -2.533320   -0.606160
     21          1           0       -0.183065   -2.875641   -0.482980
     22          1           0        0.673648   -3.611627    0.896490
 ---------------------------------------------------------------------

 SCF Done:  E(RHF) =  -1669.37157077     A.U. after    2 cycles

 The electronic state is 1-A.
 Alpha  occ. eigenvalues --  -99.88469 -99.88357 -99.87888 -15.72571 -11.48528
 Alpha  occ. eigenvalues --  -11.47631 -11.46839 -11.42148 -11.41566 -11.40815
 Alpha  occ. eigenvalues --  -10.45777 -10.45638 -10.45170  -9.65730  -9.65579
 Alpha  occ. eigenvalues --   -9.65178  -9.65120  -9.64943  -9.64827  -9.64771
 Alpha  occ. eigenvalues --   -9.64353  -9.64276  -1.47644  -1.33864  -1.33540
 Alpha  occ. eigenvalues --   -1.31229  -1.13868  -1.13269  -1.02611  -0.93337
 Alpha  occ. eigenvalues --   -0.91792  -0.82731  -0.71590  -0.69693  -0.68598
 Alpha  occ. eigenvalues --   -0.66120  -0.63524  -0.62125  -0.61059  -0.58953
 Alpha  occ. eigenvalues --   -0.58254  -0.56940  -0.55702  -0.52727  -0.51594
 Alpha  occ. eigenvalues --   -0.50919  -0.48631  -0.48303  -0.47511  -0.47368
 Alpha  occ. eigenvalues --   -0.46263  -0.45030  -0.32356
 Alpha virt. eigenvalues --    0.02928   0.04409   0.04872   0.05177   0.05523
 Alpha virt. eigenvalues --    0.06118   0.06316   0.06589   0.07068   0.07716
 Alpha virt. eigenvalues --    0.08019   0.08455   0.08924   0.09151   0.09758

 Mulliken charges:
               1
     1  H    1.829733
     2  C   -2.416577
     3  C   -3.855939
     4  N   -2.354429
     5  H    1.732459
     6  Cl  -0.056580
     7  H    1.821077
     8  H    1.781496
     9  C   -1.924841
    10  C   -2.379411
    11  C   -4.146188
    12  H    1.706024
    13  H    1.835953
    14  C   -3.669848
    15  H    1.678785
    16  H    1.711254
    17  Cl  -0.061949
    18  H    1.813978
    19  H    1.611432
    20  Cl   0.083323
    21  H    1.814004
    22  H    1.446243
 Sum of Mulliken charges =  -0.00000

 Dipole moment (field-independent basis, Debye):
    X=             -0.9914    Y=             -2.1344    Z=              2.6916  Tot=              3.5753

 Test job not archived.
 1\1\GINC-SE328\SP\RHF\Aug-CC-pVDZ\C6H12Cl3N1\OHZDE\08-Apr-2025\0\\#t h
 f aug-cc-pvdz iop(5/13=1,5/36=2,99/5=2) pseudo=read geom=check guess=(
 read,tcheck) scf=(maxcycle=1)\\title\\0,1\H,0,-1.0663,0.45714,-1.17804
 \C,0,-1.22531,-0.19489,-0.30582\C,0,-2.3988,0.33654,0.51427\N,0,-0.018
 76,-0.24042,0.50386\H,0,-1.49335,-1.18665,-0.71235\Cl,0,-3.91997,0.313
 71,-0.45263\H,0,-2.22656,1.37289,0.82827\H,0,-2.57646,-0.28015,1.40411
 \C,0,1.10145,0.57107,0.04996\C,0,0.26541,-1.49989,1.16291\C,0,0.85027,
 2.039,0.3855\H,0,1.29618,0.4681,-1.03416\H,0,2.0127,0.23671,0.56307\C,

 Normal termination of Gaussian 16 at Tue Apr  8 18:29:18 2025.
