 Gaussian 16, Revision C.01,

 ----------------------------------------------------------------------
 #t hf aug-cc-pvdz symm=none int=(grid=ultrafine) guess=(read,tcheck) s
 table=(opt,rrhf)
 ----------------------------------------------------------------------
 -----
 title
 -----
 Symbolic Z-matrix:
 Charge =  0 Multiplicity = 1

 SCF Done:  E(RHF) =  -787.719901697     A.U. after   16 cycles
 Normal termination of Gaussian 16 at Tue Apr  8 18:03:32 2025.
 Gaussian 16:  ES64L-G16RevC.01  3-Jul-2019

 ----------------------------------------------------------------------
 #t hf aug-cc-pvdz iop(5/13=1,5/36=2,99/5=2) pseudo=read geom=check gue
 ss=(read,tcheck) scf=(maxcycle=1)
 ----------------------------------------------------------------------
 -----
 title
 -----
 Structure from the checkpoint file:  "37Conf8_Eperisone_2_mol1.chk"
 Charge =  0 Multiplicity = 1

                         Standard orientation:
 ---------------------------------------------------------------------
 Center     Atomic      Atomic             Coordinates (Angstroms)
 Number     Number       Type             X           Y           Z
 ---------------------------------------------------------------------
      1          8           0        0.321700    2.145730    1.574330
      2          6           0        0.138100    1.589559    0.492890
      3          6           0        1.146710    1.798560   -0.631490
      4          6           0       -1.090419    0.761509    0.271050
      5          6           0        2.598410    1.510590   -0.149880
      6          6           0        1.042030    3.261660   -1.091770
      7          1           0        0.924920    1.145380   -1.485690
      8          6           0       -1.393509    0.116559   -0.938820
      9          6           0       -1.995189    0.630729    1.339190
     10          7           0        2.992751    0.125450    0.015090
     11          1           0        3.284280    1.967661   -0.882750
     12          1           0        2.736460    2.034070    0.809700
     13          6           0        3.027761   -0.644720   -1.222280
     14          6           0        2.301061   -0.576900    1.088880
     15          1           0        3.557901   -0.048559   -1.982280
     16          1           0        2.003541   -0.842800   -1.620060
     17          6           0        3.727882   -1.986079   -1.008990
     18          1           0        2.306461    0.066800    1.981200
     19          1           0        1.228981   -0.758130    0.835080
     20          6           0        2.967192   -1.920370    1.381460
     21          1           0        3.719192   -2.558469   -1.949810
     22          1           0        4.781601   -1.797599   -0.745370
     23          6           0        3.048542   -2.773040    0.113830
     24          1           0        2.403272   -2.443130    2.169440
     25          1           0        3.982401   -1.734909    1.769320
     26          1           0        3.584812   -3.714299    0.309610
     27          1           0        2.026932   -3.049000   -0.203830
     28          1           0        1.748840    3.456260   -1.911410
     29          1           0        0.029920    3.502819   -1.447490
     30          1           0        1.278289    3.935470   -0.256110
     31          1           0       -0.715539    0.188729   -1.789400
     32          6           0       -2.560409   -0.633171   -1.072060
     33          1           0       -1.751870    1.132679    2.276690
     34          6           0       -3.155519   -0.119942    1.201760
     35          1           0       -2.775989   -1.131622   -2.020450
     36          6           0       -3.461329   -0.766572   -0.007050
     37          1           0       -3.842739   -0.215402    2.046460
     38          6           0       -4.745149   -1.537652   -0.168850
     39          6           0       -5.902469   -0.641843   -0.636310
     40          1           0       -4.596068   -2.352062   -0.895050
     41          1           0       -5.012678   -2.009442    0.789770
     42          1           0       -5.670969   -0.177533   -1.605740
     43          1           0       -6.830059   -1.221783   -0.745960
     44          1           0       -6.086919    0.167607    0.084540
 ---------------------------------------------------------------------

 SCF Done:  E(RHF) =  -791.576921926     A.U. after    2 cycles

 The electronic state is 1-A.
 Alpha  occ. eigenvalues --  -21.03536 -15.69211 -11.54428 -11.51334 -11.46410
 Alpha  occ. eigenvalues --  -11.45822 -11.45426 -11.44956 -11.44350 -11.42461
 Alpha  occ. eigenvalues --  -11.42270 -11.41931 -11.40872 -11.40375 -11.39039
 Alpha  occ. eigenvalues --  -11.37916 -11.37215 -11.36744 -11.34410  -1.69685
 Alpha  occ. eigenvalues --   -1.44502  -1.36280  -1.23592  -1.19834  -1.16661
 Alpha  occ. eigenvalues --   -1.11442  -1.09814  -1.07613  -0.99829  -0.95107
 Alpha  occ. eigenvalues --   -0.90943  -0.89473  -0.87250  -0.86500  -0.83261
 Alpha  occ. eigenvalues --   -0.77426  -0.75059  -0.70541  -0.66732  -0.65888
 Alpha  occ. eigenvalues --   -0.63772  -0.63013  -0.62419  -0.61353  -0.60377
 Alpha  occ. eigenvalues --   -0.58586  -0.58004  -0.57482  -0.56594  -0.56053
 Alpha  occ. eigenvalues --   -0.54319  -0.53259  -0.52667  -0.51083  -0.50487
 Alpha  occ. eigenvalues --   -0.49541  -0.48002  -0.47494  -0.46833  -0.45917
 Alpha  occ. eigenvalues --   -0.45494  -0.44402  -0.43192  -0.42647  -0.41749
 Alpha  occ. eigenvalues --   -0.39935  -0.39489  -0.33779  -0.30936  -0.28700
 Alpha  occ. eigenvalues --   -0.27316
 Alpha virt. eigenvalues --    0.03603   0.03925   0.04235   0.04870   0.04971
 Alpha virt. eigenvalues --    0.05054   0.05458   0.05915   0.06031   0.06141
 Alpha virt. eigenvalues --    0.06425   0.06494   0.06589   0.07122   0.07386

 Mulliken charges:
               1
     1  O   -4.744781
     2  C    7.439581
     3  C   -3.032454
     4  C    2.104424
     5  C   -3.647468
     6  C   -5.424324
     7  H    2.497280
     8  C   -0.616819
     9  C   -4.582760
    10  N   -1.652832
    11  H    1.535109
    12  H    1.656725
    13  C   -2.727354
    14  C   -2.885126
    15  H    1.520875
    16  H    2.063018
    17  C   -3.079244
    18  H    1.767948
    19  H    2.670717
    20  C   -3.443855
    21  H    1.253797
    22  H    1.409557
    23  C   -3.387489
    24  H    1.328830
    25  H    1.285081
    26  H    1.413408
    27  H    1.493917
    28  H    1.326876
    29  H    1.294111
    30  H    1.314261
    31  H    2.455690
    32  C   -2.515611
    33  H    2.020381
    34  C   -0.265507
    35  H    1.897055
    36  C    1.115256
    37  H    1.880950
    38  C   -4.926489
    39  C   -4.235721
    40  H    1.190067
    41  H    1.174697
    42  H    1.426224
    43  H    1.200652
    44  H    1.431347
 Sum of Mulliken charges =  -0.00000

 Dipole moment (field-independent basis, Debye):
    X=             -1.1842    Y=             -1.0472    Z=             -0.8231  Tot=              1.7823

 Test job not archived.
 1\1\GINC-SE461\SP\RHF\Aug-CC-pVDZ\C17H25N1O1\OHZDE\08-Apr-2025\0\\#t h
 f aug-cc-pvdz iop(5/13=1,5/36=2,99/5=2) pseudo=read geom=check guess=(
 read,tcheck) scf=(maxcycle=1)\\title\\0,1\O,0,0.3217,2.14573,1.57433\C
 ,0,0.1381,1.58956,0.49289\C,0,1.14671,1.79856,-0.63149\C,0,-1.09042,0.
 76151,0.27105\C,0,2.59841,1.51059,-0.14988\C,0,1.04203,3.26166,-1.0917
 7\H,0,0.92492,1.14538,-1.48569\C,0,-1.39351,0.11656,-0.93882\C,0,-1.99
 519,0.63073,1.33919\N,0,2.99275,0.12545,0.01509\H,0,3.28428,1.96766,-0
 .88275\H,0,2.73646,2.03407,0.8097\C,0,3.02776,-0.64472,-1.22228\C,0,2.

 Normal termination of Gaussian 16 at Tue Apr  8 18:05:07 2025.
