 Gaussian 16, Revision C.01,

 ----------------------------------------------------------------------
 #t hf aug-cc-pvdz symm=none int=(grid=ultrafine) guess=(read,tcheck) s
 table=(opt,rrhf)
 ----------------------------------------------------------------------
 -----
 title
 -----
 Symbolic Z-matrix:
 Charge =  0 Multiplicity = 1

 SCF Done:  E(RHF) =  -822.382380918     A.U. after   17 cycles
 Normal termination of Gaussian 16 at Tue Apr  8 19:06:46 2025.
 Gaussian 16:  ES64L-G16RevC.01  3-Jul-2019

 ----------------------------------------------------------------------
 #t hf aug-cc-pvdz iop(5/13=1,5/36=2,99/5=2) pseudo=read geom=check gue
 ss=(read,tcheck) scf=(maxcycle=1)
 ----------------------------------------------------------------------
 -----
 title
 -----
 Structure from the checkpoint file:  "37Conf8_Propranolol_8_mol2.chk"
 Charge =  0 Multiplicity = 1

                         Standard orientation:
 ---------------------------------------------------------------------
 Center     Atomic      Atomic             Coordinates (Angstroms)
 Number     Number       Type             X           Y           Z
 ---------------------------------------------------------------------
      1          1           0       -4.075160   -1.165730   -0.233521
      2          8           0       -3.810549   -1.642550   -1.054471
      3          6           0       -2.623270   -0.959580   -1.440341
      4          6           0       -2.791640    0.547670   -1.191111
      5          6           0       -1.455209   -1.573410   -0.665881
      6          1           0       -2.476490   -1.129170   -2.519271
      7          7           0       -3.240980    0.775860    0.187109
      8          1           0       -3.566970    0.906780   -1.883631
      9          1           0       -1.856130    1.079400   -1.433401
     10          6           0       -2.212790    1.218860    1.149879
     11          1           0       -4.012260    1.444540    0.202249
     12          6           0       -1.696690    2.636620    0.878619
     13          6           0       -2.775270    1.092570    2.562819
     14          1           0       -1.364110    0.524190    1.048979
     15          1           0       -1.296410    2.734800   -0.140361
     16          1           0       -2.507930    3.372050    1.003849
     17          1           0       -0.888660    2.900980    1.576189
     18          1           0       -3.646170    1.755370    2.693609
     19          1           0       -3.099640    0.062280    2.762819
     20          1           0       -2.024100    1.378330    3.312409
     21          8           0       -0.267230   -0.832400   -0.959921
     22          1           0       -1.335399   -2.632670   -0.948421
     23          1           0       -1.675589   -1.529270    0.415259
     24          6           0        0.834750   -1.051120   -0.186731
     25          6           0        0.943421   -2.069390    0.745639
     26          6           0        1.912190   -0.129550   -0.389181
     27          1           0        0.127501   -2.774750    0.894649
     28          6           0        2.129531   -2.207750    1.504559
     29          6           0        1.830010    0.931390   -1.324791
     30          6           0        3.104190   -0.287650    0.391149
     31          1           0        2.194841   -3.019520    2.231129
     32          6           0        3.187690   -1.343710    1.337789
     33          1           0        0.920970    1.040060   -1.915881
     34          6           0        2.884470    1.807200   -1.489591
     35          6           0        4.167540    0.631160    0.192639
     36          1           0        4.099701   -1.455900    1.926829
     37          1           0        2.809110    2.620320   -2.213511
     38          6           0        4.063290    1.655680   -0.725051
     39          1           0        5.076690    0.510210    0.785999
     40          1           0        4.891990    2.352320   -0.863101
 ---------------------------------------------------------------------

 SCF Done:  E(RHF) =  -826.292507883     A.U. after    2 cycles

 The electronic state is 1-A.
 Alpha  occ. eigenvalues --  -21.07571 -21.05305 -15.72078 -11.54476 -11.50820
 Alpha  occ. eigenvalues --  -11.49281 -11.47435 -11.45732 -11.44832 -11.43680
 Alpha  occ. eigenvalues --  -11.43285 -11.41968 -11.41821 -11.41647 -11.39751
 Alpha  occ. eigenvalues --  -11.39550 -11.39195 -11.36939 -11.36027  -1.80043
 Alpha  occ. eigenvalues --   -1.70121  -1.39824  -1.37702  -1.23167  -1.17285
 Alpha  occ. eigenvalues --   -1.13796  -1.08598  -1.07663  -1.02885  -1.00556
 Alpha  occ. eigenvalues --   -0.97282  -0.89028  -0.88017  -0.84899  -0.82508
 Alpha  occ. eigenvalues --   -0.80785  -0.72727  -0.70374  -0.70042  -0.67589
 Alpha  occ. eigenvalues --   -0.65379  -0.63984  -0.62940  -0.60957  -0.60671
 Alpha  occ. eigenvalues --   -0.58603  -0.58551  -0.55534  -0.55346  -0.54970
 Alpha  occ. eigenvalues --   -0.54533  -0.53730  -0.53545  -0.52773  -0.49312
 Alpha  occ. eigenvalues --   -0.48922  -0.47389  -0.46079  -0.45395  -0.44441
 Alpha  occ. eigenvalues --   -0.43888  -0.42787  -0.41753  -0.39013  -0.38749
 Alpha  occ. eigenvalues --   -0.33515  -0.33344  -0.31757  -0.30275  -0.24645
 Alpha virt. eigenvalues --    0.03661   0.04280   0.04514   0.04656   0.04864
 Alpha virt. eigenvalues --    0.05572   0.05656   0.05880   0.06300   0.06461
 Alpha virt. eigenvalues --    0.06765   0.07095   0.07522   0.07683   0.08210

 Mulliken charges:
               1
     1  H    0.797608
     2  O   -3.379616
     3  C    0.521132
     4  C   -3.974617
     5  C   -2.249956
     6  H    1.748599
     7  N   -1.862548
     8  H    1.291368
     9  H    2.079877
    10  C   -0.315558
    11  H    0.460792
    12  C   -4.295540
    13  C   -5.533565
    14  H    2.997938
    15  H    1.575749
    16  H    1.274532
    17  H    1.344209
    18  H    1.350404
    19  H    1.393311
    20  H    1.228107
    21  O   -5.050194
    22  H    1.595616
    23  H    2.173067
    24  C    7.054938
    25  C   -5.015494
    26  C    4.183897
    27  H    1.966353
    28  C   -3.332036
    29  C   -1.150248
    30  C    5.194922
    31  H    1.479316
    32  C   -3.337062
    33  H    2.276254
    34  C   -3.768807
    35  C   -2.926206
    36  H    1.732275
    37  H    1.487442
    38  C   -4.198169
    39  H    1.694667
    40  H    1.487243
 Sum of Mulliken charges =  -0.00000

 Dipole moment (field-independent basis, Debye):
    X=             -0.3632    Y=              1.5589    Z=             -0.0191  Tot=              1.6008

 Test job not archived.
 1\1\GINC-SE393\SP\RHF\Aug-CC-pVDZ\C16H21N1O2\OHZDE\08-Apr-2025\0\\#t h
 f aug-cc-pvdz iop(5/13=1,5/36=2,99/5=2) pseudo=read geom=check guess=(
 read,tcheck) scf=(maxcycle=1)\\title\\0,1\H,0,-4.07516,-1.16573,-0.233
 52\O,0,-3.81055,-1.64255,-1.05447\C,0,-2.62327,-0.95958,-1.44034\C,0,-
 2.79164,0.54767,-1.19111\C,0,-1.45521,-1.57341,-0.66588\H,0,-2.47649,-
 1.12917,-2.51927\N,0,-3.24098,0.77586,0.18711\H,0,-3.56697,0.90678,-1.
 88363\H,0,-1.85613,1.0794,-1.4334\C,0,-2.21279,1.21886,1.14988\H,0,-4.
 01226,1.44454,0.20225\C,0,-1.69669,2.63662,0.87862\C,0,-2.77527,1.0925

 Normal termination of Gaussian 16 at Tue Apr  8 19:08:07 2025.
