 Gaussian 16, Revision C.01,

 ----------------------------------------------------------------------
 #t hf aug-cc-pvdz symm=none int=(grid=ultrafine) guess=(read,tcheck) s
 table=(opt,rrhf)
 ----------------------------------------------------------------------
 -----
 title
 -----
 Symbolic Z-matrix:
 Charge =  0 Multiplicity = 1

 SCF Done:  E(RHF) =  -914.173851091     A.U. after   14 cycles
 Normal termination of Gaussian 16 at Tue Apr  8 19:17:01 2025.
 Gaussian 16:  ES64L-G16RevC.01  3-Jul-2019

 ----------------------------------------------------------------------
 #t hf aug-cc-pvdz iop(5/13=1,5/36=2,99/5=2) pseudo=read geom=check gue
 ss=(read,tcheck) scf=(maxcycle=1)
 ----------------------------------------------------------------------
 -----
 title
 -----
 Structure from the checkpoint file:  "37Conf8_shiepox_depox_6_mol1.chk"
 Charge =  0 Multiplicity = 1

                         Standard orientation:
 ---------------------------------------------------------------------
 Center     Atomic      Atomic             Coordinates (Angstroms)
 Number     Number       Type             X           Y           Z
 ---------------------------------------------------------------------
      1          8           0       -0.159070    1.784961    0.479680
      2          6           0       -0.104350    0.676381   -0.009900
      3          6           0        1.118790   -0.259769    0.187550
      4          6           0       -1.194730    0.043301   -0.866600
      5          8           0        0.721860   -1.634839    0.065310
      6          8           0        2.028260    0.003781   -0.844290
      7          6           0        1.915330    0.008181    1.474640
      8          1           0       -0.760570   -0.146819   -1.863890
      9          8           0       -2.367870    0.810671   -0.988060
     10          6           0       -1.659770   -1.267089   -0.199950
     11          6           0       -0.553720   -1.877929    0.664810
     12          6           0        3.363380    0.205031   -0.270000
     13          1           0        1.764360    1.048711    1.807310
     14          1           0        1.654170   -0.688049    2.281190
     15          8           0        3.256540   -0.249159    1.073350
     16          6           0       -3.368520    0.280091   -0.079000
     17          1           0       -2.009610   -1.979399   -0.969660
     18          8           0       -2.736220   -0.812919    0.612690
     19          1           0       -0.648810   -2.966889    0.753130
     20          1           0       -0.622000   -1.442529    1.680350
     21          6           0        3.695450    1.691421   -0.347090
     22          6           0        4.349350   -0.679609   -1.005830
     23          6           0       -4.550780   -0.209199   -0.906500
     24          6           0       -3.743250    1.333141    0.947800
     25          1           0        3.693560    2.023191   -1.393830
     26          1           0        4.689320    1.875321    0.082680
     27          1           0        2.951000    2.283611    0.201170
     28          1           0        4.395870   -0.393499   -2.064430
     29          1           0        4.032120   -1.726199   -0.925360
     30          1           0        5.349640   -0.568289   -0.566430
     31          1           0       -4.235120   -1.009649   -1.588920
     32          1           0       -4.956180    0.616820   -1.505780
     33          1           0       -5.341660   -0.592390   -0.247730
     34          1           0       -4.227430    2.183221    0.449610
     35          1           0       -2.839670    1.688431    1.457240
     36          1           0       -4.440080    0.910731    1.684350
 ---------------------------------------------------------------------

 SCF Done:  E(RHF) =  -918.248984807     A.U. after    2 cycles

 The electronic state is 1-A.
 Alpha  occ. eigenvalues --  -21.07621 -21.06752 -21.06260 -21.06215 -21.05904
 Alpha  occ. eigenvalues --  -21.05780 -11.59117 -11.55283 -11.53515 -11.50607
 Alpha  occ. eigenvalues --  -11.49903 -11.48561 -11.46349 -11.42893 -11.40735
 Alpha  occ. eigenvalues --  -11.40619 -11.36851 -11.36681  -1.90136  -1.85930
 Alpha  occ. eigenvalues --   -1.75857  -1.71941  -1.67957  -1.67117  -1.22191
 Alpha  occ. eigenvalues --   -1.19440  -1.10659  -1.08105  -1.03284  -1.02628
 Alpha  occ. eigenvalues --   -1.01371  -0.91907  -0.87984  -0.81517  -0.80893
 Alpha  occ. eigenvalues --   -0.75340  -0.73038  -0.69225  -0.68336  -0.66483
 Alpha  occ. eigenvalues --   -0.64410  -0.62372  -0.61624  -0.61123  -0.59758
 Alpha  occ. eigenvalues --   -0.58894  -0.57584  -0.56064  -0.54990  -0.54591
 Alpha  occ. eigenvalues --   -0.52690  -0.50843  -0.50133  -0.49758  -0.49252
 Alpha  occ. eigenvalues --   -0.48456  -0.47013  -0.44438  -0.43969  -0.41570
 Alpha  occ. eigenvalues --   -0.39953  -0.37401  -0.36944  -0.34573  -0.33550
 Alpha  occ. eigenvalues --   -0.31679  -0.31078  -0.30826  -0.25390
 Alpha virt. eigenvalues --    0.03235   0.03684   0.03928   0.04593   0.04940
 Alpha virt. eigenvalues --    0.05324   0.05847   0.06095   0.06631   0.06876
 Alpha virt. eigenvalues --    0.07088   0.07151   0.07596   0.08354   0.08968

 Mulliken charges:
               1
     1  O   -4.103817
     2  C    5.043420
     3  C    5.292563
     4  C   -0.618746
     5  O   -4.070356
     6  O   -4.384175
     7  C   -2.646995
     8  H    1.918023
     9  O   -4.406389
    10  C   -0.020150
    11  C   -3.349212
    12  C    7.137309
    13  H    1.719043
    14  H    1.573191
    15  O   -4.307509
    16  C    7.215161
    17  H    1.878917
    18  O   -4.386000
    19  H    1.373521
    20  H    1.707107
    21  C   -4.484817
    22  C   -4.535773
    23  C   -4.503215
    24  C   -4.854632
    25  H    1.256746
    26  H    1.243805
    27  H    1.510103
    28  H    1.274754
    29  H    1.403130
    30  H    1.269942
    31  H    1.432252
    32  H    1.211235
    33  H    1.274761
    34  H    1.287855
    35  H    1.427115
    36  H    1.221831
 Sum of Mulliken charges =   0.00000

 Dipole moment (field-independent basis, Debye):
    X=             -0.1008    Y=             -0.9110    Z=             -0.0097  Tot=              0.9166

 Test job not archived.
 1\1\GINC-SE040\SP\RHF\Aug-CC-pVDZ\C12H18O6\OHZDE\08-Apr-2025\0\\#t hf
 aug-cc-pvdz iop(5/13=1,5/36=2,99/5=2) pseudo=read geom=check guess=(re
 ad,tcheck) scf=(maxcycle=1)\\title\\0,1\O,0,0.15907,-1.78496,0.47968\C
 ,0,0.10435,-0.67638,-0.0099\C,0,-1.11879,0.25977,0.18755\C,0,1.19473,-
 0.0433,-0.8666\O,0,-0.72186,1.63484,0.06531\O,0,-2.02826,-0.00378,-0.8
 4429\C,0,-1.91533,-0.00818,1.47464\H,0,0.76057,0.14682,-1.86389\O,0,2.
 36787,-0.81067,-0.98806\C,0,1.65977,1.26709,-0.19995\C,0,0.55372,1.877
 93,0.66481\C,0,-3.36338,-0.20503,-0.27\H,0,-1.76436,-1.04871,1.80731\H

 Normal termination of Gaussian 16 at Tue Apr  8 19:18:03 2025.
