 Gaussian 16, Revision C.01,

 ----------------------------------------------------------------------
 #t hf aug-cc-pvdz symm=none int=(grid=ultrafine) guess=(read,tcheck) s
 table=(opt,rrhf)
 ----------------------------------------------------------------------
 -----
 title
 -----
 Symbolic Z-matrix:
 Charge =  0 Multiplicity = 1

 SCF Done:  E(RHF) =  -1374.24736020     A.U. after   14 cycles
 Normal termination of Gaussian 16 at Tue Apr  8 19:23:09 2025.
 Gaussian 16:  ES64L-G16RevC.01  3-Jul-2019

 ----------------------------------------------------------------------
 #t hf aug-cc-pvdz iop(5/13=1,5/36=2,99/5=2) pseudo=read geom=check gue
 ss=(read,tcheck) scf=(maxcycle=1)
 ----------------------------------------------------------------------
 -----
 title
 -----
 Structure from the checkpoint file:  "37Conf8_VX_2_mol1.chk"
 Charge =  0 Multiplicity = 1

                         Standard orientation:
 ---------------------------------------------------------------------
 Center     Atomic      Atomic             Coordinates (Angstroms)
 Number     Number       Type             X           Y           Z
 ---------------------------------------------------------------------
      1          1           0       -2.263950    1.746360    1.487921
      2          6           0       -2.782630    1.806210    0.518671
      3          6           0       -3.890030    2.836290    0.538431
      4          8           0       -3.375850    0.512290    0.231361
      5          1           0       -2.037530    2.029210   -0.263019
      6          1           0       -4.399470    2.881290   -0.433889
      7          1           0       -3.469670    3.828750    0.755881
      8          1           0       -4.632980    2.598130    1.311881
      9         15           0       -2.408380   -0.782130    0.143911
     10          6           0       -3.657000   -2.048540   -0.165949
     11         16           0       -1.336610   -0.545880   -1.666549
     12          8           0       -1.510980   -1.025360    1.310041
     13          1           0       -4.234030   -1.805770   -1.067079
     14          1           0       -3.146651   -3.009680   -0.301219
     15          1           0       -4.326670   -2.102050    0.702971
     16          6           0        0.369450   -0.797421   -1.028189
     17          6           0        0.967880    0.493869   -0.437049
     18          1           0        0.946520   -1.169181   -1.885319
     19          1           0        0.316620   -1.582421   -0.264769
     20          7           0        2.256740    0.344609    0.188811
     21          1           0        1.030840    1.255389   -1.230159
     22          1           0        0.244370    0.873819    0.305191
     23          6           0        3.473520    0.592099   -0.577439
     24          6           0        2.322460   -0.467561    1.404711
     25          6           0        3.596340   -0.225191   -1.875989
     26          6           0        3.659730    2.088939   -0.865559
     27          1           0        4.303630    0.285249    0.079111
     28          6           0        2.921440   -1.870511    1.203841
     29          6           0        3.056780    0.275209    2.529591
     30          1           0        1.274350   -0.598051    1.722021
     31          1           0        2.822630    0.070699   -2.601229
     32          1           0        4.573040   -0.052511   -2.352959
     33          1           0        3.494390   -1.301471   -1.681379
     34          1           0        2.856970    2.471259   -1.514599
     35          1           0        4.614360    2.275959   -1.379899
     36          1           0        3.643550    2.664269    0.069761
     37          1           0        2.374149   -2.434131    0.435851
     38          1           0        3.977430   -1.813261    0.897161
     39          1           0        2.881979   -2.444851    2.141311
     40          1           0        4.114140    0.445049    2.272821
     41          1           0        2.589340    1.252139    2.713221
     42          1           0        3.033950   -0.306201    3.463261
 ---------------------------------------------------------------------

 SCF Done:  E(RHF) =  -1377.83533962     A.U. after    2 cycles

 The electronic state is 1-A.
 Alpha  occ. eigenvalues -- -105.28483 -75.68658 -21.07215 -21.01096 -15.67801
 Alpha  occ. eigenvalues --  -13.16793 -13.11252 -13.07054 -11.45966 -11.45127
 Alpha  occ. eigenvalues --  -11.43572 -11.42224 -11.39333 -11.38956 -11.38931
 Alpha  occ. eigenvalues --  -11.38296 -11.37915 -11.35585 -11.34857  -8.02855
 Alpha  occ. eigenvalues --   -2.89531  -1.93889  -1.82244  -1.58652  -1.48576
 Alpha  occ. eigenvalues --   -1.43468  -1.29703  -1.19378  -1.19042  -1.11282
 Alpha  occ. eigenvalues --   -1.10230  -1.00826  -0.99910  -0.99182  -0.97416
 Alpha  occ. eigenvalues --   -0.87751  -0.86731  -0.85500  -0.75212  -0.67479
 Alpha  occ. eigenvalues --   -0.66382  -0.65482  -0.65131  -0.60570  -0.59973
 Alpha  occ. eigenvalues --   -0.58812  -0.58654  -0.58491  -0.57719  -0.55658
 Alpha  occ. eigenvalues --   -0.54832  -0.54284  -0.54036  -0.52771  -0.52074
 Alpha  occ. eigenvalues --   -0.51893  -0.51304  -0.50779  -0.46973  -0.46425
 Alpha  occ. eigenvalues --   -0.45859  -0.44003  -0.43886  -0.42037  -0.39896
 Alpha  occ. eigenvalues --   -0.37635  -0.33721  -0.32576  -0.27855  -0.24983
 Alpha  occ. eigenvalues --   -0.24398  -0.18586  -0.13986
 Alpha virt. eigenvalues --    0.03804   0.04324   0.04571   0.04944   0.05054
 Alpha virt. eigenvalues --    0.05419   0.05759   0.05871   0.05983   0.06239
 Alpha virt. eigenvalues --    0.06438   0.06730   0.07121   0.07340   0.07693

 Mulliken charges:
               1
     1  H    1.683891
     2  C   -2.081020
     3  C   -4.708371
     4  O   -3.393440
     5  H    2.126958
     6  H    1.241876
     7  H    1.164953
     8  H    1.259423
     9  P   11.680752
    10  C   -7.468261
    11  S   -2.014534
    12  O   -3.321416
    13  H    1.233608
    14  H    1.068159
    15  H    1.111956
    16  C   -4.755289
    17  C   -2.191109
    18  H    1.528002
    19  H    2.391815
    20  N   -1.127533
    21  H    1.995930
    22  H    2.548786
    23  C   -1.106551
    24  C   -0.269712
    25  C   -4.595258
    26  C   -4.744204
    27  H    2.377977
    28  C   -4.665166
    29  C   -5.070484
    30  H    2.728393
    31  H    1.442972
    32  H    1.023610
    33  H    1.332980
    34  H    1.363359
    35  H    1.158770
    36  H    1.468517
    37  H    1.376778
    38  H    1.337967
    39  H    1.106639
    40  H    1.273226
    41  H    1.339507
    42  H    1.145545
 Sum of Mulliken charges =   0.00000

 Dipole moment (field-independent basis, Debye):
    X=             -2.1997    Y=              0.7238    Z=             -0.7934  Tot=              2.4479

 Test job not archived.
 1\1\GINC-SE099\SP\RHF\Aug-CC-pVDZ\C11H26N1O2P1S1\OHZDE\08-Apr-2025\0\\
 #t hf aug-cc-pvdz iop(5/13=1,5/36=2,99/5=2) pseudo=read geom=check gue
 ss=(read,tcheck) scf=(maxcycle=1)\\title\\0,1\H,0,-2.26395,1.74636,1.4
 8792\C,0,-2.78263,1.80621,0.51867\C,0,-3.89003,2.83629,0.53843\O,0,-3.
 37585,0.51229,0.23136\H,0,-2.03753,2.02921,-0.26302\H,0,-4.39947,2.881
 29,-0.43389\H,0,-3.46967,3.82875,0.75588\H,0,-4.63298,2.59813,1.31188\
 P,0,-2.40838,-0.78213,0.14391\C,0,-3.657,-2.04854,-0.16595\S,0,-1.3366
 1,-0.54588,-1.66655\O,0,-1.51098,-1.02536,1.31004\H,0,-4.23403,-1.8057

 Normal termination of Gaussian 16 at Tue Apr  8 19:24:26 2025.
