 Gaussian 16, Revision C.01,

 ----------------------------------------------------------------------
 #t hf aug-cc-pvdz symm=none int=(grid=ultrafine) guess=(read,tcheck) s
 table=(opt,rrhf)
 ----------------------------------------------------------------------
 -----
 title
 -----
 Symbolic Z-matrix:
 Charge =  0 Multiplicity = 1

 SCF Done:  E(RHF) =  -1542.36740831     A.U. after   17 cycles
 Normal termination of Gaussian 16 at Tue Apr  8 19:09:38 2025.
 Gaussian 16:  ES64L-G16RevC.01  3-Jul-2019

 ----------------------------------------------------------------------
 #t hf aug-cc-pvdz iop(5/13=1,5/36=2,99/5=2) pseudo=read geom=check gue
 ss=(read,tcheck) scf=(maxcycle=1)
 ----------------------------------------------------------------------
 -----
 title
 -----
 Structure from the checkpoint file:  "37Conf8_Indometacin_2_mol1.chk"
 Charge =  0 Multiplicity = 1

                         Standard orientation:
 ---------------------------------------------------------------------
 Center     Atomic      Atomic             Coordinates (Angstroms)
 Number     Number       Type             X           Y           Z
 ---------------------------------------------------------------------
      1          1           0       -0.859051    4.266821   -1.435110
      2          8           0       -0.695911    3.783461   -0.598410
      3          6           0       -1.930151    3.438870   -0.127110
      4          6           0       -1.828391    2.631200    1.155450
      5          8           0       -2.957581    3.739300   -0.696300
      6          6           0       -1.376081    1.230210    0.879010
      7          1           0       -2.825641    2.632200    1.615130
      8          1           0       -1.126211    3.139670    1.832120
      9          6           0       -2.230581    0.168500    0.403820
     10          6           0       -0.109001    0.721261    1.049390
     11          6           0       -3.577661    0.133540    0.038850
     12          6           0       -1.441580   -1.006170    0.340360
     13          7           0       -0.123041   -0.649829    0.698250
     14          6           0        1.069319    1.403581    1.656560
     15          1           0       -4.202011    1.027710    0.047840
     16          6           0       -4.124730   -1.086340   -0.375660
     17          6           0       -1.979390   -2.219900   -0.073620
     18          6           0        0.949480   -1.562089    0.684510
     19          1           0        1.756699    1.825661    0.909250
     20          1           0        0.719909    2.234041    2.284510
     21          1           0        1.654319    0.722391    2.288950
     22          8           0       -5.452110   -1.054120   -0.712720
     23          6           0       -3.330970   -2.249940   -0.430380
     24          1           0       -1.377060   -3.125120   -0.097000
     25          6           0        2.291220   -1.040439    0.298980
     26          8           0        0.767040   -2.755849    0.893690
     27          6           0       -6.049470   -2.265610   -1.157190
     28          1           0       -3.764360   -3.197590   -0.744650
     29          6           0        3.430220   -1.634639    0.860620
     30          6           0        2.445009   -0.076599   -0.707680
     31          1           0       -5.561330   -2.647800   -2.069850
     32          1           0       -7.093920   -2.019750   -1.380640
     33          1           0       -6.017490   -3.044640   -0.376550
     34          1           0        3.301030   -2.411379    1.615370
     35          6           0        4.703720   -1.244849    0.460190
     36          1           0        1.562989    0.368721   -1.171010
     37          6           0        3.714339    0.302451   -1.137850
     38          1           0        5.593210   -1.688639    0.906470
     39          6           0        4.835969   -0.276209   -0.539720
     40          1           0        3.840409    1.038221   -1.931600
     41         17           0        6.423569    0.207351   -1.055430
 ---------------------------------------------------------------------

 SCF Done:  E(RHF) =  -1547.55016539     A.U. after    2 cycles

 The electronic state is 1-A.
 Alpha  occ. eigenvalues --  -99.91109 -21.12779 -21.06749 -21.06144 -21.05828
 Alpha  occ. eigenvalues --  -15.78793 -11.56111 -11.55258 -11.54561 -11.53864
 Alpha  occ. eigenvalues --  -11.51930 -11.48617 -11.48227 -11.47647 -11.46944
 Alpha  occ. eigenvalues --  -11.46772 -11.46639 -11.45388 -11.44709 -11.44678
 Alpha  occ. eigenvalues --  -11.42308 -11.41458 -11.40898 -11.40407 -11.38060
 Alpha  occ. eigenvalues --  -10.48514  -9.68555  -9.67633  -9.67444  -1.82518
 Alpha  occ. eigenvalues --   -1.77859  -1.73265  -1.65566  -1.52959  -1.42000
 Alpha  occ. eigenvalues --   -1.31045  -1.27970  -1.23227  -1.13373  -1.12789
 Alpha  occ. eigenvalues --   -1.12397  -1.10378  -1.07591  -1.00029  -0.98484
 Alpha  occ. eigenvalues --   -0.92789  -0.90828  -0.87042  -0.85702  -0.82228
 Alpha  occ. eigenvalues --   -0.78582  -0.77187  -0.73092  -0.70072  -0.68520
 Alpha  occ. eigenvalues --   -0.65622  -0.65618  -0.64463  -0.64447  -0.62646
 Alpha  occ. eigenvalues --   -0.61745  -0.61538  -0.61413  -0.60874  -0.59681
 Alpha  occ. eigenvalues --   -0.58530  -0.58235  -0.57367  -0.56875  -0.56046
 Alpha  occ. eigenvalues --   -0.55275  -0.53523  -0.52656  -0.51824  -0.50726
 Alpha  occ. eigenvalues --   -0.49947  -0.49509  -0.48673  -0.47423  -0.47036
 Alpha  occ. eigenvalues --   -0.45194  -0.44525  -0.43102  -0.38885  -0.38629
 Alpha  occ. eigenvalues --   -0.36637  -0.36280  -0.34675  -0.34060  -0.31021
 Alpha  occ. eigenvalues --   -0.30453  -0.27130  -0.24205
 Alpha virt. eigenvalues --    0.02910   0.04044   0.04712   0.04873   0.05147
 Alpha virt. eigenvalues --    0.05316   0.05553   0.06112   0.06148   0.06498
 Alpha virt. eigenvalues --    0.06971   0.07068   0.07269   0.07761   0.08099

 Mulliken charges:
               1
     1  H    0.965844
     2  O   -3.249243
     3  C    6.976304
     4  C   -4.755016
     5  O   -3.335286
     6  C    0.729663
     7  H    1.096668
     8  H    1.603591
     9  C    3.051213
    10  C    2.264251
    11  C   -0.203224
    12  C    4.242918
    13  N   -5.570113
    14  C   -5.994241
    15  H    2.067861
    16  C    6.001133
    17  C   -3.027657
    18  C    2.018138
    19  H    1.322439
    20  H    0.887860
    21  H    1.576919
    22  O   -5.095773
    23  C   -5.510632
    24  H    2.036900
    25  C    4.260785
    26  O   -3.794219
    27  C   -3.812700
    28  H    1.803373
    29  C   -1.515178
    30  C   -1.550548
    31  H    1.370387
    32  H    1.456374
    33  H    1.390270
    34  H    1.839165
    35  C   -1.378459
    36  H    2.363711
    37  C   -2.160411
    38  H    1.792748
    39  C   -3.100642
    40  H    1.806689
    41  Cl  -0.871860
 Sum of Mulliken charges =  -0.00000

 Dipole moment (field-independent basis, Debye):
    X=              0.4773    Y=             -0.2820    Z=              0.6147  Tot=              0.8278

 Test job not archived.
 1\1\GINC-SE089\SP\RHF\Aug-CC-pVDZ\C19H16Cl1N1O4\OHZDE\08-Apr-2025\0\\#
 t hf aug-cc-pvdz iop(5/13=1,5/36=2,99/5=2) pseudo=read geom=check gues
 s=(read,tcheck) scf=(maxcycle=1)\\title\\0,1\H,0,-0.85905,4.26682,-1.4
 3511\O,0,-0.69591,3.78346,-0.59841\C,0,-1.93015,3.43887,-0.12711\C,0,-
 1.82839,2.6312,1.15545\O,0,-2.95758,3.7393,-0.6963\C,0,-1.37608,1.2302
 1,0.87901\H,0,-2.82564,2.6322,1.61513\H,0,-1.12621,3.13967,1.83212\C,0
 ,-2.23058,0.1685,0.40382\C,0,-0.109,0.72126,1.04939\C,0,-3.57766,0.133
 54,0.03885\C,0,-1.44158,-1.00617,0.34036\N,0,-0.12304,-0.64983,0.69825

 Normal termination of Gaussian 16 at Tue Apr  8 19:11:36 2025.
