 Gaussian 16, Revision C.01,

 ----------------------------------------------------------------------
 #t hf aug-cc-pvdz symm=none int=(grid=ultrafine) guess=(read,tcheck) s
 table=(opt,rrhf)
 ----------------------------------------------------------------------
 -----
 title
 -----
 Symbolic Z-matrix:
 Charge =  0 Multiplicity = 1

 SCF Done:  E(RHF) =  -1080.80562913     A.U. after   16 cycles
 Normal termination of Gaussian 16 at Tue Apr  8 19:33:10 2025.
 Gaussian 16:  ES64L-G16RevC.01  3-Jul-2019

 ----------------------------------------------------------------------
 #t hf aug-cc-pvdz iop(5/13=1,5/36=2,99/5=2) pseudo=read geom=check gue
 ss=(read,tcheck) scf=(maxcycle=1)
 ----------------------------------------------------------------------
 -----
 title
 -----
 Structure from the checkpoint file:  "37Conf8_RH34_6_mol2.chk"
 Charge =  0 Multiplicity = 1

                         Standard orientation:
 ---------------------------------------------------------------------
 Center     Atomic      Atomic             Coordinates (Angstroms)
 Number     Number       Type             X           Y           Z
 ---------------------------------------------------------------------
      1          1           0       -4.917699    3.460570    0.541359
      2          6           0       -4.361809    2.530690    0.409279
      3          6           0       -3.088999    2.386970    0.952669
      4          6           0       -4.942719    1.483540   -0.314331
      5          1           0       -2.633759    3.202690    1.515889
      6          6           0       -2.391809    1.186660    0.772919
      7          1           0       -5.938089    1.609020   -0.738061
      8          6           0       -4.238379    0.287920   -0.487301
      9          1           0       -1.387489    1.070290    1.183049
     10          6           0       -2.947679    0.123590    0.061599
     11          8           0       -4.717710   -0.790500   -1.185451
     12          6           0       -2.228170   -1.187140   -0.141071
     13          6           0       -6.014860   -0.680560   -1.758221
     14          7           0       -0.957650   -1.245390    0.559409
     15          1           0       -2.031130   -1.328300   -1.219401
     16          1           0       -2.917030   -2.016850    0.132939
     17          6           0       -0.217790   -2.473480    0.325859
     18          1           0       -1.089700   -1.100610    1.563589
     19          6           0        1.097890   -2.478421    1.103799
     20          1           0       -0.002940   -2.550090   -0.751961
     21          1           0       -0.774640   -3.395820    0.607379
     22          7           0        1.910140   -1.290331    0.820609
     23          1           0        1.689440   -3.357371    0.821679
     24          1           0        0.912100   -2.484931    2.184719
     25          6           0        1.751360   -0.195041    1.676279
     26          6           0        2.706330   -1.309851   -0.339911
     27          8           0        1.039210   -0.209581    2.674889
     28          7           0        2.479791    0.927349    1.328519
     29          8           0        2.755620   -2.311441   -1.048051
     30          6           0        3.448861   -0.070301   -0.620361
     31          1           0        2.354331    1.714399    1.958429
     32          6           0        3.309741    1.040709    0.230119
     33          6           0        4.284911    0.016449   -1.741531
     34          6           0        4.005751    2.228509   -0.043971
     35          1           0        4.366300   -0.862991   -2.381311
     36          6           0        4.976671    1.189649   -2.013831
     37          1           0        3.893451    3.089729    0.617859
     38          6           0        4.831591    2.293659   -1.159881
     39          1           0        5.627471    1.254879   -2.885911
     40          1           0        5.371181    3.218499   -1.370181
     41          1           0       -6.061509    0.136470   -2.497791
     42          1           0       -6.203920   -1.636559   -2.259821
     43          1           0       -6.784650   -0.513559   -0.986051
 ---------------------------------------------------------------------

 SCF Done:  E(RHF) =  -1085.77867527     A.U. after    2 cycles

 The electronic state is 1-A.
 Alpha  occ. eigenvalues --  -21.07001 -21.03935 -21.03745 -15.80270 -15.77828
 Alpha  occ. eigenvalues --  -15.70603 -11.56073 -11.55093 -11.54292 -11.52532
 Alpha  occ. eigenvalues --  -11.49967 -11.46384 -11.46228 -11.46073 -11.44265
 Alpha  occ. eigenvalues --  -11.43658 -11.43143 -11.41789 -11.41565 -11.40590
 Alpha  occ. eigenvalues --  -11.40359 -11.39118 -11.38568 -11.35893  -1.78354
 Alpha  occ. eigenvalues --   -1.74120  -1.71656  -1.49923  -1.42444  -1.37723
 Alpha  occ. eigenvalues --   -1.31276  -1.29654  -1.15342  -1.12782  -1.10362
 Alpha  occ. eigenvalues --   -1.07741  -1.06850  -0.98908  -0.96363  -0.93532
 Alpha  occ. eigenvalues --   -0.91474  -0.89011  -0.87093  -0.83097  -0.81798
 Alpha  occ. eigenvalues --   -0.76371  -0.75171  -0.71695  -0.69579  -0.67698
 Alpha  occ. eigenvalues --   -0.66436  -0.64256  -0.63332  -0.63069  -0.62016
 Alpha  occ. eigenvalues --   -0.61872  -0.61311  -0.59578  -0.58899  -0.57885
 Alpha  occ. eigenvalues --   -0.57542  -0.54836  -0.53953  -0.53643  -0.53045
 Alpha  occ. eigenvalues --   -0.52654  -0.51589  -0.50783  -0.49534  -0.48311
 Alpha  occ. eigenvalues --   -0.48214  -0.47317  -0.45805  -0.44772  -0.42757
 Alpha  occ. eigenvalues --   -0.41458  -0.40160  -0.38279  -0.34897  -0.33316
 Alpha  occ. eigenvalues --   -0.32739  -0.31627  -0.31055  -0.29185  -0.28550
 Alpha  occ. eigenvalues --   -0.25548
 Alpha virt. eigenvalues --    0.03153   0.04077   0.04572   0.04864   0.05010
 Alpha virt. eigenvalues --    0.05406   0.05720   0.06023   0.06211   0.06316
 Alpha virt. eigenvalues --    0.06656   0.07186   0.07384   0.07673   0.08046

 Mulliken charges:
               1
     1  H    1.605890
     2  C   -1.168647
     3  C   -5.208664
     4  C   -4.213362
     5  H    1.629985
     6  C    2.098020
     7  H    1.949651
     8  C    8.375656
     9  H    2.201618
    10  C   -0.040646
    11  O   -5.376786
    12  C   -2.758059
    13  C   -3.884098
    14  N   -2.917856
    15  H    1.360069
    16  H    1.306783
    17  C   -3.241982
    18  H    0.771376
    19  C   -4.201777
    20  H    1.941738
    21  H    1.573509
    22  N   -2.998443
    23  H    1.704931
    24  H    1.605403
    25  C    4.994320
    26  C    5.054687
    27  O   -3.618150
    28  N   -4.433663
    29  O   -4.285109
    30  C    3.772884
    31  H    0.707779
    32  C    4.284077
    33  C   -1.208508
    34  C   -4.071582
    35  H    1.793837
    36  C   -2.126786
    37  H    1.743521
    38  C   -2.062240
    39  H    1.567784
    40  H    1.588458
    41  H    1.365108
    42  H    1.448594
    43  H    1.370678
 Sum of Mulliken charges =  -0.00000

 Dipole moment (field-independent basis, Debye):
    X=              0.0625    Y=              1.0388    Z=             -0.6944  Tot=              1.2511

 Test job not archived.
 1\1\GINC-SE177\SP\RHF\Aug-CC-pVDZ\C18H19N3O3\OHZDE\08-Apr-2025\0\\#t h
 f aug-cc-pvdz iop(5/13=1,5/36=2,99/5=2) pseudo=read geom=check guess=(
 read,tcheck) scf=(maxcycle=1)\\title\\0,1\H,0,-4.9177,3.46057,0.54136\
 C,0,-4.36181,2.53069,0.40928\C,0,-3.089,2.38697,0.95267\C,0,-4.94272,1
 .48354,-0.31433\H,0,-2.63376,3.20269,1.51589\C,0,-2.39181,1.18666,0.77
 292\H,0,-5.93809,1.60902,-0.73806\C,0,-4.23838,0.28792,-0.4873\H,0,-1.
 38749,1.07029,1.18305\C,0,-2.94768,0.12359,0.0616\O,0,-4.71771,-0.7905
 ,-1.18545\C,0,-2.22817,-1.18714,-0.14107\C,0,-6.01486,-0.68056,-1.7582

 Normal termination of Gaussian 16 at Tue Apr  8 19:35:05 2025.
