 Gaussian 16, Revision C.01,

 ----------------------------------------------------------------------
 #t hf aug-cc-pvdz symm=none int=(grid=ultrafine) guess=(read,tcheck) s
 table=(opt,rrhf)
 ----------------------------------------------------------------------
 -----
 title
 -----
 Symbolic Z-matrix:
 Charge =  0 Multiplicity = 1

 SCF Done:  E(RHF) =  -787.712420752     A.U. after   16 cycles
 Normal termination of Gaussian 16 at Tue Apr  8 18:10:47 2025.
 Gaussian 16:  ES64L-G16RevC.01  3-Jul-2019

 ----------------------------------------------------------------------
 #t hf aug-cc-pvdz iop(5/13=1,5/36=2,99/5=2) pseudo=read geom=check gue
 ss=(read,tcheck) scf=(maxcycle=1)
 ----------------------------------------------------------------------
 -----
 title
 -----
 Structure from the checkpoint file:  "37Conf8_Eperisone_6_mol1.chk"
 Charge =  0 Multiplicity = 1

                         Standard orientation:
 ---------------------------------------------------------------------
 Center     Atomic      Atomic             Coordinates (Angstroms)
 Number     Number       Type             X           Y           Z
 ---------------------------------------------------------------------
      1          8           0       -0.589350    3.000960    0.112748
      2          6           0       -0.490099    1.810950   -0.169552
      3          6           0        0.841261    1.235410   -0.651212
      4          6           0       -1.663209    0.893769   -0.004122
      5          6           0        1.552321    0.605540    0.572158
      6          6           0        1.711561    2.297890   -1.314812
      7          1           0        0.627401    0.433940   -1.375802
      8          6           0       -1.632889   -0.472541   -0.327082
      9          6           0       -2.855249    1.431009    0.510908
     10          7           0        2.805391   -0.041270    0.226438
     11          1           0        1.769991    1.417190    1.284738
     12          1           0        0.857411   -0.100530    1.082898
     13          6           0        3.667011   -0.290160    1.378398
     14          6           0        2.606661   -1.258450   -0.565612
     15          1           0        3.295431   -1.146060    1.988488
     16          1           0        3.631191    0.592210    2.033218
     17          6           0        5.110021   -0.548980    0.907178
     18          1           0        1.766111   -1.865260   -0.152332
     19          1           0        2.315501   -0.963050   -1.587022
     20          6           0        3.884161   -2.114880   -0.618122
     21          1           0        5.662831    0.400660    0.857758
     22          1           0        5.621201   -1.180540    1.651058
     23          6           0        5.122351   -1.231620   -0.473352
     24          1           0        3.903941   -2.686710   -1.557242
     25          1           0        3.874021   -2.855690    0.197818
     26          1           0        6.041881   -1.820790   -0.604782
     27          1           0        5.115361   -0.468550   -1.266842
     28          1           0        1.856100    3.149990   -0.637482
     29          1           0        2.692971    1.872230   -1.561022
     30          1           0        1.241960    2.677550   -2.232702
     31          1           0       -0.723929   -0.927011   -0.722202
     32          6           0       -2.759279   -1.271271   -0.140902
     33          1           0       -2.868479    2.491829    0.765338
     34          6           0       -3.975819    0.630539    0.692628
     35          1           0       -2.715549   -2.333701   -0.393252
     36          6           0       -3.949679   -0.736041    0.369528
     37          1           0       -4.893059    1.065369    1.098068
     38          6           0       -5.181749   -1.589591    0.519788
     39          6           0       -6.066439   -1.553701   -0.735742
     40          1           0       -5.764649   -1.242131    1.387328
     41          1           0       -4.885489   -2.629311    0.729598
     42          1           0       -6.960629   -2.179991   -0.605562
     43          1           0       -6.395019   -0.527431   -0.954062
     44          1           0       -5.515049   -1.920231   -1.613572
 ---------------------------------------------------------------------

 SCF Done:  E(RHF) =  -791.568333179     A.U. after    2 cycles

 The electronic state is 1-A.
 Alpha  occ. eigenvalues --  -21.03759 -15.69828 -11.53821 -11.50911 -11.47098
 Alpha  occ. eigenvalues --  -11.45904 -11.45479 -11.45139 -11.44419 -11.44326
 Alpha  occ. eigenvalues --  -11.42247 -11.41843 -11.40761 -11.40453 -11.37914
 Alpha  occ. eigenvalues --  -11.37549 -11.37378 -11.36512 -11.34962  -1.69635
 Alpha  occ. eigenvalues --   -1.45431  -1.36157  -1.24166  -1.19677  -1.15994
 Alpha  occ. eigenvalues --   -1.11400  -1.09655  -1.07453  -0.99646  -0.95279
 Alpha  occ. eigenvalues --   -0.91228  -0.90534  -0.87376  -0.86562  -0.83043
 Alpha  occ. eigenvalues --   -0.75564  -0.75443  -0.70205  -0.68745  -0.66626
 Alpha  occ. eigenvalues --   -0.65056  -0.63708  -0.62570  -0.61481  -0.59929
 Alpha  occ. eigenvalues --   -0.58332  -0.57794  -0.57275  -0.56035  -0.54900
 Alpha  occ. eigenvalues --   -0.53877  -0.53235  -0.52506  -0.50667  -0.50000
 Alpha  occ. eigenvalues --   -0.49457  -0.49321  -0.48691  -0.46740  -0.45599
 Alpha  occ. eigenvalues --   -0.45186  -0.44242  -0.43734  -0.42502  -0.42261
 Alpha  occ. eigenvalues --   -0.40895  -0.38496  -0.33638  -0.31303  -0.29947
 Alpha  occ. eigenvalues --   -0.27255
 Alpha virt. eigenvalues --    0.03576   0.04114   0.04325   0.04717   0.05018
 Alpha virt. eigenvalues --    0.05433   0.05568   0.05698   0.05813   0.06042
 Alpha virt. eigenvalues --    0.06192   0.06518   0.06857   0.07190   0.07383

 Mulliken charges:
               1
     1  O   -4.642268
     2  C    5.639956
     3  C   -3.332720
     4  C    2.554491
     5  C   -2.531223
     6  C   -5.865611
     7  H    2.423410
     8  C    1.824747
     9  C   -5.200909
    10  N   -0.971967
    11  H    1.803604
    12  H    2.346653
    13  C   -3.292068
    14  C   -2.175839
    15  H    1.536641
    16  H    1.549368
    17  C   -3.211413
    18  H    1.712068
    19  H    1.833577
    20  C   -3.161729
    21  H    1.249843
    22  H    1.271617
    23  C   -3.222138
    24  H    1.203704
    25  H    1.227348
    26  H    1.396995
    27  H    1.400880
    28  H    1.495445
    29  H    1.412647
    30  H    1.282444
    31  H    2.590401
    32  C   -2.990107
    33  H    2.022066
    34  C   -1.144238
    35  H    1.828739
    36  C    0.791134
    37  H    1.850182
    38  C   -4.714808
    39  C   -4.184536
    40  H    1.181304
    41  H    1.187700
    42  H    1.172479
    43  H    1.424191
    44  H    1.427939
 Sum of Mulliken charges =   0.00000

 Dipole moment (field-independent basis, Debye):
    X=             -0.2680    Y=             -1.8982    Z=              0.1690  Tot=              1.9245

 Test job not archived.
 1\1\GINC-SE127\SP\RHF\Aug-CC-pVDZ\C17H25N1O1\OHZDE\08-Apr-2025\0\\#t h
 f aug-cc-pvdz iop(5/13=1,5/36=2,99/5=2) pseudo=read geom=check guess=(
 read,tcheck) scf=(maxcycle=1)\\title\\0,1\O,0,0.58935,3.00096,-0.11275
 \C,0,0.4901,1.81095,0.16955\C,0,-0.84126,1.23541,0.65121\C,0,1.66321,0
 .89377,0.00412\C,0,-1.55232,0.60554,-0.57216\C,0,-1.71156,2.29789,1.31
 481\H,0,-0.6274,0.43394,1.3758\C,0,1.63289,-0.47254,0.32708\C,0,2.8552
 5,1.43101,-0.51091\N,0,-2.80539,-0.04127,-0.22644\H,0,-1.76999,1.41719
 ,-1.28474\H,0,-0.85741,-0.10053,-1.0829\C,0,-3.66701,-0.29016,-1.3784\

 Normal termination of Gaussian 16 at Tue Apr  8 18:12:16 2025.
