 Gaussian 16, Revision C.01,

 ----------------------------------------------------------------------
 #t hf aug-cc-pvdz symm=none int=(grid=ultrafine) guess=(read,tcheck) s
 table=(opt,rrhf)
 ----------------------------------------------------------------------
 -----
 title
 -----
 Symbolic Z-matrix:
 Charge =  0 Multiplicity = 1

 SCF Done:  E(RHF) =  -535.061760706     A.U. after   13 cycles
 Normal termination of Gaussian 16 at Tue Apr  8 18:55:51 2025.
 Gaussian 16:  ES64L-G16RevC.01  3-Jul-2019

 ----------------------------------------------------------------------
 #t hf aug-cc-pvdz iop(5/13=1,5/36=2,99/5=2) pseudo=read geom=check gue
 ss=(read,tcheck) scf=(maxcycle=1)
 ----------------------------------------------------------------------
 -----
 title
 -----
 Structure from the checkpoint file:  "37Conf8_RAMBO_2_mol2.chk"
 Charge =  0 Multiplicity = 1

                         Standard orientation:
 ---------------------------------------------------------------------
 Center     Atomic      Atomic             Coordinates (Angstroms)
 Number     Number       Type             X           Y           Z
 ---------------------------------------------------------------------
      1          1           0       -1.681180    1.755151   -0.339800
      2          7           0       -0.686120    1.928221   -0.530800
      3          7           0       -0.007360    0.709371   -0.075130
      4          1           0       -0.417380    2.647191    0.150940
      5          6           0        1.352970    0.674501   -0.642470
      6          6           0       -0.693230   -0.486219   -0.569150
      7          1           0        1.347810    1.181151   -1.625630
      8          6           0        2.385500    1.278562    0.322110
      9          6           0        1.702100   -0.840688   -0.743470
     10          1           0       -0.962940   -0.372959   -1.644160
     11          6           0       -1.953110   -0.811479    0.213240
     12          6           0        0.382151   -1.559119   -0.395950
     13          1           0        3.269150    1.614912   -0.245060
     14          1           0        1.987180    2.149302    0.863010
     15          6           0        2.760670    0.104542    1.235070
     16          1           0        2.005601   -1.096448   -1.767700
     17          6           0        2.858801   -1.072998    0.252530
     18          8           0       -2.984960    0.123831   -0.096570
     19          1           0       -2.294329   -1.836199   -0.039520
     20          1           0       -1.721370   -0.779959    1.296780
     21          6           0       -4.161820   -0.116370    0.655140
     22          1           0       -4.902710    0.634360    0.352380
     23          1           0       -4.566959   -1.126190    0.453020
     24          1           0       -3.975120   -0.026370    1.742110
     25          1           0        0.396021   -1.895399    0.654090
     26          1           0        0.193401   -2.438379   -1.026660
     27          1           0        1.944670   -0.070398    1.954130
     28          1           0        3.684050    0.269372    1.808120
     29          1           0        3.825001   -1.030418   -0.275500
     30          1           0        2.798941   -2.056898    0.741230
 ---------------------------------------------------------------------

 SCF Done:  E(RHF) =  -537.658154596     A.U. after    2 cycles

 The electronic state is 1-A.
 Alpha  occ. eigenvalues --  -21.04699 -15.72788 -15.70505 -11.53289 -11.46358
 Alpha  occ. eigenvalues --  -11.44035 -11.43893 -11.40826 -11.39305 -11.38762
 Alpha  occ. eigenvalues --  -11.36801 -11.33389  -1.75375  -1.50144  -1.30484
 Alpha  occ. eigenvalues --   -1.20492  -1.09289  -1.06360  -0.98780  -0.97524
 Alpha  occ. eigenvalues --   -0.91149  -0.82304  -0.80715  -0.76931  -0.70118
 Alpha  occ. eigenvalues --   -0.66540  -0.63965  -0.62995  -0.62696  -0.61044
 Alpha  occ. eigenvalues --   -0.58496  -0.57627  -0.56716  -0.54735  -0.52473
 Alpha  occ. eigenvalues --   -0.48848  -0.46258  -0.44771  -0.44622  -0.43331
 Alpha  occ. eigenvalues --   -0.42103  -0.41166  -0.40014  -0.39087  -0.37826
 Alpha  occ. eigenvalues --   -0.30671  -0.27190
 Alpha virt. eigenvalues --    0.04157   0.04651   0.04887   0.05256   0.05313
 Alpha virt. eigenvalues --    0.05418   0.05897   0.06502   0.06562   0.06636
 Alpha virt. eigenvalues --    0.07135   0.07209   0.07805   0.08551   0.09499

 Mulliken charges:
               1
     1  H    0.897698
     2  N   -2.125327
     3  N   -1.780249
     4  H    0.635103
     5  C   -0.426811
     6  C   -1.301602
     7  H    2.043198
     8  C   -3.584100
     9  C   -0.953875
    10  H    2.341716
    11  C   -1.226208
    12  C   -2.402212
    13  H    1.344791
    14  H    1.536147
    15  C   -2.837343
    16  H    1.553072
    17  C   -3.205504
    18  O   -3.210359
    19  H    1.551305
    20  H    1.889422
    21  C   -3.481236
    22  H    1.357941
    23  H    1.369755
    24  H    1.396886
    25  H    1.676787
    26  H    1.348050
    27  H    1.570966
    28  H    1.275566
    29  H    1.331929
    30  H    1.414494
 Sum of Mulliken charges =   0.00000

 Dipole moment (field-independent basis, Debye):
    X=             -0.6446    Y=             -0.4727    Z=              0.6762  Tot=              1.0470

 Test job not archived.
 1\1\GINC-SE208\SP\RHF\Aug-CC-pVDZ\C9H18N2O1\OHZDE\08-Apr-2025\0\\#t hf
  aug-cc-pvdz iop(5/13=1,5/36=2,99/5=2) pseudo=read geom=check guess=(r
 ead,tcheck) scf=(maxcycle=1)\\title\\0,1\H,0,-1.68118,1.75515,-0.3398\
 N,0,-0.68612,1.92822,-0.5308\N,0,-0.00736,0.70937,-0.07513\H,0,-0.4173
 8,2.64719,0.15094\C,0,1.35297,0.6745,-0.64247\C,0,-0.69323,-0.48622,-0
 .56915\H,0,1.34781,1.18115,-1.62563\C,0,2.3855,1.27856,0.32211\C,0,1.7
 021,-0.84069,-0.74347\H,0,-0.96294,-0.37296,-1.64416\C,0,-1.95311,-0.8
 1148,0.21324\C,0,0.38215,-1.55912,-0.39595\H,0,3.26915,1.61491,-0.2450

 Normal termination of Gaussian 16 at Tue Apr  8 18:56:21 2025.
