 Gaussian 16, Revision C.01,

 ----------------------------------------------------------------------
 #t hf aug-cc-pvdz symm=none int=(grid=ultrafine) guess=(read,tcheck) s
 table=(opt,rrhf)
 ----------------------------------------------------------------------
 -----
 title
 -----
 Symbolic Z-matrix:
 Charge =  0 Multiplicity = 1

 SCF Done:  E(RHF) =  -1689.89436715     A.U. after   18 cycles
 Normal termination of Gaussian 16 at Tue Apr  8 18:11:23 2025.
 Gaussian 16:  ES64L-G16RevC.01  3-Jul-2019

 ----------------------------------------------------------------------
 #t hf aug-cc-pvdz iop(5/13=1,5/36=2,99/5=2) pseudo=read geom=check gue
 ss=(read,tcheck) scf=(maxcycle=1)
 ----------------------------------------------------------------------
 -----
 title
 -----
 Structure from the checkpoint file:  "37Conf8_Fotemustin_3_mol1.chk"
 Charge =  0 Multiplicity = 1

                         Standard orientation:
 ---------------------------------------------------------------------
 Center     Atomic      Atomic             Coordinates (Angstroms)
 Number     Number       Type             X           Y           Z
 ---------------------------------------------------------------------
      1          8           0        1.638229    2.113710    0.557360
      2          7           0        2.521639    1.707700   -0.196070
      3          7           0        2.478289    0.399250   -0.574910
      4          6           0        3.589849    0.013340   -1.440380
      5          6           0        1.473689   -0.623480   -0.310110
      6          6           0        4.570260   -0.942019   -0.777260
      7          1           0        3.183699   -0.478080   -2.336440
      8          1           0        4.087439    0.949051   -1.723220
      9         17           0        5.356879   -0.202919    0.660030
     10          1           0        5.366360   -1.199269   -1.486600
     11          1           0        4.068830   -1.856139   -0.443820
     12          7           0        0.514959   -0.253290    0.567330
     13          8           0        1.575290   -1.704510   -0.873960
     14          6           0       -0.646610   -1.089420    0.832000
     15          1           0        0.565999    0.713710    0.911560
     16         15           0       -2.068811   -0.266970    0.000430
     17          6           0       -0.843990   -1.325610    2.328360
     18          1           0       -0.486220   -2.038190    0.299370
     19          8           0       -3.284160   -1.151151    0.563190
     20          8           0       -2.213841    1.134660    0.797430
     21          8           0       -1.950331   -0.110530   -1.471030
     22          6           0       -4.628630   -0.907191    0.054070
     23          6           0       -1.992831    2.396120    0.099200
     24          6           0       -4.911870   -1.754501   -1.169280
     25          1           0       -4.744691    0.166599   -0.163280
     26          1           0       -5.295930   -1.158211    0.889990
     27          6           0       -3.303841    2.981999   -0.380180
     28          1           0       -1.306811    2.227130   -0.742590
     29          1           0       -1.500341    3.046490    0.835290
     30          1           0       -4.230570   -1.487461   -1.987450
     31          1           0       -5.947730   -1.590401   -1.501980
     32          1           0       -4.788580   -2.821701   -0.938970
     33          1           0       -3.752971    2.339669   -1.150570
     34          1           0       -3.129441    3.974049   -0.822630
     35          1           0       -4.011891    3.095579    0.452760
     36          1           0       -1.715450   -1.968600    2.501140
     37          1           0        0.048380   -1.811990    2.746030
     38          1           0       -1.006731   -0.376530    2.857620
 ---------------------------------------------------------------------

 SCF Done:  E(RHF) =  -1694.37355230     A.U. after    2 cycles

 The electronic state is 1-A.
 Alpha  occ. eigenvalues -- -105.29415 -99.88270 -21.11619 -21.07628 -21.07237
 Alpha  occ. eigenvalues --  -21.04769 -21.01349 -15.91890 -15.81212 -15.77595
 Alpha  occ. eigenvalues --  -11.54825 -11.48529 -11.46400 -11.45858 -11.45320
 Alpha  occ. eigenvalues --  -11.42598 -11.38988 -11.38033 -11.37530 -10.45578
 Alpha  occ. eigenvalues --   -9.65504  -9.64918  -9.64722  -2.91430  -1.96423
 Alpha  occ. eigenvalues --   -1.90653  -1.88518  -1.80197  -1.74250  -1.56073
 Alpha  occ. eigenvalues --   -1.48989  -1.43136  -1.40659  -1.33151  -1.27969
 Alpha  occ. eigenvalues --   -1.13909  -1.12299  -1.11246  -1.10759  -1.01551
 Alpha  occ. eigenvalues --   -0.94567  -0.89244  -0.87509  -0.86943  -0.81772
 Alpha  occ. eigenvalues --   -0.72383  -0.71363  -0.69447  -0.67303  -0.66060
 Alpha  occ. eigenvalues --   -0.65583  -0.64165  -0.62786  -0.61462  -0.60742
 Alpha  occ. eigenvalues --   -0.59218  -0.58794  -0.56483  -0.55719  -0.55151
 Alpha  occ. eigenvalues --   -0.54993  -0.53609  -0.53291  -0.52497  -0.51736
 Alpha  occ. eigenvalues --   -0.51159  -0.50820  -0.50324  -0.48052  -0.47572
 Alpha  occ. eigenvalues --   -0.47286  -0.45029  -0.40093  -0.38070  -0.36571
 Alpha  occ. eigenvalues --   -0.34157  -0.34040  -0.33145  -0.32620  -0.29925
 Alpha  occ. eigenvalues --   -0.26313  -0.22576  -0.14693
 Alpha virt. eigenvalues --    0.03754   0.04431   0.04528   0.04964   0.05081
 Alpha virt. eigenvalues --    0.05438   0.05529   0.06083   0.06351   0.06603
 Alpha virt. eigenvalues --    0.06866   0.07183   0.07449   0.07735   0.08032

 Mulliken charges:
               1
     1  O   -2.224515
     2  N    0.883223
     3  N   -0.937134
     4  C   -2.556481
     5  C    6.567521
     6  C   -3.865276
     7  H    1.515962
     8  H    1.665416
     9  Cl   0.045573
    10  H    1.492051
    11  H    1.781610
    12  N   -2.882144
    13  O   -3.196380
    14  C   -3.738546
    15  H    1.155083
    16  P   12.447195
    17  C   -4.794911
    18  H    1.732432
    19  O   -3.528112
    20  O   -3.985339
    21  O   -3.462459
    22  C   -2.374389
    23  C   -2.471785
    24  C   -4.177707
    25  H    1.902897
    26  H    1.425453
    27  C   -4.101156
    28  H    2.028739
    29  H    1.558545
    30  H    1.441382
    31  H    1.187141
    32  H    1.446354
    33  H    1.387645
    34  H    1.091872
    35  H    1.398122
    36  H    1.395384
    37  H    1.382650
    38  H    1.364081
 Sum of Mulliken charges =  -0.00000

 Dipole moment (field-independent basis, Debye):
    X=             -3.3454    Y=             -0.6643    Z=              1.2271  Tot=              3.6248

 Test job not archived.
 1\1\GINC-SE456\SP\RHF\Aug-CC-pVDZ\C9H19Cl1N3O5P1\OHZDE\08-Apr-2025\0\\
 #t hf aug-cc-pvdz iop(5/13=1,5/36=2,99/5=2) pseudo=read geom=check gue
 ss=(read,tcheck) scf=(maxcycle=1)\\title\\0,1\O,0,1.63823,2.11371,0.55
 736\N,0,2.52164,1.7077,-0.19607\N,0,2.47829,0.39925,-0.57491\C,0,3.589
 85,0.01334,-1.44038\C,0,1.47369,-0.62348,-0.31011\C,0,4.57026,-0.94202
 ,-0.77726\H,0,3.1837,-0.47808,-2.33644\H,0,4.08744,0.94905,-1.72322\Cl
 ,0,5.35688,-0.20292,0.66003\H,0,5.36636,-1.19927,-1.4866\H,0,4.06883,-
 1.85614,-0.44382\N,0,0.51496,-0.25329,0.56733\O,0,1.57529,-1.70451,-0.

 Normal termination of Gaussian 16 at Tue Apr  8 18:12:35 2025.
