 Gaussian 16, Revision C.01,

 ----------------------------------------------------------------------
 #t hf aug-cc-pvdz symm=none int=(grid=ultrafine) guess=(read,tcheck) s
 table=(opt,rrhf)
 ----------------------------------------------------------------------
 -----
 title
 -----
 Symbolic Z-matrix:
 Charge =  0 Multiplicity = 1

 SCF Done:  E(RHF) =  -914.179865656     A.U. after   16 cycles
 Normal termination of Gaussian 16 at Tue Apr  8 19:18:33 2025.
 Gaussian 16:  ES64L-G16RevC.01  3-Jul-2019

 ----------------------------------------------------------------------
 #t hf aug-cc-pvdz iop(5/13=1,5/36=2,99/5=2) pseudo=read geom=check gue
 ss=(read,tcheck) scf=(maxcycle=1)
 ----------------------------------------------------------------------
 -----
 title
 -----
 Structure from the checkpoint file:  "37Conf8_shiepox_depox_3_mol2.chk"
 Charge =  0 Multiplicity = 1

                         Standard orientation:
 ---------------------------------------------------------------------
 Center     Atomic      Atomic             Coordinates (Angstroms)
 Number     Number       Type             X           Y           Z
 ---------------------------------------------------------------------
      1          8           0        0.420510    2.116330   -0.050120
      2          6           0        0.191810    0.943540    0.158350
      3          6           0       -1.038331    0.215730   -0.419760
      4          6           0        1.120349    0.023960    0.962550
      5          8           0       -0.538011   -0.806070   -1.284700
      6          8           0       -1.798451   -0.283359    0.666140
      7          6           0       -2.012300    1.089611   -1.222900
      8          1           0        0.648999   -0.157660    1.942900
      9          8           0        2.413349    0.556609    1.154260
     10          6           0        1.387259   -1.279330    0.195900
     11          6           0        0.208499   -1.814760   -0.595360
     12          6           0       -3.206011   -0.073469    0.346690
     13          1           0       -2.162091    0.641041   -2.218660
     14          1           0       -1.645010    2.118291   -1.320300
     15          8           0       -3.209380    1.106641   -0.447510
     16          6           0        3.260179    0.058899    0.080870
     17          1           0        1.728549   -2.067450    0.897580
     18          8           0        2.448989   -0.871201   -0.663400
     19          1           0       -0.454421   -2.366920    0.091790
     20          1           0        0.565619   -2.502730   -1.373030
     21          6           0       -3.746811   -1.278229   -0.422090
     22          6           0       -3.950471    0.202771    1.635680
     23          6           0        3.664040    1.188099   -0.850170
     24          6           0        4.447569   -0.648911    0.720790
     25          1           0       -3.173221   -1.439989   -1.343630
     26          1           0       -4.800781   -1.110009   -0.681630
     27          1           0       -3.675151   -2.184319    0.194710
     28          1           0       -5.002801    0.424191    1.415020
     29          1           0       -3.500560    1.064991    2.142490
     30          1           0       -3.906341   -0.673159    2.295740
     31          1           0        4.244209    0.788899   -1.693290
     32          1           0        2.771560    1.698009   -1.230020
     33          1           0        4.282500    1.914529   -0.306870
     34          1           0        5.134179   -1.013121   -0.055120
     35          1           0        4.105549   -1.499801    1.324930
     36          1           0        4.988479    0.046139    1.376770
 ---------------------------------------------------------------------

 SCF Done:  E(RHF) =  -918.257698600     A.U. after    2 cycles

 The electronic state is 1-A.
 Alpha  occ. eigenvalues --  -21.07126 -21.07060 -21.06894 -21.05769 -21.05736
 Alpha  occ. eigenvalues --  -21.05519 -11.58803 -11.55765 -11.52135 -11.51242
 Alpha  occ. eigenvalues --  -11.50371 -11.49107 -11.46256 -11.43242 -11.41459
 Alpha  occ. eigenvalues --  -11.40349 -11.37392 -11.36404  -1.90152  -1.85632
 Alpha  occ. eigenvalues --   -1.76232  -1.71493  -1.67567  -1.67174  -1.21902
 Alpha  occ. eigenvalues --   -1.19755  -1.10821  -1.09376  -1.03638  -1.02291
 Alpha  occ. eigenvalues --   -1.00590  -0.91638  -0.87948  -0.81504  -0.80325
 Alpha  occ. eigenvalues --   -0.76601  -0.71395  -0.69043  -0.68280  -0.66209
 Alpha  occ. eigenvalues --   -0.63605  -0.62461  -0.61398  -0.60504  -0.59885
 Alpha  occ. eigenvalues --   -0.59500  -0.58546  -0.56995  -0.55017  -0.54529
 Alpha  occ. eigenvalues --   -0.53370  -0.51094  -0.50650  -0.49699  -0.49025
 Alpha  occ. eigenvalues --   -0.47548  -0.45650  -0.45300  -0.43862  -0.41983
 Alpha  occ. eigenvalues --   -0.39781  -0.37825  -0.36388  -0.35879  -0.32498
 Alpha  occ. eigenvalues --   -0.31255  -0.31043  -0.30099  -0.25763
 Alpha virt. eigenvalues --    0.03272   0.03453   0.03894   0.04497   0.04819
 Alpha virt. eigenvalues --    0.04990   0.05949   0.06065   0.06205   0.06896
 Alpha virt. eigenvalues --    0.07167   0.07518   0.07705   0.08091   0.09141

 Mulliken charges:
               1
     1  O   -4.109178
     2  C    4.211219
     3  C    5.764506
     4  C    0.518037
     5  O   -4.166632
     6  O   -4.769386
     7  C   -2.793890
     8  H    1.955368
     9  O   -4.392248
    10  C   -0.503564
    11  C   -2.906200
    12  C    7.329100
    13  H    1.583946
    14  H    1.476610
    15  O   -4.121263
    16  C    7.088208
    17  H    2.011194
    18  O   -4.454016
    19  H    1.568673
    20  H    1.477727
    21  C   -4.474292
    22  C   -4.839131
    23  C   -4.720139
    24  C   -4.561029
    25  H    1.547950
    26  H    1.148440
    27  H    1.358626
    28  H    1.216186
    29  H    1.416720
    30  H    1.271560
    31  H    1.260636
    32  H    1.428915
    33  H    1.277853
    34  H    1.257420
    35  H    1.416865
    36  H    1.225208
 Sum of Mulliken charges =   0.00000

 Dipole moment (field-independent basis, Debye):
    X=             -0.5179    Y=             -1.3464    Z=              0.1407  Tot=              1.4494

 Test job not archived.
 1\1\GINC-SE016\SP\RHF\Aug-CC-pVDZ\C12H18O6\OHZDE\08-Apr-2025\0\\#t hf
 aug-cc-pvdz iop(5/13=1,5/36=2,99/5=2) pseudo=read geom=check guess=(re
 ad,tcheck) scf=(maxcycle=1)\\title\\0,1\O,0,0.42051,2.11633,-0.05012\C
 ,0,0.19181,0.94354,0.15835\C,0,-1.03833,0.21573,-0.41976\C,0,1.12035,0
 .02396,0.96255\O,0,-0.53801,-0.80607,-1.2847\O,0,-1.79845,-0.28336,0.6
 6614\C,0,-2.0123,1.08961,-1.2229\H,0,0.649,-0.15766,1.9429\O,0,2.41335
 ,0.55661,1.15426\C,0,1.38726,-1.27933,0.1959\C,0,0.2085,-1.81476,-0.59
 536\C,0,-3.20601,-0.07347,0.34669\H,0,-2.16209,0.64104,-2.21866\H,0,-1

 Normal termination of Gaussian 16 at Tue Apr  8 19:19:36 2025.
