 Gaussian 16, Revision C.01,

 ----------------------------------------------------------------------
 #t hf aug-cc-pvdz symm=none int=(grid=ultrafine) guess=(read,tcheck) s
 table=(opt,rrhf)
 ----------------------------------------------------------------------
 -----
 title
 -----
 Symbolic Z-matrix:
 Charge =  0 Multiplicity = 1

 SCF Done:  E(RHF) =  -1153.32109199     A.U. after   16 cycles
 Normal termination of Gaussian 16 at Tue Apr  8 18:54:53 2025.
 Gaussian 16:  ES64L-G16RevC.01  3-Jul-2019

 ----------------------------------------------------------------------
 #t hf aug-cc-pvdz iop(5/13=1,5/36=2,99/5=2) pseudo=read geom=check gue
 ss=(read,tcheck) scf=(maxcycle=1)
 ----------------------------------------------------------------------
 -----
 title
 -----
 Structure from the checkpoint file:  "37Conf8_Pyridoxalphosphate_7_mol1.chk"
 Charge =  0 Multiplicity = 1

                         Standard orientation:
 ---------------------------------------------------------------------
 Center     Atomic      Atomic             Coordinates (Angstroms)
 Number     Number       Type             X           Y           Z
 ---------------------------------------------------------------------
      1          1           0        2.810909    2.519151    0.331241
      2          8           0        3.392470    1.737352    0.365501
      3          6           0        2.688290    0.607361    0.092301
      4          6           0        1.315220    0.572641   -0.250139
      5          6           0        3.431851   -0.598148    0.181151
      6          6           0        0.596550    1.833200   -0.432689
      7          6           0        0.723241   -0.705080   -0.463809
      8          7           0        2.853981   -1.775869   -0.041339
      9          6           0        4.886661   -0.561968    0.534901
     10          8           0       -0.601071    1.987550   -0.637399
     11          1           0        1.234879    2.757381   -0.416549
     12          6           0        1.544611   -1.818399   -0.347969
     13          6           0       -0.720029   -0.913250   -0.819639
     14          1           0        5.454820    0.047483   -0.184049
     15          1           0        5.279321   -1.584257    0.540111
     16          1           0        5.041990   -0.103468    1.523351
     17          1           0        1.124012   -2.814599   -0.512679
     18          8           0       -1.532649   -0.672711    0.356631
     19          1           0       -1.039199   -0.255710   -1.640119
     20          1           0       -0.871159   -1.954930   -1.138459
     21         15           0       -3.061260   -0.175941    0.129151
     22          8           0       -3.036280    1.363179    0.593901
     23          8           0       -3.861369   -0.846232    1.342431
     24          8           0       -3.602909   -0.500111   -1.201579
     25          1           0       -2.296420    1.823439    0.136271
     26          1           0       -3.662019   -0.414652    2.192471
 ---------------------------------------------------------------------

 SCF Done:  E(RHF) =  -1157.04911049     A.U. after    2 cycles

 The electronic state is 1-A.
 Alpha  occ. eigenvalues -- -105.31985 -21.15048 -21.11026 -21.10506 -21.09865
 Alpha  occ. eigenvalues --  -21.07944 -21.01322 -15.77482 -11.56156 -11.55157
 Alpha  occ. eigenvalues --  -11.52197 -11.49938 -11.48647 -11.46874 -11.42905
 Alpha  occ. eigenvalues --  -11.40321  -2.94532  -1.99093  -1.91180  -1.89329
 Alpha  occ. eigenvalues --   -1.81318  -1.75419  -1.73708  -1.47429  -1.42930
 Alpha  occ. eigenvalues --   -1.39730  -1.25264  -1.24037  -1.17570  -1.08667
 Alpha  occ. eigenvalues --   -1.00181  -0.96146  -0.88608  -0.82896  -0.75512
 Alpha  occ. eigenvalues --   -0.70747  -0.69791  -0.67374  -0.65042  -0.63173
 Alpha  occ. eigenvalues --   -0.62033  -0.59941  -0.58786  -0.57345  -0.56492
 Alpha  occ. eigenvalues --   -0.54411  -0.53622  -0.52784  -0.50570  -0.49135
 Alpha  occ. eigenvalues --   -0.47490  -0.46505  -0.44803  -0.41866  -0.39482
 Alpha  occ. eigenvalues --   -0.38031  -0.36206  -0.35575  -0.33870  -0.32643
 Alpha  occ. eigenvalues --   -0.30713  -0.26899  -0.26220  -0.15116
 Alpha virt. eigenvalues --    0.02530   0.03701   0.04287   0.05149   0.05299
 Alpha virt. eigenvalues --    0.05429   0.05671   0.06597   0.07160   0.07302
 Alpha virt. eigenvalues --    0.08152   0.08796   0.09442   0.09958   0.10831

 Mulliken charges:
               1
     1  H    0.972078
     2  O   -4.511434
     3  C    3.583791
     4  C    1.904184
     5  C    2.675593
     6  C    0.862928
     7  C    5.173235
     8  N   -4.605420
     9  C   -5.419874
    10  O   -3.665108
    11  H    1.578738
    12  C   -2.253190
    13  C   -3.602563
    14  H    1.233191
    15  H    1.233802
    16  H    1.242207
    17  H    1.703526
    18  O   -3.368233
    19  H    1.518286
    20  H    1.271025
    21  P    8.923358
    22  O   -3.104853
    23  O   -2.760239
    24  O   -2.900628
    25  H    1.409850
    26  H    0.905750
 Sum of Mulliken charges =   0.00000

 Dipole moment (field-independent basis, Debye):
    X=              3.9738    Y=              2.6099    Z=              2.8852  Tot=              5.5612

 Test job not archived.
 1\1\GINC-SE045\SP\RHF\Aug-CC-pVDZ\C8H10N1O6P1\OHZDE\08-Apr-2025\0\\#t
 hf aug-cc-pvdz iop(5/13=1,5/36=2,99/5=2) pseudo=read geom=check guess=
 (read,tcheck) scf=(maxcycle=1)\\title\\0,1\H,0,2.81091,2.51915,0.33124
 \O,0,3.39247,1.73735,0.3655\C,0,2.68829,0.60736,0.0923\C,0,1.31522,0.5
 7264,-0.25014\C,0,3.43185,-0.59815,0.18115\C,0,0.59655,1.8332,-0.43269
 \C,0,0.72324,-0.70508,-0.46381\N,0,2.85398,-1.77587,-0.04134\C,0,4.886
 66,-0.56197,0.5349\O,0,-0.60107,1.98755,-0.6374\H,0,1.23488,2.75738,-0
 .41655\C,0,1.54461,-1.8184,-0.34797\C,0,-0.72003,-0.91325,-0.81964\H,0

 Normal termination of Gaussian 16 at Tue Apr  8 18:55:22 2025.
