 Gaussian 16, Revision C.01,

 ----------------------------------------------------------------------
 #t hf aug-cc-pvdz symm=none int=(grid=ultrafine) guess=(read,tcheck) s
 table=(opt,rrhf)
 ----------------------------------------------------------------------
 -----
 title
 -----
 Symbolic Z-matrix:
 Charge =  0 Multiplicity = 1

 SCF Done:  E(RHF) =  -1667.17832830     A.U. after   12 cycles
 Normal termination of Gaussian 16 at Tue Apr  8 18:29:59 2025.
 Gaussian 16:  ES64L-G16RevC.01  3-Jul-2019

 ----------------------------------------------------------------------
 #t hf aug-cc-pvdz iop(5/13=1,5/36=2,99/5=2) pseudo=read geom=check gue
 ss=(read,tcheck) scf=(maxcycle=1)
 ----------------------------------------------------------------------
 -----
 title
 -----
 Structure from the checkpoint file:  "37Conf8_N_iprit_4_mol1.chk"
 Charge =  0 Multiplicity = 1

                         Standard orientation:
 ---------------------------------------------------------------------
 Center     Atomic      Atomic             Coordinates (Angstroms)
 Number     Number       Type             X           Y           Z
 ---------------------------------------------------------------------
      1          1           0        0.705490   -0.227652   -1.628921
      2          6           0        0.441842    0.573418   -0.918301
      3          6           0        1.723144    1.350855   -0.652611
      4          7           0       -0.163030   -0.021960    0.264689
      5          1           0       -0.269076    1.235591   -1.444921
      6         17           0        1.432049    2.866375    0.292129
      7          1           0        2.188235    1.665203   -1.596371
      8          1           0        2.432743    0.752472   -0.071411
      9          6           0       -0.211914   -1.474250    0.319089
     10          6           0       -1.281468    0.701254    0.847109
     11          6           0        1.045184   -2.131273    0.875969
     12          1           0       -0.457635   -1.928919   -0.660061
     13          1           0       -1.029445   -1.761787    0.998249
     14          6           0       -2.544507    0.869127    0.003549
     15          1           0       -0.942155    1.722293    1.092629
     16          1           0       -1.546829    0.221324    1.801079
     17         17           0        2.444934   -2.108668   -0.272101
     18          1           0        0.860031   -3.191783    1.090069
     19          1           0        1.384665   -1.619614    1.784589
     20         17           0       -3.383752   -0.691450   -0.351251
     21          1           0       -2.333786    1.326517   -0.971031
     22          1           0       -3.269645    1.498909    0.535239
 ---------------------------------------------------------------------

 SCF Done:  E(RHF) =  -1669.36514528     A.U. after    2 cycles

 The electronic state is 1-A.
 Alpha  occ. eigenvalues --  -99.88020 -99.88007 -99.87397 -15.71538 -11.48106
 Alpha  occ. eigenvalues --  -11.47323 -11.46293 -11.40945 -11.40794 -11.40419
 Alpha  occ. eigenvalues --  -10.45323 -10.45314 -10.44702  -9.65275  -9.65232
 Alpha  occ. eigenvalues --   -9.64802  -9.64750  -9.64617  -9.64525  -9.64496
 Alpha  occ. eigenvalues --   -9.64130  -9.63856  -1.46313  -1.33239  -1.32872
 Alpha  occ. eigenvalues --   -1.30835  -1.13293  -1.12723  -1.03229  -0.92263
 Alpha  occ. eigenvalues --   -0.91418  -0.81413  -0.70516  -0.69116  -0.67325
 Alpha  occ. eigenvalues --   -0.65545  -0.64103  -0.62605  -0.60966  -0.57954
 Alpha  occ. eigenvalues --   -0.57052  -0.56124  -0.55424  -0.51377  -0.50950
 Alpha  occ. eigenvalues --   -0.50441  -0.48537  -0.47774  -0.47601  -0.46926
 Alpha  occ. eigenvalues --   -0.45493  -0.44192  -0.31420
 Alpha virt. eigenvalues --    0.03598   0.04279   0.04906   0.05510   0.05814
 Alpha virt. eigenvalues --    0.06006   0.06380   0.06678   0.06835   0.07759
 Alpha virt. eigenvalues --    0.08399   0.08888   0.09131   0.09563   0.10204

 Mulliken charges:
               1
     1  H    1.509470
     2  C   -2.114154
     3  C   -3.865830
     4  N   -1.582697
     5  H    1.920777
     6  Cl   0.038903
     7  H    1.481928
     8  H    1.786729
     9  C   -1.978541
    10  C   -2.092713
    11  C   -4.080170
    12  H    1.626158
    13  H    1.680239
    14  C   -3.864169
    15  H    1.324060
    16  H    1.777411
    17  Cl   0.074206
    18  H    1.431535
    19  H    1.609373
    20  Cl   0.075940
    21  H    1.795888
    22  H    1.445658
 Sum of Mulliken charges =  -0.00000

 Dipole moment (field-independent basis, Debye):
    X=             -0.9600    Y=             -0.2484    Z=              0.5995  Tot=              1.1587

 Test job not archived.
 1\1\GINC-SE364\SP\RHF\Aug-CC-pVDZ\C6H12Cl3N1\OHZDE\08-Apr-2025\0\\#t h
 f aug-cc-pvdz iop(5/13=1,5/36=2,99/5=2) pseudo=read geom=check guess=(
 read,tcheck) scf=(maxcycle=1)\\title\\0,1\H,0,0.70549,-0.22765,-1.6289
 2\C,0,0.44184,0.57342,-0.9183\C,0,1.72314,1.35086,-0.65261\N,0,-0.1630
 3,-0.02196,0.26469\H,0,-0.26908,1.23559,-1.44492\Cl,0,1.43204,2.86638,
 0.29213\H,0,2.18823,1.66521,-1.59637\H,0,2.43274,0.75248,-0.07141\C,0,
 -0.21191,-1.47425,0.31909\C,0,-1.28147,0.70125,0.84711\C,0,1.04519,-2.
 13127,0.87597\H,0,-0.45763,-1.92892,-0.66006\H,0,-1.02944,-1.76179,0.9

 Normal termination of Gaussian 16 at Tue Apr  8 18:30:14 2025.
