 Gaussian 16, Revision C.01,

 ----------------------------------------------------------------------
 #t hf aug-cc-pvdz symm=none int=(grid=ultrafine) guess=(read,tcheck) s
 table=(opt,rrhf)
 ----------------------------------------------------------------------
 -----
 title
 -----
 Symbolic Z-matrix:
 Charge =  0 Multiplicity = 1

 SCF Done:  E(RHF) =  -1673.88173206     A.U. after   17 cycles
 Normal termination of Gaussian 16 at Tue Apr  8 19:22:34 2025.
 Gaussian 16:  ES64L-G16RevC.01  3-Jul-2019

 ----------------------------------------------------------------------
 #t hf aug-cc-pvdz iop(5/13=1,5/36=2,99/5=2) pseudo=read geom=check gue
 ss=(read,tcheck) scf=(maxcycle=1)
 ----------------------------------------------------------------------
 -----
 title
 -----
 Structure from the checkpoint file:  "37Conf8_Pantoprazole_7_mol1.chk"
 Charge =  0 Multiplicity = 1

                         Standard orientation:
 ---------------------------------------------------------------------
 Center     Atomic      Atomic             Coordinates (Angstroms)
 Number     Number       Type             X           Y           Z
 ---------------------------------------------------------------------
      1          1           0        2.342768    2.853031    2.449440
      2          6           0        2.509598    2.059251    1.720450
      3          6           0        3.158809    0.876211    2.059530
      4          6           0        2.097428    2.251270    0.398610
      5          1           0        3.507889    0.714541    3.083740
      6          7           0        3.412979   -0.107739    1.185990
      7          8           0        1.470478    3.423490    0.087210
      8          6           0        2.307079    1.203831   -0.525880
      9          6           0        2.987109    0.050381   -0.082840
     10          6           0        2.028597    4.182360   -1.004660
     11          8           0        1.935379    1.300490   -1.841840
     12          6           0        3.207310   -1.095979   -1.011620
     13          1           0        2.006488    3.623690   -1.949580
     14          1           0        1.410877    5.083790   -1.080970
     15          1           0        3.066827    4.465011   -0.770850
     16          6           0        0.508799    1.349530   -2.079500
     17         16           0        2.447671   -2.681889   -0.364250
     18          1           0        2.756930   -0.945539   -1.999400
     19          1           0        4.271380   -1.352138   -1.109580
     20          6           0        0.845640   -1.934950    0.072220
     21          8           0        2.258201   -3.567379   -1.546710
     22          7           0       -0.197690   -1.784631   -0.715440
     23          7           0        0.616570   -1.542370    1.371580
     24          6           0       -1.172440   -1.226951    0.100390
     25          1           0        1.329810   -1.487520    2.092850
     26          6           0       -0.673280   -1.047641    1.418290
     27          6           0       -2.485240   -0.849342   -0.221090
     28          6           0       -1.446540   -0.485641    2.436370
     29          1           0       -2.886200   -1.040582   -1.215300
     30          6           0       -3.239371   -0.272932    0.797020
     31          1           0       -1.065121   -0.347761    3.448450
     32          6           0       -2.737131   -0.092862    2.102960
     33          8           0       -4.554641    0.152627    0.623130
     34          1           0       -3.391771    0.363168    2.845260
     35          6           0       -4.941461    0.512347   -0.644460
     36          9           0       -5.338870   -0.586453   -1.371550
     37          9           0       -6.025261    1.315656   -0.513650
     38          1           0       -4.147741    1.030647   -1.209420
     39          1           0        0.391969    1.609030   -3.138020
     40          1           0        0.066409    0.362019   -1.885400
     41          1           0        0.026158    2.112069   -1.450470
 ---------------------------------------------------------------------

 SCF Done:  E(RHF) =  -1679.66362697     A.U. after    2 cycles

 The electronic state is 1-A.
 Alpha  occ. eigenvalues --  -75.81135 -29.29654 -29.28927 -21.10818 -21.09787
 Alpha  occ. eigenvalues --  -21.08705 -21.01694 -15.81753 -15.76170 -15.74827
 Alpha  occ. eigenvalues --  -13.38617 -13.29967 -13.22543 -11.58025 -11.56034
 Alpha  occ. eigenvalues --  -11.55889 -11.52338 -11.49483 -11.49116 -11.48173
 Alpha  occ. eigenvalues --  -11.47246 -11.46983 -11.46699 -11.44736 -11.44085
 Alpha  occ. eigenvalues --  -11.43874 -11.43563 -11.41676 -11.40112  -8.15274
 Alpha  occ. eigenvalues --   -1.85578  -1.82604  -1.77838  -1.70259  -1.58811
 Alpha  occ. eigenvalues --   -1.46121  -1.31455  -1.30384  -1.23172  -1.21596
 Alpha  occ. eigenvalues --   -1.18341  -1.12394  -1.10608  -1.06679  -1.02661
 Alpha  occ. eigenvalues --   -1.00071  -0.97795  -0.90598  -0.88511  -0.88059
 Alpha  occ. eigenvalues --   -0.86692  -0.83439  -0.81931  -0.78801  -0.74152
 Alpha  occ. eigenvalues --   -0.72158  -0.71504  -0.69943  -0.67721  -0.67019
 Alpha  occ. eigenvalues --   -0.66051  -0.64440  -0.64040  -0.62954  -0.62171
 Alpha  occ. eigenvalues --   -0.61052  -0.60378  -0.59445  -0.58896  -0.56866
 Alpha  occ. eigenvalues --   -0.56316  -0.55611  -0.53594  -0.52938  -0.51445
 Alpha  occ. eigenvalues --   -0.50753  -0.49733  -0.47109  -0.45716  -0.45437
 Alpha  occ. eigenvalues --   -0.43995  -0.43335  -0.42267  -0.41677  -0.40980
 Alpha  occ. eigenvalues --   -0.39848  -0.39266  -0.38081  -0.36643  -0.32998
 Alpha  occ. eigenvalues --   -0.32776  -0.32025  -0.31852  -0.30700  -0.30294
 Alpha  occ. eigenvalues --   -0.29380  -0.27127  -0.25776  -0.22228
 Alpha virt. eigenvalues --    0.02469   0.03444   0.03775   0.04299   0.04423
 Alpha virt. eigenvalues --    0.04989   0.05124   0.05621   0.06039   0.06587
 Alpha virt. eigenvalues --    0.06986   0.07495   0.07887   0.08213   0.08321

 Mulliken charges:
               1
     1  H    1.954845
     2  C   -3.853478
     3  C   -0.786020
     4  C    8.024760
     5  H    1.800579
     6  N   -4.519145
     7  O   -4.857644
     8  C    4.457462
     9  C    4.141655
    10  C   -4.072987
    11  O   -4.946793
    12  C   -5.335676
    13  H    1.642982
    14  H    1.305741
    15  H    1.389702
    16  C   -4.848798
    17  S    4.521775
    18  H    1.856614
    19  H    1.304231
    20  C    2.948901
    21  O   -2.678462
    22  N   -5.253561
    23  N   -5.397716
    24  C    4.770978
    25  H    1.017272
    26  C    4.011877
    27  C   -2.054985
    28  C   -3.175705
    29  H    2.075344
    30  C    4.292547
    31  H    1.875030
    32  C   -5.293214
    33  O   -4.533064
    34  H    1.910106
    35  C   -0.763978
    36  F    0.165883
    37  F    0.528750
    38  H    1.394005
    39  H    1.283040
    40  H    1.857385
    41  H    1.839765
 Sum of Mulliken charges =   0.00000

 Dipole moment (field-independent basis, Debye):
    X=             -0.1899    Y=              3.6373    Z=              1.7146  Tot=              4.0256

 Test job not archived.
 1\1\GINC-SE398\SP\RHF\Aug-CC-pVDZ\C16H15F2N3O4S1\OHZDE\08-Apr-2025\0\\
 #t hf aug-cc-pvdz iop(5/13=1,5/36=2,99/5=2) pseudo=read geom=check gue
 ss=(read,tcheck) scf=(maxcycle=1)\\title\\0,1\H,0,2.34277,2.85303,2.44
 944\C,0,2.5096,2.05925,1.72045\C,0,3.15881,0.87621,2.05953\C,0,2.09743
 ,2.25127,0.39861\H,0,3.50789,0.71454,3.08374\N,0,3.41298,-0.10774,1.18
 599\O,0,1.47048,3.42349,0.08721\C,0,2.30708,1.20383,-0.52588\C,0,2.987
 11,0.05038,-0.08284\C,0,2.0286,4.18236,-1.00466\O,0,1.93538,1.30049,-1
 .84184\C,0,3.20731,-1.09598,-1.01162\H,0,2.00649,3.62369,-1.94958\H,0,

 Normal termination of Gaussian 16 at Tue Apr  8 19:24:40 2025.
