 Gaussian 16, Revision C.01,

 ----------------------------------------------------------------------
 #t hf aug-cc-pvdz symm=none int=(grid=ultrafine) guess=(read,tcheck) s
 table=(opt,rrhf)
 ----------------------------------------------------------------------
 -----
 title
 -----
 Symbolic Z-matrix:
 Charge =  0 Multiplicity = 1

 SCF Done:  E(RHF) =  -1673.88693931     A.U. after   17 cycles
 Normal termination of Gaussian 16 at Tue Apr  8 19:11:24 2025.
 Gaussian 16:  ES64L-G16RevC.01  3-Jul-2019

 ----------------------------------------------------------------------
 #t hf aug-cc-pvdz iop(5/13=1,5/36=2,99/5=2) pseudo=read geom=check gue
 ss=(read,tcheck) scf=(maxcycle=1)
 ----------------------------------------------------------------------
 -----
 title
 -----
 Structure from the checkpoint file:  "37Conf8_Pantoprazole_2_mol1.chk"
 Charge =  0 Multiplicity = 1

                         Standard orientation:
 ---------------------------------------------------------------------
 Center     Atomic      Atomic             Coordinates (Angstroms)
 Number     Number       Type             X           Y           Z
 ---------------------------------------------------------------------
      1          1           0       -4.428281   -3.278720    0.309880
      2          6           0       -4.002161   -2.311460    0.050340
      3          6           0       -2.743851   -2.245500   -0.543940
      4          6           0       -4.675211   -1.116440    0.329760
      5          1           0       -2.191421   -3.164590   -0.755520
      6          7           0       -2.142751   -1.101330   -0.877800
      7          8           0       -5.873241   -1.031570    0.952530
      8          6           0       -4.058251    0.104510   -0.037500
      9          6           0       -2.791871    0.061580   -0.643800
     10          6           0       -6.495171   -2.252050    1.367280
     11          8           0       -4.602190    1.323010    0.249590
     12          6           0       -2.100480    1.326830   -1.023540
     13          1           0       -6.716171   -2.899200    0.504000
     14          1           0       -7.430011   -1.955349    1.853820
     15          1           0       -5.860581   -2.793780    2.085730
     16          6           0       -5.882030    1.623640   -0.341140
     17         16           0       -1.025970    2.062620    0.346920
     18          1           0       -1.470900    1.209400   -1.912770
     19          1           0       -2.812080    2.148720   -1.161620
     20          6           0        0.468480    1.094609   -0.024760
     21          8           0       -0.759860    3.475930   -0.045820
     22          7           0        1.653680    1.526549    0.360070
     23          7           0        0.482449   -0.152681   -0.603750
     24          6           0        2.519569    0.506239    0.007890
     25          1           0       -0.367821   -0.687631   -0.885630
     26          6           0        1.800289   -0.565801   -0.589250
     27          6           0        3.914149    0.435609    0.153550
     28          6           0        2.438559   -1.723651   -1.042950
     29          1           0        4.469250    1.279789    0.559780
     30          6           0        4.531779   -0.732191   -0.281850
     31          1           0        1.891059   -2.543291   -1.509490
     32          6           0        3.815919   -1.795061   -0.871890
     33          8           0        5.909059   -0.943002   -0.195730
     34          1           0        4.375089   -2.674021   -1.192160
     35          6           0        6.587699   -0.278942    0.793770
     36          9           0        6.960530    0.980888    0.380050
     37          9           0        7.731719   -0.972362    1.024410
     38          1           0        6.008259   -0.177332    1.727030
     39          1           0       -5.836650    1.500610   -1.435020
     40          1           0       -6.077150    2.674020   -0.098430
     41          1           0       -6.675610    0.988480    0.073510
 ---------------------------------------------------------------------

 SCF Done:  E(RHF) =  -1679.67371253     A.U. after    2 cycles

 The electronic state is 1-A.
 Alpha  occ. eigenvalues --  -75.80767 -29.28516 -29.27758 -21.12146 -21.09585
 Alpha  occ. eigenvalues --  -21.09219 -21.01139 -15.78954 -15.77073 -15.73080
 Alpha  occ. eigenvalues --  -13.37903 -13.29571 -13.21436 -11.58598 -11.54801
 Alpha  occ. eigenvalues --  -11.54332 -11.52883 -11.49608 -11.48112 -11.47663
 Alpha  occ. eigenvalues --  -11.46869 -11.45778 -11.45738 -11.45362 -11.45044
 Alpha  occ. eigenvalues --  -11.43612 -11.42581 -11.42309 -11.38490  -8.14809
 Alpha  occ. eigenvalues --   -1.84902  -1.84331  -1.78919  -1.69590  -1.57028
 Alpha  occ. eigenvalues --   -1.47278  -1.29751  -1.28757  -1.22425  -1.20968
 Alpha  occ. eigenvalues --   -1.19327  -1.12463  -1.09294  -1.06492  -1.04705
 Alpha  occ. eigenvalues --   -1.00756  -0.97489  -0.90132  -0.88635  -0.87635
 Alpha  occ. eigenvalues --   -0.85786  -0.82246  -0.80717  -0.77575  -0.74285
 Alpha  occ. eigenvalues --   -0.72797  -0.71468  -0.70225  -0.68057  -0.66912
 Alpha  occ. eigenvalues --   -0.66307  -0.63863  -0.63810  -0.62821  -0.61902
 Alpha  occ. eigenvalues --   -0.61769  -0.61147  -0.60570  -0.58592  -0.57839
 Alpha  occ. eigenvalues --   -0.56088  -0.54025  -0.53724  -0.52029  -0.51458
 Alpha  occ. eigenvalues --   -0.50429  -0.49199  -0.47646  -0.46264  -0.44898
 Alpha  occ. eigenvalues --   -0.44384  -0.43054  -0.42404  -0.40874  -0.40450
 Alpha  occ. eigenvalues --   -0.39679  -0.38252  -0.37138  -0.36769  -0.34895
 Alpha  occ. eigenvalues --   -0.32312  -0.31591  -0.30452  -0.29995  -0.29029
 Alpha  occ. eigenvalues --   -0.28327  -0.26120  -0.24685  -0.21068
 Alpha virt. eigenvalues --    0.01901   0.03108   0.03614   0.03728   0.04302
 Alpha virt. eigenvalues --    0.04678   0.05431   0.05614   0.06090   0.06465
 Alpha virt. eigenvalues --    0.06659   0.07405   0.07723   0.08322   0.08535

 Mulliken charges:
               1
     1  H    1.901447
     2  C   -2.322546
     3  C   -0.906800
     4  C    7.409498
     5  H    1.987070
     6  N   -4.419853
     7  O   -5.134288
     8  C    3.139143
     9  C    4.004100
    10  C   -3.849577
    11  O   -5.042271
    12  C   -5.108194
    13  H    1.435944
    14  H    1.528261
    15  H    1.395998
    16  C   -3.898721
    17  S    4.371939
    18  H    1.501931
    19  H    1.475667
    20  C    0.863086
    21  O   -2.574388
    22  N   -4.413838
    23  N   -5.609504
    24  C    4.724948
    25  H    0.807190
    26  C    4.917708
    27  C   -1.110810
    28  C   -2.843006
    29  H    1.980351
    30  C    3.877894
    31  H    1.814874
    32  C   -5.051387
    33  O   -4.351365
    34  H    1.833221
    35  C   -0.860379
    36  F    0.187318
    37  F    0.505721
    38  H    1.405809
    39  H    1.428895
    40  H    1.360702
    41  H    1.638213
 Sum of Mulliken charges =  -0.00000

 Dipole moment (field-independent basis, Debye):
    X=             -7.3282    Y=             -3.6136    Z=              0.7842  Tot=              8.2083

 Test job not archived.
 1\1\GINC-SE333\SP\RHF\Aug-CC-pVDZ\C16H15F2N3O4S1\OHZDE\08-Apr-2025\0\\
 #t hf aug-cc-pvdz iop(5/13=1,5/36=2,99/5=2) pseudo=read geom=check gue
 ss=(read,tcheck) scf=(maxcycle=1)\\title\\0,1\H,0,-4.42828,-3.27872,0.
 30988\C,0,-4.00216,-2.31146,0.05034\C,0,-2.74385,-2.2455,-0.54394\C,0,
 -4.67521,-1.11644,0.32976\H,0,-2.19142,-3.16459,-0.75552\N,0,-2.14275,
 -1.10133,-0.8778\O,0,-5.87324,-1.03157,0.95253\C,0,-4.05825,0.10451,-0
 .0375\C,0,-2.79187,0.06158,-0.6438\C,0,-6.49517,-2.25205,1.36728\O,0,-
 4.60219,1.32301,0.24959\C,0,-2.10048,1.32683,-1.02354\H,0,-6.71617,-2.

 Normal termination of Gaussian 16 at Tue Apr  8 19:13:02 2025.
