 Gaussian 16, Revision C.01,

 ----------------------------------------------------------------------
 #t hf aug-cc-pvdz symm=none int=(grid=ultrafine) guess=(read,tcheck) s
 table=(opt,rrhf)
 ----------------------------------------------------------------------
 -----
 title
 -----
 Symbolic Z-matrix:
 Charge =  0 Multiplicity = 1

 SCF Done:  E(RHF) =  -1153.32424716     A.U. after   16 cycles
 Normal termination of Gaussian 16 at Tue Apr  8 18:53:19 2025.
 Gaussian 16:  ES64L-G16RevC.01  3-Jul-2019

 ----------------------------------------------------------------------
 #t hf aug-cc-pvdz iop(5/13=1,5/36=2,99/5=2) pseudo=read geom=check gue
 ss=(read,tcheck) scf=(maxcycle=1)
 ----------------------------------------------------------------------
 -----
 title
 -----
 Structure from the checkpoint file:  "37Conf8_Pyridoxalphosphate_5_mol1.chk"
 Charge =  0 Multiplicity = 1

                         Standard orientation:
 ---------------------------------------------------------------------
 Center     Atomic      Atomic             Coordinates (Angstroms)
 Number     Number       Type             X           Y           Z
 ---------------------------------------------------------------------
      1          1           0       -3.771890    1.383128   -1.073962
      2          8           0       -2.902170    1.651549   -0.725482
      3          6           0       -2.308120    0.564839   -0.159102
      4          6           0       -1.035920    0.720250    0.433728
      5          6           0       -2.932659   -0.701241   -0.187082
      6          6           0       -0.472771    2.082030    0.461108
      7          6           0       -0.434979   -0.432970    0.992388
      8          7           0       -2.354248   -1.769681    0.364398
      9          6           0       -4.273809   -0.875432   -0.842052
     10          8           0        0.697929    2.397681    0.662738
     11          1           0       -1.219591    2.885440    0.290528
     12          6           0       -1.151558   -1.627230    0.937938
     13          6           0        0.925431   -0.471019    1.647808
     14          1           0       -5.048729   -0.239413   -0.379602
     15          1           0       -4.587378   -1.919522   -0.734942
     16          1           0       -4.237729   -0.639032   -1.919222
     17          1           0       -0.720188   -2.530450    1.379508
     18          8           0        1.929261   -1.065248    0.790928
     19          1           0        0.885951   -1.139279    2.518358
     20          1           0        1.253160    0.521601    1.982798
     21         15           0        2.387831   -0.273868   -0.546182
     22          8           0        2.988410    1.110072   -0.029872
     23          8           0        3.714011   -1.099857   -0.899412
     24          8           0        1.366011   -0.200499   -1.616192
     25          1           0        2.233440    1.709032    0.216398
     26          1           0        3.633921   -1.440647   -1.808012
 ---------------------------------------------------------------------

 SCF Done:  E(RHF) =  -1157.05424266     A.U. after    2 cycles

 The electronic state is 1-A.
 Alpha  occ. eigenvalues -- -105.31533 -21.13778 -21.10746 -21.09065 -21.08701
 Alpha  occ. eigenvalues --  -21.07756 -21.01353 -15.76958 -11.55291 -11.53263
 Alpha  occ. eigenvalues --  -11.50948 -11.48818 -11.48556 -11.46238 -11.43095
 Alpha  occ. eigenvalues --  -11.40959  -2.94248  -1.98105  -1.90968  -1.90171
 Alpha  occ. eigenvalues --   -1.80176  -1.74162  -1.73185  -1.46896  -1.42479
 Alpha  occ. eigenvalues --   -1.38805  -1.25668  -1.23502  -1.17139  -1.08567
 Alpha  occ. eigenvalues --   -0.98911  -0.95979  -0.87746  -0.82643  -0.73600
 Alpha  occ. eigenvalues --   -0.70941  -0.69795  -0.65825  -0.63943  -0.63137
 Alpha  occ. eigenvalues --   -0.60975  -0.60106  -0.58986  -0.57537  -0.56044
 Alpha  occ. eigenvalues --   -0.54967  -0.53101  -0.51239  -0.50897  -0.48798
 Alpha  occ. eigenvalues --   -0.47533  -0.47105  -0.43032  -0.41829  -0.38809
 Alpha  occ. eigenvalues --   -0.37936  -0.35837  -0.33001  -0.32135  -0.31604
 Alpha  occ. eigenvalues --   -0.29791  -0.27144  -0.26084  -0.15876
 Alpha virt. eigenvalues --    0.02937   0.04414   0.04612   0.05105   0.05423
 Alpha virt. eigenvalues --    0.05667   0.06402   0.06750   0.07287   0.07634
 Alpha virt. eigenvalues --    0.08445   0.08926   0.09866   0.10508   0.10787

 Mulliken charges:
               1
     1  H    1.115708
     2  O   -4.895689
     3  C    4.551952
     4  C    1.814606
     5  C    1.090471
     6  C    0.647081
     7  C    4.127996
     8  N   -4.479956
     9  C   -4.711667
    10  O   -3.454475
    11  H    1.562673
    12  C   -1.872914
    13  C   -2.522710
    14  H    1.097334
    15  H    1.222459
    16  H    1.153030
    17  H    1.748464
    18  O   -3.674233
    19  H    1.182724
    20  H    1.610860
    21  P    9.116368
    22  O   -3.443700
    23  O   -2.684608
    24  O   -2.773713
    25  H    1.596289
    26  H    0.875652
 Sum of Mulliken charges =   0.00000

 Dipole moment (field-independent basis, Debye):
    X=             -1.6664    Y=              0.8150    Z=              1.1223  Tot=              2.1681

 Test job not archived.
 1\1\GINC-SE232\SP\RHF\Aug-CC-pVDZ\C8H10N1O6P1\OHZDE\08-Apr-2025\0\\#t
 hf aug-cc-pvdz iop(5/13=1,5/36=2,99/5=2) pseudo=read geom=check guess=
 (read,tcheck) scf=(maxcycle=1)\\title\\0,1\H,0,3.77189,1.38313,1.07396
 \O,0,2.90217,1.65155,0.72548\C,0,2.30812,0.56484,0.1591\C,0,1.03592,0.
 72025,-0.43373\C,0,2.93266,-0.70124,0.18708\C,0,0.47277,2.08203,-0.461
 11\C,0,0.43498,-0.43297,-0.99239\N,0,2.35425,-1.76968,-0.3644\C,0,4.27
 381,-0.87543,0.84205\O,0,-0.69793,2.39768,-0.66274\H,0,1.21959,2.88544
 ,-0.29053\C,0,1.15156,-1.62723,-0.93794\C,0,-0.92543,-0.47102,-1.64781

 Normal termination of Gaussian 16 at Tue Apr  8 18:53:51 2025.
