 Gaussian 16, Revision C.01,

 ----------------------------------------------------------------------
 #t hf aug-cc-pvdz symm=none int=(grid=ultrafine) guess=(read,tcheck) s
 table=(opt,rrhf)
 ----------------------------------------------------------------------
 -----
 title
 -----
 Symbolic Z-matrix:
 Charge =  0 Multiplicity = 1

 SCF Done:  E(RHF) =  -983.486782501     A.U. after   14 cycles
 Normal termination of Gaussian 16 at Tue Apr  8 19:18:10 2025.
 Gaussian 16:  ES64L-G16RevC.01  3-Jul-2019

 ----------------------------------------------------------------------
 #t hf aug-cc-pvdz iop(5/13=1,5/36=2,99/5=2) pseudo=read geom=check gue
 ss=(read,tcheck) scf=(maxcycle=1)
 ----------------------------------------------------------------------
 -----
 title
 -----
 Structure from the checkpoint file:  "37Conf8_Tsogoeva_7_mol1.chk"
 Charge =  0 Multiplicity = 1

                         Standard orientation:
 ---------------------------------------------------------------------
 Center     Atomic      Atomic             Coordinates (Angstroms)
 Number     Number       Type             X           Y           Z
 ---------------------------------------------------------------------
      1          1           0        5.685970   -0.985148    1.522870
      2          8           0        6.262820   -1.061858    0.724400
      3          6           0        5.463210   -0.811339   -0.347490
      4          6           0        4.005289   -0.597339    0.033770
      5          8           0        5.889600   -0.794168   -1.477610
      6          1           0        3.563740   -1.609249    0.119080
      7          7           0        3.883659    0.021271    1.374390
      8          6           0        3.147919    0.247521   -0.919020
      9          1           0        4.417289    0.899281    1.356090
     10          6           0        2.457869    0.374611    1.436010
     11          1           0        3.759959    1.036121   -1.377930
     12          1           0        2.714889   -0.341449   -1.736880
     13          6           0        2.048439    0.847691    0.005560
     14          1           0        2.270149    1.131371    2.208140
     15          1           0        1.882829   -0.529369    1.697280
     16          1           0        2.056559    1.945541   -0.041810
     17          7           0        0.702839    0.465200   -0.348920
     18          6           0       -0.320091    1.351230   -0.482010
     19          1           0        0.422219   -0.514650   -0.455830
     20          6           0       -1.643321    0.679590   -0.904770
     21          8           0       -0.218721    2.568760   -0.327870
     22          1           0       -1.686731    0.769290   -2.001260
     23          7           0       -1.663180   -0.746140   -0.530250
     24          6           0       -2.866231    1.346329   -0.239630
     25          1           0       -2.369400   -1.203781   -1.116480
     26          6           0       -2.205430   -0.747940    0.834970
     27          1           0       -3.700801    1.409249   -0.948290
     28          1           0       -2.619891    2.360749    0.099130
     29          6           0       -3.250711    0.400219    0.930190
     30          1           0       -2.628870   -1.727621    1.086750
     31          1           0       -1.387751   -0.533510    1.542930
     32          1           0       -3.148211    0.915279    1.894680
     33          7           0       -4.643401   -0.053801    0.889710
     34          6           0       -5.182430   -0.828841   -0.093950
     35          1           0       -5.272871    0.315429    1.592940
     36          6           0       -6.672690   -1.089782    0.019550
     37          8           0       -4.516710   -1.296191   -1.023160
     38          1           0       -7.172080   -0.649242   -0.854490
     39          1           0       -6.843590   -2.173492   -0.018830
     40          1           0       -7.129660   -0.684542    0.932310
 ---------------------------------------------------------------------

 SCF Done:  E(RHF) =  -987.964810299     A.U. after    2 cycles

 The electronic state is 1-A.
 Alpha  occ. eigenvalues --  -21.11217 -21.04997 -21.03233 -21.01916 -15.77822
 Alpha  occ. eigenvalues --  -15.75369 -15.75049 -15.72215 -11.56871 -11.55504
 Alpha  occ. eigenvalues --  -11.53467 -11.52301 -11.51228 -11.45631 -11.44844
 Alpha  occ. eigenvalues --  -11.42918 -11.42579 -11.40492 -11.38864 -11.38215
 Alpha  occ. eigenvalues --   -1.81262  -1.71460  -1.69652  -1.64969  -1.48154
 Alpha  occ. eigenvalues --   -1.46436  -1.38834  -1.35550  -1.14643  -1.13984
 Alpha  occ. eigenvalues --   -1.11415  -1.09451  -1.06094  -0.93004  -0.92052
 Alpha  occ. eigenvalues --   -0.88549  -0.85660  -0.79422  -0.78468  -0.77706
 Alpha  occ. eigenvalues --   -0.73627  -0.72606  -0.70014  -0.69022  -0.66047
 Alpha  occ. eigenvalues --   -0.65171  -0.63733  -0.62976  -0.62095  -0.60740
 Alpha  occ. eigenvalues --   -0.58863  -0.56997  -0.55959  -0.54920  -0.54155
 Alpha  occ. eigenvalues --   -0.52475  -0.51822  -0.51281  -0.49548  -0.49462
 Alpha  occ. eigenvalues --   -0.48313  -0.48009  -0.47302  -0.46745  -0.46135
 Alpha  occ. eigenvalues --   -0.44925  -0.44116  -0.42590  -0.37449  -0.36988
 Alpha  occ. eigenvalues --   -0.33200  -0.31321  -0.29901  -0.29561  -0.29150
 Alpha  occ. eigenvalues --   -0.27764
 Alpha virt. eigenvalues --    0.02686   0.03440   0.04036   0.04405   0.04460
 Alpha virt. eigenvalues --    0.05286   0.05575   0.05735   0.06003   0.06366
 Alpha virt. eigenvalues --    0.06555   0.06799   0.07376   0.07786   0.07893

 Mulliken charges:
               1
     1  H    1.105202
     2  O   -3.223353
     3  C    6.179652
     4  C   -2.014015
     5  O   -3.318712
     6  H    1.749240
     7  N   -2.142188
     8  C   -3.935926
     9  H    0.684989
    10  C   -2.971229
    11  H    1.449622
    12  H    1.595286
    13  C    1.018971
    14  H    1.579485
    15  H    1.522152
    16  H    1.875877
    17  N   -4.062767
    18  C    8.161316
    19  H    0.806569
    20  C   -2.939180
    21  O   -3.997618
    22  H    1.932196
    23  N   -1.789328
    24  C   -3.397812
    25  H    0.964163
    26  C   -3.597125
    27  H    1.546269
    28  H    1.547679
    29  C    0.083773
    30  H    1.467963
    31  H    1.740596
    32  H    2.064282
    33  N   -3.312042
    34  C    5.720480
    35  H    0.815030
    36  C   -5.437768
    37  O   -3.409985
    38  H    1.276271
    39  H    1.251958
    40  H    1.410028
 Sum of Mulliken charges =  -0.00000

 Dipole moment (field-independent basis, Debye):
    X=             -4.6839    Y=             -0.0731    Z=              3.0475  Tot=              5.5885

 Test job not archived.
 1\1\GINC-SE340\SP\RHF\Aug-CC-pVDZ\C12H20N4O4\OHZDE\08-Apr-2025\0\\#t h
 f aug-cc-pvdz iop(5/13=1,5/36=2,99/5=2) pseudo=read geom=check guess=(
 read,tcheck) scf=(maxcycle=1)\\title\\0,1\H,0,5.68597,-0.98515,1.52287
 \O,0,6.26282,-1.06186,0.7244\C,0,5.46321,-0.81134,-0.34749\C,0,4.00529
 ,-0.59734,0.03377\O,0,5.8896,-0.79417,-1.47761\H,0,3.56374,-1.60925,0.
 11908\N,0,3.88366,0.02127,1.37439\C,0,3.14792,0.24752,-0.91902\H,0,4.4
 1729,0.89928,1.35609\C,0,2.45787,0.37461,1.43601\H,0,3.75996,1.03612,-
 1.37793\H,0,2.71489,-0.34145,-1.73688\C,0,2.04844,0.84769,0.00556\H,0,

 Normal termination of Gaussian 16 at Tue Apr  8 19:19:07 2025.
