 Gaussian 16, Revision C.01,

 ----------------------------------------------------------------------
 #t hf aug-cc-pvdz symm=none int=(grid=ultrafine) guess=(read,tcheck) s
 table=(opt,rrhf)
 ----------------------------------------------------------------------
 -----
 title
 -----
 Symbolic Z-matrix:
 Charge =  0 Multiplicity = 1

 SCF Done:  E(RHF) =  -1673.89622838     A.U. after   17 cycles
 Normal termination of Gaussian 16 at Tue Apr  8 19:08:36 2025.
 Gaussian 16:  ES64L-G16RevC.01  3-Jul-2019

 ----------------------------------------------------------------------
 #t hf aug-cc-pvdz iop(5/13=1,5/36=2,99/5=2) pseudo=read geom=check gue
 ss=(read,tcheck) scf=(maxcycle=1)
 ----------------------------------------------------------------------
 -----
 title
 -----
 Structure from the checkpoint file:  "37Conf8_Pantoprazole_4_mol1.chk"
 Charge =  0 Multiplicity = 1

                         Standard orientation:
 ---------------------------------------------------------------------
 Center     Atomic      Atomic             Coordinates (Angstroms)
 Number     Number       Type             X           Y           Z
 ---------------------------------------------------------------------
      1          1           0       -6.844979    1.837219   -0.324669
      2          6           0       -5.786219    1.608339   -0.197449
      3          6           0       -4.789169    2.466619   -0.656459
      4          6           0       -5.416999    0.409019    0.414431
      5          1           0       -5.055580    3.409609   -1.141969
      6          7           0       -3.482159    2.200289   -0.559679
      7          8           0       -6.404459   -0.428081    0.855821
      8          6           0       -4.041049    0.144199    0.586941
      9          6           0       -3.115579    1.064039    0.056911
     10          6           0       -6.355629   -1.777471    0.348181
     11          8           0       -3.581879   -0.982861    1.226881
     12          6           0       -1.650239    0.780740    0.121971
     13          1           0       -6.453969   -1.768371   -0.748359
     14          1           0       -5.422359   -2.286941    0.624561
     15          1           0       -7.216129   -2.290751    0.791431
     16          6           0       -3.920579   -1.046411    2.625691
     17         16           0       -1.080919    0.195900   -1.556669
     18          1           0       -1.061759    1.691020    0.300511
     19          1           0       -1.396119   -0.014920    0.830861
     20          6           0        0.615801   -0.092950   -1.020659
     21          8           0       -1.622749   -1.186100   -1.797389
     22          7           0        1.513321    0.785710   -0.627179
     23          7           0        1.070501   -1.382650   -1.076929
     24          6           0        2.649171    0.022150   -0.391799
     25          1           0        0.480881   -2.166930   -1.347359
     26          6           0        2.391381   -1.349910   -0.668479
     27          6           0        3.910121    0.428981    0.069601
     28          6           0        3.365441   -2.336459   -0.501989
     29          1           0        4.091681    1.470391    0.330301
     30          6           0        4.876611   -0.562019    0.213631
     31          1           0        3.168602   -3.388349   -0.710619
     32          6           0        4.616561   -1.920439   -0.062249
     33          8           0        6.170291   -0.303419    0.663391
     34          1           0        5.425942   -2.636459    0.078171
     35          6           0        6.673841    0.956431    0.452511
     36          9           0        8.024501    0.856201    0.508381
     37          9           0        6.292321    1.816191    1.458871
     38          1           0        6.361991    1.394011   -0.511039
     39          1           0       -5.010049   -1.034491    2.779191
     40          1           0       -3.500469   -1.988831    2.995501
     41          1           0       -3.466459   -0.201051    3.167171
 ---------------------------------------------------------------------

 SCF Done:  E(RHF) =  -1679.66800598     A.U. after    2 cycles

 The electronic state is 1-A.
 Alpha  occ. eigenvalues --  -75.81267 -29.29277 -29.28572 -21.10435 -21.08766
 Alpha  occ. eigenvalues --  -21.08275 -21.02235 -15.81285 -15.74972 -15.74722
 Alpha  occ. eigenvalues --  -13.37653 -13.30998 -13.22075 -11.56131 -11.55556
 Alpha  occ. eigenvalues --  -11.55236 -11.51008 -11.49091 -11.48632 -11.46597
 Alpha  occ. eigenvalues --  -11.46481 -11.45975 -11.45913 -11.44053 -11.43472
 Alpha  occ. eigenvalues --  -11.43277 -11.42980 -11.40409 -11.39559  -8.15438
 Alpha  occ. eigenvalues --   -1.85195  -1.81928  -1.77084  -1.71068  -1.58459
 Alpha  occ. eigenvalues --   -1.45056  -1.31025  -1.30142  -1.22772  -1.21122
 Alpha  occ. eigenvalues --   -1.17213  -1.12262  -1.10088  -1.06325  -1.01919
 Alpha  occ. eigenvalues --   -0.99710  -0.97393  -0.90158  -0.87590  -0.87106
 Alpha  occ. eigenvalues --   -0.85734  -0.83141  -0.81820  -0.78384  -0.74192
 Alpha  occ. eigenvalues --   -0.71349  -0.71270  -0.68824  -0.67753  -0.66478
 Alpha  occ. eigenvalues --   -0.64828  -0.63748  -0.63119  -0.62295  -0.61801
 Alpha  occ. eigenvalues --   -0.60561  -0.60083  -0.59243  -0.58775  -0.56076
 Alpha  occ. eigenvalues --   -0.55686  -0.54660  -0.53770  -0.52654  -0.50654
 Alpha  occ. eigenvalues --   -0.50406  -0.49150  -0.46055  -0.45505  -0.44719
 Alpha  occ. eigenvalues --   -0.43721  -0.43254  -0.41966  -0.40912  -0.40329
 Alpha  occ. eigenvalues --   -0.40075  -0.38207  -0.37738  -0.35607  -0.34065
 Alpha  occ. eigenvalues --   -0.32516  -0.31893  -0.30751  -0.30300  -0.30012
 Alpha  occ. eigenvalues --   -0.29080  -0.26869  -0.25753  -0.21875
 Alpha virt. eigenvalues --    0.02849   0.03694   0.04245   0.04562   0.05023
 Alpha virt. eigenvalues --    0.05236   0.05386   0.05670   0.06217   0.06692
 Alpha virt. eigenvalues --    0.06973   0.07162   0.07558   0.08057   0.08539

 Mulliken charges:
               1
     1  H    1.799022
     2  C   -3.226009
     3  C   -0.484731
     4  C    7.319980
     5  H    1.775463
     6  N   -4.243624
     7  O   -4.714960
     8  C    2.935254
     9  C    4.090927
    10  C   -3.866067
    11  O   -4.384438
    12  C   -5.436264
    13  H    1.389757
    14  H    1.647606
    15  H    1.205830
    16  C   -3.927325
    17  S    4.391996
    18  H    1.585451
    19  H    1.887991
    20  C    1.984358
    21  O   -2.600401
    22  N   -4.745901
    23  N   -5.111249
    24  C    4.733961
    25  H    0.908987
    26  C    3.795962
    27  C   -1.733469
    28  C   -2.936926
    29  H    1.947437
    30  C    3.884855
    31  H    1.780683
    32  C   -4.655005
    33  O   -4.344918
    34  H    1.812039
    35  C   -0.870188
    36  F    0.563965
    37  F    0.181988
    38  H    1.397949
    39  H    1.602448
    40  H    1.271183
    41  H    1.386383
 Sum of Mulliken charges =  -0.00000

 Dipole moment (field-independent basis, Debye):
    X=             -2.6854    Y=             -2.1197    Z=              1.2899  Tot=              3.6563

 Test job not archived.
 1\1\GINC-SE393\SP\RHF\Aug-CC-pVDZ\C16H15F2N3O4S1\OHZDE\08-Apr-2025\0\\
 #t hf aug-cc-pvdz iop(5/13=1,5/36=2,99/5=2) pseudo=read geom=check gue
 ss=(read,tcheck) scf=(maxcycle=1)\\title\\0,1\H,0,-6.84498,1.83722,-0.
 32467\C,0,-5.78622,1.60834,-0.19745\C,0,-4.78917,2.46662,-0.65646\C,0,
 -5.417,0.40902,0.41443\H,0,-5.05558,3.40961,-1.14197\N,0,-3.48216,2.20
 029,-0.55968\O,0,-6.40446,-0.42808,0.85582\C,0,-4.04105,0.1442,0.58694
 \C,0,-3.11558,1.06404,0.05691\C,0,-6.35563,-1.77747,0.34818\O,0,-3.581
 88,-0.98286,1.22688\C,0,-1.65024,0.78074,0.12197\H,0,-6.45397,-1.76837

 Normal termination of Gaussian 16 at Tue Apr  8 19:09:55 2025.
