 Gaussian 16, Revision C.01,

 ----------------------------------------------------------------------
 #t hf aug-cc-pvdz symm=none int=(grid=ultrafine) guess=(read,tcheck) s
 table=(opt,rrhf)
 ----------------------------------------------------------------------
 -----
 title
 -----
 Symbolic Z-matrix:
 Charge =  0 Multiplicity = 1

 SCF Done:  E(RHF) =  -1689.90756820     A.U. after   15 cycles
 Normal termination of Gaussian 16 at Tue Apr  8 18:04:42 2025.
 Gaussian 16:  ES64L-G16RevC.01  3-Jul-2019

 ----------------------------------------------------------------------
 #t hf aug-cc-pvdz iop(5/13=1,5/36=2,99/5=2) pseudo=read geom=check gue
 ss=(read,tcheck) scf=(maxcycle=1)
 ----------------------------------------------------------------------
 -----
 title
 -----
 Structure from the checkpoint file:  "37Conf8_Fotemustin_2_mol2.chk"
 Charge =  0 Multiplicity = 1

                         Standard orientation:
 ---------------------------------------------------------------------
 Center     Atomic      Atomic             Coordinates (Angstroms)
 Number     Number       Type             X           Y           Z
 ---------------------------------------------------------------------
      1          8           0        3.145191    0.640189    2.434180
      2          7           0        2.176251    0.180269    1.853590
      3          7           0        2.306301    0.061449    0.500650
      4          6           0        3.509351    0.486389   -0.209900
      5          6           0        1.210491   -0.519961   -0.231780
      6          6           0        4.508511   -0.661151   -0.320400
      7          1           0        3.203891    0.823069   -1.206370
      8          1           0        3.945141    1.314969    0.363160
      9         17           0        5.986661   -0.096181   -1.166210
     10          1           0        4.090321   -1.486711   -0.907780
     11          1           0        4.815381   -1.018191    0.669480
     12          7           0        0.156561   -0.879791    0.539770
     13          8           0        1.302561   -0.653621   -1.444600
     14          6           0       -1.079849   -1.393461   -0.034720
     15          1           0        0.193071   -0.659261    1.534960
     16         15           0       -2.349199   -0.102551    0.276060
     17          6           0       -1.468929   -2.747601    0.555130
     18          1           0       -0.920379   -1.461901   -1.120160
     19          8           0       -1.938469    1.145499   -0.656540
     20          8           0       -3.607399   -0.714011   -0.504560
     21          8           0       -2.513629    0.226789    1.716430
     22          6           0       -1.239939    2.292419   -0.096490
     23          6           0       -4.884339   -0.014751   -0.433580
     24          6           0       -1.983589    3.558139   -0.464670
     25          1           0       -0.226269    2.283869   -0.526410
     26          1           0       -1.171399    2.172359    0.994610
     27          6           0       -5.951219   -0.928591   -0.992190
     28          1           0       -4.799199    0.913529   -1.020220
     29          1           0       -5.082099    0.248109    0.616840
     30          1           0       -2.090819    3.647009   -1.554520
     31          1           0       -1.430329    4.435479   -0.098680
     32          1           0       -2.983529    3.567189   -0.009270
     33          1           0       -5.729259   -1.199141   -2.033520
     34          1           0       -6.925559   -0.419771   -0.966680
     35          1           0       -6.026699   -1.849731   -0.398490
     36          1           0       -2.394449   -3.111661    0.090940
     37          1           0       -0.668999   -3.478391    0.372610
     38          1           0       -1.636779   -2.668261    1.638380
 ---------------------------------------------------------------------

 SCF Done:  E(RHF) =  -1694.38506184     A.U. after    2 cycles

 The electronic state is 1-A.
 Alpha  occ. eigenvalues -- -105.29872 -99.88490 -21.12464 -21.08114 -21.07745
 Alpha  occ. eigenvalues --  -21.05482 -21.01974 -15.91906 -15.81522 -15.78834
 Alpha  occ. eigenvalues --  -11.55797 -11.48271 -11.46731 -11.46123 -11.46017
 Alpha  occ. eigenvalues --  -11.42649 -11.39490 -11.38478 -11.38446 -10.45782
 Alpha  occ. eigenvalues --   -9.65713  -9.64955  -9.64870  -2.91963  -1.97312
 Alpha  occ. eigenvalues --   -1.91379  -1.89336  -1.80854  -1.75046  -1.57064
 Alpha  occ. eigenvalues --   -1.49618  -1.43573  -1.40607  -1.33623  -1.28277
 Alpha  occ. eigenvalues --   -1.15712  -1.12663  -1.11593  -1.11105  -1.00310
 Alpha  occ. eigenvalues --   -0.95192  -0.89075  -0.88218  -0.87755  -0.80861
 Alpha  occ. eigenvalues --   -0.77117  -0.71225  -0.68842  -0.67734  -0.66337
 Alpha  occ. eigenvalues --   -0.65951  -0.65725  -0.64373  -0.60423  -0.59763
 Alpha  occ. eigenvalues --   -0.59389  -0.58656  -0.57070  -0.55905  -0.55646
 Alpha  occ. eigenvalues --   -0.54812  -0.54581  -0.53934  -0.53165  -0.52533
 Alpha  occ. eigenvalues --   -0.52048  -0.51446  -0.51143  -0.48210  -0.48037
 Alpha  occ. eigenvalues --   -0.47611  -0.45677  -0.40070  -0.38226  -0.37352
 Alpha  occ. eigenvalues --   -0.35640  -0.34464  -0.33849  -0.33826  -0.30337
 Alpha  occ. eigenvalues --   -0.26295  -0.23182  -0.15353
 Alpha virt. eigenvalues --    0.03525   0.04250   0.04863   0.05058   0.05236
 Alpha virt. eigenvalues --    0.05287   0.05503   0.06042   0.06098   0.06765
 Alpha virt. eigenvalues --    0.06874   0.07020   0.07329   0.07757   0.07972

 Mulliken charges:
               1
     1  O   -2.201070
     2  N    1.538742
     3  N   -2.213327
     4  C   -2.186097
     5  C    6.487737
     6  C   -4.209784
     7  H    1.847653
     8  H    1.807061
     9  Cl  -0.026736
    10  H    1.709442
    11  H    1.787373
    12  N   -2.514676
    13  O   -3.118557
    14  C   -4.406246
    15  H    0.909880
    16  P   13.847951
    17  C   -4.763187
    18  H    2.110349
    19  O   -4.114659
    20  O   -3.911218
    21  O   -3.431236
    22  C   -2.884041
    23  C   -2.240917
    24  C   -4.260237
    25  H    1.892039
    26  H    2.002375
    27  C   -4.232504
    28  H    1.606639
    29  H    1.613121
    30  H    1.341674
    31  H    1.126171
    32  H    1.351804
    33  H    1.350022
    34  H    1.119950
    35  H    1.336849
    36  H    1.298807
    37  H    1.387118
    38  H    1.241734
 Sum of Mulliken charges =  -0.00000

 Dipole moment (field-independent basis, Debye):
    X=             -3.1076    Y=             -0.3940    Z=             -2.0231  Tot=              3.7290

 Test job not archived.
 1\1\GINC-SE362\SP\RHF\Aug-CC-pVDZ\C9H19Cl1N3O5P1\OHZDE\08-Apr-2025\0\\
 #t hf aug-cc-pvdz iop(5/13=1,5/36=2,99/5=2) pseudo=read geom=check gue
 ss=(read,tcheck) scf=(maxcycle=1)\\title\\0,1\O,0,3.14519,0.64019,2.43
 418\N,0,2.17625,0.18027,1.85359\N,0,2.3063,0.06145,0.50065\C,0,3.50935
 ,0.48639,-0.2099\C,0,1.21049,-0.51996,-0.23178\C,0,4.50851,-0.66115,-0
 .3204\H,0,3.20389,0.82307,-1.20637\H,0,3.94514,1.31497,0.36316\Cl,0,5.
 98666,-0.09618,-1.16621\H,0,4.09032,-1.48671,-0.90778\H,0,4.81538,-1.0
 1819,0.66948\N,0,0.15656,-0.87979,0.53977\O,0,1.30256,-0.65362,-1.4446

 Normal termination of Gaussian 16 at Tue Apr  8 18:05:38 2025.
