 Gaussian 16, Revision C.01,

 ----------------------------------------------------------------------
 #t hf aug-cc-pvdz symm=none int=(grid=ultrafine) guess=(read,tcheck) s
 table=(opt,rrhf)
 ----------------------------------------------------------------------
 -----
 title
 -----
 Symbolic Z-matrix:
 Charge =  0 Multiplicity = 1

 SCF Done:  E(RHF) =  -382.137136343     A.U. after   12 cycles

 1\1\GINC-SE089\Stability\RHF\Aug-CC-pVDZ\C7H14N2\OHZDE\08-Apr-2025\0\\
 #t hf aug-cc-pvdz symm=none int=(grid=ultrafine) guess=(read,tcheck) s
 table=(opt,rrhf)\\title\\0,1\H,0,-2.52593,-0.70436,0.50081\N,0,-2.0444
 6,-0.40714,-0.34871\C,0,-1.64003,0.99924,-0.21658\C,0,-0.9079,-1.29112
 ,-0.59452\H,0,-2.42369,1.51824,0.35523\H,0,-1.62593,1.4582,-1.22241\C,
 0,-0.25388,1.20111,0.45479\H,0,-1.28499,-2.32237,-0.65607\H,0,-0.51175
 ,-1.04926,-1.59681\C,0,0.25388,-1.20111,0.45479\H,0,-0.27793,2.13392,1
 .039\C,0,0.9079,1.29112,-0.59452\C,0,0.,0.,1.37472\H,0,0.27794,-2.1339

 Normal termination of Gaussian 16 at Tue Apr  8 17:27:27 2025.
 Gaussian 16:  ES64L-G16RevC.01  3-Jul-2019

 ----------------------------------------------------------------------
 #t hf aug-cc-pvdz iop(5/13=1,5/36=2,99/5=2) pseudo=read geom=check gue
 ss=(read,tcheck) scf=(maxcycle=1)
 ----------------------------------------------------------------------
 -----
 title
 -----
 Structure from the checkpoint file:  "37Conf8_Bispidin_6_mol1.chk"
 Charge =  0 Multiplicity = 1

                         Standard orientation:
 ---------------------------------------------------------------------
 Center     Atomic      Atomic             Coordinates (Angstroms)
 Number     Number       Type             X           Y           Z
 ---------------------------------------------------------------------
      1          1           0        2.525931    0.704359    0.500811
      2          7           0        2.044460    0.407139   -0.348709
      3          6           0        1.640030   -0.999241   -0.216579
      4          6           0        0.907901    1.291120   -0.594519
      5          1           0        2.423690   -1.518241    0.355231
      6          1           0        1.625930   -1.458201   -1.222409
      7          6           0        0.253880   -1.201110    0.454791
      8          1           0        1.284991    2.322370   -0.656069
      9          1           0        0.511751    1.049260   -1.596809
     10          6           0       -0.253879    1.201110    0.454791
     11          1           0        0.277929   -2.133920    1.039001
     12          6           0       -0.907900   -1.291120   -0.594519
     13          6           0        0.000000    0.000000    1.374721
     14          1           0       -0.277939    2.133920    1.039001
     15          6           0       -1.640029    0.999241   -0.216579
     16          1           0       -1.284991   -2.322370   -0.656069
     17          1           0       -0.511750   -1.049260   -1.596809
     18          7           0       -2.044460   -0.407139   -0.348709
     19          1           0       -0.865020   -0.168600    2.034891
     20          1           0        0.865010    0.168600    2.034891
     21          1           0       -2.423689    1.518241    0.355231
     22          1           0       -1.625929    1.458201   -1.222409
     23          1           0       -2.525930   -0.704359    0.500811
 ---------------------------------------------------------------------

 SCF Done:  E(RHF) =  -384.040522897     A.U. after    2 cycles

 The electronic state is 1-A.
 Alpha  occ. eigenvalues --  -15.70823 -15.70770 -11.46103 -11.45539 -11.42491
 Alpha  occ. eigenvalues --  -11.41082 -11.40502 -11.36536 -11.34705  -1.44969
 Alpha  occ. eigenvalues --   -1.34671  -1.16511  -1.15204  -1.00684  -0.94873
 Alpha  occ. eigenvalues --   -0.86379  -0.85001  -0.75136  -0.70980  -0.67862
 Alpha  occ. eigenvalues --   -0.64546  -0.61499  -0.57270  -0.54571  -0.54088
 Alpha  occ. eigenvalues --   -0.53248  -0.49396  -0.48538  -0.46392  -0.46219
 Alpha  occ. eigenvalues --   -0.45581  -0.43071  -0.38454  -0.31756  -0.28202
 Alpha virt. eigenvalues --    0.04034   0.04876   0.04893   0.05134   0.05138
 Alpha virt. eigenvalues --    0.05434   0.06072   0.06576   0.06817   0.08248
 Alpha virt. eigenvalues --    0.08606   0.08784   0.09295   0.09321   0.11877

 Mulliken charges:
               1
     1  H    0.419420
     2  N   -1.915003
     3  C   -2.650672
     4  C   -2.692528
     5  H    1.365095
     6  H    1.434148
     7  C   -0.672500
     8  H    1.190887
     9  H    1.707863
    10  C   -0.672483
    11  H    1.560176
    12  C   -2.692519
    13  C   -2.249452
    14  H    1.560174
    15  C   -2.650668
    16  H    1.190886
    17  H    1.707865
    18  N   -1.915005
    19  H    1.377821
    20  H    1.377831
    21  H    1.365094
    22  H    1.434151
    23  H    0.419419
 Sum of Mulliken charges =  -0.00000

 Dipole moment (field-independent basis, Debye):
    X=              0.0000    Y=              0.0000    Z=              1.7084  Tot=              1.7084

 Test job not archived.
 1\1\GINC-SE089\SP\RHF\Aug-CC-pVDZ\C7H14N2\OHZDE\08-Apr-2025\0\\#t hf a
 ug-cc-pvdz iop(5/13=1,5/36=2,99/5=2) pseudo=read geom=check guess=(rea
 d,tcheck) scf=(maxcycle=1)\\title\\0,1\H,0,-2.52593,-0.70436,0.50081\N
 ,0,-2.04446,-0.40714,-0.34871\C,0,-1.64003,0.99924,-0.21658\C,0,-0.907
 9,-1.29112,-0.59452\H,0,-2.42369,1.51824,0.35523\H,0,-1.62593,1.4582,-
 1.22241\C,0,-0.25388,1.20111,0.45479\H,0,-1.28499,-2.32237,-0.65607\H,
 0,-0.51175,-1.04926,-1.59681\C,0,0.25388,-1.20111,0.45479\H,0,-0.27793
 ,2.13392,1.039\C,0,0.9079,1.29112,-0.59452\C,0,0.,0.,1.37472\H,0,0.277

 Normal termination of Gaussian 16 at Tue Apr  8 17:27:41 2025.
