 Gaussian 16, Revision C.01,

 ----------------------------------------------------------------------
 #t hf aug-cc-pvdz symm=none int=(grid=ultrafine) guess=(read,tcheck) s
 table=(opt,rrhf)
 ----------------------------------------------------------------------
 -----
 title
 -----
 Symbolic Z-matrix:
 Charge =  0 Multiplicity = 1

 SCF Done:  E(RHF) =  -891.123165873     A.U. after   14 cycles
 Normal termination of Gaussian 16 at Tue Apr  8 18:17:43 2025.
 Gaussian 16:  ES64L-G16RevC.01  3-Jul-2019

 ----------------------------------------------------------------------
 #t hf aug-cc-pvdz iop(5/13=1,5/36=2,99/5=2) pseudo=read geom=check gue
 ss=(read,tcheck) scf=(maxcycle=1)
 ----------------------------------------------------------------------
 -----
 title
 -----
 Structure from the checkpoint file:  "37Conf8_Glufosinate_8_mol1.chk"
 Charge =  0 Multiplicity = 1

                         Standard orientation:
 ---------------------------------------------------------------------
 Center     Atomic      Atomic             Coordinates (Angstroms)
 Number     Number       Type             X           Y           Z
 ---------------------------------------------------------------------
      1          1           0       -3.163287   -2.310120   -0.260010
      2          8           0       -2.788528   -1.559920   -0.770090
      3          6           0       -2.529098   -0.577320    0.135160
      4          6           0       -1.926159    0.672420   -0.506710
      5          8           0       -2.763638   -0.694600    1.322600
      6          6           0       -0.465759    0.817221   -0.052910
      7          7           0       -2.667609    1.882190   -0.147930
      8          1           0       -1.956779    0.555340   -1.600240
      9          6           0        0.410522   -0.380929   -0.422740
     10          1           0       -0.073849    1.738521   -0.506600
     11          1           0       -0.469169    0.963491    1.039540
     12         15           0        2.184392   -0.203998   -0.050910
     13          1           0        0.362982   -0.591489   -1.503860
     14          1           0        0.084182   -1.300869    0.089620
     15          6           0        2.318081    0.192272    1.709200
     16          8           0        2.590261    1.221242   -0.748640
     17          8           0        3.008772   -1.353997   -0.516240
     18          1           0        1.806081    1.133522    1.948050
     19          1           0        3.383651    0.286303    1.955690
     20          1           0        1.883872   -0.624698    2.300800
     21          1           0        3.217881    1.035113   -1.471000
     22          1           0       -3.612839    1.844249   -0.536470
     23          1           0       -2.775789    1.911490    0.870620
 ---------------------------------------------------------------------

 SCF Done:  E(RHF) =  -893.791448073     A.U. after    2 cycles

 The electronic state is 1-A.
 Alpha  occ. eigenvalues -- -105.27025 -21.13812 -21.10183 -21.06841 -21.00435
 Alpha  occ. eigenvalues --  -15.75176 -11.54930 -11.48231 -11.43939 -11.39200
 Alpha  occ. eigenvalues --  -11.39078  -2.88375  -1.91030  -1.83534  -1.81595
 Alpha  occ. eigenvalues --   -1.66544  -1.58875  -1.46586  -1.37192  -1.27562
 Alpha  occ. eigenvalues --   -1.16447  -1.01688  -0.99700  -0.90267  -0.78867
 Alpha  occ. eigenvalues --   -0.71239  -0.67362  -0.65186  -0.62877  -0.62040
 Alpha  occ. eigenvalues --   -0.60085  -0.59186  -0.58349  -0.55619  -0.55345
 Alpha  occ. eigenvalues --   -0.51716  -0.50216  -0.48743  -0.47239  -0.41308
 Alpha  occ. eigenvalues --   -0.38736  -0.34985  -0.33297  -0.32690  -0.30725
 Alpha  occ. eigenvalues --   -0.26756  -0.21695  -0.14097
 Alpha virt. eigenvalues --    0.03593   0.04561   0.04692   0.05481   0.05687
 Alpha virt. eigenvalues --    0.06024   0.06676   0.06948   0.07507   0.08175
 Alpha virt. eigenvalues --    0.08867   0.10043   0.10455   0.11195   0.12212

 Mulliken charges:
               1
     1  H    0.840802
     2  O   -3.252627
     3  C    7.091499
     4  C   -1.468886
     5  O   -3.319770
     6  C   -3.018772
     7  N   -2.982259
     8  H    1.774670
     9  C   -5.160421
    10  H    1.407814
    11  H    1.574634
    12  P   11.175513
    13  H    1.145389
    14  H    1.390099
    15  C   -6.532500
    16  O   -3.002208
    17  O   -3.144411
    18  H    1.296258
    19  H    1.036062
    20  H    1.153457
    21  H    0.825933
    22  H    0.589443
    23  H    0.580280
 Sum of Mulliken charges =  -0.00000

 Dipole moment (field-independent basis, Debye):
    X=             -2.1316    Y=              1.7594    Z=             -0.0335  Tot=              2.7641

 Test job not archived.
 1\1\GINC-SE454\SP\RHF\Aug-CC-pVDZ\C5H12N1O4P1\OHZDE\08-Apr-2025\0\\#t
 hf aug-cc-pvdz iop(5/13=1,5/36=2,99/5=2) pseudo=read geom=check guess=
 (read,tcheck) scf=(maxcycle=1)\\title\\0,1\H,0,-3.16329,-2.31012,-0.26
 001\O,0,-2.78853,-1.55992,-0.77009\C,0,-2.5291,-0.57732,0.13516\C,0,-1
 .92616,0.67242,-0.50671\O,0,-2.76364,-0.6946,1.3226\C,0,-0.46576,0.817
 22,-0.05291\N,0,-2.66761,1.88219,-0.14793\H,0,-1.95678,0.55534,-1.6002
 4\C,0,0.41052,-0.38093,-0.42274\H,0,-0.07385,1.73852,-0.5066\H,0,-0.46
 917,0.96349,1.03954\P,0,2.18439,-0.204,-0.05091\H,0,0.36298,-0.59149,-

 Normal termination of Gaussian 16 at Tue Apr  8 18:17:59 2025.
