 Gaussian 16, Revision C.01,

 ----------------------------------------------------------------------
 #t hf aug-cc-pvdz symm=none int=(grid=ultrafine) guess=(read,tcheck) s
 table=(opt,rrhf)
 ----------------------------------------------------------------------
 -----
 title
 -----
 Symbolic Z-matrix:
 Charge =  0 Multiplicity = 1

 SCF Done:  E(RHF) =  -914.177712538     A.U. after   14 cycles
 Normal termination of Gaussian 16 at Tue Apr  8 19:15:48 2025.
 Gaussian 16:  ES64L-G16RevC.01  3-Jul-2019

 ----------------------------------------------------------------------
 #t hf aug-cc-pvdz iop(5/13=1,5/36=2,99/5=2) pseudo=read geom=check gue
 ss=(read,tcheck) scf=(maxcycle=1)
 ----------------------------------------------------------------------
 -----
 title
 -----
 Structure from the checkpoint file:  "37Conf8_shiepox_depox_3_mol1.chk"
 Charge =  0 Multiplicity = 1

                         Standard orientation:
 ---------------------------------------------------------------------
 Center     Atomic      Atomic             Coordinates (Angstroms)
 Number     Number       Type             X           Y           Z
 ---------------------------------------------------------------------
      1          8           0       -0.598882    2.431569   -0.596159
      2          6           0       -0.072861    1.395219   -0.253569
      3          6           0       -0.877350    0.113239    0.068901
      4          6           0        1.437699    1.249401   -0.093509
      5          8           0       -0.148069   -0.725761    0.961301
      6          8           0       -2.130390    0.488818    0.577151
      7          6           0       -1.203479   -0.725812   -1.196339
      8          1           0        1.919939    2.216931   -0.312419
      9          8           0        1.878160    0.219181   -0.969149
     10          6           0        1.788900    0.707131    1.313671
     11          6           0        0.579210    0.018830    1.944011
     12          6           0       -3.151749   -0.298353   -0.085999
     13          1           0       -0.691009   -0.369661   -2.098709
     14          1           0       -0.901648   -1.768361   -0.992569
     15          8           0       -2.598989   -0.576253   -1.376179
     16          6           0        2.980401   -0.464288   -0.340079
     17          1           0        2.154439    1.507381    1.978671
     18          8           0        2.851401   -0.211698    1.070841
     19          1           0        0.914081   -0.703170    2.700051
     20          1           0       -0.077770    0.762269    2.432781
     21          6           0       -3.418698   -1.582074    0.697491
     22          6           0       -4.379090    0.569506   -0.265759
     23          6           0        2.826342   -1.949678   -0.614309
     24          6           0        4.305050    0.111973   -0.828609
     25          1           0       -4.176958   -2.185844    0.180531
     26          1           0       -2.499498   -2.172133    0.804261
     27          1           0       -3.784908   -1.336574    1.703241
     28          1           0       -5.141720    0.023145   -0.836129
     29          1           0       -4.101991    1.482116   -0.806779
     30          1           0       -4.796370    0.840015    0.712761
     31          1           0        2.864532   -2.140778   -1.695199
     32          1           0        1.862752   -2.291799   -0.217149
     33          1           0        3.638583   -2.507038   -0.129559
     34          1           0        4.426341   -0.070317   -1.904799
     35          1           0        4.339149    1.194383   -0.645099
     36          1           0        5.139941   -0.357966   -0.291739
 ---------------------------------------------------------------------

 SCF Done:  E(RHF) =  -918.255589794     A.U. after    2 cycles

 The electronic state is 1-A.
 Alpha  occ. eigenvalues --  -21.07811 -21.06818 -21.06699 -21.05891 -21.05453
 Alpha  occ. eigenvalues --  -21.05325 -11.59579 -11.55658 -11.52470 -11.50657
 Alpha  occ. eigenvalues --  -11.49872 -11.48919 -11.45130 -11.43200 -11.41307
 Alpha  occ. eigenvalues --  -11.40353 -11.37249 -11.36550  -1.89585  -1.85947
 Alpha  occ. eigenvalues --   -1.76292  -1.71829  -1.68532  -1.66616  -1.22491
 Alpha  occ. eigenvalues --   -1.18961  -1.10901  -1.09162  -1.03140  -1.02439
 Alpha  occ. eigenvalues --   -0.99501  -0.93013  -0.87698  -0.81619  -0.80926
 Alpha  occ. eigenvalues --   -0.76516  -0.71831  -0.69181  -0.68614  -0.64720
 Alpha  occ. eigenvalues --   -0.63550  -0.62155  -0.61480  -0.60743  -0.59810
 Alpha  occ. eigenvalues --   -0.58475  -0.57616  -0.56789  -0.55275  -0.54563
 Alpha  occ. eigenvalues --   -0.53525  -0.51474  -0.50238  -0.49741  -0.49502
 Alpha  occ. eigenvalues --   -0.48387  -0.47384  -0.45238  -0.43284  -0.41658
 Alpha  occ. eigenvalues --   -0.40412  -0.37374  -0.36841  -0.35950  -0.32428
 Alpha  occ. eigenvalues --   -0.30762  -0.30352  -0.29211  -0.26631
 Alpha virt. eigenvalues --    0.03321   0.03477   0.03796   0.04429   0.04881
 Alpha virt. eigenvalues --    0.05144   0.05952   0.06149   0.06410   0.06790
 Alpha virt. eigenvalues --    0.07102   0.07589   0.07762   0.08052   0.08789

 Mulliken charges:
               1
     1  O   -4.386849
     2  C    5.856023
     3  C    6.363195
     4  C   -1.806421
     5  O   -4.180006
     6  O   -4.945440
     7  C   -2.569258
     8  H    1.718719
     9  O   -4.104604
    10  C   -0.755778
    11  C   -2.579319
    12  C    6.867286
    13  H    1.556784
    14  H    1.707848
    15  O   -4.432102
    16  C    7.424680
    17  H    2.113332
    18  O   -4.356765
    19  H    1.477827
    20  H    1.741295
    21  C   -4.900431
    22  C   -4.687576
    23  C   -4.446613
    24  C   -4.719830
    25  H    1.214370
    26  H    1.564937
    27  H    1.272755
    28  H    1.221315
    29  H    1.455165
    30  H    1.302664
    31  H    1.276926
    32  H    1.587095
    33  H    1.203032
    34  H    1.257025
    35  H    1.436453
    36  H    1.252267
 Sum of Mulliken charges =   0.00000

 Dipole moment (field-independent basis, Debye):
    X=              0.6892    Y=             -0.8586    Z=              0.4784  Tot=              1.2005

 Test job not archived.
 1\1\GINC-SE458\SP\RHF\Aug-CC-pVDZ\C12H18O6\OHZDE\08-Apr-2025\0\\#t hf
 aug-cc-pvdz iop(5/13=1,5/36=2,99/5=2) pseudo=read geom=check guess=(re
 ad,tcheck) scf=(maxcycle=1)\\title\\0,1\O,0,-0.59888,2.43157,-0.59616\
 C,0,-0.07286,1.39522,-0.25357\C,0,-0.87735,0.11324,0.0689\C,0,1.4377,1
 .2494,-0.09351\O,0,-0.14807,-0.72576,0.9613\O,0,-2.13039,0.48882,0.577
 15\C,0,-1.20348,-0.72581,-1.19634\H,0,1.91994,2.21693,-0.31242\O,0,1.8
 7816,0.21918,-0.96915\C,0,1.7889,0.70713,1.31367\C,0,0.57921,0.01883,1
 .94401\C,0,-3.15175,-0.29835,-0.086\H,0,-0.69101,-0.36966,-2.09871\H,0

 Normal termination of Gaussian 16 at Tue Apr  8 19:16:48 2025.
