 Gaussian 16, Revision C.01,

 ----------------------------------------------------------------------
 #t hf aug-cc-pvdz symm=none int=(grid=ultrafine) guess=(read,tcheck) s
 table=(opt,rrhf)
 ----------------------------------------------------------------------
 -----
 title
 -----
 Symbolic Z-matrix:
 Charge =  0 Multiplicity = 1

 SCF Done:  E(RHF) =  -1689.89551113     A.U. after   17 cycles
 Normal termination of Gaussian 16 at Tue Apr  8 18:13:21 2025.
 Gaussian 16:  ES64L-G16RevC.01  3-Jul-2019

 ----------------------------------------------------------------------
 #t hf aug-cc-pvdz iop(5/13=1,5/36=2,99/5=2) pseudo=read geom=check gue
 ss=(read,tcheck) scf=(maxcycle=1)
 ----------------------------------------------------------------------
 -----
 title
 -----
 Structure from the checkpoint file:  "37Conf8_Fotemustin_4_mol1.chk"
 Charge =  0 Multiplicity = 1

                         Standard orientation:
 ---------------------------------------------------------------------
 Center     Atomic      Atomic             Coordinates (Angstroms)
 Number     Number       Type             X           Y           Z
 ---------------------------------------------------------------------
      1          8           0       -2.668410   -1.443940   -2.266519
      2          7           0       -1.859600   -1.160390   -1.391679
      3          7           0       -2.393790   -0.903140   -0.174399
      4          6           0       -3.829800   -0.961530    0.071901
      5          6           0       -1.483730   -0.602130    0.911391
      6          6           0       -4.593720    0.209840   -0.533089
      7          1           0       -4.211880   -1.889730   -0.382339
      8          1           0       -3.950140   -0.995060    1.160431
      9         17           0       -4.045160    1.788530    0.125541
     10          1           0       -4.469280    0.254090   -1.619379
     11          1           0       -5.659130    0.109440   -0.292229
     12          7           0       -0.188790   -0.513669    0.525921
     13          8           0       -1.910710   -0.470800    2.047861
     14          6           0        0.838950   -0.075189    1.467221
     15          1           0       -0.012840   -0.486269   -0.476139
     16         15           0        2.377530    0.426891    0.598621
     17          6           0        1.169410   -1.120859    2.537381
     18          1           0        0.495260    0.847691    1.966561
     19          8           0        1.753560    1.123371   -0.717629
     20          8           0        3.115840   -0.908649    0.075651
     21          8           0        3.297690    1.231281    1.429021
     22          6           0        2.634380    1.929981   -1.560739
     23          6           0        2.515100   -1.821199   -0.878719
     24          6           0        2.572829    3.386991   -1.154989
     25          1           0        2.269290    1.772981   -2.585279
     26          1           0        3.661410    1.538541   -1.492339
     27          6           0        3.600260   -2.738329   -1.398719
     28          1           0        2.056100   -1.242879   -1.697199
     29          1           0        1.720370   -2.394409   -0.373999
     30          1           0        3.195799    3.987571   -1.834369
     31          1           0        1.541459    3.761651   -1.209169
     32          1           0        2.946789    3.513731   -0.130839
     33          1           0        3.171820   -3.453409   -2.115589
     34          1           0        4.386210   -2.163179   -1.906589
     35          1           0        4.059330   -3.302589   -0.575899
     36          1           0        1.521060   -2.055739    2.080761
     37          1           0        0.274000   -1.327629    3.135741
     38          1           0        1.958600   -0.738339    3.198591
 ---------------------------------------------------------------------

 SCF Done:  E(RHF) =  -1694.37537889     A.U. after    2 cycles

 The electronic state is 1-A.
 Alpha  occ. eigenvalues -- -105.30399 -99.88408 -21.12024 -21.08371 -21.08074
 Alpha  occ. eigenvalues --  -21.05201 -21.01442 -15.91736 -15.81488 -15.78511
 Alpha  occ. eigenvalues --  -11.55374 -11.48938 -11.47223 -11.46388 -11.46336
 Alpha  occ. eigenvalues --  -11.42989 -11.39247 -11.38687 -11.37899 -10.45714
 Alpha  occ. eigenvalues --   -9.65636  -9.65084  -9.64834  -2.92308  -1.96963
 Alpha  occ. eigenvalues --   -1.91531  -1.89063  -1.81242  -1.74738  -1.56598
 Alpha  occ. eigenvalues --   -1.49769  -1.43979  -1.40498  -1.33586  -1.27904
 Alpha  occ. eigenvalues --   -1.15849  -1.12431  -1.11708  -1.11195  -1.01022
 Alpha  occ. eigenvalues --   -0.95182  -0.90078  -0.88239  -0.86802  -0.79685
 Alpha  occ. eigenvalues --   -0.77830  -0.71309  -0.70493  -0.68387  -0.67079
 Alpha  occ. eigenvalues --   -0.65602  -0.65258  -0.63385  -0.61960  -0.60808
 Alpha  occ. eigenvalues --   -0.59165  -0.57811  -0.57433  -0.56082  -0.55680
 Alpha  occ. eigenvalues --   -0.54715  -0.54254  -0.54163  -0.53078  -0.52545
 Alpha  occ. eigenvalues --   -0.51516  -0.50937  -0.50296  -0.48281  -0.47779
 Alpha  occ. eigenvalues --   -0.47564  -0.46175  -0.40088  -0.37567  -0.36594
 Alpha  occ. eigenvalues --   -0.34824  -0.34080  -0.33826  -0.32996  -0.30447
 Alpha  occ. eigenvalues --   -0.26544  -0.24306  -0.15102
 Alpha virt. eigenvalues --    0.03540   0.03898   0.04226   0.04748   0.05157
 Alpha virt. eigenvalues --    0.05396   0.05641   0.06053   0.06205   0.06674
 Alpha virt. eigenvalues --    0.06853   0.06974   0.07481   0.07924   0.08331

 Mulliken charges:
               1
     1  O   -2.267898
     2  N    1.601817
     3  N   -1.724839
     4  C   -3.110043
     5  C    6.012432
     6  C   -3.747253
     7  H    1.474395
     8  H    1.868417
     9  Cl   0.034126
    10  H    1.764772
    11  H    1.465267
    12  N   -1.592511
    13  O   -3.111487
    14  C   -4.103256
    15  H    1.022026
    16  P   12.917633
    17  C   -4.136135
    18  H    1.637337
    19  O   -3.604565
    20  O   -4.114798
    21  O   -3.386715
    22  C   -2.835526
    23  C   -2.316702
    24  C   -3.669270
    25  H    1.542080
    26  H    1.749648
    27  C   -4.716240
    28  H    1.945416
    29  H    1.898628
    30  H    1.106899
    31  H    1.478226
    32  H    1.311612
    33  H    1.128890
    34  H    1.288132
    35  H    1.267771
    36  H    1.339642
    37  H    1.345137
    38  H    1.236933
 Sum of Mulliken charges =   0.00000

 Dipole moment (field-independent basis, Debye):
    X=             -1.6764    Y=             -2.7258    Z=             -3.1368  Tot=              4.4811

 Test job not archived.
 1\1\GINC-SE398\SP\RHF\Aug-CC-pVDZ\C9H19Cl1N3O5P1\OHZDE\08-Apr-2025\0\\
 #t hf aug-cc-pvdz iop(5/13=1,5/36=2,99/5=2) pseudo=read geom=check gue
 ss=(read,tcheck) scf=(maxcycle=1)\\title\\0,1\O,0,-2.66841,-1.44394,-2
 .26652\N,0,-1.8596,-1.16039,-1.39168\N,0,-2.39379,-0.90314,-0.1744\C,0
 ,-3.8298,-0.96153,0.0719\C,0,-1.48373,-0.60213,0.91139\C,0,-4.59372,0.
 20984,-0.53309\H,0,-4.21188,-1.88973,-0.38234\H,0,-3.95014,-0.99506,1.
 16043\Cl,0,-4.04516,1.78853,0.12554\H,0,-4.46928,0.25409,-1.61938\H,0,
 -5.65913,0.10944,-0.29223\N,0,-0.18879,-0.51367,0.52592\O,0,-1.91071,-

 Normal termination of Gaussian 16 at Tue Apr  8 18:14:32 2025.
