 Gaussian 16, Revision C.01,

 ----------------------------------------------------------------------
 #t hf aug-cc-pvdz symm=none int=(grid=ultrafine) guess=(read,tcheck) s
 table=(opt,rrhf)
 ----------------------------------------------------------------------
 -----
 title
 -----
 Symbolic Z-matrix:
 Charge =  0 Multiplicity = 1

 SCF Done:  E(RHF) =  -983.486737892     A.U. after   14 cycles
 Normal termination of Gaussian 16 at Tue Apr  8 19:30:29 2025.
 Gaussian 16:  ES64L-G16RevC.01  3-Jul-2019

 ----------------------------------------------------------------------
 #t hf aug-cc-pvdz iop(5/13=1,5/36=2,99/5=2) pseudo=read geom=check gue
 ss=(read,tcheck) scf=(maxcycle=1)
 ----------------------------------------------------------------------
 -----
 title
 -----
 Structure from the checkpoint file:  "37Conf8_Tsogoeva_6_mol1.chk"
 Charge =  0 Multiplicity = 1

                         Standard orientation:
 ---------------------------------------------------------------------
 Center     Atomic      Atomic             Coordinates (Angstroms)
 Number     Number       Type             X           Y           Z
 ---------------------------------------------------------------------
      1          1           0        3.459249    1.944862   -1.204240
      2          8           0        4.289349    2.143613   -0.669140
      3          6           0        4.095959    1.426502    0.451550
      4          6           0        2.751529    0.675032    0.457210
      5          8           0        4.886089    1.370933    1.368470
      6          1           0        2.135969    1.152362    1.234180
      7          7           0        2.091849    0.799252   -0.867430
      8          6           0        2.938850   -0.843558    0.734440
      9          1           0        1.121319    1.091341   -0.752310
     10          6           0        2.137990   -0.539528   -1.489020
     11          1           0        3.989980   -1.127088    0.592810
     12          1           0        2.670710   -1.118888    1.762390
     13          6           0        2.057720   -1.530408   -0.314430
     14          1           0        3.101590   -0.669448   -2.007080
     15          1           0        1.331920   -0.675359   -2.218110
     16          1           0        2.430341   -2.525288   -0.603730
     17          7           0        0.693560   -1.646009    0.180150
     18          6           0       -0.307229   -2.232659   -0.521520
     19          1           0        0.437770   -1.403179    1.141480
     20          6           0       -1.655659   -2.281360    0.228880
     21          8           0       -0.196999   -2.676229   -1.665200
     22          1           0       -1.950089   -3.341490    0.246630
     23          7           0       -1.566260   -1.707250    1.597070
     24          6           0       -2.697730   -1.426150   -0.509690
     25          1           0       -1.771829   -2.400920    2.312580
     26          6           0       -2.451330   -0.534900    1.688170
     27          1           0       -3.708130   -1.842911   -0.369920
     28          1           0       -2.496650   -1.361640   -1.585430
     29          6           0       -2.599170   -0.081550    0.224310
     30          1           0       -3.454810   -0.777591    2.086110
     31          1           0       -2.016980    0.248870    2.327300
     32          1           0       -1.671701    0.421290   -0.085050
     33          7           0       -3.698111    0.818889   -0.024240
     34          6           0       -3.658971    2.177509   -0.231070
     35          1           0       -4.643781    0.442379    0.023650
     36          6           0       -2.286041    2.825660   -0.298230
     37          8           0       -4.694231    2.822889   -0.367040
     38          1           0       -1.703961    2.437230   -1.148080
     39          1           0       -2.431952    3.901670   -0.432430
     40          1           0       -1.705401    2.652450    0.620070
 ---------------------------------------------------------------------

 SCF Done:  E(RHF) =  -987.975273970     A.U. after    2 cycles

 The electronic state is 1-A.
 Alpha  occ. eigenvalues --  -21.10223 -21.04351 -21.03535 -21.03097 -15.77373
 Alpha  occ. eigenvalues --  -15.77178 -15.75977 -15.75654 -11.55384 -11.54802
 Alpha  occ. eigenvalues --  -11.52146 -11.51447 -11.50882 -11.49893 -11.47914
 Alpha  occ. eigenvalues --  -11.45280 -11.44349 -11.41236 -11.40917 -11.40179
 Alpha  occ. eigenvalues --   -1.80987  -1.71472  -1.70571  -1.64637  -1.50059
 Alpha  occ. eigenvalues --   -1.48305  -1.39195  -1.36336  -1.16612  -1.15647
 Alpha  occ. eigenvalues --   -1.12608  -1.10843  -1.08835  -0.93923  -0.92834
 Alpha  occ. eigenvalues --   -0.89338  -0.87040  -0.82241  -0.79188  -0.76804
 Alpha  occ. eigenvalues --   -0.75142  -0.74538  -0.73718  -0.71982  -0.68441
 Alpha  occ. eigenvalues --   -0.65615  -0.63554  -0.63118  -0.62778  -0.60969
 Alpha  occ. eigenvalues --   -0.59239  -0.57817  -0.56811  -0.56168  -0.55330
 Alpha  occ. eigenvalues --   -0.55013  -0.53626  -0.52550  -0.51665  -0.50195
 Alpha  occ. eigenvalues --   -0.49684  -0.49162  -0.48169  -0.47673  -0.47532
 Alpha  occ. eigenvalues --   -0.46896  -0.45339  -0.43644  -0.38492  -0.37583
 Alpha  occ. eigenvalues --   -0.32685  -0.32476  -0.30857  -0.29463  -0.29083
 Alpha  occ. eigenvalues --   -0.28354
 Alpha virt. eigenvalues --    0.02570   0.03114   0.03538   0.04147   0.04317
 Alpha virt. eigenvalues --    0.04660   0.05146   0.05328   0.05702   0.06201
 Alpha virt. eigenvalues --    0.06558   0.06925   0.07496   0.07617   0.07705

 Mulliken charges:
               1
     1  H    1.197682
     2  O   -3.332359
     3  C    6.452590
     4  C   -1.707777
     5  O   -3.426562
     6  H    1.914332
     7  N   -1.650049
     8  C   -3.852003
     9  H    0.797982
    10  C   -3.660723
    11  H    1.394740
    12  H    1.547655
    13  C    0.622634
    14  H    1.440912
    15  H    1.573879
    16  H    2.037628
    17  N   -3.307701
    18  C    6.531271
    19  H    0.884957
    20  C   -2.547898
    21  O   -3.886441
    22  H    1.732220
    23  N   -1.554750
    24  C   -3.204880
    25  H    0.522349
    26  C   -4.695193
    27  H    1.303436
    28  H    1.553363
    29  C    1.360761
    30  H    1.446520
    31  H    1.557336
    32  H    3.564264
    33  N   -3.240289
    34  C    4.704464
    35  H    0.694534
    36  C   -5.182392
    37  O   -3.442084
    38  H    1.325702
    39  H    1.152865
    40  H    1.377027
 Sum of Mulliken charges =   0.00000

 Dipole moment (field-independent basis, Debye):
    X=             -2.5592    Y=             -3.0250    Z=              1.3737  Tot=              4.1937

 Test job not archived.
 1\1\GINC-SE048\SP\RHF\Aug-CC-pVDZ\C12H20N4O4\OHZDE\08-Apr-2025\0\\#t h
 f aug-cc-pvdz iop(5/13=1,5/36=2,99/5=2) pseudo=read geom=check guess=(
 read,tcheck) scf=(maxcycle=1)\\title\\0,1\H,0,3.45925,1.94486,-1.20424
 \O,0,4.28935,2.14361,-0.66914\C,0,4.09596,1.4265,0.45155\C,0,2.75153,0
 .67503,0.45721\O,0,4.88609,1.37093,1.36847\H,0,2.13597,1.15236,1.23418
 \N,0,2.09185,0.79925,-0.86743\C,0,2.93885,-0.84356,0.73444\H,0,1.12132
 ,1.09134,-0.75231\C,0,2.13799,-0.53953,-1.48902\H,0,3.98998,-1.12709,0
 .59281\H,0,2.67071,-1.11889,1.76239\C,0,2.05772,-1.53041,-0.31443\H,0,

 Normal termination of Gaussian 16 at Tue Apr  8 19:31:53 2025.
