 Gaussian 16, Revision C.01,

 ----------------------------------------------------------------------
 #t hf aug-cc-pvdz symm=none int=(grid=ultrafine) guess=(read,tcheck) s
 table=(opt,rrhf)
 ----------------------------------------------------------------------
 -----
 title
 -----
 Symbolic Z-matrix:
 Charge =  0 Multiplicity = 1

 SCF Done:  E(RHF) =  -1112.29963069     A.U. after   16 cycles
 Normal termination of Gaussian 16 at Tue Apr  8 17:53:37 2025.
 Gaussian 16:  ES64L-G16RevC.01  3-Jul-2019

 ----------------------------------------------------------------------
 #t hf aug-cc-pvdz iop(5/13=1,5/36=2,99/5=2) pseudo=read geom=check gue
 ss=(read,tcheck) scf=(maxcycle=1)
 ----------------------------------------------------------------------
 -----
 title
 -----
 Structure from the checkpoint file:  "37Conf8_Cimetidine_5_mol1.chk"
 Charge =  0 Multiplicity = 1

                         Standard orientation:
 ---------------------------------------------------------------------
 Center     Atomic      Atomic             Coordinates (Angstroms)
 Number     Number       Type             X           Y           Z
 ---------------------------------------------------------------------
      1          7           0       -3.638477   -1.243157   -0.889089
      2          6           0       -2.689728   -0.592725   -1.156229
      3          7           0       -1.569239    0.034527   -1.429139
      4          6           0       -1.223601    1.064687   -0.658859
      5          7           0       -0.005382    1.635559   -0.890519
      6          7           0       -2.030642    1.551386    0.314131
      7          6           0        0.876747    2.065131    0.202481
      8          1           0        0.503429    1.066030   -1.575949
      9          6           0       -1.948634    2.861496    0.937001
     10          1           0       -2.898411    1.030954    0.424431
     11          6           0        2.344578    1.873873   -0.189639
     12          1           0        0.731866    3.134191    0.426201
     13          1           0        0.662558    1.485800    1.113741
     14         16           0        2.788430    0.258764   -0.898479
     15          1           0        2.628766    2.587424   -0.978749
     16          1           0        2.976277    2.081024    0.686211
     17          6           0        2.545212   -0.899006    0.519921
     18          6           0        1.140723   -1.237289    0.877821
     19          1           0        3.107194   -1.788285    0.198321
     20          1           0        3.060392   -0.477446    1.394071
     21          7           0        0.535962   -0.698360    2.003281
     22          6           0        0.253824   -2.056480    0.197391
     23          6           0       -0.696077   -1.177872    2.004321
     24          7           0       -0.907506   -2.010382    0.941331
     25          6           0        0.367316   -2.807370   -1.080129
     26          1           0       -1.463347   -0.968933    2.744391
     27          1           0       -1.809685   -2.378234    0.642131
     28          1           0       -0.196055   -2.302111   -1.880499
     29          1           0        1.416866   -2.862328   -1.395949
     30          1           0       -0.014683   -3.835191   -0.988029
     31          1           0       -1.576715    3.605987    0.219751
     32          1           0       -2.957925    3.161104    1.244851
     33          1           0       -1.300594    2.866117    1.826351
 ---------------------------------------------------------------------

 SCF Done:  E(RHF) =  -1115.89960183     A.U. after    2 cycles

 The electronic state is 1-A.
 Alpha  occ. eigenvalues --  -75.68231 -15.78929 -15.78905 -15.77027 -15.73360
 Alpha  occ. eigenvalues --  -15.72577 -15.71899 -13.15545 -13.11491 -13.08228
 Alpha  occ. eigenvalues --  -11.54390 -11.47590 -11.47182 -11.45231 -11.44887
 Alpha  occ. eigenvalues --  -11.43399 -11.42973 -11.41668 -11.41260 -11.37587
 Alpha  occ. eigenvalues --   -8.02283  -1.55886  -1.55406  -1.38726  -1.36251
 Alpha  occ. eigenvalues --   -1.28181  -1.25175  -1.22173  -1.15616  -1.09577
 Alpha  occ. eigenvalues --   -1.03804  -1.00921  -0.95917  -0.88710  -0.85340
 Alpha  occ. eigenvalues --   -0.84001  -0.77043  -0.75497  -0.70893  -0.69068
 Alpha  occ. eigenvalues --   -0.66846  -0.64816  -0.64368  -0.62667  -0.62285
 Alpha  occ. eigenvalues --   -0.61442  -0.57695  -0.57392  -0.55947  -0.55391
 Alpha  occ. eigenvalues --   -0.55215  -0.53733  -0.52367  -0.52070  -0.51119
 Alpha  occ. eigenvalues --   -0.50676  -0.48389  -0.46971  -0.45018  -0.38946
 Alpha  occ. eigenvalues --   -0.38152  -0.37143  -0.35750  -0.34746  -0.30999
 Alpha  occ. eigenvalues --   -0.27990  -0.23357
 Alpha virt. eigenvalues --    0.03141   0.03758   0.04383   0.04725   0.05133
 Alpha virt. eigenvalues --    0.05345   0.05760   0.06136   0.06677   0.07143
 Alpha virt. eigenvalues --    0.07643   0.07788   0.08077   0.08847   0.09009

 Mulliken charges:
               1
     1  N   -2.845683
     2  C    3.218240
     3  N   -3.010796
     4  C    6.960636
     5  N   -2.815706
     6  N   -3.171088
     7  C   -2.636125
     8  H    0.778784
     9  C   -4.388784
    10  H    0.744555
    11  C   -4.271260
    12  H    1.447175
    13  H    2.655697
    14  S    0.667428
    15  H    1.492815
    16  H    1.284674
    17  C   -3.893036
    18  C    4.906558
    19  H    1.178700
    20  H    1.222526
    21  N   -4.225888
    22  C    2.793114
    23  C    0.259693
    24  N   -3.929309
    25  C   -5.667458
    26  H    1.974639
    27  H    1.040916
    28  H    1.289685
    29  H    1.200471
    30  H    1.243059
    31  H    1.596339
    32  H    1.385082
    33  H    1.514346
 Sum of Mulliken charges =  -0.00000

 Dipole moment (field-independent basis, Debye):
    X=              2.4158    Y=              3.1516    Z=              0.9154  Tot=              4.0751

 Test job not archived.
 1\1\GINC-SE250\SP\RHF\Aug-CC-pVDZ\C10H16N6S1\OHZDE\08-Apr-2025\0\\#t h
 f aug-cc-pvdz iop(5/13=1,5/36=2,99/5=2) pseudo=read geom=check guess=(
 read,tcheck) scf=(maxcycle=1)\\title\\0,1\N,0,-3.63848,-1.24315,-0.889
 09\C,0,-2.68973,-0.59272,-1.15623\N,0,-1.56924,0.03453,-1.42914\C,0,-1
 .2236,1.06469,-0.65886\N,0,-0.00538,1.63556,-0.89052\N,0,-2.03064,1.55
 139,0.31413\C,0,0.87675,2.06513,0.20248\H,0,0.50343,1.06603,-1.57595\C
 ,0,-1.94863,2.8615,0.937\H,0,-2.89841,1.03096,0.42443\C,0,2.34458,1.87
 387,-0.18964\H,0,0.73187,3.13419,0.4262\H,0,0.66256,1.4858,1.11374\S,0

 Normal termination of Gaussian 16 at Tue Apr  8 17:54:31 2025.
