 Gaussian 16, Revision C.01,

 ----------------------------------------------------------------------
 #t hf aug-cc-pvdz symm=none int=(grid=ultrafine) guess=(read,tcheck) s
 table=(opt,rrhf)
 ----------------------------------------------------------------------
 -----
 title
 -----
 Symbolic Z-matrix:
 Charge =  0 Multiplicity = 1

 SCF Done:  E(RHF) =  -1689.88777469     A.U. after   18 cycles
 Normal termination of Gaussian 16 at Tue Apr  8 18:22:32 2025.
 Gaussian 16:  ES64L-G16RevC.01  3-Jul-2019

 ----------------------------------------------------------------------
 #t hf aug-cc-pvdz iop(5/13=1,5/36=2,99/5=2) pseudo=read geom=check gue
 ss=(read,tcheck) scf=(maxcycle=1)
 ----------------------------------------------------------------------
 -----
 title
 -----
 Structure from the checkpoint file:  "37Conf8_Fotemustin_8_mol1.chk"
 Charge =  0 Multiplicity = 1

                         Standard orientation:
 ---------------------------------------------------------------------
 Center     Atomic      Atomic             Coordinates (Angstroms)
 Number     Number       Type             X           Y           Z
 ---------------------------------------------------------------------
      1          8           0       -2.499710    1.594519    2.078732
      2          7           0       -1.809540    1.761430    1.088342
      3          7           0       -1.805050    0.698510    0.217322
      4          6           0       -2.610819   -0.495791    0.472212
      5          6           0       -1.130660    0.948280   -1.034218
      6          6           0       -4.051349   -0.279221    0.014352
      7          1           0       -2.170719   -1.341751   -0.067138
      8          1           0       -2.586709   -0.694931    1.552592
      9         17           0       -4.994829   -1.782501    0.283942
     10          1           0       -4.098860   -0.049421   -1.056778
     11          1           0       -4.532340    0.520679    0.587132
     12          7           0       -0.361099   -0.101290   -1.468768
     13          8           0       -1.290170    1.987160   -1.648798
     14          6           0        0.412511   -1.007590   -0.613468
     15          1           0        0.064770    0.088770   -2.377588
     16         15           0        2.100741   -0.278629   -0.494708
     17          6           0        0.433451   -2.428330   -1.168448
     18          1           0       -0.015029   -0.982960    0.397642
     19          8           0        1.898010    1.081391    0.338202
     20          8           0        2.767951   -1.267179    0.576692
     21          8           0        2.764601   -0.121299   -1.814348
     22          6           0        1.998020    2.384921   -0.325308
     23          6           0        4.167321   -1.069919    0.938232
     24          6           0        1.539089    3.435741    0.657872
     25          1           0        1.368010    2.381431   -1.226368
     26          1           0        3.042910    2.528501   -0.634658
     27          6           0        4.615121   -2.264019    1.749602
     28          1           0        4.755491   -0.961718    0.014192
     29          1           0        4.242381   -0.136209    1.517422
     30          1           0        1.621879    4.428761    0.192882
     31          1           0        0.489850    3.273530    0.939422
     32          1           0        2.159289    3.424941    1.564992
     33          1           0        4.534721   -3.188499    1.161792
     34          1           0        5.665041   -2.135198    2.049382
     35          1           0        4.006911   -2.370849    2.658162
     36          1           0        0.901581   -2.447220   -2.162538
     37          1           0       -0.589999   -2.820080   -1.256648
     38          1           0        1.010071   -3.087530   -0.507358
 ---------------------------------------------------------------------

 SCF Done:  E(RHF) =  -1694.36806664     A.U. after    2 cycles

 The electronic state is 1-A.
 Alpha  occ. eigenvalues -- -105.30461 -99.89172 -21.11569 -21.08592 -21.08047
 Alpha  occ. eigenvalues --  -21.06344 -21.02435 -15.91111 -15.80511 -15.79179
 Alpha  occ. eigenvalues --  -11.56158 -11.49689 -11.48215 -11.46460 -11.46061
 Alpha  occ. eigenvalues --  -11.43736 -11.40540 -11.38837 -11.37640 -10.46461
 Alpha  occ. eigenvalues --   -9.66409  -9.65668  -9.65568  -2.92486  -1.97903
 Alpha  occ. eigenvalues --   -1.92139  -1.88651  -1.80830  -1.74876  -1.57726
 Alpha  occ. eigenvalues --   -1.49144  -1.43778  -1.40123  -1.34294  -1.28553
 Alpha  occ. eigenvalues --   -1.15150  -1.13722  -1.12356  -1.11035  -1.00503
 Alpha  occ. eigenvalues --   -0.94584  -0.91053  -0.88899  -0.87751  -0.80516
 Alpha  occ. eigenvalues --   -0.74207  -0.71681  -0.70290  -0.67690  -0.66758
 Alpha  occ. eigenvalues --   -0.65685  -0.65282  -0.63331  -0.61302  -0.60514
 Alpha  occ. eigenvalues --   -0.59863  -0.59159  -0.57097  -0.56637  -0.56081
 Alpha  occ. eigenvalues --   -0.55427  -0.54873  -0.53668  -0.53400  -0.52963
 Alpha  occ. eigenvalues --   -0.52549  -0.51644  -0.50137  -0.48483  -0.48357
 Alpha  occ. eigenvalues --   -0.47947  -0.46416  -0.40730  -0.39208  -0.37259
 Alpha  occ. eigenvalues --   -0.36090  -0.35063  -0.34139  -0.32179  -0.30263
 Alpha  occ. eigenvalues --   -0.26433  -0.23269  -0.15625
 Alpha virt. eigenvalues --    0.03552   0.04295   0.04712   0.04869   0.05201
 Alpha virt. eigenvalues --    0.05416   0.05490   0.06001   0.06181   0.06742
 Alpha virt. eigenvalues --    0.06819   0.07156   0.07388   0.07938   0.07999

 Mulliken charges:
               1
     1  O   -2.039665
     2  N    1.408324
     3  N   -2.302225
     4  C   -1.714960
     5  C    7.096981
     6  C   -4.618992
     7  H    2.341373
     8  H    1.819750
     9  Cl   0.016224
    10  H    1.675070
    11  H    1.761194
    12  N   -2.804059
    13  O   -3.702394
    14  C   -4.598311
    15  H    0.689493
    16  P   13.754382
    17  C   -4.499071
    18  H    2.332583
    19  O   -4.377900
    20  O   -3.959530
    21  O   -3.418897
    22  C   -2.914264
    23  C   -2.349143
    24  C   -4.182385
    25  H    1.951974
    26  H    1.624025
    27  C   -4.034172
    28  H    1.607564
    29  H    1.649978
    30  H    1.133945
    31  H    1.572929
    32  H    1.341580
    33  H    1.338520
    34  H    1.109100
    35  H    1.354723
    36  H    1.286681
    37  H    1.370439
    38  H    1.279135
 Sum of Mulliken charges =  -0.00000

 Dipole moment (field-independent basis, Debye):
    X=              2.2147    Y=             -1.2827    Z=              2.6305  Tot=              3.6702

 Test job not archived.
 1\1\GINC-SE048\SP\RHF\Aug-CC-pVDZ\C9H19Cl1N3O5P1\OHZDE\08-Apr-2025\0\\
 #t hf aug-cc-pvdz iop(5/13=1,5/36=2,99/5=2) pseudo=read geom=check gue
 ss=(read,tcheck) scf=(maxcycle=1)\\title\\0,1\O,0,-2.49971,1.59452,2.0
 7873\N,0,-1.80954,1.76143,1.08834\N,0,-1.80505,0.69851,0.21732\C,0,-2.
 61082,-0.49579,0.47221\C,0,-1.13066,0.94828,-1.03422\C,0,-4.05135,-0.2
 7922,0.01435\H,0,-2.17072,-1.34175,-0.06714\H,0,-2.58671,-0.69493,1.55
 259\Cl,0,-4.99483,-1.7825,0.28394\H,0,-4.09886,-0.04942,-1.05678\H,0,-
 4.53234,0.52068,0.58713\N,0,-0.3611,-0.10129,-1.46877\O,0,-1.29017,1.9

 Normal termination of Gaussian 16 at Tue Apr  8 18:23:45 2025.
