 Gaussian 16, Revision C.01,

 ----------------------------------------------------------------------
 #t hf aug-cc-pvdz symm=none int=(grid=ultrafine) guess=(read,tcheck) s
 table=(opt,rrhf)
 ----------------------------------------------------------------------
 -----
 title
 -----
 Symbolic Z-matrix:
 Charge =  0 Multiplicity = 1

 SCF Done:  E(RHF) =  -1813.69087619     A.U. after   16 cycles
 Normal termination of Gaussian 16 at Tue Apr  8 19:50:05 2025.
 Gaussian 16:  ES64L-G16RevC.01  3-Jul-2019

 ----------------------------------------------------------------------
 #t hf aug-cc-pvdz iop(5/13=1,5/36=2,99/5=2) pseudo=read geom=check gue
 ss=(read,tcheck) scf=(maxcycle=1)
 ----------------------------------------------------------------------
 -----
 title
 -----
 Structure from the checkpoint file:  "37Conf8_Takemoto_1_mol1.chk"
 Charge =  0 Multiplicity = 1

                         Standard orientation:
 ---------------------------------------------------------------------
 Center     Atomic      Atomic             Coordinates (Angstroms)
 Number     Number       Type             X           Y           Z
 ---------------------------------------------------------------------
      1          1           0       -1.224200    0.369211   -0.384010
      2          7           0       -0.599130   -0.480589   -0.422390
      3          6           0       -1.242151   -1.582549   -0.916000
      4          6           0        0.765040   -0.264679   -0.240510
      5          7           0       -2.614981   -1.466838   -0.860140
      6         16           0       -0.542731   -2.929519   -1.616310
      7          6           0        1.685109   -1.287430    0.046470
      8          6           0        1.220250    1.061560   -0.293950
      9          6           0       -3.419131   -0.808308    0.185100
     10          1           0       -3.049601   -2.291468   -1.268580
     11          1           0        1.347409   -2.320190    0.081370
     12          6           0        3.022809   -0.966630    0.268650
     13          1           0        0.519420    1.862381   -0.532050
     14          6           0        2.560460    1.363840   -0.057880
     15          1           0       -2.849011   -0.821388    1.132760
     16          6           0       -4.683511   -1.669508    0.348520
     17          6           0       -3.773440    0.658382   -0.158560
     18          6           0        3.479980    0.353560    0.220450
     19          6           0        3.991939   -2.062120    0.641260
     20          6           0        3.010591    2.796700   -0.169850
     21          1           0       -5.127611   -1.804618   -0.654950
     22          1           0       -4.380381   -2.668368    0.697910
     23          6           0       -5.740501   -1.063278    1.266570
     24          1           0       -4.149250    0.639772   -1.195280
     25          7           0       -2.550950    1.508742   -0.187470
     26          6           0       -4.879780    1.222392    0.748490
     27          1           0        4.528340    0.587190    0.396280
     28          9           0        4.094909   -2.189330    1.998060
     29          9           0        5.245959   -1.810521    0.179180
     30          9           0        3.617669   -3.271470    0.160280
     31          9           0        4.169821    3.030120    0.492370
     32          9           0        2.079131    3.660630    0.330530
     33          9           0        3.213841    3.162010   -1.468280
     34          1           0       -5.353581   -1.002428    2.298560
     35          1           0       -6.620471   -1.723147    1.299540
     36          6           0       -6.122020    0.334593    0.784360
     37          6           0       -2.142960    2.038681    1.116770
     38          6           0       -2.626400    2.572672   -1.186810
     39          1           0       -2.088560    1.228491    1.856590
     40          1           0       -2.817939    2.824422    1.502800
     41          1           0       -1.137810    2.474621    1.027330
     42          1           0       -3.417319    3.317822   -0.969240
     43          1           0       -1.666489    3.108101   -1.223400
     44          1           0       -2.814570    2.137072   -2.177060
     45          1           0       -5.135300    2.240752    0.415710
     46          1           0       -4.499020    1.315242    1.778780
     47          1           0       -6.571260    0.268713   -0.221950
     48          1           0       -6.883350    0.780703    1.442030
 ---------------------------------------------------------------------

 SCF Done:  E(RHF) =  -1819.92274981     A.U. after    2 cycles

 The electronic state is 1-A.
 Alpha  occ. eigenvalues --  -75.62678 -29.31407 -29.31257 -29.30779 -29.30420
 Alpha  occ. eigenvalues --  -29.30356 -29.29918 -15.77769 -15.76971 -15.74233
 Alpha  occ. eigenvalues --  -13.13078 -13.03026 -12.96899 -11.63840 -11.62494
 Alpha  occ. eigenvalues --  -11.57143 -11.53959 -11.51911 -11.51448 -11.49452
 Alpha  occ. eigenvalues --  -11.49354 -11.47568 -11.47310 -11.46382 -11.43060
 Alpha  occ. eigenvalues --  -11.42729 -11.42373 -11.42085 -11.40877 -11.37978
 Alpha  occ. eigenvalues --   -7.96843  -1.54228  -1.48073  -1.45516  -1.41718
 Alpha  occ. eigenvalues --   -1.38723  -1.29793  -1.26176  -1.15762  -1.12887
 Alpha  occ. eigenvalues --   -1.12253  -1.09895  -1.06813  -1.06315  -0.96368
 Alpha  occ. eigenvalues --   -0.94554  -0.94143  -0.91667  -0.87727  -0.87215
 Alpha  occ. eigenvalues --   -0.86870  -0.86611  -0.84797  -0.83664  -0.81724
 Alpha  occ. eigenvalues --   -0.76946  -0.73082  -0.71938  -0.70002  -0.68385
 Alpha  occ. eigenvalues --   -0.68035  -0.66482  -0.65766  -0.64327  -0.62282
 Alpha  occ. eigenvalues --   -0.61162  -0.60602  -0.59083  -0.58239  -0.57438
 Alpha  occ. eigenvalues --   -0.56337  -0.54422  -0.53025  -0.52614  -0.52289
 Alpha  occ. eigenvalues --   -0.52050  -0.50589  -0.49865  -0.48907  -0.48343
 Alpha  occ. eigenvalues --   -0.47495  -0.46917  -0.46443  -0.44182  -0.43743
 Alpha  occ. eigenvalues --   -0.43524  -0.42980  -0.42578  -0.42154  -0.40748
 Alpha  occ. eigenvalues --   -0.40456  -0.36417  -0.35479  -0.35151  -0.33507
 Alpha  occ. eigenvalues --   -0.32555  -0.31750  -0.30650  -0.28769  -0.25817
 Alpha  occ. eigenvalues --   -0.24907  -0.24834  -0.24036  -0.23623  -0.21757
 Alpha  occ. eigenvalues --   -0.21255  -0.20754
 Alpha virt. eigenvalues --    0.03062   0.03688   0.03742   0.04079   0.04213
 Alpha virt. eigenvalues --    0.04528   0.05307   0.05467   0.05833   0.06212
 Alpha virt. eigenvalues --    0.06684   0.07052   0.07498   0.07701   0.08238

 Mulliken charges:
               1
     1  H    1.895244
     2  N   -7.019732
     3  C    0.725126
     4  C    6.124968
     5  N   -3.563195
     6  S    0.755924
     7  C   -5.031153
     8  C   -4.875030
     9  C    0.417062
    10  H    0.831170
    11  H    2.378305
    12  C    4.067084
    13  H    2.607622
    14  C    4.085484
    15  H    2.437304
    16  C   -3.555305
    17  C    0.641705
    18  C   -6.277104
    19  C   -0.302507
    20  C   -0.190240
    21  H    1.448728
    22  H    1.422553
    23  C   -3.752161
    24  H    1.872099
    25  N    0.377349
    26  C   -2.814022
    27  H    2.047429
    28  F   -0.042674
    29  F    0.085512
    30  F    0.207835
    31  F    0.187404
    32  F    0.087934
    33  F   -0.047740
    34  H    1.384192
    35  H    1.348905
    36  C   -3.509662
    37  C   -5.868720
    38  C   -4.774756
    39  H    1.541821
    40  H    1.175941
    41  H    1.572803
    42  H    1.316221
    43  H    1.692486
    44  H    1.477098
    45  H    1.490179
    46  H    1.314513
    47  H    1.333698
    48  H    1.272302
 Sum of Mulliken charges =  -0.00000

 Dipole moment (field-independent basis, Debye):
    X=             -3.8135    Y=              2.5339    Z=              1.5240  Tot=              4.8256

 Test job not archived.
 1\1\GINC-SE092\SP\RHF\Aug-CC-pVDZ\C17H21F6N3S1\OHZDE\08-Apr-2025\0\\#t
  hf aug-cc-pvdz iop(5/13=1,5/36=2,99/5=2) pseudo=read geom=check guess
 =(read,tcheck) scf=(maxcycle=1)\\title\\0,1\H,0,1.2242,0.36921,0.38401
 \N,0,0.59913,-0.48059,0.42239\C,0,1.24215,-1.58255,0.916\C,0,-0.76504,
 -0.26468,0.24051\N,0,2.61498,-1.46684,0.86014\S,0,0.54273,-2.92952,1.6
 1631\C,0,-1.68511,-1.28743,-0.04647\C,0,-1.22025,1.06156,0.29395\C,0,3
 .41913,-0.80831,-0.1851\H,0,3.0496,-2.29147,1.26858\H,0,-1.34741,-2.32
 019,-0.08137\C,0,-3.02281,-0.96663,-0.26865\H,0,-0.51942,1.86238,0.532

 Normal termination of Gaussian 16 at Tue Apr  8 19:52:51 2025.
