 Gaussian 16, Revision C.01,

 ----------------------------------------------------------------------
 #t hf aug-cc-pvdz symm=none int=(grid=ultrafine) guess=(read,tcheck) s
 table=(opt,rrhf)
 ----------------------------------------------------------------------
 -----
 title
 -----
 Symbolic Z-matrix:
 Charge =  0 Multiplicity = 1

 SCF Done:  E(RHF) =  -1153.32897288     A.U. after   17 cycles
 Normal termination of Gaussian 16 at Tue Apr  8 18:50:17 2025.
 Gaussian 16:  ES64L-G16RevC.01  3-Jul-2019

 ----------------------------------------------------------------------
 #t hf aug-cc-pvdz iop(5/13=1,5/36=2,99/5=2) pseudo=read geom=check gue
 ss=(read,tcheck) scf=(maxcycle=1)
 ----------------------------------------------------------------------
 -----
 title
 -----
 Structure from the checkpoint file:  "37Conf8_Pyridoxalphosphate_2_mol1.chk"
 Charge =  0 Multiplicity = 1

                         Standard orientation:
 ---------------------------------------------------------------------
 Center     Atomic      Atomic             Coordinates (Angstroms)
 Number     Number       Type             X           Y           Z
 ---------------------------------------------------------------------
      1          1           0       -3.057593    2.011527   -0.482170
      2          8           0       -3.461843    1.085247   -0.587610
      3          6           0       -2.534652    0.242177   -0.125610
      4          6           0       -1.290112    0.697059    0.373830
      5          6           0       -2.812591   -1.155303   -0.141250
      6          6           0       -1.020384    2.127739    0.380150
      7          6           0       -0.363051   -0.267571    0.847190
      8          7           0       -1.921030   -2.035722    0.305380
      9          6           0       -4.122840   -1.646484   -0.671410
     10          8           0       -1.837654    2.970358   -0.025090
     11          1           0       -0.036254    2.467380    0.760120
     12          6           0       -0.735050   -1.602411    0.782950
     13          6           0        0.979908    0.113181    1.402530
     14          1           0       -4.269120   -1.328384   -1.714970
     15          1           0       -4.153799   -2.739614   -0.610780
     16          1           0       -4.961491   -1.220285   -0.099810
     17          1           0       -0.044940   -2.377820    1.127780
     18          8           0        1.800488    0.780071    0.398520
     19          1           0        1.494819   -0.778419    1.787620
     20          1           0        0.892048    0.835340    2.226870
     21         15           0        2.913028   -0.040088   -0.425590
     22          8           0        2.194400   -1.406048   -0.885740
     23          8           0        3.883859   -0.683147    0.686090
     24          8           0        3.546218    0.807443   -1.448970
     25          1           0        1.517439   -1.239049   -1.566290
     26          1           0        4.759569   -0.261016    0.629900
 ---------------------------------------------------------------------

 SCF Done:  E(RHF) =  -1157.06238984     A.U. after    2 cycles

 The electronic state is 1-A.
 Alpha  occ. eigenvalues -- -105.34488 -21.13199 -21.13162 -21.10382 -21.10224
 Alpha  occ. eigenvalues --  -21.09168 -21.03683 -15.76898 -11.54764 -11.53283
 Alpha  occ. eigenvalues --  -11.51910 -11.50419 -11.48607 -11.46312 -11.42009
 Alpha  occ. eigenvalues --  -11.39515  -2.96998  -2.01308  -1.94122  -1.91111
 Alpha  occ. eigenvalues --   -1.79756  -1.76337  -1.72261  -1.47416  -1.44303
 Alpha  occ. eigenvalues --   -1.42476  -1.27474  -1.23992  -1.16504  -1.07918
 Alpha  occ. eigenvalues --   -0.98476  -0.97050  -0.86920  -0.85163  -0.74009
 Alpha  occ. eigenvalues --   -0.71020  -0.68191  -0.67195  -0.64508  -0.62589
 Alpha  occ. eigenvalues --   -0.61451  -0.60704  -0.59969  -0.58917  -0.55613
 Alpha  occ. eigenvalues --   -0.54243  -0.53728  -0.52898  -0.51144  -0.49180
 Alpha  occ. eigenvalues --   -0.47397  -0.46059  -0.44474  -0.43721  -0.40027
 Alpha  occ. eigenvalues --   -0.38409  -0.37303  -0.36034  -0.35601  -0.30606
 Alpha  occ. eigenvalues --   -0.30028  -0.28879  -0.28390  -0.17738
 Alpha virt. eigenvalues --    0.02768   0.04436   0.04831   0.05051   0.05701
 Alpha virt. eigenvalues --    0.06080   0.06254   0.06989   0.07142   0.07551
 Alpha virt. eigenvalues --    0.08052   0.08241   0.09454   0.09932   0.11190

 Mulliken charges:
               1
     1  H    1.205657
     2  O   -4.445786
     3  C    2.536486
     4  C    1.663321
     5  C    1.944716
     6  C   -0.664516
     7  C    7.609870
     8  N   -4.582220
     9  C   -5.373858
    10  O   -3.288538
    11  H    1.412774
    12  C   -2.674644
    13  C   -2.857164
    14  H    1.222314
    15  H    1.256022
    16  H    1.213759
    17  H    1.787836
    18  O   -3.211671
    19  H    1.654144
    20  H    1.162010
    21  P    9.187520
    22  O   -3.118456
    23  O   -2.850895
    24  O   -2.743586
    25  H    0.982430
    26  H    0.972475
 Sum of Mulliken charges =   0.00000

 Dipole moment (field-independent basis, Debye):
    X=             -1.1670    Y=             -0.5636    Z=              1.9652  Tot=              2.3541

 Test job not archived.
 1\1\GINC-SE079\SP\RHF\Aug-CC-pVDZ\C8H10N1O6P1\OHZDE\08-Apr-2025\0\\#t
 hf aug-cc-pvdz iop(5/13=1,5/36=2,99/5=2) pseudo=read geom=check guess=
 (read,tcheck) scf=(maxcycle=1)\\title\\0,1\H,0,-3.05759,2.01153,-0.482
 17\O,0,-3.46184,1.08525,-0.58761\C,0,-2.53465,0.24218,-0.12561\C,0,-1.
 29011,0.69706,0.37383\C,0,-2.81259,-1.1553,-0.14125\C,0,-1.02038,2.127
 74,0.38015\C,0,-0.36305,-0.26757,0.84719\N,0,-1.92103,-2.03572,0.30538
 \C,0,-4.12284,-1.64648,-0.67141\O,0,-1.83765,2.97036,-0.02509\H,0,-0.0
 3625,2.46738,0.76012\C,0,-0.73505,-1.60241,0.78295\C,0,0.97991,0.11318

 Normal termination of Gaussian 16 at Tue Apr  8 18:50:47 2025.
