 Gaussian 16, Revision C.01,

 ----------------------------------------------------------------------
 #t hf aug-cc-pvdz symm=none int=(grid=ultrafine) guess=(read,tcheck) s
 table=(opt,rrhf)
 ----------------------------------------------------------------------
 -----
 title
 -----
 Symbolic Z-matrix:
 Charge =  0 Multiplicity = 1

 SCF Done:  E(RHF) =  -1689.88914349     A.U. after   16 cycles
 Normal termination of Gaussian 16 at Tue Apr  8 18:18:27 2025.
 Gaussian 16:  ES64L-G16RevC.01  3-Jul-2019

 ----------------------------------------------------------------------
 #t hf aug-cc-pvdz iop(5/13=1,5/36=2,99/5=2) pseudo=read geom=check gue
 ss=(read,tcheck) scf=(maxcycle=1)
 ----------------------------------------------------------------------
 -----
 title
 -----
 Structure from the checkpoint file:  "37Conf8_Fotemustin_6_mol1.chk"
 Charge =  0 Multiplicity = 1

                         Standard orientation:
 ---------------------------------------------------------------------
 Center     Atomic      Atomic             Coordinates (Angstroms)
 Number     Number       Type             X           Y           Z
 ---------------------------------------------------------------------
      1          8           0       -2.211090   -0.530840    2.439330
      2          7           0       -1.476960   -0.989130    1.577120
      3          7           0       -1.747880   -0.556900    0.307010
      4          6           0       -2.878849    0.331560    0.029840
      5          6           0       -1.082770   -1.186570   -0.802200
      6          6           0       -4.192020   -0.438939   -0.072270
      7          1           0       -2.930209    1.053900    0.855060
      8          1           0       -2.668149    0.845190   -0.914330
      9         17           0       -5.536669    0.717082   -0.352360
     10          1           0       -4.413350   -0.975669    0.856750
     11          1           0       -4.165510   -1.131319   -0.920150
     12          7           0        0.166180   -1.692001   -0.592400
     13          8           0       -1.679030   -1.270230   -1.867330
     14          6           0        1.197650   -1.285501    0.366940
     15          1           0        0.538090   -2.079601   -1.460930
     16         15           0        2.194891    0.025548   -0.453580
     17          6           0        2.058220   -2.481852    0.766130
     18          1           0        0.708990   -0.876761    1.257970
     19          8           0        3.234561    0.419178    0.712540
     20          8           0        1.211271    1.292899   -0.627750
     21          8           0        2.760350   -0.387272   -1.759010
     22          6           0        4.481311    1.088007    0.342510
     23          6           0        0.746952    2.066529    0.509180
     24          6           0        5.590281    0.077977    0.139220
     25          1           0        4.695061    1.769937    1.177310
     26          1           0        4.318451    1.686607   -0.566710
     27          6           0       -0.121898    3.189469   -0.012800
     28          1           0        0.178741    1.413439    1.192350
     29          1           0        1.619002    2.452368    1.058780
     30          1           0        5.734000   -0.530303    1.043050
     31          1           0        6.533531    0.600616   -0.078420
     32          1           0        5.354170   -0.582153   -0.705530
     33          1           0       -0.493658    3.793869    0.826940
     34          1           0       -0.985388    2.794770   -0.564820
     35          1           0        0.449212    3.841479   -0.687100
     36          1           0        2.832360   -2.172262    1.479220
     37          1           0        1.427029   -3.249722    1.233380
     38          1           0        2.556489   -2.915722   -0.112570
 ---------------------------------------------------------------------

 SCF Done:  E(RHF) =  -1694.37021721     A.U. after    2 cycles

 The electronic state is 1-A.
 Alpha  occ. eigenvalues -- -105.30522 -99.88263 -21.12650 -21.08811 -21.08602
 Alpha  occ. eigenvalues --  -21.05350 -21.01989 -15.92022 -15.81585 -15.78869
 Alpha  occ. eigenvalues --  -11.55425 -11.48220 -11.48106 -11.47754 -11.46680
 Alpha  occ. eigenvalues --  -11.42716 -11.40464 -11.39433 -11.38430 -10.45552
 Alpha  occ. eigenvalues --   -9.65499  -9.64750  -9.64646  -2.92527  -1.97233
 Alpha  occ. eigenvalues --   -1.92118  -1.89500  -1.81437  -1.74845  -1.57482
 Alpha  occ. eigenvalues --   -1.48894  -1.44286  -1.40503  -1.33378  -1.28527
 Alpha  occ. eigenvalues --   -1.14882  -1.13347  -1.12558  -1.11930  -1.00541
 Alpha  occ. eigenvalues --   -0.94490  -0.91292  -0.89599  -0.88594  -0.81223
 Alpha  occ. eigenvalues --   -0.74720  -0.71881  -0.69033  -0.67544  -0.66914
 Alpha  occ. eigenvalues --   -0.65989  -0.65629  -0.63481  -0.61696  -0.60976
 Alpha  occ. eigenvalues --   -0.59628  -0.59016  -0.57155  -0.56528  -0.56031
 Alpha  occ. eigenvalues --   -0.55762  -0.55010  -0.54744  -0.54116  -0.53023
 Alpha  occ. eigenvalues --   -0.51949  -0.51795  -0.50143  -0.48072  -0.47890
 Alpha  occ. eigenvalues --   -0.47351  -0.46837  -0.40504  -0.39625  -0.37871
 Alpha  occ. eigenvalues --   -0.36322  -0.34838  -0.34550  -0.32567  -0.30315
 Alpha  occ. eigenvalues --   -0.26694  -0.23042  -0.15224
 Alpha virt. eigenvalues --    0.03575   0.04135   0.04156   0.04879   0.05216
 Alpha virt. eigenvalues --    0.05437   0.05660   0.06040   0.06475   0.06777
 Alpha virt. eigenvalues --    0.06944   0.07244   0.07538   0.08108   0.08370

 Mulliken charges:
               1
     1  O   -2.337194
     2  N    1.416064
     3  N   -0.841359
     4  C   -2.335491
     5  C    5.999797
     6  C   -4.543195
     7  H    1.920606
     8  H    2.033860
     9  Cl  -0.048264
    10  H    1.816673
    11  H    1.604312
    12  N   -2.470885
    13  O   -3.439011
    14  C   -3.020901
    15  H    0.534653
    16  P   12.966409
    17  C   -5.156991
    18  H    2.234627
    19  O   -3.951759
    20  O   -4.122519
    21  O   -3.443782
    22  C   -2.590092
    23  C   -3.177938
    24  C   -3.831430
    25  H    1.492093
    26  H    1.837013
    27  C   -4.479421
    28  H    2.271416
    29  H    1.711596
    30  H    1.478212
    31  H    1.134602
    32  H    1.288947
    33  H    1.249597
    34  H    1.575841
    35  H    1.266076
    36  H    1.289438
    37  H    1.392425
    38  H    1.275975
 Sum of Mulliken charges =  -0.00000

 Dipole moment (field-independent basis, Debye):
    X=              3.0811    Y=              1.3233    Z=              3.3755  Tot=              4.7580

 Test job not archived.
 1\1\GINC-SE403\SP\RHF\Aug-CC-pVDZ\C9H19Cl1N3O5P1\OHZDE\08-Apr-2025\0\\
 #t hf aug-cc-pvdz iop(5/13=1,5/36=2,99/5=2) pseudo=read geom=check gue
 ss=(read,tcheck) scf=(maxcycle=1)\\title\\0,1\O,0,2.21109,-0.53084,-2.
 43933\N,0,1.47696,-0.98913,-1.57712\N,0,1.74788,-0.5569,-0.30701\C,0,2
 .87885,0.33156,-0.02984\C,0,1.08277,-1.18657,0.8022\C,0,4.19202,-0.438
 94,0.07227\H,0,2.93021,1.0539,-0.85506\H,0,2.66815,0.84519,0.91433\Cl,
 0,5.53667,0.71708,0.35236\H,0,4.41335,-0.97567,-0.85675\H,0,4.16551,-1
 .13132,0.92015\N,0,-0.16618,-1.692,0.5924\O,0,1.67903,-1.27023,1.86733

 Normal termination of Gaussian 16 at Tue Apr  8 18:19:41 2025.
