 Gaussian 16, Revision C.01,

 ----------------------------------------------------------------------
 #t hf aug-cc-pvdz symm=none int=(grid=ultrafine) guess=(read,tcheck) s
 table=(opt,rrhf)
 ----------------------------------------------------------------------
 -----
 title
 -----
 Symbolic Z-matrix:
 Charge =  0 Multiplicity = 1

 SCF Done:  E(RHF) =  -1542.36312933     A.U. after   17 cycles
 Normal termination of Gaussian 16 at Tue Apr  8 19:08:13 2025.
 Gaussian 16:  ES64L-G16RevC.01  3-Jul-2019

 ----------------------------------------------------------------------
 #t hf aug-cc-pvdz iop(5/13=1,5/36=2,99/5=2) pseudo=read geom=check gue
 ss=(read,tcheck) scf=(maxcycle=1)
 ----------------------------------------------------------------------
 -----
 title
 -----
 Structure from the checkpoint file:  "37Conf8_Indometacin_3_mol1.chk"
 Charge =  0 Multiplicity = 1

                         Standard orientation:
 ---------------------------------------------------------------------
 Center     Atomic      Atomic             Coordinates (Angstroms)
 Number     Number       Type             X           Y           Z
 ---------------------------------------------------------------------
      1          1           0        3.480260   -1.281660    1.186959
      2          8           0        4.463980   -1.320420    1.199369
      3          6           0        4.888960   -1.194321   -0.083151
      4          6           0        3.778420   -1.111110   -1.145841
      5          8           0        6.065040   -1.177371   -0.358291
      6          6           0        2.401440   -0.861110   -0.626321
      7          1           0        4.086180   -0.326220   -1.851821
      8          1           0        3.832190   -2.057630   -1.705631
      9          6           0        1.857100    0.442440   -0.317181
     10          6           0        1.431580   -1.801600   -0.339611
     11          6           0        2.413310    1.722290   -0.360551
     12          6           0        0.526450    0.251901    0.134319
     13          7           0        0.267210   -1.137849    0.098049
     14          6           0        1.487559   -3.277110   -0.524231
     15          1           0        3.437421    1.896530   -0.692961
     16          6           0        1.638111    2.806930    0.063259
     17          6           0       -0.231330    1.325241    0.595679
     18          6           0       -0.895500   -1.801919    0.556889
     19          1           0        2.391509   -3.542910   -1.086581
     20          1           0        0.612609   -3.648800   -1.076491
     21          1           0        1.499879   -3.810230    0.435979
     22          8           0        2.240691    4.032070   -0.012731
     23          6           0        0.329741    2.604131    0.547439
     24          1           0       -1.237970    1.196601    0.988179
     25          6           0       -2.200280   -1.139879    0.286629
     26          8           0       -0.825151   -2.894909    1.102179
     27          6           0        1.502321    5.162180    0.438049
     28          1           0       -0.263909    3.445201    0.900299
     29          6           0       -3.260460   -1.375429    1.174009
     30          6           0       -2.428630   -0.386829   -0.874941
     31          1           0        0.580561    5.305021   -0.150941
     32          1           0        2.161412    6.025730    0.294839
     33          1           0        1.241731    5.075460    1.506329
     34          1           0       -3.079530   -1.986299    2.059159
     35          6           0       -4.521300   -0.842068    0.928919
     36          1           0       -1.613950   -0.210649   -1.577881
     37          6           0       -3.691910    0.131222   -1.144171
     38          1           0       -5.345400   -1.007108    1.622269
     39          6           0       -4.727740   -0.091328   -0.232591
     40          1           0       -3.880160    0.704612   -2.051261
     41         17           0       -6.300990    0.570032   -0.552391
 ---------------------------------------------------------------------

 SCF Done:  E(RHF) =  -1547.54886361     A.U. after    2 cycles

 The electronic state is 1-A.
 Alpha  occ. eigenvalues --  -99.91683 -21.11188 -21.08174 -21.07200 -21.04156
 Alpha  occ. eigenvalues --  -15.80110 -11.57373 -11.56668 -11.55855 -11.53480
 Alpha  occ. eigenvalues --  -11.52606 -11.49827 -11.49281 -11.48997 -11.48600
 Alpha  occ. eigenvalues --  -11.47870 -11.47397 -11.46255 -11.45668 -11.45289
 Alpha  occ. eigenvalues --  -11.43329 -11.42517 -11.41963 -11.41154 -11.39634
 Alpha  occ. eigenvalues --  -10.49091  -9.69131  -9.68209  -9.68018  -1.80918
 Alpha  occ. eigenvalues --   -1.79311  -1.74638  -1.64276  -1.54416  -1.42648
 Alpha  occ. eigenvalues --   -1.31455  -1.29865  -1.24227  -1.13790  -1.13456
 Alpha  occ. eigenvalues --   -1.13238  -1.11556  -1.08536  -1.01160  -0.99679
 Alpha  occ. eigenvalues --   -0.93891  -0.91479  -0.88699  -0.86483  -0.82620
 Alpha  occ. eigenvalues --   -0.78743  -0.76427  -0.74922  -0.71423  -0.69288
 Alpha  occ. eigenvalues --   -0.68738  -0.66928  -0.65652  -0.65323  -0.64656
 Alpha  occ. eigenvalues --   -0.63018  -0.62334  -0.61977  -0.61848  -0.60194
 Alpha  occ. eigenvalues --   -0.59501  -0.59063  -0.57525  -0.57049  -0.55687
 Alpha  occ. eigenvalues --   -0.55072  -0.54348  -0.52407  -0.51746  -0.51277
 Alpha  occ. eigenvalues --   -0.50294  -0.49884  -0.49268  -0.47964  -0.47012
 Alpha  occ. eigenvalues --   -0.45707  -0.45142  -0.44572  -0.40806  -0.40280
 Alpha  occ. eigenvalues --   -0.38038  -0.36918  -0.34928  -0.32611  -0.32110
 Alpha  occ. eigenvalues --   -0.30877  -0.27555  -0.25575
 Alpha virt. eigenvalues --    0.02535   0.03791   0.04108   0.04462   0.04983
 Alpha virt. eigenvalues --    0.05327   0.05586   0.05837   0.05977   0.06326
 Alpha virt. eigenvalues --    0.06346   0.06483   0.07026   0.07399   0.08072

 Mulliken charges:
               1
     1  H    1.547709
     2  O   -3.332952
     3  C    5.708717
     4  C   -4.321741
     5  O   -3.369934
     6  C    0.176739
     7  H    1.210410
     8  H    1.386009
     9  C    3.072040
    10  C    3.063532
    11  C    0.147589
    12  C    1.599058
    13  N   -6.263423
    14  C   -5.403031
    15  H    2.065721
    16  C    5.779798
    17  C   -2.833491
    18  C    4.217466
    19  H    1.104617
    20  H    1.016250
    21  H    1.237475
    22  O   -5.117426
    23  C   -4.808228
    24  H    2.751312
    25  C    3.410769
    26  O   -3.776590
    27  C   -4.025113
    28  H    1.851509
    29  C   -1.887681
    30  C   -1.489069
    31  H    1.417714
    32  H    1.524775
    33  H    1.419136
    34  H    1.788064
    35  C   -1.280431
    36  H    2.541244
    37  C   -1.912630
    38  H    1.794375
    39  C   -2.909505
    40  H    1.779243
    41  Cl  -0.880030
 Sum of Mulliken charges =   0.00000

 Dipole moment (field-independent basis, Debye):
    X=             -3.1674    Y=              0.5524    Z=              0.1905  Tot=              3.2209

 Test job not archived.
 1\1\GINC-SE078\SP\RHF\Aug-CC-pVDZ\C19H16Cl1N1O4\OHZDE\08-Apr-2025\0\\#
 t hf aug-cc-pvdz iop(5/13=1,5/36=2,99/5=2) pseudo=read geom=check gues
 s=(read,tcheck) scf=(maxcycle=1)\\title\\0,1\H,0,3.48026,-1.28166,1.18
 696\O,0,4.46398,-1.32042,1.19937\C,0,4.88896,-1.19432,-0.08315\C,0,3.7
 7842,-1.11111,-1.14584\O,0,6.06504,-1.17737,-0.35829\C,0,2.40144,-0.86
 111,-0.62632\H,0,4.08618,-0.32622,-1.85182\H,0,3.83219,-2.05763,-1.705
 63\C,0,1.8571,0.44244,-0.31718\C,0,1.43158,-1.8016,-0.33961\C,0,2.4133
 1,1.72229,-0.36055\C,0,0.52645,0.2519,0.13432\N,0,0.26721,-1.13785,0.0

 Normal termination of Gaussian 16 at Tue Apr  8 19:10:10 2025.
