 Gaussian 16, Revision C.01,

 ----------------------------------------------------------------------
 #t hf aug-cc-pvdz symm=none int=(grid=ultrafine) guess=(read,tcheck) s
 table=(opt,rrhf)
 ----------------------------------------------------------------------
 -----
 title
 -----
 Symbolic Z-matrix:
 Charge =  0 Multiplicity = 1

 SCF Done:  E(RHF) =  -1667.17933584     A.U. after   13 cycles
 Normal termination of Gaussian 16 at Tue Apr  8 18:30:08 2025.
 Gaussian 16:  ES64L-G16RevC.01  3-Jul-2019

 ----------------------------------------------------------------------
 #t hf aug-cc-pvdz iop(5/13=1,5/36=2,99/5=2) pseudo=read geom=check gue
 ss=(read,tcheck) scf=(maxcycle=1)
 ----------------------------------------------------------------------
 -----
 title
 -----
 Structure from the checkpoint file:  "37Conf8_N_iprit_5_mol1.chk"
 Charge =  0 Multiplicity = 1

                         Standard orientation:
 ---------------------------------------------------------------------
 Center     Atomic      Atomic             Coordinates (Angstroms)
 Number     Number       Type             X           Y           Z
 ---------------------------------------------------------------------
      1          1           0       -1.369931    0.882899   -0.719439
      2          6           0       -1.243480   -0.159021   -0.394399
      3          6           0       -2.437080   -0.575271    0.470421
      4          7           0        0.036910   -0.282410    0.281681
      5          1           0       -1.224940   -0.775251   -1.306669
      6         17           0       -3.982420   -0.362043   -0.430309
      7          1           0       -2.384449   -1.633401    0.756381
      8          1           0       -2.513960    0.036359    1.378731
      9          6           0        0.473411   -1.629209    0.580711
     10          6           0        0.355509    0.735511    1.269761
     11          6           0        1.985061   -1.800178    0.632991
     12          1           0        0.070072   -2.297320   -0.194879
     13          1           0        0.095741   -2.005710    1.561891
     14          6           0        1.449939    1.699841    0.824941
     15          1           0       -0.541881    1.319680    1.534201
     16          1           0        0.699180    0.261361    2.210001
     17         17           0        2.779741   -1.406948   -0.931929
     18          1           0        2.236162   -2.841508    0.871231
     19          1           0        2.445301   -1.151368    1.389651
     20         17           0        0.888388    2.770861   -0.510969
     21          1           0        2.321349    1.160432    0.435011
     22          1           0        1.751768    2.358852    1.650131
 ---------------------------------------------------------------------

 SCF Done:  E(RHF) =  -1669.37069422     A.U. after    2 cycles

 The electronic state is 1-A.
 Alpha  occ. eigenvalues --  -99.88114 -99.87928 -99.87477 -15.71997 -11.48427
 Alpha  occ. eigenvalues --  -11.48073 -11.46179 -11.42114 -11.41317 -11.40554
 Alpha  occ. eigenvalues --  -10.45408 -10.45203 -10.44782  -9.65333  -9.65140
 Alpha  occ. eigenvalues --   -9.64772  -9.64710  -9.64631  -9.64384  -9.64312
 Alpha  occ. eigenvalues --   -9.64123  -9.63927  -1.47377  -1.33772  -1.33072
 Alpha  occ. eigenvalues --   -1.30787  -1.13407  -1.13048  -1.03053  -0.92742
 Alpha  occ. eigenvalues --   -0.92083  -0.82131  -0.70831  -0.69360  -0.68832
 Alpha  occ. eigenvalues --   -0.66309  -0.64219  -0.61899  -0.60521  -0.59503
 Alpha  occ. eigenvalues --   -0.57452  -0.56322  -0.55310  -0.51750  -0.51431
 Alpha  occ. eigenvalues --   -0.50441  -0.48020  -0.47994  -0.47294  -0.47120
 Alpha  occ. eigenvalues --   -0.45706  -0.45387  -0.31966
 Alpha virt. eigenvalues --    0.03151   0.04100   0.04267   0.04920   0.05373
 Alpha virt. eigenvalues --    0.05865   0.06282   0.06639   0.06868   0.07673
 Alpha virt. eigenvalues --    0.08213   0.08791   0.09143   0.09358   0.09821

 Mulliken charges:
               1
     1  H    1.720879
     2  C   -1.492339
     3  C   -4.247558
     4  N   -2.027619
     5  H    1.639255
     6  Cl  -0.059760
     7  H    1.781141
     8  H    1.843202
     9  C   -1.918767
    10  C   -2.380634
    11  C   -4.167988
    12  H    1.709255
    13  H    1.583005
    14  C   -3.803140
    15  H    1.793492
    16  H    1.775465
    17  Cl   0.034164
    18  H    1.161043
    19  H    1.716982
    20  Cl   0.036465
    21  H    1.831763
    22  H    1.471697
 Sum of Mulliken charges =  -0.00000

 Dipole moment (field-independent basis, Debye):
    X=              1.2138    Y=             -2.1045    Z=              4.2848  Tot=              4.9256

 Test job not archived.
 1\1\GINC-SE457\SP\RHF\Aug-CC-pVDZ\C6H12Cl3N1\OHZDE\08-Apr-2025\0\\#t h
 f aug-cc-pvdz iop(5/13=1,5/36=2,99/5=2) pseudo=read geom=check guess=(
 read,tcheck) scf=(maxcycle=1)\\title\\0,1\H,0,-1.36993,0.8829,-0.71944
 \C,0,-1.24348,-0.15902,-0.3944\C,0,-2.43708,-0.57527,0.47042\N,0,0.036
 91,-0.28241,0.28168\H,0,-1.22494,-0.77525,-1.30667\Cl,0,-3.98242,-0.36
 204,-0.43031\H,0,-2.38445,-1.6334,0.75638\H,0,-2.51396,0.03636,1.37873
 \C,0,0.47341,-1.62921,0.58071\C,0,0.35551,0.73551,1.26976\C,0,1.98506,
 -1.80018,0.63299\H,0,0.07007,-2.29732,-0.19488\H,0,0.09574,-2.00571,1.

 Normal termination of Gaussian 16 at Tue Apr  8 18:30:23 2025.
