 Gaussian 16, Revision C.01,

 ----------------------------------------------------------------------
 #t hf aug-cc-pvdz symm=none int=(grid=ultrafine) guess=(read,tcheck) s
 table=(opt,rrhf)
 ----------------------------------------------------------------------
 -----
 title
 -----
 Symbolic Z-matrix:
 Charge =  0 Multiplicity = 1

 SCF Done:  E(RHF) =  -1112.30655297     A.U. after   16 cycles
 Normal termination of Gaussian 16 at Tue Apr  8 17:52:03 2025.
 Gaussian 16:  ES64L-G16RevC.01  3-Jul-2019

 ----------------------------------------------------------------------
 #t hf aug-cc-pvdz iop(5/13=1,5/36=2,99/5=2) pseudo=read geom=check gue
 ss=(read,tcheck) scf=(maxcycle=1)
 ----------------------------------------------------------------------
 -----
 title
 -----
 Structure from the checkpoint file:  "37Conf8_Cimetidine_2_mol2.chk"
 Charge =  0 Multiplicity = 1

                         Standard orientation:
 ---------------------------------------------------------------------
 Center     Atomic      Atomic             Coordinates (Angstroms)
 Number     Number       Type             X           Y           Z
 ---------------------------------------------------------------------
      1          7           0        3.349502   -1.163300   -1.086980
      2          6           0        2.860608   -0.183267   -0.646750
      3          7           0        2.349174    0.864816   -0.044810
      4          6           0        1.129387    1.283293   -0.370130
      5          7           0        0.368003    0.712737   -1.338870
      6          7           0        0.609893    2.352256    0.291510
      7          6           0       -0.832013    1.279044   -1.932540
      8          1           0        0.727308   -0.159705   -1.719520
      9          6           0        1.361837    2.988181    1.361450
     10          1           0       -0.405038    2.282782    0.429100
     11          6           0       -2.161407    0.706752   -1.427030
     12          1           0       -0.780724    1.106614   -3.020940
     13          1           0       -0.799847    2.368524   -1.785370
     14         16           0       -2.469985    0.991134    0.350410
     15          1           0       -2.983984    1.174427   -1.988070
     16          1           0       -2.199233   -0.379128   -1.595650
     17          6           0       -2.332075   -0.734497    1.039230
     18          6           0       -1.158930   -1.506744    0.569640
     19          1           0       -3.260858   -1.255421    0.774570
     20          1           0       -2.320824   -0.574637    2.125680
     21          7           0       -1.218524   -2.219073   -0.619150
     22          6           0        0.113800   -1.584741    1.117020
     23          6           0       -0.003587   -2.709681   -0.796910
     24          7           0        0.827245   -2.367375    0.232130
     25          6           0        0.708683   -1.009545    2.353690
     26          1           0        0.326870   -3.320363   -1.632320
     27          1           0        1.842905   -2.469031    0.212490
     28          1           0        1.594047   -0.396280    2.125290
     29          1           0       -0.023663   -0.365930    2.857800
     30          1           0        1.013289   -1.793207    3.065130
     31          1           0        2.358338    3.265716    0.999350
     32          1           0        0.825292    3.894745    1.667060
     33          1           0        1.491013    2.329561    2.235990
 ---------------------------------------------------------------------

 SCF Done:  E(RHF) =  -1115.91044627     A.U. after    2 cycles

 The electronic state is 1-A.
 Alpha  occ. eigenvalues --  -75.68530 -15.79100 -15.78063 -15.77068 -15.73501
 Alpha  occ. eigenvalues --  -15.72390 -15.72155 -13.17873 -13.12897 -13.10889
 Alpha  occ. eigenvalues --  -11.53924 -11.48339 -11.47831 -11.45874 -11.45228
 Alpha  occ. eigenvalues --  -11.43020 -11.42605 -11.41051 -11.40763 -11.38430
 Alpha  occ. eigenvalues --   -8.02555  -1.56197  -1.55327  -1.37525  -1.36851
 Alpha  occ. eigenvalues --   -1.28721  -1.24615  -1.22423  -1.16124  -1.09889
 Alpha  occ. eigenvalues --   -1.03284  -1.00701  -0.95939  -0.89397  -0.85518
 Alpha  occ. eigenvalues --   -0.84031  -0.76712  -0.75797  -0.71214  -0.70232
 Alpha  occ. eigenvalues --   -0.67413  -0.63907  -0.63481  -0.63010  -0.62196
 Alpha  occ. eigenvalues --   -0.59537  -0.58282  -0.57629  -0.56921  -0.55274
 Alpha  occ. eigenvalues --   -0.54781  -0.53573  -0.52942  -0.52133  -0.51626
 Alpha  occ. eigenvalues --   -0.51372  -0.48831  -0.46984  -0.44686  -0.39636
 Alpha  occ. eigenvalues --   -0.37435  -0.36443  -0.36133  -0.35175  -0.31144
 Alpha  occ. eigenvalues --   -0.28639  -0.23727
 Alpha virt. eigenvalues --    0.03536   0.03652   0.04054   0.04778   0.05361
 Alpha virt. eigenvalues --    0.05567   0.05690   0.06071   0.06823   0.07200
 Alpha virt. eigenvalues --    0.07258   0.07802   0.08292   0.08726   0.09157

 Mulliken charges:
               1
     1  N   -2.856388
     2  C    3.138152
     3  N   -3.198653
     4  C    6.673251
     5  N   -1.628499
     6  N   -3.483088
     7  C   -3.374795
     8  H    0.773369
     9  C   -4.011904
    10  H    1.007886
    11  C   -3.399666
    12  H    1.413854
    13  H    1.781293
    14  S    0.237966
    15  H    1.383201
    16  H    1.801568
    17  C   -4.222529
    18  C    4.867922
    19  H    1.281271
    20  H    1.283639
    21  N   -4.079478
    22  C    2.966554
    23  C    0.275374
    24  N   -4.044509
    25  C   -5.781400
    26  H    1.995916
    27  H    1.025827
    28  H    1.378690
    29  H    1.237093
    30  H    1.146513
    31  H    1.501662
    32  H    1.447211
    33  H    1.462697
 Sum of Mulliken charges =   0.00000

 Dipole moment (field-independent basis, Debye):
    X=             -3.4930    Y=              3.2745    Z=              1.8424  Tot=              5.1301

 Test job not archived.
 1\1\GINC-SE082\SP\RHF\Aug-CC-pVDZ\C10H16N6S1\OHZDE\08-Apr-2025\0\\#t h
 f aug-cc-pvdz iop(5/13=1,5/36=2,99/5=2) pseudo=read geom=check guess=(
 read,tcheck) scf=(maxcycle=1)\\title\\0,1\N,0,-3.34951,1.16328,-1.0869
 8\C,0,-2.86061,0.18325,-0.64675\N,0,-2.34917,-0.86483,-0.04481\C,0,-1.
 12938,-1.2833,-0.37013\N,0,-0.368,-0.71274,-1.33887\N,0,-0.60988,-2.35
 226,0.29151\C,0,0.83202,-1.27904,-1.93254\H,0,-0.72731,0.1597,-1.71952
 \C,0,-1.36182,-2.98819,1.36145\H,0,0.40505,-2.28278,0.4291\C,0,2.16141
 ,-0.70674,-1.42703\H,0,0.78073,-1.10661,-3.02094\H,0,0.79986,-2.36852,

 Normal termination of Gaussian 16 at Tue Apr  8 17:53:00 2025.
