 Gaussian 16, Revision C.01,

 ----------------------------------------------------------------------
 #t hf aug-cc-pvdz symm=none int=(grid=ultrafine) guess=(read,tcheck) s
 table=(opt,rrhf)
 ----------------------------------------------------------------------
 -----
 title
 -----
 Symbolic Z-matrix:
 Charge =  0 Multiplicity = 1

 SCF Done:  E(RHF) =  -1374.24040324     A.U. after   14 cycles
 Normal termination of Gaussian 16 at Tue Apr  8 19:23:22 2025.
 Gaussian 16:  ES64L-G16RevC.01  3-Jul-2019

 ----------------------------------------------------------------------
 #t hf aug-cc-pvdz iop(5/13=1,5/36=2,99/5=2) pseudo=read geom=check gue
 ss=(read,tcheck) scf=(maxcycle=1)
 ----------------------------------------------------------------------
 -----
 title
 -----
 Structure from the checkpoint file:  "37Conf8_VX_6_mol1.chk"
 Charge =  0 Multiplicity = 1

                         Standard orientation:
 ---------------------------------------------------------------------
 Center     Atomic      Atomic             Coordinates (Angstroms)
 Number     Number       Type             X           Y           Z
 ---------------------------------------------------------------------
      1          1           0       -2.793581    2.384521    0.406591
      2          6           0       -1.964701    1.999390   -0.205179
      3          6           0       -1.595591    2.948880   -1.322819
      4          8           0       -2.379381    0.739090   -0.799969
      5          1           0       -1.107691    1.813860    0.463211
      6          1           0       -2.451451    3.119360   -1.990169
      7          1           0       -0.763421    2.551330   -1.921139
      8          1           0       -1.286021    3.915850   -0.900929
      9         15           0       -2.777141   -0.468739    0.210681
     10          6           0       -3.558442   -1.597079   -0.966809
     11         16           0       -0.981652   -1.341520    0.877981
     12          8           0       -3.600031   -0.096059    1.390851
     13          1           0       -2.896752   -1.839199   -1.807499
     14          1           0       -4.467861   -1.112789   -1.347489
     15          1           0       -3.825802   -2.514089   -0.428189
     16          6           0       -0.004432   -1.502480   -0.673489
     17          6           0        0.984089   -0.359710   -0.925519
     18          1           0       -0.696502   -1.606320   -1.521989
     19          1           0        0.540608   -2.449720   -0.561129
     20          7           0        2.007839   -0.232370    0.096301
     21          1           0        1.447709   -0.558440   -1.907189
     22          1           0        0.421459    0.581670   -1.051729
     23          6           0        3.387359   -0.524770   -0.312879
     24          6           0        1.787299    0.847810    1.069691
     25          6           0        3.907339    0.252420   -1.538739
     26          6           0        3.572928   -2.031270   -0.528669
     27          1           0        4.015319   -0.238520    0.544701
     28          6           0        2.198319    2.253720    0.598481
     29          6           0        2.405809    0.516900    2.428731
     30          1           0        0.696959    0.852320    1.224341
     31          1           0        3.390719   -0.051530   -2.461929
     32          1           0        4.977519    0.045830   -1.688599
     33          1           0        3.783319    1.335860   -1.421229
     34          1           0        2.968978   -2.384280   -1.379629
     35          1           0        4.623098   -2.270000   -0.753159
     36          1           0        3.265018   -2.590000    0.365241
     37          1           0        1.768119    2.489590   -0.386549
     38          1           0        3.291809    2.351590    0.528441
     39          1           0        1.844369    3.014630    1.310411
     40          1           0        3.505919    0.522960    2.397531
     41          1           0        2.072599   -0.473400    2.766991
     42          1           0        2.099689    1.263800    3.175271
 ---------------------------------------------------------------------

 SCF Done:  E(RHF) =  -1377.83191221     A.U. after    2 cycles

 The electronic state is 1-A.
 Alpha  occ. eigenvalues -- -105.28400 -75.68536 -21.07334 -21.00447 -15.69099
 Alpha  occ. eigenvalues --  -13.17624 -13.12133 -13.10240 -11.47904 -11.45911
 Alpha  occ. eigenvalues --  -11.43994 -11.43759 -11.40256 -11.39484 -11.39421
 Alpha  occ. eigenvalues --  -11.39252 -11.38500 -11.36320 -11.35752  -8.02738
 Alpha  occ. eigenvalues --   -2.89351  -1.93397  -1.82337  -1.58347  -1.48527
 Alpha  occ. eigenvalues --   -1.44382  -1.29201  -1.20140  -1.19845  -1.11613
 Alpha  occ. eigenvalues --   -1.10383  -1.01217  -1.00750  -0.99988  -0.98733
 Alpha  occ. eigenvalues --   -0.88043  -0.87402  -0.85680  -0.76250  -0.67809
 Alpha  occ. eigenvalues --   -0.67290  -0.65986  -0.65448  -0.62978  -0.60539
 Alpha  occ. eigenvalues --   -0.59342  -0.58826  -0.58593  -0.58451  -0.56428
 Alpha  occ. eigenvalues --   -0.56050  -0.55377  -0.54176  -0.53219  -0.53114
 Alpha  occ. eigenvalues --   -0.52389  -0.52247  -0.50046  -0.48433  -0.47029
 Alpha  occ. eigenvalues --   -0.46410  -0.44793  -0.43267  -0.42719  -0.40496
 Alpha  occ. eigenvalues --   -0.37454  -0.33241  -0.32142  -0.29294  -0.25851
 Alpha  occ. eigenvalues --   -0.24393  -0.18411  -0.13327
 Alpha virt. eigenvalues --    0.03720   0.04188   0.04455   0.04685   0.04778
 Alpha virt. eigenvalues --    0.05008   0.05157   0.05557   0.05791   0.06161
 Alpha virt. eigenvalues --    0.06290   0.06887   0.07173   0.07350   0.07527

 Mulliken charges:
               1
     1  H    1.506583
     2  C   -2.803052
     3  C   -4.534354
     4  O   -3.582433
     5  H    2.838782
     6  H    1.316363
     7  H    1.591432
     8  H    1.256877
     9  P   10.723384
    10  C   -7.030477
    11  S   -1.865037
    12  O   -3.078636
    13  H    1.352305
    14  H    1.063462
    15  H    1.219280
    16  C   -4.632165
    17  C   -4.458732
    18  H    1.794973
    19  H    1.945707
    20  N    0.562679
    21  H    1.842343
    22  H    2.671122
    23  C   -1.800690
    24  C    0.228466
    25  C   -4.075985
    26  C   -4.659336
    27  H    2.626961
    28  C   -4.570895
    29  C   -6.406748
    30  H    3.025919
    31  H    1.449385
    32  H    1.127763
    33  H    1.565204
    34  H    1.344361
    35  H    1.086238
    36  H    1.244430
    37  H    1.641295
    38  H    1.379327
    39  H    1.126045
    40  H    1.415086
    41  H    1.348853
    42  H    1.203915
 Sum of Mulliken charges =  -0.00000

 Dipole moment (field-independent basis, Debye):
    X=              1.4473    Y=              0.5677    Z=             -2.2852  Tot=              2.7639

 Test job not archived.
 1\1\GINC-SE095\SP\RHF\Aug-CC-pVDZ\C11H26N1O2P1S1\OHZDE\08-Apr-2025\0\\
 #t hf aug-cc-pvdz iop(5/13=1,5/36=2,99/5=2) pseudo=read geom=check gue
 ss=(read,tcheck) scf=(maxcycle=1)\\title\\0,1\H,0,-2.79358,2.38452,0.4
 0659\C,0,-1.9647,1.99939,-0.20518\C,0,-1.59559,2.94888,-1.32282\O,0,-2
 .37938,0.73909,-0.79997\H,0,-1.10769,1.81386,0.46321\H,0,-2.45145,3.11
 936,-1.99017\H,0,-0.76342,2.55133,-1.92114\H,0,-1.28602,3.91585,-0.900
 93\P,0,-2.77714,-0.46874,0.21068\C,0,-3.55844,-1.59708,-0.96681\S,0,-0
 .98165,-1.34152,0.87798\O,0,-3.60003,-0.09606,1.39085\H,0,-2.89675,-1.

 Normal termination of Gaussian 16 at Tue Apr  8 19:24:43 2025.
