 Gaussian 16, Revision C.01,

 ----------------------------------------------------------------------
 #t hf aug-cc-pvdz symm=none int=(grid=ultrafine) guess=(read,tcheck) s
 table=(opt,rrhf)
 ----------------------------------------------------------------------
 -----
 title
 -----
 Symbolic Z-matrix:
 Charge =  0 Multiplicity = 1

 SCF Done:  E(RHF) =  -1374.25071447     A.U. after   14 cycles
 Normal termination of Gaussian 16 at Tue Apr  8 19:14:01 2025.
 Gaussian 16:  ES64L-G16RevC.01  3-Jul-2019

 ----------------------------------------------------------------------
 #t hf aug-cc-pvdz iop(5/13=1,5/36=2,99/5=2) pseudo=read geom=check gue
 ss=(read,tcheck) scf=(maxcycle=1)
 ----------------------------------------------------------------------
 -----
 title
 -----
 Structure from the checkpoint file:  "37Conf8_VX_3_mol2.chk"
 Charge =  0 Multiplicity = 1

                         Standard orientation:
 ---------------------------------------------------------------------
 Center     Atomic      Atomic             Coordinates (Angstroms)
 Number     Number       Type             X           Y           Z
 ---------------------------------------------------------------------
      1          1           0       -3.841351    1.383640   -1.293291
      2          6           0       -4.139031    0.358430   -1.026031
      3          6           0       -5.640581    0.181380   -1.060311
      4          8           0       -3.685091    0.086330    0.328629
      5          1           0       -3.633051   -0.341500   -1.711051
      6          1           0       -6.015191    0.387150   -2.073381
      7          1           0       -5.920131   -0.846100   -0.789841
      8          1           0       -6.132751    0.872810   -0.362651
      9         15           0       -2.098521    0.158300    0.635219
     10          6           0       -2.136101   -0.134840    2.416489
     11         16           0       -1.334091   -1.585609   -0.289741
     12          8           0       -1.385661    1.394090    0.200949
     13          1           0       -2.658271   -1.073840    2.638109
     14          1           0       -1.102531   -0.193719    2.778849
     15          1           0       -2.651701    0.705490    2.900819
     16          6           0        0.237579   -0.886509   -0.933691
     17          6           0        1.317949   -0.743339    0.141209
     18          1           0        0.563649   -1.573649   -1.726811
     19          1           0        0.000509    0.083811   -1.384971
     20          7           0        2.453009   -0.009659   -0.382741
     21          1           0        1.631479   -1.746769    0.462059
     22          1           0        0.874049   -0.256549    1.034159
     23          6           0        2.279279    1.452211   -0.347401
     24          6           0        3.785729   -0.553969   -0.091041
     25          6           0        3.011039    2.125221   -1.510351
     26          6           0        2.637499    2.116561    0.992239
     27          1           0        1.199829    1.615311   -0.499911
     28          6           0        4.074029   -1.754038   -0.999951
     29          6           0        4.047079   -0.922119    1.381669
     30          1           0        4.496739    0.242312   -0.362591
     31          1           0        2.713469    1.671201   -2.465341
     32          1           0        2.774548    3.198701   -1.541271
     33          1           0        4.104149    2.035142   -1.414171
     34          1           0        2.340068    3.175321    0.981869
     35          1           0        3.719929    2.075821    1.187129
     36          1           0        2.112969    1.634571    1.829979
     37          1           0        3.967179   -1.470409   -2.055361
     38          1           0        5.090919   -2.140758   -0.835341
     39          1           0        3.371460   -2.577469   -0.795891
     40          1           0        5.096499   -1.224048    1.516059
     41          1           0        3.422499   -1.770459    1.699869
     42          1           0        3.846439   -0.080459    2.056069
 ---------------------------------------------------------------------

 SCF Done:  E(RHF) =  -1377.83923897     A.U. after    2 cycles

 The electronic state is 1-A.
 Alpha  occ. eigenvalues -- -105.28481 -75.68592 -21.07196 -21.01080 -15.68300
 Alpha  occ. eigenvalues --  -13.16385 -13.11138 -13.07008 -11.46164 -11.44954
 Alpha  occ. eigenvalues --  -11.43193 -11.42576 -11.39367 -11.38876 -11.38461
 Alpha  occ. eigenvalues --  -11.38351 -11.37536 -11.35325 -11.34673  -8.02797
 Alpha  occ. eigenvalues --   -2.89529  -1.93980  -1.82235  -1.58711  -1.48657
 Alpha  occ. eigenvalues --   -1.43643  -1.29588  -1.19576  -1.18845  -1.11124
 Alpha  occ. eigenvalues --   -1.10002  -1.00900  -1.00040  -0.99084  -0.97438
 Alpha  occ. eigenvalues --   -0.87526  -0.86369  -0.85365  -0.75484  -0.67537
 Alpha  occ. eigenvalues --   -0.66344  -0.65281  -0.64899  -0.61971  -0.59387
 Alpha  occ. eigenvalues --   -0.58894  -0.58676  -0.58523  -0.57823  -0.55684
 Alpha  occ. eigenvalues --   -0.55059  -0.53833  -0.53447  -0.52101  -0.51915
 Alpha  occ. eigenvalues --   -0.51664  -0.51524  -0.50268  -0.47412  -0.46607
 Alpha  occ. eigenvalues --   -0.46138  -0.43972  -0.43578  -0.41337  -0.39862
 Alpha  occ. eigenvalues --   -0.37114  -0.33681  -0.32631  -0.27949  -0.26178
 Alpha  occ. eigenvalues --   -0.24414  -0.18592  -0.14020
 Alpha virt. eigenvalues --    0.03889   0.04335   0.04596   0.05013   0.05182
 Alpha virt. eigenvalues --    0.05445   0.05651   0.05924   0.06023   0.06200
 Alpha virt. eigenvalues --    0.06413   0.06442   0.06946   0.07505   0.07636

 Mulliken charges:
               1
     1  H    1.512219
     2  C   -2.013935
     3  C   -4.228819
     4  O   -3.279685
     5  H    1.735736
     6  H    1.147593
     7  H    1.274935
     8  H    1.277104
     9  P   11.685540
    10  C   -7.531260
    11  S   -1.758221
    12  O   -3.337954
    13  H    1.295854
    14  H    1.138124
    15  H    1.155013
    16  C   -4.298005
    17  C   -3.990529
    18  H    1.520471
    19  H    2.243209
    20  N   -1.098096
    21  H    1.994914
    22  H    2.562324
    23  C    0.532363
    24  C   -1.508302
    25  C   -6.033603
    26  C   -4.301760
    27  H    2.700564
    28  C   -4.590326
    29  C   -4.204972
    30  H    2.558057
    31  H    1.391258
    32  H    1.150839
    33  H    1.376657
    34  H    1.129231
    35  H    1.445694
    36  H    1.442839
    37  H    1.387068
    38  H    1.152753
    39  H    1.315799
    40  H    1.109320
    41  H    1.420243
    42  H    1.519746
 Sum of Mulliken charges =   0.00000

 Dipole moment (field-independent basis, Debye):
    X=             -2.0520    Y=             -0.8222    Z=              0.9103  Tot=              2.3906

 Test job not archived.
 1\1\GINC-SE362\SP\RHF\Aug-CC-pVDZ\C11H26N1O2P1S1\OHZDE\08-Apr-2025\0\\
 #t hf aug-cc-pvdz iop(5/13=1,5/36=2,99/5=2) pseudo=read geom=check gue
 ss=(read,tcheck) scf=(maxcycle=1)\\title\\0,1\H,0,-3.84135,1.38364,-1.
 29329\C,0,-4.13903,0.35843,-1.02603\C,0,-5.64058,0.18138,-1.06031\O,0,
 -3.68509,0.08633,0.32863\H,0,-3.63305,-0.3415,-1.71105\H,0,-6.01519,0.
 38715,-2.07338\H,0,-5.92013,-0.8461,-0.78984\H,0,-6.13275,0.87281,-0.3
 6265\P,0,-2.09852,0.1583,0.63522\C,0,-2.1361,-0.13484,2.41649\S,0,-1.3
 3409,-1.58561,-0.28974\O,0,-1.38566,1.39409,0.20095\H,0,-2.65827,-1.07

 Normal termination of Gaussian 16 at Tue Apr  8 19:15:01 2025.
