 Gaussian 16, Revision C.01,

 ----------------------------------------------------------------------
 #t hf aug-cc-pvdz symm=none int=(grid=ultrafine) guess=(read,tcheck) s
 table=(opt,rrhf)
 ----------------------------------------------------------------------
 -----
 title
 -----
 Symbolic Z-matrix:
 Charge =  0 Multiplicity = 1

 SCF Done:  E(RHF) =  -787.709343083     A.U. after   16 cycles
 Normal termination of Gaussian 16 at Tue Apr  8 18:09:52 2025.
 Gaussian 16:  ES64L-G16RevC.01  3-Jul-2019

 ----------------------------------------------------------------------
 #t hf aug-cc-pvdz iop(5/13=1,5/36=2,99/5=2) pseudo=read geom=check gue
 ss=(read,tcheck) scf=(maxcycle=1)
 ----------------------------------------------------------------------
 -----
 title
 -----
 Structure from the checkpoint file:  "37Conf8_Eperisone_8_mol1.chk"
 Charge =  0 Multiplicity = 1

                         Standard orientation:
 ---------------------------------------------------------------------
 Center     Atomic      Atomic             Coordinates (Angstroms)
 Number     Number       Type             X           Y           Z
 ---------------------------------------------------------------------
      1          8           0        0.603761    3.101930   -0.654420
      2          6           0        0.463931    2.045250   -0.046460
      3          6           0       -0.896939    1.654810    0.528600
      4          6           0        1.616661    1.096930    0.091400
      5          6           0       -1.587939    0.712761   -0.488840
      6          6           0       -1.760849    2.876251    0.825750
      7          1           0       -0.734959    1.090100    1.460990
      8          6           0        2.832261    1.440310   -0.524190
      9          6           0        1.548230   -0.113610    0.799240
     10          7           0       -2.849690    0.177171   -0.000470
     11          1           0       -1.801229    1.306961   -1.392130
     12          1           0       -0.884710   -0.091810   -0.800860
     13          6           0       -3.748880   -0.174439   -1.106890
     14          6           0       -2.694100   -0.905729    0.990010
     15          1           0       -3.214160   -0.720829   -1.918750
     16          1           0       -4.125709    0.759521   -1.554170
     17          6           0       -4.895570   -1.043429   -0.603880
     18          1           0       -1.686500   -0.837389    1.426090
     19          1           0       -3.399040   -0.747539    1.825930
     20          6           0       -2.922970   -2.294819    0.389280
     21          1           0       -5.393450   -0.513969    0.224160
     22          1           0       -5.647340   -1.166229   -1.396700
     23          6           0       -4.369390   -2.414639   -0.129650
     24          1           0       -2.706860   -3.074159    1.135760
     25          1           0       -2.207430   -2.447699   -0.435060
     26          1           0       -4.407340   -3.140779   -0.956290
     27          1           0       -5.024130   -2.809049    0.662510
     28          1           0       -1.844369    3.511091   -0.066360
     29          1           0       -2.764149    2.548631    1.127540
     30          1           0       -1.324149    3.486090    1.628630
     31          1           0        2.879101    2.384800   -1.068240
     32          6           0        3.936631    0.602369   -0.435010
     33          1           0        0.624680   -0.410560    1.296780
     34          6           0        2.658240   -0.951310    0.884930
     35          1           0        4.875271    0.889229   -0.916140
     36          6           0        3.870690   -0.610321    0.270260
     37          1           0        2.586830   -1.887300    1.444570
     38          6           0        5.054540   -1.540351    0.322020
     39          6           0        5.073790   -2.517921   -0.863010
     40          1           0        5.984410   -0.950151    0.323890
     41          1           0        5.034980   -2.108511    1.265240
     42          1           0        5.116500   -1.974781   -1.818010
     43          1           0        4.165990   -3.138251   -0.873460
     44          1           0        5.945480   -3.185731   -0.808690
 ---------------------------------------------------------------------

 SCF Done:  E(RHF) =  -791.565558041     A.U. after    2 cycles

 The electronic state is 1-A.
 Alpha  occ. eigenvalues --  -21.03728 -15.69616 -11.53793 -11.50919 -11.49032
 Alpha  occ. eigenvalues --  -11.46241 -11.45845 -11.45255 -11.44415 -11.43588
 Alpha  occ. eigenvalues --  -11.42417 -11.41877 -11.40816 -11.40528 -11.38018
 Alpha  occ. eigenvalues --  -11.37816 -11.37445 -11.36478 -11.35197  -1.69609
 Alpha  occ. eigenvalues --   -1.44851  -1.36186  -1.24042  -1.19670  -1.15998
 Alpha  occ. eigenvalues --   -1.11623  -1.09697  -1.07464  -0.99862  -0.95229
 Alpha  occ. eigenvalues --   -0.91352  -0.90859  -0.87283  -0.86186  -0.82842
 Alpha  occ. eigenvalues --   -0.75931  -0.75506  -0.70503  -0.68706  -0.67060
 Alpha  occ. eigenvalues --   -0.64770  -0.63823  -0.62961  -0.60664  -0.59239
 Alpha  occ. eigenvalues --   -0.58343  -0.57615  -0.56949  -0.56401  -0.55433
 Alpha  occ. eigenvalues --   -0.53664  -0.53008  -0.52572  -0.51060  -0.50431
 Alpha  occ. eigenvalues --   -0.49928  -0.49343  -0.48694  -0.46827  -0.45537
 Alpha  occ. eigenvalues --   -0.45330  -0.44216  -0.43402  -0.42404  -0.41977
 Alpha  occ. eigenvalues --   -0.41744  -0.38736  -0.33646  -0.31137  -0.29372
 Alpha  occ. eigenvalues --   -0.27002
 Alpha virt. eigenvalues --    0.03516   0.03916   0.04348   0.04545   0.05016
 Alpha virt. eigenvalues --    0.05449   0.05505   0.05671   0.05803   0.06078
 Alpha virt. eigenvalues --    0.06142   0.06436   0.06893   0.07126   0.07338

 Mulliken charges:
               1
     1  O   -4.615893
     2  C    6.338342
     3  C   -4.019944
     4  C    2.601666
     5  C   -2.481684
     6  C   -5.824418
     7  H    2.302205
     8  C   -4.853778
     9  C    1.546854
    10  N   -1.206162
    11  H    1.797436
    12  H    2.274708
    13  C   -2.734608
    14  C   -3.683806
    15  H    1.655008
    16  H    1.526921
    17  C   -3.687311
    18  H    2.079336
    19  H    1.505554
    20  C   -2.521152
    21  H    1.385088
    22  H    1.213160
    23  C   -2.807191
    24  H    1.316036
    25  H    1.306591
    26  H    1.282641
    27  H    1.365362
    28  H    1.504303
    29  H    1.433244
    30  H    1.299306
    31  H    1.977934
    32  C   -0.809750
    33  H    2.931870
    34  C   -3.196702
    35  H    1.835194
    36  C    0.723767
    37  H    1.797966
    38  C   -4.770357
    39  C   -4.220304
    40  H    1.180728
    41  H    1.194478
    42  H    1.429647
    43  H    1.462461
    44  H    1.165254
 Sum of Mulliken charges =   0.00000

 Dipole moment (field-independent basis, Debye):
    X=              0.2839    Y=             -2.2248    Z=              0.2485  Tot=              2.2566

 Test job not archived.
 1\1\GINC-SE460\SP\RHF\Aug-CC-pVDZ\C17H25N1O1\OHZDE\08-Apr-2025\0\\#t h
 f aug-cc-pvdz iop(5/13=1,5/36=2,99/5=2) pseudo=read geom=check guess=(
 read,tcheck) scf=(maxcycle=1)\\title\\0,1\O,0,0.60376,3.10193,-0.65442
 \C,0,0.46393,2.04525,-0.04646\C,0,-0.89694,1.65481,0.5286\C,0,1.61666,
 1.09693,0.0914\C,0,-1.58794,0.71276,-0.48884\C,0,-1.76085,2.87625,0.82
 575\H,0,-0.73496,1.0901,1.46099\C,0,2.83226,1.44031,-0.52419\C,0,1.548
 23,-0.11361,0.79924\N,0,-2.84969,0.17717,-0.00047\H,0,-1.80123,1.30696
 ,-1.39213\H,0,-0.88471,-0.09181,-0.80086\C,0,-3.74888,-0.17444,-1.1068

 Normal termination of Gaussian 16 at Tue Apr  8 18:11:20 2025.
