 Gaussian 16, Revision C.01,

 ----------------------------------------------------------------------
 #t hf aug-cc-pvdz symm=none int=(grid=ultrafine) guess=(read,tcheck) s
 table=(opt,rrhf)
 ----------------------------------------------------------------------
 -----
 title
 -----
 Symbolic Z-matrix:
 Charge =  0 Multiplicity = 1

 SCF Done:  E(RHF) =  -1667.17699833     A.U. after   13 cycles
 Normal termination of Gaussian 16 at Tue Apr  8 18:30:50 2025.
 Gaussian 16:  ES64L-G16RevC.01  3-Jul-2019

 ----------------------------------------------------------------------
 #t hf aug-cc-pvdz iop(5/13=1,5/36=2,99/5=2) pseudo=read geom=check gue
 ss=(read,tcheck) scf=(maxcycle=1)
 ----------------------------------------------------------------------
 -----
 title
 -----
 Structure from the checkpoint file:  "37Conf8_N_iprit_6_mol1.chk"
 Charge =  0 Multiplicity = 1

                         Standard orientation:
 ---------------------------------------------------------------------
 Center     Atomic      Atomic             Coordinates (Angstroms)
 Number     Number       Type             X           Y           Z
 ---------------------------------------------------------------------
      1          1           0        1.934860    0.225992    1.632640
      2          6           0        1.705910   -0.447628    0.792780
      3          6           0        2.401010    0.079712   -0.470110
      4          7           0        0.265550   -0.607789    0.708700
      5          1           0        2.152451   -1.426038    1.037750
      6         17           0        4.190710    0.033952   -0.259750
      7          1           0        2.171270   -0.537288   -1.348040
      8          1           0        2.140940    1.122472   -0.685660
      9          6           0       -0.191629   -1.656999   -0.190170
     10          6           0       -0.559910    0.580301    0.872740
     11          6           0       -1.510329   -2.304939    0.215860
     12          1           0       -0.264269   -1.356169   -1.255720
     13          1           0        0.571561   -2.453059   -0.148450
     14          6           0       -0.771990    1.428361   -0.386350
     15          1           0       -1.551950    0.284821    1.245050
     16          1           0       -0.100330    1.204671    1.653490
     17         17           0       -2.971139   -1.424110   -0.384040
     18          1           0       -1.584239   -3.310949   -0.213350
     19          1           0       -1.597709   -2.364779    1.307570
     20         17           0       -1.871041    2.806451   -0.017920
     21          1           0       -1.255340    0.850321   -1.182980
     22          1           0        0.160529    1.864701   -0.762630
 ---------------------------------------------------------------------

 SCF Done:  E(RHF) =  -1669.36964448     A.U. after    2 cycles

 The electronic state is 1-A.
 Alpha  occ. eigenvalues --  -99.88563 -99.88557 -99.87833 -15.72804 -11.48791
 Alpha  occ. eigenvalues --  -11.47878 -11.46426 -11.42331 -11.41674 -11.40911
 Alpha  occ. eigenvalues --  -10.45865 -10.45828 -10.45110  -9.65826  -9.65786
 Alpha  occ. eigenvalues --   -9.65338  -9.65071  -9.65053  -9.65018  -9.64946
 Alpha  occ. eigenvalues --   -9.64307  -9.64248  -1.47405  -1.34103  -1.33441
 Alpha  occ. eigenvalues --   -1.31236  -1.13928  -1.13074  -1.03001  -0.93435
 Alpha  occ. eigenvalues --   -0.92247  -0.82436  -0.71764  -0.70249  -0.68319
 Alpha  occ. eigenvalues --   -0.65500  -0.63619  -0.62468  -0.61094  -0.58805
 Alpha  occ. eigenvalues --   -0.58121  -0.57359  -0.55635  -0.52628  -0.52165
 Alpha  occ. eigenvalues --   -0.50042  -0.49234  -0.48468  -0.47561  -0.46929
 Alpha  occ. eigenvalues --   -0.46555  -0.45524  -0.31940
 Alpha virt. eigenvalues --    0.02835   0.04504   0.05063   0.05346   0.05523
 Alpha virt. eigenvalues --    0.05723   0.06134   0.06572   0.06997   0.07607
 Alpha virt. eigenvalues --    0.08420   0.08982   0.09082   0.09626   0.10012

 Mulliken charges:
               1
     1  H    1.589232
     2  C   -1.482846
     3  C   -4.509228
     4  N   -2.425867
     5  H    1.648175
     6  Cl  -0.037214
     7  H    1.783385
     8  H    1.990562
     9  C   -1.807107
    10  C   -1.677700
    11  C   -4.232619
    12  H    1.865325
    13  H    1.579002
    14  C   -4.149774
    15  H    1.681752
    16  H    1.506192
    17  Cl   0.054243
    18  H    1.329048
    19  H    1.593281
    20  Cl  -0.022256
    21  H    1.737524
    22  H    1.986889
 Sum of Mulliken charges =  -0.00000

 Dipole moment (field-independent basis, Debye):
    X=              0.8092    Y=             -2.9908    Z=              0.3785  Tot=              3.1214

 Test job not archived.
 1\1\GINC-SE365\SP\RHF\Aug-CC-pVDZ\C6H12Cl3N1\OHZDE\08-Apr-2025\0\\#t h
 f aug-cc-pvdz iop(5/13=1,5/36=2,99/5=2) pseudo=read geom=check guess=(
 read,tcheck) scf=(maxcycle=1)\\title\\0,1\H,0,1.93486,0.22599,1.63264\
 C,0,1.70591,-0.44763,0.79278\C,0,2.40101,0.07971,-0.47011\N,0,0.26555,
 -0.60779,0.7087\H,0,2.15245,-1.42604,1.03775\Cl,0,4.19071,0.03395,-0.2
 5975\H,0,2.17127,-0.53729,-1.34804\H,0,2.14094,1.12247,-0.68566\C,0,-0
 .19163,-1.657,-0.19017\C,0,-0.55991,0.5803,0.87274\C,0,-1.51033,-2.304
 94,0.21586\H,0,-0.26427,-1.35617,-1.25572\H,0,0.57156,-2.45306,-0.1484

 Normal termination of Gaussian 16 at Tue Apr  8 18:31:03 2025.
