 Gaussian 16, Revision C.01,

 ----------------------------------------------------------------------
 #t hf aug-cc-pvdz symm=none int=(grid=ultrafine) guess=(read,tcheck) s
 table=(opt,rrhf)
 ----------------------------------------------------------------------
 -----
 title
 -----
 Symbolic Z-matrix:
 Charge =  0 Multiplicity = 1

 SCF Done:  E(RHF) =  -914.168559441     A.U. after   15 cycles
 Normal termination of Gaussian 16 at Tue Apr  8 19:18:43 2025.
 Gaussian 16:  ES64L-G16RevC.01  3-Jul-2019

 ----------------------------------------------------------------------
 #t hf aug-cc-pvdz iop(5/13=1,5/36=2,99/5=2) pseudo=read geom=check gue
 ss=(read,tcheck) scf=(maxcycle=1)
 ----------------------------------------------------------------------
 -----
 title
 -----
 Structure from the checkpoint file:  "37Conf8_shiepox_depox_8_mol1.chk"
 Charge =  0 Multiplicity = 1

                         Standard orientation:
 ---------------------------------------------------------------------
 Center     Atomic      Atomic             Coordinates (Angstroms)
 Number     Number       Type             X           Y           Z
 ---------------------------------------------------------------------
      1          8           0        0.483330    2.401451   -0.451869
      2          6           0        0.088360    1.256061   -0.444729
      3          6           0        1.046440    0.049021   -0.338329
      4          6           0       -1.402230    0.935161   -0.570029
      5          8           0        0.628200   -0.950069   -1.294759
      6          8           0        2.327840    0.448401   -0.674429
      7          6           0        1.175490   -0.522879    1.109731
      8          1           0       -1.901420    1.824481   -0.993509
      9          8           0       -1.924390    0.616181    0.727531
     10          6           0       -1.740320   -0.338689   -1.345439
     11          6           0       -0.697240   -1.429419   -1.075919
     12          6           0        3.262280   -0.088759    0.295961
     13          1           0        1.011250   -1.616039    1.074011
     14          1           0        0.474860   -0.074009    1.825411
     15          8           0        2.495620   -0.192759    1.499121
     16          6           0       -3.159580   -0.089729    0.489421
     17          1           0       -1.844630   -0.154179   -2.424789
     18          8           0       -3.017460   -0.703999   -0.818069
     19          1           0       -0.835810   -2.275469   -1.761899
     20          1           0       -0.825950   -1.804859   -0.045439
     21          6           0        3.771860   -1.451879   -0.165499
     22          6           0        4.360690    0.930601    0.508451
     23          6           0       -3.311530   -1.148479    1.567791
     24          6           0       -4.337560    0.876051    0.438861
     25          1           0        4.301150   -1.347939   -1.121729
     26          1           0        2.938310   -2.150109   -0.314109
     27          1           0        4.462230   -1.866079    0.581731
     28          1           0        4.930150    1.068760   -0.419509
     29          1           0        3.916660    1.887921    0.806181
     30          1           0        5.043860    0.583380    1.294501
     31          1           0       -4.226290   -1.729439    1.392711
     32          1           0       -2.451500   -1.829389    1.558031
     33          1           0       -3.379650   -0.673599    2.555671
     34          1           0       -4.156980    1.663941   -0.303739
     35          1           0       -5.250000    0.336171    0.152541
     36          1           0       -4.491290    1.340451    1.422111
 ---------------------------------------------------------------------

 SCF Done:  E(RHF) =  -918.250842811     A.U. after    2 cycles

 The electronic state is 1-A.
 Alpha  occ. eigenvalues --  -21.07672 -21.07324 -21.06896 -21.06378 -21.05853
 Alpha  occ. eigenvalues --  -21.05755 -11.58739 -11.54637 -11.52912 -11.51384
 Alpha  occ. eigenvalues --  -11.50051 -11.49111 -11.45946 -11.43301 -11.41816
 Alpha  occ. eigenvalues --  -11.40399 -11.37830 -11.36707  -1.90181  -1.86511
 Alpha  occ. eigenvalues --   -1.75969  -1.71673  -1.68283  -1.66985  -1.22425
 Alpha  occ. eigenvalues --   -1.19251  -1.10635  -1.08912  -1.03812  -1.02640
 Alpha  occ. eigenvalues --   -1.01069  -0.92027  -0.88870  -0.81489  -0.81059
 Alpha  occ. eigenvalues --   -0.77320  -0.73744  -0.69789  -0.67852  -0.64874
 Alpha  occ. eigenvalues --   -0.63820  -0.62657  -0.61947  -0.60970  -0.59172
 Alpha  occ. eigenvalues --   -0.58430  -0.57610  -0.57175  -0.56080  -0.54878
 Alpha  occ. eigenvalues --   -0.54350  -0.51868  -0.50919  -0.49669  -0.49446
 Alpha  occ. eigenvalues --   -0.48416  -0.47793  -0.45331  -0.43756  -0.41940
 Alpha  occ. eigenvalues --   -0.40029  -0.38114  -0.37258  -0.34358  -0.33008
 Alpha  occ. eigenvalues --   -0.31746  -0.30906  -0.29952  -0.26496
 Alpha virt. eigenvalues --    0.03404   0.03542   0.03829   0.04478   0.04762
 Alpha virt. eigenvalues --    0.05096   0.05797   0.06005   0.06284   0.06832
 Alpha virt. eigenvalues --    0.07373   0.07614   0.08178   0.08199   0.08911

 Mulliken charges:
               1
     1  O   -4.336820
     2  C    5.101024
     3  C    5.379409
     4  C   -0.392823
     5  O   -4.337670
     6  O   -4.854373
     7  C   -2.899168
     8  H    1.744632
     9  O   -3.887927
    10  C   -0.017779
    11  C   -2.946732
    12  C    7.154846
    13  H    1.691833
    14  H    1.662229
    15  O   -4.520879
    16  C    7.425658
    17  H    2.011273
    18  O   -4.277351
    19  H    1.391422
    20  H    2.027033
    21  C   -4.543987
    22  C   -4.860118
    23  C   -4.848264
    24  C   -4.756541
    25  H    1.247621
    26  H    1.543888
    27  H    1.191070
    28  H    1.249003
    29  H    1.462695
    30  H    1.214209
    31  H    1.271265
    32  H    1.486134
    33  H    1.270480
    34  H    1.455081
    35  H    1.263672
    36  H    1.235954
 Sum of Mulliken charges =   0.00000

 Dipole moment (field-independent basis, Debye):
    X=             -0.6660    Y=             -1.0341    Z=              0.2788  Tot=              1.2612

 Test job not archived.
 1\1\GINC-SE102\SP\RHF\Aug-CC-pVDZ\C12H18O6\OHZDE\08-Apr-2025\0\\#t hf
 aug-cc-pvdz iop(5/13=1,5/36=2,99/5=2) pseudo=read geom=check guess=(re
 ad,tcheck) scf=(maxcycle=1)\\title\\0,1\O,0,0.48333,2.40145,-0.45187\C
 ,0,0.08836,1.25606,-0.44473\C,0,1.04644,0.04902,-0.33833\C,0,-1.40223,
 0.93516,-0.57003\O,0,0.6282,-0.95007,-1.29476\O,0,2.32784,0.4484,-0.67
 443\C,0,1.17549,-0.52288,1.10973\H,0,-1.90142,1.82448,-0.99351\O,0,-1.
 92439,0.61618,0.72753\C,0,-1.74032,-0.33869,-1.34544\C,0,-0.69724,-1.4
 2942,-1.07592\C,0,3.26228,-0.08876,0.29596\H,0,1.01125,-1.61604,1.0740

 Normal termination of Gaussian 16 at Tue Apr  8 19:19:46 2025.
