 Gaussian 16, Revision C.01,

 ----------------------------------------------------------------------
 #t hf aug-cc-pvdz symm=none int=(grid=ultrafine) guess=(read,tcheck) s
 table=(opt,rrhf)
 ----------------------------------------------------------------------
 -----
 title
 -----
 Symbolic Z-matrix:
 Charge =  0 Multiplicity = 1

 SCF Done:  E(RHF) =  -1153.32618191     A.U. after   16 cycles
 Normal termination of Gaussian 16 at Tue Apr  8 18:52:01 2025.
 Gaussian 16:  ES64L-G16RevC.01  3-Jul-2019

 ----------------------------------------------------------------------
 #t hf aug-cc-pvdz iop(5/13=1,5/36=2,99/5=2) pseudo=read geom=check gue
 ss=(read,tcheck) scf=(maxcycle=1)
 ----------------------------------------------------------------------
 -----
 title
 -----
 Structure from the checkpoint file:  "37Conf8_Pyridoxalphosphate_3_mol1.chk"
 Charge =  0 Multiplicity = 1

                         Standard orientation:
 ---------------------------------------------------------------------
 Center     Atomic      Atomic             Coordinates (Angstroms)
 Number     Number       Type             X           Y           Z
 ---------------------------------------------------------------------
      1          1           0       -2.274988    2.356441    0.150862
      2          8           0       -2.928669    1.618101    0.394442
      3          6           0       -2.311809    0.478831    0.063882
      4          6           0       -1.011159    0.465560   -0.500138
      5          6           0       -2.988490   -0.751299    0.292842
      6          6           0       -0.338339    1.738470   -0.715298
      7          6           0       -0.434780   -0.790210   -0.823018
      8          7           0       -2.424490   -1.914419   -0.026908
      9          6           0       -4.357450   -0.746398    0.897232
     10          8           0       -0.853438    2.834160   -0.439398
     11          1           0        0.681341    1.722000   -1.147478
     12          6           0       -1.192070   -1.926959   -0.570148
     13          6           0        0.941520   -0.959771   -1.406168
     14          1           0       -5.059720   -0.171638    0.274162
     15          1           0       -4.714000   -1.776958    0.999322
     16          1           0       -4.350080   -0.257218    1.883272
     17          1           0       -0.787841   -2.913720   -0.816328
     18          8           0        1.944200   -1.264121   -0.387658
     19          1           0        0.954620   -1.843071   -2.057298
     20          1           0        1.274780   -0.096531   -1.995628
     21         15           0        2.758060   -0.175661    0.439832
     22          8           0        3.149121    0.873028   -0.721888
     23          8           0        1.682181    0.699809    1.279462
     24          8           0        3.835420   -0.754452    1.258322
     25          1           0        3.771531    1.547488   -0.395728
     26          1           0        1.629831    0.367499    2.194342
 ---------------------------------------------------------------------

 SCF Done:  E(RHF) =  -1157.05932377     A.U. after    2 cycles

 The electronic state is 1-A.
 Alpha  occ. eigenvalues -- -105.34570 -21.13836 -21.13241 -21.10260 -21.09784
 Alpha  occ. eigenvalues --  -21.09019 -21.03725 -15.76496 -11.54652 -11.53339
 Alpha  occ. eigenvalues --  -11.50983 -11.50477 -11.48263 -11.45959 -11.41768
 Alpha  occ. eigenvalues --  -11.39270  -2.97175  -2.01510  -1.94585  -1.91182
 Alpha  occ. eigenvalues --   -1.79442  -1.76458  -1.72051  -1.47143  -1.43966
 Alpha  occ. eigenvalues --   -1.43042  -1.27746  -1.23729  -1.16105  -1.07433
 Alpha  occ. eigenvalues --   -0.98168  -0.97083  -0.86602  -0.84926  -0.73820
 Alpha  occ. eigenvalues --   -0.71357  -0.68084  -0.66515  -0.63919  -0.63323
 Alpha  occ. eigenvalues --   -0.62324  -0.60936  -0.59486  -0.58765  -0.55134
 Alpha  occ. eigenvalues --   -0.54137  -0.53062  -0.52169  -0.50862  -0.49055
 Alpha  occ. eigenvalues --   -0.46581  -0.45911  -0.45408  -0.43615  -0.39645
 Alpha  occ. eigenvalues --   -0.38270  -0.37756  -0.35961  -0.35822  -0.31184
 Alpha  occ. eigenvalues --   -0.30151  -0.28921  -0.27482  -0.17591
 Alpha virt. eigenvalues --    0.03002   0.04018   0.04910   0.05420   0.05495
 Alpha virt. eigenvalues --    0.05940   0.06701   0.06983   0.07557   0.07672
 Alpha virt. eigenvalues --    0.07781   0.08928   0.09513   0.10132   0.10700

 Mulliken charges:
               1
     1  H    1.213144
     2  O   -4.440275
     3  C    1.947262
     4  C    2.402642
     5  C    2.180308
     6  C   -0.877144
     7  C    6.635125
     8  N   -4.529794
     9  C   -5.347346
    10  O   -3.348199
    11  H    1.644683
    12  C   -1.962440
    13  C   -3.218910
    14  H    1.230856
    15  H    1.243172
    16  H    1.235867
    17  H    1.727484
    18  O   -3.352904
    19  H    1.245136
    20  H    1.684950
    21  P    9.249137
    22  O   -2.737105
    23  O   -2.872769
    24  O   -2.860544
    25  H    0.908580
    26  H    0.999085
 Sum of Mulliken charges =  -0.00000

 Dipole moment (field-independent basis, Debye):
    X=             -1.2708    Y=              2.4102    Z=             -1.3036  Tot=              3.0205

 Test job not archived.
 1\1\GINC-SE461\SP\RHF\Aug-CC-pVDZ\C8H10N1O6P1\OHZDE\08-Apr-2025\0\\#t
 hf aug-cc-pvdz iop(5/13=1,5/36=2,99/5=2) pseudo=read geom=check guess=
 (read,tcheck) scf=(maxcycle=1)\\title\\0,1\H,0,-2.27499,2.35644,0.1508
 6\O,0,-2.92867,1.6181,0.39444\C,0,-2.31181,0.47883,0.06388\C,0,-1.0111
 6,0.46556,-0.50014\C,0,-2.98849,-0.7513,0.29284\C,0,-0.33834,1.73847,-
 0.7153\C,0,-0.43478,-0.79021,-0.82302\N,0,-2.42449,-1.91442,-0.02691\C
 ,0,-4.35745,-0.7464,0.89723\O,0,-0.85344,2.83416,-0.4394\H,0,0.68134,1
 .722,-1.14748\C,0,-1.19207,-1.92696,-0.57015\C,0,0.94152,-0.95977,-1.4

 Normal termination of Gaussian 16 at Tue Apr  8 18:52:31 2025.
