 Gaussian 16, Revision C.01,

 ----------------------------------------------------------------------
 #t hf aug-cc-pvdz symm=none int=(grid=ultrafine) guess=(read,tcheck) s
 table=(opt,rrhf)
 ----------------------------------------------------------------------
 -----
 title
 -----
 Symbolic Z-matrix:
 Charge =  0 Multiplicity = 1

 SCF Done:  E(RHF) =  -1374.23619522     A.U. after   14 cycles
 Normal termination of Gaussian 16 at Tue Apr  8 19:21:23 2025.
 Gaussian 16:  ES64L-G16RevC.01  3-Jul-2019

 ----------------------------------------------------------------------
 #t hf aug-cc-pvdz iop(5/13=1,5/36=2,99/5=2) pseudo=read geom=check gue
 ss=(read,tcheck) scf=(maxcycle=1)
 ----------------------------------------------------------------------
 -----
 title
 -----
 Structure from the checkpoint file:  "37Conf8_VX_8_mol1.chk"
 Charge =  0 Multiplicity = 1

                         Standard orientation:
 ---------------------------------------------------------------------
 Center     Atomic      Atomic             Coordinates (Angstroms)
 Number     Number       Type             X           Y           Z
 ---------------------------------------------------------------------
      1          1           0       -2.625840    0.789790   -1.872510
      2          6           0       -2.966580    1.506390   -1.106310
      3          6           0       -2.381650    2.881300   -1.350270
      4          8           0       -2.528370    1.051890    0.195280
      5          1           0       -4.069270    1.535310   -1.116200
      6          1           0       -2.728480    3.268960   -2.319080
      7          1           0       -1.284030    2.837500   -1.365720
      8          1           0       -2.690920    3.582510   -0.563400
      9         15           0       -2.474980   -0.518590    0.598160
     10          6           0       -4.174670   -1.120270    0.441340
     11         16           0       -1.471230   -1.558900   -0.942150
     12          8           0       -1.850750   -0.667930    1.938470
     13          1           0       -4.539090   -1.016490   -0.590120
     14          1           0       -4.206220   -2.176010    0.735840
     15          1           0       -4.808340   -0.529650    1.117180
     16          6           0        0.242100   -1.313530   -0.320830
     17          6           0        0.804270    0.080630   -0.649110
     18          1           0        0.821270   -2.109760   -0.809310
     19          1           0        0.223940   -1.503980    0.760850
     20          7           0        2.172100    0.321479   -0.213340
     21          1           0        0.758960    0.230550   -1.740240
     22          1           0        0.142260    0.837360   -0.209280
     23          6           0        3.162110   -0.454211   -1.000470
     24          6           0        2.386640    0.434249    1.243450
     25          6           0        4.246990    0.444299   -1.611910
     26          6           0        3.771740   -1.672981   -0.290950
     27          1           0        2.591540   -0.854111   -1.855720
     28          6           0        3.695340    1.171239    1.551870
     29          6           0        1.237580    1.177709    1.930440
     30          1           0        2.452630   -0.571251    1.713870
     31          1           0        4.844870   -0.122701   -2.342280
     32          1           0        3.782740    1.295749   -2.127600
     33          1           0        4.933520    0.842779   -0.854140
     34          1           0        4.384380   -2.245201   -1.002710
     35          1           0        2.996850   -2.345101    0.103830
     36          1           0        4.424480   -1.386631    0.545290
     37          1           0        3.682450    2.171649    1.094240
     38          1           0        4.583000    0.640019    1.188400
     39          1           0        3.804680    1.285379    2.640000
     40          1           0        1.083530    2.164169    1.465710
     41          1           0        0.286910    0.628340    1.920950
     42          1           0        1.503630    1.341099    2.984030
 ---------------------------------------------------------------------

 SCF Done:  E(RHF) =  -1377.82966796     A.U. after    2 cycles

 The electronic state is 1-A.
 Alpha  occ. eigenvalues -- -105.28847 -75.69103 -21.07311 -21.00735 -15.68816
 Alpha  occ. eigenvalues --  -13.16654 -13.12394 -13.07902 -11.46343 -11.45900
 Alpha  occ. eigenvalues --  -11.43853 -11.43108 -11.40189 -11.39244 -11.38837
 Alpha  occ. eigenvalues --  -11.38591 -11.38213 -11.35661 -11.34975  -8.03321
 Alpha  occ. eigenvalues --   -2.89784  -1.92714  -1.84021  -1.58478  -1.49014
 Alpha  occ. eigenvalues --   -1.43335  -1.29714  -1.19542  -1.18950  -1.11434
 Alpha  occ. eigenvalues --   -1.10754  -1.01596  -1.00121  -0.98996  -0.97297
 Alpha  occ. eigenvalues --   -0.88287  -0.86818  -0.85206  -0.75562  -0.67857
 Alpha  occ. eigenvalues --   -0.66689  -0.65893  -0.65111  -0.63584  -0.59680
 Alpha  occ. eigenvalues --   -0.59533  -0.59245  -0.58097  -0.57094  -0.55794
 Alpha  occ. eigenvalues --   -0.54459  -0.54237  -0.53675  -0.53458  -0.52246
 Alpha  occ. eigenvalues --   -0.51956  -0.51488  -0.49589  -0.46496  -0.46125
 Alpha  occ. eigenvalues --   -0.45267  -0.44542  -0.44207  -0.41346  -0.39620
 Alpha  occ. eigenvalues --   -0.37527  -0.34301  -0.32917  -0.29163  -0.25355
 Alpha  occ. eigenvalues --   -0.23865  -0.19348  -0.13760
 Alpha virt. eigenvalues --    0.03499   0.04094   0.04490   0.04865   0.05150
 Alpha virt. eigenvalues --    0.05502   0.05796   0.05935   0.06068   0.06226
 Alpha virt. eigenvalues --    0.06368   0.06649   0.06786   0.07309   0.08167

 Mulliken charges:
               1
     1  H    2.163742
     2  C   -2.525603
     3  C   -3.967016
     4  O   -4.071107
     5  H    1.624018
     6  H    1.168353
     7  H    1.487649
     8  H    1.351717
     9  P   12.234672
    10  C   -7.577708
    11  S   -1.800350
    12  O   -3.343096
    13  H    1.279642
    14  H    1.072084
    15  H    1.058645
    16  C   -5.645483
    17  C    0.032544
    18  H    1.678302
    19  H    2.124079
    20  N   -2.763233
    21  H    1.883570
    22  H    2.681254
    23  C   -0.422402
    24  C   -0.684875
    25  C   -4.658521
    26  C   -5.153802
    27  H    2.374475
    28  C   -4.783540
    29  C   -4.863548
    30  H    2.184404
    31  H    1.109022
    32  H    1.323435
    33  H    1.408294
    34  H    1.046954
    35  H    1.406012
    36  H    1.326354
    37  H    1.316268
    38  H    1.584557
    39  H    1.061178
    40  H    1.374175
    41  H    1.938517
    42  H    0.966368
 Sum of Mulliken charges =   0.00000

 Dipole moment (field-independent basis, Debye):
    X=             -2.1561    Y=              0.7548    Z=             -1.7415  Tot=              2.8725

 Test job not archived.
 1\1\GINC-SE088\SP\RHF\Aug-CC-pVDZ\C11H26N1O2P1S1\OHZDE\08-Apr-2025\0\\
 #t hf aug-cc-pvdz iop(5/13=1,5/36=2,99/5=2) pseudo=read geom=check gue
 ss=(read,tcheck) scf=(maxcycle=1)\\title\\0,1\H,0,-2.62584,0.78979,-1.
 87251\C,0,-2.96658,1.50639,-1.10631\C,0,-2.38165,2.8813,-1.35027\O,0,-
 2.52837,1.05189,0.19528\H,0,-4.06927,1.53531,-1.1162\H,0,-2.72848,3.26
 896,-2.31908\H,0,-1.28403,2.8375,-1.36572\H,0,-2.69092,3.58251,-0.5634
 \P,0,-2.47498,-0.51859,0.59816\C,0,-4.17467,-1.12027,0.44134\S,0,-1.47
 123,-1.5589,-0.94215\O,0,-1.85075,-0.66793,1.93847\H,0,-4.53909,-1.016

 Normal termination of Gaussian 16 at Tue Apr  8 19:22:42 2025.
