 Gaussian 16, Revision C.01,

 ----------------------------------------------------------------------
 #t hf aug-cc-pvdz symm=none int=(grid=ultrafine) guess=(read,tcheck) s
 table=(opt,rrhf)
 ----------------------------------------------------------------------
 -----
 title
 -----
 Symbolic Z-matrix:
 Charge =  0 Multiplicity = 1

 SCF Done:  E(RHF) =  -1009.03981966     A.U. after   15 cycles
 Normal termination of Gaussian 16 at Tue Apr  8 18:13:24 2025.
 Gaussian 16:  ES64L-G16RevC.01  3-Jul-2019

 ----------------------------------------------------------------------
 #t hf aug-cc-pvdz iop(5/13=1,5/36=2,99/5=2) pseudo=read geom=check gue
 ss=(read,tcheck) scf=(maxcycle=1)
 ----------------------------------------------------------------------
 -----
 title
 -----
 Structure from the checkpoint file:  "37Conf8_Gemcitabine_2_mol1.chk"
 Charge =  0 Multiplicity = 1

                         Standard orientation:
 ---------------------------------------------------------------------
 Center     Atomic      Atomic             Coordinates (Angstroms)
 Number     Number       Type             X           Y           Z
 ---------------------------------------------------------------------
      1          1           0       -1.984629    2.635711    0.132699
      2          8           0       -2.944179    2.470351    0.153369
      3          6           0       -3.227769    1.637171   -0.964731
      4          6           0       -2.442659    0.339091   -0.935761
      5          1           0       -3.024339    2.157171   -1.919031
      6          1           0       -4.302209    1.405402   -0.925871
      7          1           0       -2.716799   -0.290079   -1.803131
      8          8           0       -1.036789    0.674151   -1.004621
      9          6           0       -2.634979   -0.521839    0.332569
     10          6           0       -0.327959   -0.430189   -0.436021
     11          1           0       -3.161939    0.040471    1.122689
     12          8           0       -3.311240   -1.706759   -0.040921
     13          6           0       -1.181310   -0.771939    0.800309
     14          1           0       -0.311890   -1.310519   -1.102831
     15          7           0        1.047071   -0.083500   -0.211281
     16          1           0       -3.323100   -2.303919    0.728209
     17          9           0       -0.978880   -2.046819    1.247059
     18          9           0       -0.886219    0.071231    1.853389
     19          6           0        2.066550   -0.971980   -0.767171
     20          6           0        1.388501    1.066610    0.432349
     21          8           0        1.702850   -1.971360   -1.372841
     22          7           0        3.364150   -0.615360   -0.554581
     23          1           0        0.564161    1.687480    0.775799
     24          6           0        2.692081    1.407380    0.615179
     25          6           0        3.670511    0.497669    0.094609
     26          1           0        2.962141    2.331370    1.122169
     27          7           0        4.991411    0.779419    0.238039
     28          1           0        5.657431    0.081879   -0.074271
     29          1           0        5.305701    1.538509    0.826419
 ---------------------------------------------------------------------

 SCF Done:  E(RHF) =  -1013.28405237     A.U. after    2 cycles

 The electronic state is 1-A.
 Alpha  occ. eigenvalues --  -29.30178 -29.29964 -21.10023 -21.08463 -21.08357
 Alpha  occ. eigenvalues --  -21.01625 -15.79490 -15.79217 -15.71661 -11.65252
 Alpha  occ. eigenvalues --  -11.54425 -11.53821 -11.52127 -11.51180 -11.50861
 Alpha  occ. eigenvalues --  -11.48128 -11.42427 -11.41258  -1.83124  -1.73840
 Alpha  occ. eigenvalues --   -1.71784  -1.70668  -1.51812  -1.42860  -1.33054
 Alpha  occ. eigenvalues --   -1.28219  -1.17423  -1.13292  -1.00641  -0.99448
 Alpha  occ. eigenvalues --   -0.93490  -0.89697  -0.86933  -0.83672  -0.77411
 Alpha  occ. eigenvalues --   -0.74500  -0.71624  -0.70636  -0.68932  -0.67884
 Alpha  occ. eigenvalues --   -0.66005  -0.64271  -0.62777  -0.60204  -0.58669
 Alpha  occ. eigenvalues --   -0.57544  -0.56331  -0.55019  -0.52519  -0.50270
 Alpha  occ. eigenvalues --   -0.48803  -0.48203  -0.45658  -0.45122  -0.43597
 Alpha  occ. eigenvalues --   -0.42385  -0.39574  -0.37908  -0.36959  -0.35607
 Alpha  occ. eigenvalues --   -0.34510  -0.33284  -0.31814  -0.30127  -0.29191
 Alpha  occ. eigenvalues --   -0.27988  -0.25434  -0.22940
 Alpha virt. eigenvalues --    0.02943   0.04310   0.04717   0.05300   0.05647
 Alpha virt. eigenvalues --    0.05744   0.05965   0.06405   0.07132   0.08383
 Alpha virt. eigenvalues --    0.08879   0.09507   0.10630   0.11004   0.11599

 Mulliken charges:
               1
     1  H    0.880956
     2  O   -2.584400
     3  C   -1.627977
     4  C   -0.660913
     5  H    1.373306
     6  H    1.471086
     7  H    1.835247
     8  O   -4.028505
     9  C    1.100715
    10  C    1.846341
    11  H    1.776136
    12  O   -3.343877
    13  C    0.800947
    14  H    2.205695
    15  N   -3.099573
    16  H    0.589841
    17  F    0.221830
    18  F   -0.052087
    19  C    6.054329
    20  C   -0.764934
    21  O   -3.459263
    22  N   -3.782457
    23  H    1.757308
    24  C   -1.335608
    25  C    3.577294
    26  H    1.569857
    27  N   -3.854700
    28  H    0.860528
    29  H    0.672879
 Sum of Mulliken charges =  -0.00000

 Dipole moment (field-independent basis, Debye):
    X=              0.7919    Y=              2.7380    Z=              4.1292  Tot=              5.0174

 Test job not archived.
 1\1\GINC-SE127\SP\RHF\Aug-CC-pVDZ\C9H11F2N3O4\OHZDE\08-Apr-2025\0\\#t
 hf aug-cc-pvdz iop(5/13=1,5/36=2,99/5=2) pseudo=read geom=check guess=
 (read,tcheck) scf=(maxcycle=1)\\title\\0,1\H,0,-1.98463,2.63571,0.1327
 \O,0,-2.94418,2.47035,0.15337\C,0,-3.22777,1.63717,-0.96473\C,0,-2.442
 66,0.33909,-0.93576\H,0,-3.02434,2.15717,-1.91903\H,0,-4.30221,1.4054,
 -0.92587\H,0,-2.7168,-0.29008,-1.80313\O,0,-1.03679,0.67415,-1.00462\C
 ,0,-2.63498,-0.52184,0.33257\C,0,-0.32796,-0.43019,-0.43602\H,0,-3.161
 94,0.04047,1.12269\O,0,-3.31124,-1.70676,-0.04092\C,0,-1.18131,-0.7719

 Normal termination of Gaussian 16 at Tue Apr  8 18:14:04 2025.
