 Gaussian 16, Revision C.01,

 ----------------------------------------------------------------------
 #t hf aug-cc-pvdz symm=none int=(grid=ultrafine) guess=(read,tcheck) s
 table=(opt,rrhf)
 ----------------------------------------------------------------------
 -----
 title
 -----
 Symbolic Z-matrix:
 Charge =  0 Multiplicity = 1

 SCF Done:  E(RHF) =  -1112.30158653     A.U. after   15 cycles
 Normal termination of Gaussian 16 at Tue Apr  8 17:45:56 2025.
 Gaussian 16:  ES64L-G16RevC.01  3-Jul-2019

 ----------------------------------------------------------------------
 #t hf aug-cc-pvdz iop(5/13=1,5/36=2,99/5=2) pseudo=read geom=check gue
 ss=(read,tcheck) scf=(maxcycle=1)
 ----------------------------------------------------------------------
 -----
 title
 -----
 Structure from the checkpoint file:  "37Conf8_Cimetidine_4_mol1.chk"
 Charge =  0 Multiplicity = 1

                         Standard orientation:
 ---------------------------------------------------------------------
 Center     Atomic      Atomic             Coordinates (Angstroms)
 Number     Number       Type             X           Y           Z
 ---------------------------------------------------------------------
      1          7           0        4.479409   -1.691954    0.018761
      2          6           0        3.981970   -0.640124   -0.171629
      3          7           0        3.555461    0.569307   -0.455149
      4          6           0        2.353801    1.055758   -0.195359
      5          7           0        1.363621    0.516048    0.555471
      6          7           0        2.094592    2.278198   -0.767889
      7          6           0        1.438660   -0.775752    1.220601
      8          1           0        0.415771    0.927599    0.506351
      9          6           0        1.115022    3.222388   -0.261509
     10          1           0        2.930392    2.658697   -1.200819
     11          6           0        1.118589   -1.981132    0.325401
     12          1           0        2.447720   -0.907413    1.632161
     13          1           0        0.732160   -0.747611    2.062451
     14         16           0       -0.637621   -2.381880    0.065571
     15          1           0        1.629099   -1.893192   -0.643179
     16          1           0        1.518278   -2.890022    0.799961
     17          6           0       -1.239100   -1.021320   -1.028199
     18          6           0       -2.063410   -0.004149   -0.321439
     19          1           0       -1.828111   -1.507270   -1.817479
     20          1           0       -0.362330   -0.563661   -1.505239
     21          7           0       -1.493939    1.034240    0.398561
     22          6           0       -3.442310    0.047821   -0.209579
     23          6           0       -2.494929    1.705651    0.938781
     24          7           0       -3.690299    1.145612    0.598021
     25          6           0       -4.526640   -0.819368   -0.742929
     26          1           0       -2.411118    2.588501    1.565891
     27          1           0       -4.607169    1.473872    0.882181
     28          1           0       -4.103551   -1.584138   -1.405519
     29          1           0       -5.266710   -0.246877   -1.323979
     30          1           0       -5.064081   -1.345257    0.062251
     31          1           0        1.182833    4.139598   -0.858549
     32          1           0        0.094332    2.828709   -0.364969
     33          1           0        1.282593    3.479758    0.800061
 ---------------------------------------------------------------------

 SCF Done:  E(RHF) =  -1115.89492476     A.U. after    2 cycles

 The electronic state is 1-A.
 Alpha  occ. eigenvalues --  -75.67147 -15.82186 -15.76267 -15.75607 -15.74279
 Alpha  occ. eigenvalues --  -15.71828 -15.69607 -13.14504 -13.10340 -13.04417
 Alpha  occ. eigenvalues --  -11.52286 -11.49868 -11.45976 -11.45593 -11.45160
 Alpha  occ. eigenvalues --  -11.44017 -11.43177 -11.41292 -11.39578 -11.38940
 Alpha  occ. eigenvalues --   -8.01172  -1.58722  -1.53290  -1.36128  -1.34377
 Alpha  occ. eigenvalues --   -1.30365  -1.23877  -1.20929  -1.16844  -1.09450
 Alpha  occ. eigenvalues --   -1.03160  -1.01347  -0.96161  -0.87753  -0.87337
 Alpha  occ. eigenvalues --   -0.83021  -0.77498  -0.74476  -0.73182  -0.72577
 Alpha  occ. eigenvalues --   -0.65024  -0.64627  -0.64539  -0.62595  -0.60026
 Alpha  occ. eigenvalues --   -0.59528  -0.58867  -0.57548  -0.56263  -0.55410
 Alpha  occ. eigenvalues --   -0.54617  -0.54206  -0.52910  -0.52850  -0.52349
 Alpha  occ. eigenvalues --   -0.49807  -0.46317  -0.45570  -0.44004  -0.41081
 Alpha  occ. eigenvalues --   -0.39041  -0.36705  -0.33928  -0.32306  -0.30179
 Alpha  occ. eigenvalues --   -0.28576  -0.21781
 Alpha virt. eigenvalues --    0.02014   0.03191   0.03672   0.04460   0.04929
 Alpha virt. eigenvalues --    0.05196   0.05538   0.05587   0.06348   0.06440
 Alpha virt. eigenvalues --    0.07320   0.07718   0.08040   0.09034   0.09430

 Mulliken charges:
               1
     1  N   -2.979592
     2  C    3.945247
     3  N   -2.845131
     4  C    4.238221
     5  N   -2.335406
     6  N   -2.818581
     7  C   -2.061336
     8  H    1.782645
     9  C   -4.601451
    10  H    0.650436
    11  C   -4.522429
    12  H    1.493684
    13  H    1.889469
    14  S    0.875617
    15  H    1.897239
    16  H    1.425867
    17  C   -3.812645
    18  C    4.152457
    19  H    1.195216
    20  H    1.569620
    21  N   -4.285147
    22  C    3.123321
    23  C    1.347085
    24  N   -4.273643
    25  C   -5.836921
    26  H    1.823898
    27  H    0.902102
    28  H    1.136619
    29  H    1.151549
    30  H    1.173022
    31  H    1.312305
    32  H    1.853439
    33  H    1.433224
 Sum of Mulliken charges =  -0.00000

 Dipole moment (field-independent basis, Debye):
    X=            -11.3232    Y=              4.7791    Z=              1.2607  Tot=             12.3549

 Test job not archived.
 1\1\GINC-SE225\SP\RHF\Aug-CC-pVDZ\C10H16N6S1\OHZDE\08-Apr-2025\0\\#t h
 f aug-cc-pvdz iop(5/13=1,5/36=2,99/5=2) pseudo=read geom=check guess=(
 read,tcheck) scf=(maxcycle=1)\\title\\0,1\N,0,4.47941,-1.69195,0.01876
 \C,0,3.98197,-0.64012,-0.17163\N,0,3.55546,0.56931,-0.45515\C,0,2.3538
 ,1.05576,-0.19536\N,0,1.36362,0.51605,0.55547\N,0,2.09459,2.2782,-0.76
 789\C,0,1.43866,-0.77575,1.2206\H,0,0.41577,0.9276,0.50635\C,0,1.11502
 ,3.22239,-0.26151\H,0,2.93039,2.6587,-1.20082\C,0,1.11859,-1.98113,0.3
 254\H,0,2.44772,-0.90741,1.63216\H,0,0.73216,-0.74761,2.06245\S,0,-0.6

 Normal termination of Gaussian 16 at Tue Apr  8 17:46:46 2025.
