 Gaussian 16, Revision C.01,

 ----------------------------------------------------------------------
 #t hf aug-cc-pvdz symm=none int=(grid=ultrafine) guess=(read,tcheck) s
 table=(opt,rrhf)
 ----------------------------------------------------------------------
 -----
 title
 -----
 Symbolic Z-matrix:
 Charge =  0 Multiplicity = 1

 SCF Done:  E(RHF) =  -1112.29847153     A.U. after   16 cycles
 Normal termination of Gaussian 16 at Tue Apr  8 17:47:46 2025.
 Gaussian 16:  ES64L-G16RevC.01  3-Jul-2019

 ----------------------------------------------------------------------
 #t hf aug-cc-pvdz iop(5/13=1,5/36=2,99/5=2) pseudo=read geom=check gue
 ss=(read,tcheck) scf=(maxcycle=1)
 ----------------------------------------------------------------------
 -----
 title
 -----
 Structure from the checkpoint file:  "37Conf8_Cimetidine_8_mol1.chk"
 Charge =  0 Multiplicity = 1

                         Standard orientation:
 ---------------------------------------------------------------------
 Center     Atomic      Atomic             Coordinates (Angstroms)
 Number     Number       Type             X           Y           Z
 ---------------------------------------------------------------------
      1          7           0        5.770249   -0.796023   -1.027450
      2          6           0        5.038030    0.078217   -0.732890
      3          7           0        4.241310    1.088498   -0.435340
      4          6           0        3.034110    0.801689    0.034540
      5          7           0        2.520629   -0.468231    0.042710
      6          7           0        2.286321    1.835409    0.503120
      7          6           0        1.723479   -1.042141    1.121380
      8          1           0        3.172599   -1.129292   -0.385330
      9          6           0        0.832291    1.931290    0.423990
     10          1           0        2.809771    2.705599    0.474250
     11          6           0        0.741268   -2.093570    0.605810
     12          1           0        1.192559   -0.238410    1.644750
     13          1           0        2.388959   -1.517541    1.867080
     14         16           0       -0.614961   -1.435810   -0.414780
     15          1           0        1.267428   -2.822451   -0.029240
     16          1           0        0.315828   -2.656270    1.451080
     17          6           0       -1.715551   -0.790989    0.913290
     18          6           0       -2.723020    0.138222    0.335690
     19          1           0       -2.187981   -1.644009    1.422090
     20          1           0       -1.105311   -0.239419    1.641160
     21          7           0       -2.519550    1.507912    0.336020
     22          6           0       -3.919891   -0.177058   -0.285320
     23          6           0       -3.574239    2.023172   -0.264450
     24          7           0       -4.447990    1.045123   -0.658040
     25          6           0       -4.590801   -1.475717   -0.562860
     26          1           0       -3.761739    3.079422   -0.436890
     27          1           0       -5.331200    1.184683   -1.137430
     28          1           0       -4.741461   -1.637327   -1.641920
     29          1           0       -3.967712   -2.301028   -0.196540
     30          1           0       -5.574501   -1.549117   -0.071860
     31          1           0        0.424670    1.085410   -0.143440
     32          1           0        0.547351    2.853240   -0.100600
     33          1           0        0.359281    1.951970    1.417120
 ---------------------------------------------------------------------

 SCF Done:  E(RHF) =  -1115.88903844     A.U. after    2 cycles

 The electronic state is 1-A.
 Alpha  occ. eigenvalues --  -75.68293 -15.81010 -15.77193 -15.77049 -15.73078
 Alpha  occ. eigenvalues --  -15.72612 -15.71004 -13.16060 -13.11555 -13.09997
 Alpha  occ. eigenvalues --  -11.52271 -11.49055 -11.48362 -11.45316 -11.43969
 Alpha  occ. eigenvalues --  -11.43384 -11.42665 -11.41566 -11.41142 -11.39139
 Alpha  occ. eigenvalues --   -8.02331  -1.57457  -1.54537  -1.37065  -1.35525
 Alpha  occ. eigenvalues --   -1.29485  -1.24518  -1.21728  -1.16437  -1.09794
 Alpha  occ. eigenvalues --   -1.02930  -1.01245  -0.96368  -0.88079  -0.85540
 Alpha  occ. eigenvalues --   -0.85243  -0.76976  -0.76242  -0.72605  -0.69263
 Alpha  occ. eigenvalues --   -0.65638  -0.64465  -0.64050  -0.63355  -0.61805
 Alpha  occ. eigenvalues --   -0.60278  -0.58528  -0.57103  -0.56510  -0.55608
 Alpha  occ. eigenvalues --   -0.55352  -0.54593  -0.53340  -0.52557  -0.51897
 Alpha  occ. eigenvalues --   -0.50210  -0.47204  -0.45955  -0.44143  -0.39516
 Alpha  occ. eigenvalues --   -0.38953  -0.36997  -0.35359  -0.34058  -0.29693
 Alpha  occ. eigenvalues --   -0.29490  -0.23620
 Alpha virt. eigenvalues --    0.02331   0.03617   0.03883   0.04442   0.04677
 Alpha virt. eigenvalues --    0.04859   0.05171   0.05739   0.06154   0.06487
 Alpha virt. eigenvalues --    0.07131   0.07759   0.08214   0.08466   0.09039

 Mulliken charges:
               1
     1  N   -2.753919
     2  C    3.352941
     3  N   -3.038727
     4  C    4.528343
     5  N   -1.411498
     6  N   -2.902762
     7  C   -3.429827
     8  H    0.604412
     9  C   -3.851458
    10  H    0.606779
    11  C   -4.250408
    12  H    2.541932
    13  H    1.234166
    14  S    0.566814
    15  H    1.659750
    16  H    1.374246
    17  C   -3.652776
    18  C    4.080326
    19  H    1.185247
    20  H    1.620100
    21  N   -4.121663
    22  C    3.195137
    23  C    1.356121
    24  N   -3.885350
    25  C   -5.793621
    26  H    1.757698
    27  H    0.870920
    28  H    1.171269
    29  H    1.135049
    30  H    1.154529
    31  H    2.221765
    32  H    1.257395
    33  H    1.617069
 Sum of Mulliken charges =  -0.00000

 Dipole moment (field-independent basis, Debye):
    X=            -11.3367    Y=              0.9312    Z=              0.4958  Tot=             11.3856

 Test job not archived.
 1\1\GINC-SE362\SP\RHF\Aug-CC-pVDZ\C10H16N6S1\OHZDE\08-Apr-2025\0\\#t h
 f aug-cc-pvdz iop(5/13=1,5/36=2,99/5=2) pseudo=read geom=check guess=(
 read,tcheck) scf=(maxcycle=1)\\title\\0,1\N,0,5.77025,-0.79602,-1.0274
 5\C,0,5.03803,0.07822,-0.73289\N,0,4.24131,1.0885,-0.43534\C,0,3.03411
 ,0.80169,0.03454\N,0,2.52063,-0.46823,0.04271\N,0,2.28632,1.83541,0.50
 312\C,0,1.72348,-1.04214,1.12138\H,0,3.1726,-1.12929,-0.38533\C,0,0.83
 229,1.93129,0.42399\H,0,2.80977,2.7056,0.47425\C,0,0.74127,-2.09357,0.
 60581\H,0,1.19256,-0.23841,1.64475\H,0,2.38896,-1.51754,1.86708\S,0,-0

 Normal termination of Gaussian 16 at Tue Apr  8 17:48:25 2025.
