 Gaussian 16, Revision C.01,

 ----------------------------------------------------------------------
 #t hf aug-cc-pvdz symm=none int=(grid=ultrafine) guess=(read,tcheck) s
 table=(opt,rrhf)
 ----------------------------------------------------------------------
 -----
 title
 -----
 Symbolic Z-matrix:
 Charge =  0 Multiplicity = 1

 SCF Done:  E(RHF) =  -983.487013546     A.U. after   14 cycles
 Normal termination of Gaussian 16 at Tue Apr  8 19:24:31 2025.
 Gaussian 16:  ES64L-G16RevC.01  3-Jul-2019

 ----------------------------------------------------------------------
 #t hf aug-cc-pvdz iop(5/13=1,5/36=2,99/5=2) pseudo=read geom=check gue
 ss=(read,tcheck) scf=(maxcycle=1)
 ----------------------------------------------------------------------
 -----
 title
 -----
 Structure from the checkpoint file:  "37Conf8_Tsogoeva_8_mol1.chk"
 Charge =  0 Multiplicity = 1

                         Standard orientation:
 ---------------------------------------------------------------------
 Center     Atomic      Atomic             Coordinates (Angstroms)
 Number     Number       Type             X           Y           Z
 ---------------------------------------------------------------------
      1          1           0        6.588191   -1.998161   -0.014951
      2          8           0        5.681471   -1.980231   -0.387961
      3          6           0        5.194981   -0.729371   -0.134761
      4          6           0        3.736171   -0.618421   -0.569551
      5          8           0        5.844091    0.121849    0.440089
      6          1           0        3.589341   -1.231781   -1.470251
      7          7           0        2.864101   -1.124201    0.520969
      8          6           0        3.292221    0.851369   -0.744521
      9          1           0        3.269641   -1.921831    1.012709
     10          6           0        2.579571    0.031609    1.384379
     11          1           0        4.145662    1.515709   -0.557801
     12          1           0        2.905332    1.051679   -1.750361
     13          6           0        2.202892    1.077679    0.330539
     14          1           0        3.451601    0.381729    1.969309
     15          1           0        1.753381   -0.193601    2.072679
     16          1           0        2.193892    2.105139    0.713209
     17          7           0        0.866991    0.813940   -0.179251
     18          6           0       -0.144498    1.730980   -0.134841
     19          1           0        0.649031   -0.155230   -0.396741
     20          6           0       -1.529018    1.212270   -0.549731
     21          8           0        0.007062    2.894500    0.233109
     22          1           0       -2.007288    2.061870   -1.061271
     23          7           0       -1.588379    0.012520   -1.400831
     24          6           0       -2.334839    0.800060    0.719069
     25          1           0       -0.808189   -0.087850   -2.047341
     26          6           0       -1.880969   -1.155470   -0.565581
     27          1           0       -3.102558    1.534050    0.986309
     28          1           0       -1.659589    0.696170    1.580799
     29          6           0       -2.943529   -0.574410    0.369669
     30          1           0       -2.262699   -1.989130   -1.171771
     31          1           0       -1.025809   -1.531030    0.036469
     32          1           0       -3.131969   -1.182010    1.263229
     33          7           0       -4.210539   -0.459550   -0.330721
     34          6           0       -5.412699   -0.721300    0.267309
     35          1           0       -4.176529   -0.132450   -1.291831
     36          6           0       -6.631049   -0.526870   -0.617281
     37          8           0       -5.508159   -1.090770    1.436899
     38          1           0       -6.389939   -0.226150   -1.645991
     39          1           0       -7.201699   -1.464760   -0.640301
     40          1           0       -7.276179    0.237140   -0.162601
 ---------------------------------------------------------------------

 SCF Done:  E(RHF) =  -987.959665059     A.U. after    2 cycles

 The electronic state is 1-A.
 Alpha  occ. eigenvalues --  -21.13709 -21.07064 -21.02018 -21.01395 -15.75976
 Alpha  occ. eigenvalues --  -15.75715 -15.74576 -15.73618 -11.56402 -11.54046
 Alpha  occ. eigenvalues --  -11.53253 -11.50849 -11.50137 -11.47051 -11.46318
 Alpha  occ. eigenvalues --  -11.44215 -11.42934 -11.38934 -11.38925 -11.38562
 Alpha  occ. eigenvalues --   -1.83570  -1.70122  -1.69042  -1.66657  -1.48785
 Alpha  occ. eigenvalues --   -1.46948  -1.37006  -1.34735  -1.14628  -1.14439
 Alpha  occ. eigenvalues --   -1.11991  -1.09438  -1.05779  -0.93106  -0.91617
 Alpha  occ. eigenvalues --   -0.87011  -0.85784  -0.81040  -0.80119  -0.78694
 Alpha  occ. eigenvalues --   -0.74337  -0.72166  -0.69379  -0.68361  -0.64831
 Alpha  occ. eigenvalues --   -0.64597  -0.64246  -0.62179  -0.61682  -0.60309
 Alpha  occ. eigenvalues --   -0.59228  -0.58103  -0.57309  -0.54377  -0.53997
 Alpha  occ. eigenvalues --   -0.51931  -0.51536  -0.50961  -0.49681  -0.49531
 Alpha  occ. eigenvalues --   -0.48861  -0.48605  -0.47466  -0.46865  -0.46508
 Alpha  occ. eigenvalues --   -0.45557  -0.44911  -0.42345  -0.37691  -0.36009
 Alpha  occ. eigenvalues --   -0.35518  -0.30823  -0.29923  -0.29695  -0.28082
 Alpha  occ. eigenvalues --   -0.27079
 Alpha virt. eigenvalues --    0.03319   0.03622   0.04048   0.04130   0.04734
 Alpha virt. eigenvalues --    0.05443   0.05548   0.05905   0.06367   0.06545
 Alpha virt. eigenvalues --    0.06672   0.06945   0.07205   0.07386   0.08097

 Mulliken charges:
               1
     1  H    0.842636
     2  O   -3.150193
     3  C    6.394169
     4  C   -2.238692
     5  O   -3.123302
     6  H    1.849955
     7  N   -1.679708
     8  C   -3.728791
     9  H    0.802418
    10  C   -4.250699
    11  H    1.489273
    12  H    1.557350
    13  C    1.192139
    14  H    1.608034
    15  H    1.544225
    16  H    2.060083
    17  N   -3.672257
    18  C    7.163629
    19  H    1.066417
    20  C   -2.395270
    21  O   -3.900028
    22  H    1.509746
    23  N   -1.884193
    24  C   -3.097640
    25  H    0.862847
    26  C   -4.125176
    27  H    1.561822
    28  H    1.548380
    29  C    0.090445
    30  H    1.403675
    31  H    1.731812
    32  H    2.045118
    33  N   -3.102728
    34  C    5.610021
    35  H    0.879238
    36  C   -5.053926
    37  O   -3.422537
    38  H    1.501699
    39  H    1.265649
    40  H    1.244362
 Sum of Mulliken charges =   0.00000

 Dipole moment (field-independent basis, Debye):
    X=              2.1880    Y=             -2.4960    Z=             -1.9645  Tot=              3.8570

 Test job not archived.
 1\1\GINC-SE232\SP\RHF\Aug-CC-pVDZ\C12H20N4O4\OHZDE\08-Apr-2025\0\\#t h
 f aug-cc-pvdz iop(5/13=1,5/36=2,99/5=2) pseudo=read geom=check guess=(
 read,tcheck) scf=(maxcycle=1)\\title\\0,1\H,0,6.58819,-1.99816,-0.0149
 5\O,0,5.68147,-1.98023,-0.38796\C,0,5.19498,-0.72937,-0.13476\C,0,3.73
 617,-0.61842,-0.56955\O,0,5.84409,0.12185,0.44009\H,0,3.58934,-1.23178
 ,-1.47025\N,0,2.8641,-1.1242,0.52097\C,0,3.29222,0.85137,-0.74452\H,0,
 3.26964,-1.92183,1.01271\C,0,2.57957,0.03161,1.38438\H,0,4.14566,1.515
 71,-0.5578\H,0,2.90533,1.05168,-1.75036\C,0,2.20289,1.07768,0.33054\H,

 Normal termination of Gaussian 16 at Tue Apr  8 19:25:45 2025.
