 Gaussian 16, Revision C.01,

 ----------------------------------------------------------------------
 #t hf aug-cc-pvdz symm=none int=(grid=ultrafine) guess=(read,tcheck) s
 table=(opt,rrhf)
 ----------------------------------------------------------------------
 -----
 title
 -----
 Symbolic Z-matrix:
 Charge =  0 Multiplicity = 1

 SCF Done:  E(RHF) =  -1112.30013951     A.U. after   16 cycles
 Normal termination of Gaussian 16 at Tue Apr  8 17:53:35 2025.
 Gaussian 16:  ES64L-G16RevC.01  3-Jul-2019

 ----------------------------------------------------------------------
 #t hf aug-cc-pvdz iop(5/13=1,5/36=2,99/5=2) pseudo=read geom=check gue
 ss=(read,tcheck) scf=(maxcycle=1)
 ----------------------------------------------------------------------
 -----
 title
 -----
 Structure from the checkpoint file:  "37Conf8_Cimetidine_6_mol1.chk"
 Charge =  0 Multiplicity = 1

                         Standard orientation:
 ---------------------------------------------------------------------
 Center     Atomic      Atomic             Coordinates (Angstroms)
 Number     Number       Type             X           Y           Z
 ---------------------------------------------------------------------
      1          7           0       -0.340216    2.945079   -1.067090
      2          6           0       -1.071334    2.123628   -0.643040
      3          7           0       -1.905043    1.322807   -0.021840
      4          6           0       -2.220091    0.104166   -0.408640
      5          7           0       -1.639990   -0.616623   -1.414250
      6          7           0       -3.288160   -0.496426    0.198530
      7          6           0       -0.210590   -0.642221   -1.706390
      8          1           0       -2.146228   -1.461544   -1.670050
      9          6           0       -4.052581    0.192333    1.225690
     10          1           0       -3.216268   -1.504896    0.294130
     11          6           0        0.430933   -1.971460   -1.295940
     12          1           0       -0.053900   -0.483140   -2.786290
     13          1           0        0.268729    0.192500   -1.186160
     14         16           0        0.290653   -2.366720    0.479240
     15          1           0       -0.046256   -2.806550   -1.833500
     16          1           0        1.495393   -1.958568   -1.571130
     17          6           0        1.892192   -1.673047    1.115560
     18          6           0        2.197770   -0.321447    0.589380
     19          1           0        2.692813   -2.373566    0.846200
     20          1           0        1.766032   -1.684827    2.206850
     21          7           0        2.944610   -0.169585   -0.569540
     22          6           0        1.709858    0.903753    1.016940
     23          6           0        2.899627    1.122205   -0.847060
     24          7           0        2.183316    1.811373    0.090690
     25          6           0        0.860397    1.287371    2.176340
     26          1           0        3.363397    1.609525   -1.699830
     27          1           0        1.802815    2.748523   -0.037950
     28          1           0       -0.119003    1.675490    1.857800
     29          1           0        1.344446    2.056742    2.797790
     30          1           0        0.676409    0.409531    2.808790
     31          1           0       -4.345303    1.182602    0.858530
     32          1           0       -4.955560   -0.393069    1.439580
     33          1           0       -3.476681    0.330694    2.154850
 ---------------------------------------------------------------------

 SCF Done:  E(RHF) =  -1115.89898328     A.U. after    2 cycles

 The electronic state is 1-A.
 Alpha  occ. eigenvalues --  -75.67513 -15.78276 -15.78154 -15.78060 -15.74074
 Alpha  occ. eigenvalues --  -15.72122 -15.71201 -13.14906 -13.11079 -13.06948
 Alpha  occ. eigenvalues --  -11.53962 -11.47526 -11.46500 -11.45958 -11.44063
 Alpha  occ. eigenvalues --  -11.42086 -11.41399 -11.41145 -11.40361 -11.37295
 Alpha  occ. eigenvalues --   -8.01531  -1.55657  -1.54907  -1.37947  -1.36667
 Alpha  occ. eigenvalues --   -1.27621  -1.23752  -1.22009  -1.15305  -1.09628
 Alpha  occ. eigenvalues --   -1.03106  -0.99272  -0.94305  -0.89427  -0.86598
 Alpha  occ. eigenvalues --   -0.83026  -0.76522  -0.74955  -0.70404  -0.69779
 Alpha  occ. eigenvalues --   -0.66508  -0.64959  -0.63362  -0.62521  -0.61302
 Alpha  occ. eigenvalues --   -0.60360  -0.57059  -0.56196  -0.55990  -0.55135
 Alpha  occ. eigenvalues --   -0.54033  -0.53108  -0.52551  -0.52074  -0.50711
 Alpha  occ. eigenvalues --   -0.49964  -0.48599  -0.46285  -0.44456  -0.38678
 Alpha  occ. eigenvalues --   -0.37211  -0.36026  -0.35310  -0.34483  -0.31286
 Alpha  occ. eigenvalues --   -0.27799  -0.22568
 Alpha virt. eigenvalues --    0.03130   0.03702   0.04257   0.04916   0.05211
 Alpha virt. eigenvalues --    0.05645   0.05880   0.06257   0.06373   0.06995
 Alpha virt. eigenvalues --    0.07415   0.07607   0.08427   0.08852   0.09389

 Mulliken charges:
               1
     1  N   -2.931316
     2  C    2.766938
     3  N   -2.985256
     4  C    6.660666
     5  N   -2.189841
     6  N   -3.541880
     7  C   -3.220396
     8  H    0.742923
     9  C   -3.925458
    10  H    0.714038
    11  C   -4.323811
    12  H    1.396110
    13  H    3.418778
    14  S    0.533710
    15  H    1.526912
    16  H    1.593658
    17  C   -4.370217
    18  C    4.952559
    19  H    1.228722
    20  H    1.236702
    21  N   -3.975053
    22  C    2.965976
    23  C    0.042545
    24  N   -3.886915
    25  C   -5.631119
    26  H    1.908882
    27  H    1.028581
    28  H    1.398004
    29  H    1.187738
    30  H    1.279897
    31  H    1.508013
    32  H    1.392937
    33  H    1.496973
 Sum of Mulliken charges =  -0.00000

 Dipole moment (field-independent basis, Debye):
    X=             -3.8042    Y=             -3.7959    Z=              1.6755  Tot=              5.6292

 Test job not archived.
 1\1\GINC-SE365\SP\RHF\Aug-CC-pVDZ\C10H16N6S1\OHZDE\08-Apr-2025\0\\#t h
 f aug-cc-pvdz iop(5/13=1,5/36=2,99/5=2) pseudo=read geom=check guess=(
 read,tcheck) scf=(maxcycle=1)\\title\\0,1\N,0,-0.34021,2.94508,-1.0670
 9\C,0,-1.07133,2.12363,-0.64304\N,0,-1.90504,1.32281,-0.02184\C,0,-2.2
 2009,0.10417,-0.40864\N,0,-1.63999,-0.61662,-1.41425\N,0,-3.28816,-0.4
 9642,0.19853\C,0,-0.21059,-0.64222,-1.70639\H,0,-2.14623,-1.46154,-1.6
 7005\C,0,-4.05258,0.19234,1.22569\H,0,-3.21627,-1.50489,0.29413\C,0,0.
 43093,-1.97146,-1.29594\H,0,-0.0539,-0.48314,-2.78629\H,0,0.26873,0.19

 Normal termination of Gaussian 16 at Tue Apr  8 17:54:21 2025.
