 Gaussian 16, Revision C.01,

 ----------------------------------------------------------------------
 #t hf aug-cc-pvdz symm=none int=(grid=ultrafine) guess=(read,tcheck) s
 table=(opt,rrhf)
 ----------------------------------------------------------------------
 -----
 title
 -----
 Symbolic Z-matrix:
 Charge =  0 Multiplicity = 1

 SCF Done:  E(RHF) =  -798.303537579     A.U. after   14 cycles

 1\1\GINC-SE041\Stability\RHF\Aug-CC-pVDZ\C9H14O6\OHZDE\08-Apr-2025\0\\
 #t hf aug-cc-pvdz symm=none int=(grid=ultrafine) guess=(read,tcheck) s
 table=(opt,rrhf)\\title\\0,1\H,0,-3.19293,2.72349,0.96449\C,0,-2.65325
 ,2.96704,0.03714\C,0,-1.88474,1.75231,-0.4089\H,0,-3.3776,3.24502,-0.7
 3472\H,0,-1.97876,3.80371,0.25772\O,0,-0.76265,1.59882,0.35815\O,0,-2.
 2087,1.00229,-1.30558\C,0,0.04805,0.42303,0.10867\C,0,1.49002,0.89492,
 0.21839\C,0,-0.29244,-0.64673,1.13584\H,0,-0.16257,0.04895,-0.90301\O,
 0,2.32608,-0.22744,-0.12574\H,0,1.67364,1.72921,-0.4735\H,0,1.72846,1.

 Normal termination of Gaussian 16 at Tue Apr  8 19:02:33 2025.
 Gaussian 16:  ES64L-G16RevC.01  3-Jul-2019

 ----------------------------------------------------------------------
 #t hf aug-cc-pvdz iop(5/13=1,5/36=2,99/5=2) pseudo=read geom=check gue
 ss=(read,tcheck) scf=(maxcycle=1)
 ----------------------------------------------------------------------
 -----
 title
 -----
 Structure from the checkpoint file:  "37Conf8_Triacetin_2_mol1.chk"
 Charge =  0 Multiplicity = 1

                         Standard orientation:
 ---------------------------------------------------------------------
 Center     Atomic      Atomic             Coordinates (Angstroms)
 Number     Number       Type             X           Y           Z
 ---------------------------------------------------------------------
      1          1           0       -3.192930    2.723491    0.964491
      2          6           0       -2.653250    2.967040    0.037141
      3          6           0       -1.884741    1.752310   -0.408899
      4          1           0       -3.377600    3.245021   -0.734719
      5          1           0       -1.978760    3.803710    0.257721
      6          8           0       -0.762651    1.598820    0.358151
      7          8           0       -2.208701    1.002290   -1.305579
      8          6           0        0.048049    0.423030    0.108671
      9          6           0        1.490019    0.894920    0.218391
     10          6           0       -0.292441   -0.646730    1.135841
     11          1           0       -0.162571    0.048950   -0.903009
     12          8           0        2.326079   -0.227440   -0.125739
     13          1           0        1.673639    1.729210   -0.473499
     14          1           0        1.728459    1.241500    1.236331
     15          8           0       -1.673031   -1.042120    1.026431
     16          1           0        0.365819   -1.514120    0.990841
     17          1           0       -0.183801   -0.247760    2.153731
     18          6           0        3.667519    0.030760   -0.119929
     19          6           0       -1.941581   -1.964810    0.048791
     20          6           0        4.445129   -1.209160   -0.470639
     21          8           0        4.132859    1.118410    0.147651
     22          6           0       -3.424131   -2.145539   -0.109779
     23          8           0       -1.080851   -2.520020   -0.600579
     24          1           0        4.013799   -1.702260   -1.351339
     25          1           0        5.491409   -0.944180   -0.650369
     26          1           0        4.389309   -1.923460    0.363881
     27          1           0       -3.794321   -1.321219   -0.738599
     28          1           0       -3.628351   -3.096609   -0.611759
     29          1           0       -3.941181   -2.092729    0.856111
 ---------------------------------------------------------------------

 SCF Done:  E(RHF) =  -801.789050557     A.U. after    2 cycles

 The electronic state is 1-A.
 Alpha  occ. eigenvalues --  -21.09773 -21.09718 -21.09029 -21.05748 -21.05658
 Alpha  occ. eigenvalues --  -21.04845 -11.54119 -11.53279 -11.52588 -11.50805
 Alpha  occ. eigenvalues --  -11.48911 -11.41586 -11.40474 -11.40089 -11.39240
 Alpha  occ. eigenvalues --   -1.86993  -1.83206  -1.82353  -1.67238  -1.66516
 Alpha  occ. eigenvalues --   -1.65839  -1.19125  -1.11898  -1.11435  -1.08089
 Alpha  occ. eigenvalues --   -0.99612  -0.88665  -0.79494  -0.76113  -0.75353
 Alpha  occ. eigenvalues --   -0.69453  -0.67620  -0.66756  -0.64811  -0.63030
 Alpha  occ. eigenvalues --   -0.61517  -0.61283  -0.60529  -0.59947  -0.59155
 Alpha  occ. eigenvalues --   -0.56542  -0.54938  -0.53652  -0.52791  -0.51381
 Alpha  occ. eigenvalues --   -0.49330  -0.48334  -0.47486  -0.46204  -0.42992
 Alpha  occ. eigenvalues --   -0.42009  -0.41136  -0.34500  -0.33086  -0.31462
 Alpha  occ. eigenvalues --   -0.30502  -0.30101  -0.29101
 Alpha virt. eigenvalues --    0.03307   0.04370   0.04661   0.04859   0.04979
 Alpha virt. eigenvalues --    0.05266   0.05990   0.06612   0.06932   0.07284
 Alpha virt. eigenvalues --    0.07643   0.08026   0.08656   0.09107   0.09638

 Mulliken charges:
               1
     1  H    1.296915
     2  C   -4.869460
     3  C    5.793260
     4  H    1.247842
     5  H    1.397077
     6  O   -4.081685
     7  O   -3.265399
     8  C    1.388194
     9  C   -2.831746
    10  C   -1.445124
    11  H    2.337438
    12  O   -3.305624
    13  H    1.643026
    14  H    1.667840
    15  O   -3.436240
    16  H    1.857544
    17  H    1.345347
    18  C    5.252514
    19  C    6.036549
    20  C   -4.688108
    21  O   -3.058730
    22  C   -4.836057
    23  O   -3.264421
    24  H    1.367228
    25  H    1.224923
    26  H    1.289876
    27  H    1.255513
    28  H    1.245907
    29  H    1.435600
 Sum of Mulliken charges =  -0.00000

 Dipole moment (field-independent basis, Debye):
    X=             -0.7328    Y=              0.3480    Z=              1.1654  Tot=              1.4200

 Test job not archived.
 1\1\GINC-SE041\SP\RHF\Aug-CC-pVDZ\C9H14O6\OHZDE\08-Apr-2025\0\\#t hf a
 ug-cc-pvdz iop(5/13=1,5/36=2,99/5=2) pseudo=read geom=check guess=(rea
 d,tcheck) scf=(maxcycle=1)\\title\\0,1\H,0,-3.19293,2.72349,0.96449\C,
 0,-2.65325,2.96704,0.03714\C,0,-1.88474,1.75231,-0.4089\H,0,-3.3776,3.
 24502,-0.73472\H,0,-1.97876,3.80371,0.25772\O,0,-0.76265,1.59882,0.358
 15\O,0,-2.2087,1.00229,-1.30558\C,0,0.04805,0.42303,0.10867\C,0,1.4900
 2,0.89492,0.21839\C,0,-0.29244,-0.64673,1.13584\H,0,-0.16257,0.04895,-
 0.90301\O,0,2.32608,-0.22744,-0.12574\H,0,1.67364,1.72921,-0.4735\H,0,

 Normal termination of Gaussian 16 at Tue Apr  8 19:03:04 2025.
