 Gaussian 16, Revision C.01,

 ----------------------------------------------------------------------
 #t hf aug-cc-pvdz symm=none int=(grid=ultrafine) guess=(read,tcheck) s
 table=(opt,rrhf)
 ----------------------------------------------------------------------
 -----
 title
 -----
 Symbolic Z-matrix:
 Charge =  0 Multiplicity = 1

 SCF Done:  E(RHF) =  -891.125014454     A.U. after   14 cycles
 Normal termination of Gaussian 16 at Tue Apr  8 18:16:23 2025.
 Gaussian 16:  ES64L-G16RevC.01  3-Jul-2019

 ----------------------------------------------------------------------
 #t hf aug-cc-pvdz iop(5/13=1,5/36=2,99/5=2) pseudo=read geom=check gue
 ss=(read,tcheck) scf=(maxcycle=1)
 ----------------------------------------------------------------------
 -----
 title
 -----
 Structure from the checkpoint file:  "37Conf8_Glufosinate_7_mol1.chk"
 Charge =  0 Multiplicity = 1

                         Standard orientation:
 ---------------------------------------------------------------------
 Center     Atomic      Atomic             Coordinates (Angstroms)
 Number     Number       Type             X           Y           Z
 ---------------------------------------------------------------------
      1          1           0        3.943041    1.919238   -0.022800
      2          8           0        3.214361    1.491509   -0.520400
      3          6           0        2.982670    0.299369    0.096880
      4          6           0        1.817250   -0.457020   -0.539800
      5          8           0        3.620480   -0.082521    1.057020
      6          6           0        0.498120    0.174870   -0.039200
      7          7           0        1.834659   -1.884210   -0.252390
      8          1           0        1.875910   -0.312190   -1.630570
      9          6           0       -0.715540   -0.414289   -0.757080
     10          1           0        0.547870    1.264470   -0.181690
     11          1           0        0.419720   -0.009910    1.044830
     12         15           0       -2.336230   -0.002978   -0.041700
     13          1           0       -0.746670   -0.102779   -1.814040
     14          1           0       -0.651901   -1.514149   -0.749330
     15          6           0       -2.425869    1.799972    0.089420
     16          8           0       -2.196200   -0.419318    1.537000
     17          8           0       -3.477111   -0.655627   -0.742010
     18          1           0       -2.350669    2.239882   -0.913940
     19          1           0       -3.399189    2.062883    0.523400
     20          1           0       -1.624979    2.195942    0.727670
     21          1           0       -2.690311   -1.247298    1.680730
     22          1           0        2.592748   -2.336771   -0.766400
     23          1           0        2.053259   -2.014921    0.740190
 ---------------------------------------------------------------------

 SCF Done:  E(RHF) =  -893.793865961     A.U. after    2 cycles

 The electronic state is 1-A.
 Alpha  occ. eigenvalues -- -105.26650 -21.13711 -21.09943 -21.06993 -21.00106
 Alpha  occ. eigenvalues --  -15.74730 -11.54612 -11.47961 -11.43618 -11.39032
 Alpha  occ. eigenvalues --  -11.38585  -2.88028  -1.90804  -1.83560  -1.81159
 Alpha  occ. eigenvalues --   -1.66598  -1.58549  -1.46266  -1.37169  -1.27171
 Alpha  occ. eigenvalues --   -1.16081  -1.02272  -1.00087  -0.88172  -0.79904
 Alpha  occ. eigenvalues --   -0.71007  -0.67243  -0.65888  -0.62878  -0.61958
 Alpha  occ. eigenvalues --   -0.59285  -0.59042  -0.58071  -0.55269  -0.55029
 Alpha  occ. eigenvalues --   -0.51865  -0.50251  -0.48763  -0.47160  -0.41103
 Alpha  occ. eigenvalues --   -0.38074  -0.35326  -0.33184  -0.32714  -0.30904
 Alpha  occ. eigenvalues --   -0.26458  -0.21149  -0.13738
 Alpha virt. eigenvalues --    0.03437   0.04569   0.04856   0.04889   0.05748
 Alpha virt. eigenvalues --    0.06168   0.06673   0.07080   0.07487   0.08067
 Alpha virt. eigenvalues --    0.08794   0.09631   0.10120   0.11176   0.11745

 Mulliken charges:
               1
     1  H    0.849363
     2  O   -3.222617
     3  C    7.055696
     4  C   -1.687035
     5  O   -3.342599
     6  C   -3.327412
     7  N   -2.681662
     8  H    1.683293
     9  C   -5.076190
    10  H    1.640201
    11  H    1.576604
    12  P   11.290655
    13  H    1.168966
    14  H    1.266848
    15  C   -6.491996
    16  O   -2.988634
    17  O   -3.122299
    18  H    1.142270
    19  H    1.039059
    20  H    1.274991
    21  H    0.803505
    22  H    0.576287
    23  H    0.572706
 Sum of Mulliken charges =  -0.00000

 Dipole moment (field-independent basis, Debye):
    X=              2.9822    Y=              1.6080    Z=              0.8064  Tot=              3.4828

 Test job not archived.
 1\1\GINC-SE023\SP\RHF\Aug-CC-pVDZ\C5H12N1O4P1\OHZDE\08-Apr-2025\0\\#t
 hf aug-cc-pvdz iop(5/13=1,5/36=2,99/5=2) pseudo=read geom=check guess=
 (read,tcheck) scf=(maxcycle=1)\\title\\0,1\H,0,3.94304,1.91924,-0.0228
 \O,0,3.21436,1.49151,-0.5204\C,0,2.98267,0.29937,0.09688\C,0,1.81725,-
 0.45702,-0.5398\O,0,3.62048,-0.08252,1.05702\C,0,0.49812,0.17487,-0.03
 92\N,0,1.83466,-1.88421,-0.25239\H,0,1.87591,-0.31219,-1.63057\C,0,-0.
 71554,-0.41429,-0.75708\H,0,0.54787,1.26447,-0.18169\H,0,0.41972,-0.00
 991,1.04483\P,0,-2.33623,-0.00298,-0.0417\H,0,-0.74667,-0.10278,-1.814

 Normal termination of Gaussian 16 at Tue Apr  8 18:16:38 2025.
