 Gaussian 16, Revision C.01,

 ----------------------------------------------------------------------
 #t hf aug-cc-pvdz symm=none int=(grid=ultrafine) guess=(read,tcheck) s
 table=(opt,rrhf)
 ----------------------------------------------------------------------
 -----
 title
 -----
 Symbolic Z-matrix:
 Charge =  0 Multiplicity = 1

 SCF Done:  E(RHF) =  -1374.24256064     A.U. after   14 cycles
 Normal termination of Gaussian 16 at Tue Apr  8 19:19:11 2025.
 Gaussian 16:  ES64L-G16RevC.01  3-Jul-2019

 ----------------------------------------------------------------------
 #t hf aug-cc-pvdz iop(5/13=1,5/36=2,99/5=2) pseudo=read geom=check gue
 ss=(read,tcheck) scf=(maxcycle=1)
 ----------------------------------------------------------------------
 -----
 title
 -----
 Structure from the checkpoint file:  "37Conf8_VX_5_mol1.chk"
 Charge =  0 Multiplicity = 1

                         Standard orientation:
 ---------------------------------------------------------------------
 Center     Atomic      Atomic             Coordinates (Angstroms)
 Number     Number       Type             X           Y           Z
 ---------------------------------------------------------------------
      1          1           0        3.513259   -0.484811    1.588110
      2          6           0        3.905850    0.432349    1.117770
      3          6           0        4.002560    1.561279    2.121830
      4          8           0        3.010450    0.842669    0.058330
      5          1           0        4.892009    0.207948    0.677280
      6          1           0        4.362730    2.481359    1.641990
      7          1           0        3.021000    1.764619    2.571120
      8          1           0        4.703370    1.289178    2.924350
      9         15           0        2.252519   -0.221191   -0.902260
     10          6           0        3.549609   -1.231741   -1.660610
     11         16           0        1.277649   -1.600101    0.358960
     12          8           0        1.373260    0.513249   -1.848850
     13          1           0        3.080089   -1.968831   -2.323320
     14          1           0        4.191769   -0.565901   -2.253420
     15          1           0        4.152749   -1.750271   -0.903160
     16          6           0       -0.157431   -0.538300    0.823350
     17          6           0       -1.292101   -0.606370   -0.201910
     18          1           0        0.193740    0.492180    0.961630
     19          1           0       -0.487951   -0.914020    1.800780
     20          7           0       -2.436341    0.192570    0.241970
     21          1           0       -0.911771   -0.263900   -1.176090
     22          1           0       -1.573761   -1.661880   -0.340300
     23          6           0       -2.647830    1.399751   -0.583260
     24          6           0       -3.640061   -0.608119    0.536250
     25          6           0       -1.412510    2.304030   -0.525390
     26          6           0       -3.873450    2.198031   -0.135490
     27          1           0       -2.799970    1.112171   -1.649310
     28          6           0       -4.257911   -1.296419   -0.692460
     29          6           0       -3.369481   -1.611019    1.659420
     30          1           0       -4.382241    0.100091    0.931140
     31          1           0       -1.578380    3.195100   -1.148040
     32          1           0       -0.504280    1.813240   -0.899930
     33          1           0       -1.238260    2.634070    0.510680
     34          1           0       -3.899810    3.151241   -0.681240
     35          1           0       -4.823060    1.682571   -0.332690
     36          1           0       -3.813700    2.423951    0.940580
     37          1           0       -4.487661   -0.568789   -1.484200
     38          1           0       -3.578981   -2.051879   -1.116010
     39          1           0       -5.193951   -1.806789   -0.421550
     40          1           0       -2.663401   -2.397639    1.353160
     41          1           0       -4.304551   -2.110239    1.951510
     42          1           0       -2.957911   -1.099459    2.540790
 ---------------------------------------------------------------------

 SCF Done:  E(RHF) =  -1377.83387718     A.U. after    2 cycles

 The electronic state is 1-A.
 Alpha  occ. eigenvalues -- -105.28720 -75.68773 -21.07214 -21.00475 -15.68488
 Alpha  occ. eigenvalues --  -13.17134 -13.11774 -13.07353 -11.46625 -11.45651
 Alpha  occ. eigenvalues --  -11.43638 -11.41706 -11.40073 -11.38964 -11.38737
 Alpha  occ. eigenvalues --  -11.38200 -11.38082 -11.35276 -11.34475  -8.03015
 Alpha  occ. eigenvalues --   -2.89677  -1.92406  -1.84035  -1.58322  -1.48821
 Alpha  occ. eigenvalues --   -1.43428  -1.29572  -1.19395  -1.18885  -1.11344
 Alpha  occ. eigenvalues --   -1.09775  -1.01561  -0.99928  -0.98988  -0.97372
 Alpha  occ. eigenvalues --   -0.88177  -0.86271  -0.84220  -0.75895  -0.68406
 Alpha  occ. eigenvalues --   -0.67302  -0.65686  -0.63971  -0.62066  -0.60320
 Alpha  occ. eigenvalues --   -0.59638  -0.59151  -0.58986  -0.56031  -0.55376
 Alpha  occ. eigenvalues --   -0.54618  -0.54026  -0.53538  -0.52403  -0.52067
 Alpha  occ. eigenvalues --   -0.51707  -0.50336  -0.49229  -0.47020  -0.46045
 Alpha  occ. eigenvalues --   -0.45538  -0.44780  -0.44495  -0.40766  -0.38647
 Alpha  occ. eigenvalues --   -0.37347  -0.34180  -0.32958  -0.28655  -0.25764
 Alpha  occ. eigenvalues --   -0.23706  -0.19394  -0.13682
 Alpha virt. eigenvalues --    0.03523   0.04006   0.04775   0.04902   0.05308
 Alpha virt. eigenvalues --    0.05510   0.05691   0.05894   0.06126   0.06187
 Alpha virt. eigenvalues --    0.06372   0.06652   0.06844   0.07213   0.07923

 Mulliken charges:
               1
     1  H    2.084559
     2  C   -2.544894
     3  C   -3.737087
     4  O   -3.890777
     5  H    1.676526
     6  H    1.303298
     7  H    1.337967
     8  H    1.126187
     9  P   11.899030
    10  C   -7.514384
    11  S   -1.797366
    12  O   -3.324341
    13  H    1.131484
    14  H    1.058892
    15  H    1.306023
    16  C   -5.076280
    17  C   -3.197840
    18  H    2.061405
    19  H    1.839833
    20  N   -2.204036
    21  H    2.664402
    22  H    2.055190
    23  C   -0.809351
    24  C    0.149336
    25  C   -4.301211
    26  C   -4.493820
    27  H    2.123745
    28  C   -4.439562
    29  C   -4.978821
    30  H    2.445069
    31  H    0.955093
    32  H    2.001458
    33  H    1.331253
    34  H    1.152592
    35  H    1.263424
    36  H    1.378331
    37  H    1.619000
    38  H    1.443329
    39  H    1.088195
    40  H    1.296927
    41  H    1.044774
    42  H    1.472446
 Sum of Mulliken charges =  -0.00000

 Dipole moment (field-independent basis, Debye):
    X=              2.2048    Y=             -0.4607    Z=              0.9556  Tot=              2.4468

 Test job not archived.
 1\1\GINC-SE045\SP\RHF\Aug-CC-pVDZ\C11H26N1O2P1S1\OHZDE\08-Apr-2025\0\\
 #t hf aug-cc-pvdz iop(5/13=1,5/36=2,99/5=2) pseudo=read geom=check gue
 ss=(read,tcheck) scf=(maxcycle=1)\\title\\0,1\H,0,3.51326,-0.48481,1.5
 8811\C,0,3.90585,0.43235,1.11777\C,0,4.00256,1.56128,2.12183\O,0,3.010
 45,0.84267,0.05833\H,0,4.89201,0.20795,0.67728\H,0,4.36273,2.48136,1.6
 4199\H,0,3.021,1.76462,2.57112\H,0,4.70337,1.28918,2.92435\P,0,2.25252
 ,-0.22119,-0.90226\C,0,3.54961,-1.23174,-1.66061\S,0,1.27765,-1.6001,0
 .35896\O,0,1.37326,0.51325,-1.84885\H,0,3.08009,-1.96883,-2.32332\H,0,

 Normal termination of Gaussian 16 at Tue Apr  8 19:20:27 2025.
