 Gaussian 16, Revision C.01,

 ----------------------------------------------------------------------
 #t hf aug-cc-pvdz symm=none int=(grid=ultrafine) guess=(read,tcheck) s
 table=(opt,rrhf)
 ----------------------------------------------------------------------
 -----
 title
 -----
 Symbolic Z-matrix:
 Charge =  0 Multiplicity = 1

 SCF Done:  E(RHF) =  -891.119136367     A.U. after   14 cycles
 Normal termination of Gaussian 16 at Tue Apr  8 18:13:10 2025.
 Gaussian 16:  ES64L-G16RevC.01  3-Jul-2019

 ----------------------------------------------------------------------
 #t hf aug-cc-pvdz iop(5/13=1,5/36=2,99/5=2) pseudo=read geom=check gue
 ss=(read,tcheck) scf=(maxcycle=1)
 ----------------------------------------------------------------------
 -----
 title
 -----
 Structure from the checkpoint file:  "37Conf8_Glufosinate_5_mol1.chk"
 Charge =  0 Multiplicity = 1

                         Standard orientation:
 ---------------------------------------------------------------------
 Center     Atomic      Atomic             Coordinates (Angstroms)
 Number     Number       Type             X           Y           Z
 ---------------------------------------------------------------------
      1          1           0        3.610031    0.526922   -0.621670
      2          8           0        3.623122   -0.459998   -0.427120
      3          6           0        2.367372   -0.696328   -0.010720
      4          6           0        1.463151    0.551811   -0.085000
      5          8           0        1.988342   -1.791938    0.354750
      6          6           0        0.490751    0.646291    1.104570
      7          7           0        2.315210    1.740722   -0.270100
      8          1           0        0.857291    0.430861   -0.999560
      9          6           0       -0.640238   -0.393480    1.067110
     10          1           0        0.069951    1.665941    1.108070
     11          1           0        1.053351    0.532231    2.046070
     12         15           0       -1.881319   -0.061430   -0.224900
     13          1           0       -0.209028   -1.388090    0.878350
     14          1           0       -1.165468   -0.442980    2.033670
     15          6           0       -3.079399    1.106339    0.463100
     16          8           0       -2.802748   -1.405771   -0.275180
     17          8           0       -1.285059    0.345750   -1.533740
     18          1           0       -3.825179    1.331069   -0.310170
     19          1           0       -2.564040    2.035709    0.739690
     20          1           0       -3.578889    0.685659    1.345370
     21          1           0       -2.412918   -2.056351   -0.888050
     22          1           0        1.864170    2.426931   -0.874930
     23          1           0        2.514960    2.196362    0.623320
 ---------------------------------------------------------------------

 SCF Done:  E(RHF) =  -893.792942094     A.U. after    2 cycles

 The electronic state is 1-A.
 Alpha  occ. eigenvalues -- -105.27212 -21.10740 -21.09581 -21.03759 -21.00943
 Alpha  occ. eigenvalues --  -15.76895 -11.52641 -11.48008 -11.43347 -11.39876
 Alpha  occ. eigenvalues --  -11.39090  -2.88803  -1.91951  -1.81688  -1.80548
 Alpha  occ. eigenvalues --   -1.64105  -1.59641  -1.47427  -1.37647  -1.28030
 Alpha  occ. eigenvalues --   -1.16621  -1.02301  -1.00005  -0.88952  -0.76773
 Alpha  occ. eigenvalues --   -0.72903  -0.68221  -0.65852  -0.64756  -0.61332
 Alpha  occ. eigenvalues --   -0.59994  -0.59168  -0.56900  -0.55664  -0.54355
 Alpha  occ. eigenvalues --   -0.52888  -0.49255  -0.47907  -0.43887  -0.41752
 Alpha  occ. eigenvalues --   -0.38479  -0.34015  -0.33699  -0.32018  -0.28007
 Alpha  occ. eigenvalues --   -0.27196  -0.21971  -0.15116
 Alpha virt. eigenvalues --    0.03140   0.03969   0.04746   0.05059   0.05567
 Alpha virt. eigenvalues --    0.06079   0.06242   0.07205   0.07433   0.08369
 Alpha virt. eigenvalues --    0.08951   0.09599   0.11174   0.11528   0.12153

 Mulliken charges:
               1
     1  H    1.126699
     2  O   -3.211637
     3  C    6.210091
     4  C   -1.028727
     5  O   -3.271146
     6  C   -2.755469
     7  N   -2.805463
     8  H    1.990953
     9  C   -5.533705
    10  H    1.353282
    11  H    1.231009
    12  P   11.450247
    13  H    1.387214
    14  H    1.257143
    15  C   -6.434247
    16  O   -2.993293
    17  O   -3.158864
    18  H    1.012533
    19  H    1.116610
    20  H    1.151049
    21  H    0.799690
    22  H    0.497280
    23  H    0.608751
 Sum of Mulliken charges =  -0.00000

 Dipole moment (field-independent basis, Debye):
    X=             -2.2902    Y=              1.9471    Z=              2.3321  Tot=              3.8046

 Test job not archived.
 1\1\GINC-SE335\SP\RHF\Aug-CC-pVDZ\C5H12N1O4P1\OHZDE\08-Apr-2025\0\\#t
 hf aug-cc-pvdz iop(5/13=1,5/36=2,99/5=2) pseudo=read geom=check guess=
 (read,tcheck) scf=(maxcycle=1)\\title\\0,1\H,0,-3.61003,-0.52692,-0.62
 167\O,0,-3.62312,0.46,-0.42712\C,0,-2.36737,0.69633,-0.01072\C,0,-1.46
 315,-0.55181,-0.085\O,0,-1.98834,1.79194,0.35475\C,0,-0.49075,-0.64629
 ,1.10457\N,0,-2.31521,-1.74072,-0.2701\H,0,-0.85729,-0.43086,-0.99956\
 C,0,0.64024,0.39348,1.06711\H,0,-0.06995,-1.66594,1.10807\H,0,-1.05335
 ,-0.53223,2.04607\P,0,1.88132,0.06143,-0.2249\H,0,0.20903,1.38809,0.87

 Normal termination of Gaussian 16 at Tue Apr  8 18:13:25 2025.
