 Gaussian 16, Revision C.01,

 ----------------------------------------------------------------------
 #t hf aug-cc-pvdz symm=none int=(grid=ultrafine) guess=(read,tcheck) s
 table=(opt,rrhf)
 ----------------------------------------------------------------------
 -----
 title
 -----
 Symbolic Z-matrix:
 Charge =  0 Multiplicity = 1

 SCF Done:  E(RHF) =  -822.384312210     A.U. after   17 cycles
 Normal termination of Gaussian 16 at Tue Apr  8 19:01:57 2025.
 Gaussian 16:  ES64L-G16RevC.01  3-Jul-2019

 ----------------------------------------------------------------------
 #t hf aug-cc-pvdz iop(5/13=1,5/36=2,99/5=2) pseudo=read geom=check gue
 ss=(read,tcheck) scf=(maxcycle=1)
 ----------------------------------------------------------------------
 -----
 title
 -----
 Structure from the checkpoint file:  "37Conf8_Propranolol_3_mol1.chk"
 Charge =  0 Multiplicity = 1

                         Standard orientation:
 ---------------------------------------------------------------------
 Center     Atomic      Atomic             Coordinates (Angstroms)
 Number     Number       Type             X           Y           Z
 ---------------------------------------------------------------------
      1          1           0        0.685880   -1.998890   -0.715621
      2          8           0        1.645560   -1.942679   -0.553661
      3          6           0        1.809920   -1.100069    0.593419
      4          6           0        3.279140   -0.701439    0.663069
      5          6           0        0.890490    0.107840    0.500129
      6          1           0        1.555260   -1.664249    1.512579
      7          7           0        3.648770    0.078641   -0.513251
      8          1           0        3.866680   -1.633509    0.793639
      9          1           0        3.432070   -0.094859    1.569739
     10          6           0        5.053810    0.509991   -0.601491
     11          1           0        3.413700   -0.480159   -1.337201
     12          6           0        6.080400   -0.633868   -0.579831
     13          6           0        5.365339    1.554082    0.471609
     14          1           0        5.131870    1.011231   -1.581731
     15          1           0        5.848920   -1.387158   -1.347681
     16          1           0        7.093120   -0.251008   -0.775291
     17          1           0        6.102460   -1.139048    0.397369
     18          1           0        6.360379    1.990452    0.305949
     19          1           0        4.620639    2.361711    0.451769
     20          1           0        5.368670    1.110472    1.478929
     21          8           0       -0.443170   -0.414170    0.411839
     22          1           0        1.134810    0.699750   -0.395141
     23          1           0        0.991660    0.745610    1.396059
     24          6           0       -1.467600    0.464040    0.197109
     25          6           0       -1.307581    1.836060    0.106449
     26          6           0       -2.763870   -0.130780    0.071489
     27          1           0       -0.323011    2.289270    0.207189
     28          6           0       -2.432391    2.663730   -0.120651
     29          6           0       -2.967270   -1.529711    0.170109
     30          6           0       -3.889070    0.726899   -0.160811
     31          1           0       -2.283101    3.742560   -0.190351
     32          6           0       -3.693981    2.130829   -0.254161
     33          1           0       -2.109740   -2.175230    0.358349
     34          6           0       -4.231720   -2.068301    0.039669
     35          6           0       -5.173150    0.136589   -0.289981
     36          1           0       -4.557511    2.774559   -0.430761
     37          1           0       -4.374389   -3.147291    0.118549
     38          6           0       -5.344010   -1.228641   -0.193721
     39          1           0       -6.029970    0.790389   -0.467721
     40          1           0       -6.339640   -1.663801   -0.295711
 ---------------------------------------------------------------------

 SCF Done:  E(RHF) =  -826.287048742     A.U. after    2 cycles

 The electronic state is 1-A.
 Alpha  occ. eigenvalues --  -21.07816 -21.06353 -15.70609 -11.54196 -11.50810
 Alpha  occ. eigenvalues --  -11.50017 -11.47386 -11.46170 -11.44656 -11.43565
 Alpha  occ. eigenvalues --  -11.42634 -11.41958 -11.41860 -11.41566 -11.39615
 Alpha  occ. eigenvalues --  -11.39026 -11.38769 -11.36877 -11.35243  -1.80560
 Alpha  occ. eigenvalues --   -1.70212  -1.39087  -1.37694  -1.23075  -1.17548
 Alpha  occ. eigenvalues --   -1.13455  -1.08788  -1.07872  -1.03255  -1.00155
 Alpha  occ. eigenvalues --   -0.97163  -0.88910  -0.88060  -0.84625  -0.81821
 Alpha  occ. eigenvalues --   -0.79652  -0.72690  -0.71053  -0.68684  -0.67551
 Alpha  occ. eigenvalues --   -0.66704  -0.64339  -0.63514  -0.61090  -0.59860
 Alpha  occ. eigenvalues --   -0.58852  -0.57933  -0.56256  -0.55355  -0.54445
 Alpha  occ. eigenvalues --   -0.54179  -0.53443  -0.53085  -0.51262  -0.49750
 Alpha  occ. eigenvalues --   -0.48929  -0.46648  -0.46075  -0.44839  -0.44277
 Alpha  occ. eigenvalues --   -0.43787  -0.42237  -0.41693  -0.39934  -0.39333
 Alpha  occ. eigenvalues --   -0.33522  -0.32080  -0.31742  -0.31546  -0.24652
 Alpha virt. eigenvalues --    0.03484   0.04337   0.04601   0.04838   0.05247
 Alpha virt. eigenvalues --    0.05515   0.05628   0.05912   0.05982   0.06380
 Alpha virt. eigenvalues --    0.06413   0.06792   0.07143   0.07374   0.07741

 Mulliken charges:
               1
     1  H    1.044905
     2  O   -3.442394
     3  C    0.169226
     4  C   -2.455023
     5  C   -2.342376
     6  H    1.789105
     7  N   -2.603588
     8  H    1.564815
     9  H    1.905802
    10  C   -1.307530
    11  H    0.636068
    12  C   -3.630330
    13  C   -3.983421
    14  H    2.014742
    15  H    1.271969
    16  H    1.077052
    17  H    1.441773
    18  H    1.127661
    19  H    1.414328
    20  H    1.415760
    21  O   -5.470248
    22  H    2.138727
    23  H    1.953593
    24  C    6.217456
    25  C   -5.336067
    26  C    4.952281
    27  H    1.897778
    28  C   -3.269507
    29  C   -1.189880
    30  C    5.250619
    31  H    1.425437
    32  C   -3.525771
    33  H    2.119796
    34  C   -3.679279
    35  C   -3.061956
    36  H    1.717905
    37  H    1.483686
    38  C   -3.832452
    39  H    1.653418
    40  H    1.445918
 Sum of Mulliken charges =   0.00000

 Dipole moment (field-independent basis, Debye):
    X=              1.0504    Y=             -0.3970    Z=             -0.0246  Tot=              1.1232

 Test job not archived.
 1\1\GINC-SE424\SP\RHF\Aug-CC-pVDZ\C16H21N1O2\OHZDE\08-Apr-2025\0\\#t h
 f aug-cc-pvdz iop(5/13=1,5/36=2,99/5=2) pseudo=read geom=check guess=(
 read,tcheck) scf=(maxcycle=1)\\title\\0,1\H,0,0.68588,-1.99889,-0.7156
 2\O,0,1.64556,-1.94268,-0.55366\C,0,1.80992,-1.10007,0.59342\C,0,3.279
 14,-0.70144,0.66307\C,0,0.89049,0.10784,0.50013\H,0,1.55526,-1.66425,1
 .51258\N,0,3.64877,0.07864,-0.51325\H,0,3.86668,-1.63351,0.79364\H,0,3
 .43207,-0.09486,1.56974\C,0,5.05381,0.50999,-0.60149\H,0,3.4137,-0.480
 16,-1.3372\C,0,6.0804,-0.63387,-0.57983\C,0,5.36534,1.55408,0.47161\H,

 Normal termination of Gaussian 16 at Tue Apr  8 19:03:05 2025.
