 Gaussian 16, Revision C.01,

 ----------------------------------------------------------------------
 #t hf aug-cc-pvdz symm=none int=(grid=ultrafine) guess=(read,tcheck) s
 table=(opt,rrhf)
 ----------------------------------------------------------------------
 -----
 title
 -----
 Symbolic Z-matrix:
 Charge =  0 Multiplicity = 1

 SCF Done:  E(RHF) =  -1009.02785647     A.U. after   15 cycles
 Normal termination of Gaussian 16 at Tue Apr  8 18:13:49 2025.
 Gaussian 16:  ES64L-G16RevC.01  3-Jul-2019

 ----------------------------------------------------------------------
 #t hf aug-cc-pvdz iop(5/13=1,5/36=2,99/5=2) pseudo=read geom=check gue
 ss=(read,tcheck) scf=(maxcycle=1)
 ----------------------------------------------------------------------
 -----
 title
 -----
 Structure from the checkpoint file:  "37Conf8_Gemcitabine_6_mol1.chk"
 Charge =  0 Multiplicity = 1

                         Standard orientation:
 ---------------------------------------------------------------------
 Center     Atomic      Atomic             Coordinates (Angstroms)
 Number     Number       Type             X           Y           Z
 ---------------------------------------------------------------------
      1          1           0       -0.797880    2.822850   -0.352130
      2          8           0       -1.761620    3.009590   -0.360560
      3          6           0       -2.321900    1.929300    0.348840
      4          6           0       -2.430010    0.668150   -0.521210
      5          1           0       -3.348470    2.207820    0.642710
      6          1           0       -1.749890    1.711480    1.265410
      7          1           0       -3.198040    0.829900   -1.293190
      8          8           0       -1.197580    0.390600   -1.263600
      9          6           0       -2.719210   -0.606420    0.273410
     10          6           0       -0.481130   -0.661340   -0.676930
     11          1           0       -3.250570   -0.413580    1.216310
     12          8           0       -3.467070   -1.577070   -0.441310
     13          6           0       -1.282750   -1.101700    0.577870
     14          1           0       -0.479790   -1.533550   -1.357500
     15          7           0        0.939260   -0.366110   -0.454870
     16          1           0       -3.242850   -1.498120   -1.385380
     17          9           0       -1.198880   -2.457180    0.745010
     18          9           0       -0.804830   -0.532240    1.726250
     19          6           0        1.404440    0.873830    0.141030
     20          6           0        1.832140   -1.336150   -0.802200
     21          8           0        0.595780    1.746830    0.437640
     22          7           0        2.746610    0.995990    0.337950
     23          1           0        1.408430   -2.233990   -1.254900
     24          6           0        3.168150   -1.198560   -0.594190
     25          6           0        3.589750    0.031190    0.006070
     26          1           0        3.863060   -1.982370   -0.887920
     27          7           0        4.908120    0.257290    0.235340
     28          1           0        5.595750   -0.474190    0.120050
     29          1           0        5.162740    1.108940    0.722700
 ---------------------------------------------------------------------

 SCF Done:  E(RHF) =  -1013.28065361     A.U. after    2 cycles

 The electronic state is 1-A.
 Alpha  occ. eigenvalues --  -29.29673 -29.29438 -21.09971 -21.07441 -21.03658
 Alpha  occ. eigenvalues --  -21.01860 -15.80243 -15.80067 -15.72312 -11.62045
 Alpha  occ. eigenvalues --  -11.54834 -11.53929 -11.52614 -11.51692 -11.50865
 Alpha  occ. eigenvalues --  -11.46567 -11.42149 -11.41121  -1.81751  -1.73304
 Alpha  occ. eigenvalues --   -1.71792  -1.67910  -1.52894  -1.43593  -1.33204
 Alpha  occ. eigenvalues --   -1.28816  -1.17596  -1.13441  -1.00080  -0.96927
 Alpha  occ. eigenvalues --   -0.95362  -0.89962  -0.86480  -0.83944  -0.79434
 Alpha  occ. eigenvalues --   -0.74654  -0.72641  -0.69011  -0.67621  -0.66122
 Alpha  occ. eigenvalues --   -0.65390  -0.63353  -0.62652  -0.60517  -0.59212
 Alpha  occ. eigenvalues --   -0.57635  -0.55705  -0.54873  -0.51607  -0.50653
 Alpha  occ. eigenvalues --   -0.49271  -0.48212  -0.46876  -0.45108  -0.42118
 Alpha  occ. eigenvalues --   -0.39789  -0.38919  -0.38106  -0.37420  -0.35741
 Alpha  occ. eigenvalues --   -0.34401  -0.31458  -0.30121  -0.29535  -0.28568
 Alpha  occ. eigenvalues --   -0.26820  -0.24831  -0.21925
 Alpha virt. eigenvalues --    0.02554   0.03798   0.04194   0.05331   0.05725
 Alpha virt. eigenvalues --    0.05816   0.06546   0.07122   0.07735   0.08489
 Alpha virt. eigenvalues --    0.08639   0.09221   0.09974   0.10614   0.11411

 Mulliken charges:
               1
     1  H    1.030714
     2  O   -2.911072
     3  C   -1.190316
     4  C    0.056562
     5  H    1.091812
     6  H    1.711828
     7  H    1.590942
     8  O   -4.116419
     9  C    0.127360
    10  C    2.428371
    11  H    1.709208
    12  O   -3.580015
    13  C    0.701867
    14  H    1.796158
    15  N   -2.718672
    16  H    0.658937
    17  F    0.209189
    18  F    0.031771
    19  C    6.060655
    20  C   -0.364323
    21  O   -3.752243
    22  N   -3.615496
    23  H    1.800046
    24  C   -1.595088
    25  C    3.576475
    26  H    1.609835
    27  N   -3.882132
    28  H    0.665103
    29  H    0.868942
 Sum of Mulliken charges =   0.00000

 Dipole moment (field-independent basis, Debye):
    X=              3.8262    Y=             -4.7717    Z=              0.8249  Tot=              6.1717

 Test job not archived.
 1\1\GINC-SE089\SP\RHF\Aug-CC-pVDZ\C9H11F2N3O4\OHZDE\08-Apr-2025\0\\#t
 hf aug-cc-pvdz iop(5/13=1,5/36=2,99/5=2) pseudo=read geom=check guess=
 (read,tcheck) scf=(maxcycle=1)\\title\\0,1\H,0,-0.79788,2.82285,-0.352
 13\O,0,-1.76162,3.00959,-0.36056\C,0,-2.3219,1.9293,0.34884\C,0,-2.430
 01,0.66815,-0.52121\H,0,-3.34847,2.20782,0.64271\H,0,-1.74989,1.71148,
 1.26541\H,0,-3.19804,0.8299,-1.29319\O,0,-1.19758,0.3906,-1.2636\C,0,-
 2.71921,-0.60642,0.27341\C,0,-0.48113,-0.66134,-0.67693\H,0,-3.25057,-
 0.41358,1.21631\O,0,-3.46707,-1.57707,-0.44131\C,0,-1.28275,-1.1017,0.

 Normal termination of Gaussian 16 at Tue Apr  8 18:14:30 2025.
