 Gaussian 16, Revision C.01,

 ----------------------------------------------------------------------
 #t hf aug-cc-pvdz symm=none int=(grid=ultrafine) guess=(read,tcheck) s
 table=(opt,rrhf)
 ----------------------------------------------------------------------
 -----
 title
 -----
 Symbolic Z-matrix:
 Charge =  0 Multiplicity = 1

 SCF Done:  E(RHF) =  -1667.17576348     A.U. after   13 cycles
 Normal termination of Gaussian 16 at Tue Apr  8 18:32:15 2025.
 Gaussian 16:  ES64L-G16RevC.01  3-Jul-2019

 ----------------------------------------------------------------------
 #t hf aug-cc-pvdz iop(5/13=1,5/36=2,99/5=2) pseudo=read geom=check gue
 ss=(read,tcheck) scf=(maxcycle=1)
 ----------------------------------------------------------------------
 -----
 title
 -----
 Structure from the checkpoint file:  "37Conf8_N_iprit_7_mol1.chk"
 Charge =  0 Multiplicity = 1

                         Standard orientation:
 ---------------------------------------------------------------------
 Center     Atomic      Atomic             Coordinates (Angstroms)
 Number     Number       Type             X           Y           Z
 ---------------------------------------------------------------------
      1          1           0        0.635642   -1.963529    1.859140
      2          6           0        0.804342   -1.638179    0.811350
      3          6           0        2.300212   -1.324468    0.720400
      4          7           0       -0.131878   -0.596199    0.482180
      5          1           0        0.586562   -2.507879    0.173910
      6         17           0        2.799562   -0.820028   -0.936940
      7          1           0        2.892922   -2.212628    0.978800
      8          1           0        2.588281   -0.505408    1.392210
      9          6           0       -0.671089   -0.535639   -0.860860
     10          6           0       -0.170709    0.570431    1.327580
     11          6           0       -2.122729   -0.085310   -0.925200
     12          1           0       -0.105869    0.141331   -1.533730
     13          1           0       -0.593028   -1.544049   -1.292380
     14          6           0        0.722181    1.763891    0.955650
     15          1           0       -1.208059    0.933370    1.430580
     16          1           0        0.136411    0.249631    2.338890
     17         17           0       -3.212298   -1.139400    0.050100
     18          1           0       -2.476599   -0.126120   -1.962430
     19          1           0       -2.255209    0.936940   -0.552280
     20         17           0        0.000280    2.806331   -0.335170
     21          1           0        1.698101    1.446641    0.570520
     22          1           0        0.862501    2.423401    1.822190
 ---------------------------------------------------------------------

 SCF Done:  E(RHF) =  -1669.36601714     A.U. after    2 cycles

 The electronic state is 1-A.
 Alpha  occ. eigenvalues --  -99.88352 -99.87942 -99.86933 -15.71251 -11.47789
 Alpha  occ. eigenvalues --  -11.47663 -11.46394 -11.41795 -11.41134 -11.40235
 Alpha  occ. eigenvalues --  -10.45652 -10.45245 -10.44225  -9.65590  -9.65203
 Alpha  occ. eigenvalues --   -9.65106  -9.64887  -9.64708  -9.64438  -9.64164
 Alpha  occ. eigenvalues --   -9.63615  -9.63402  -1.46528  -1.33735  -1.32744
 Alpha  occ. eigenvalues --   -1.30634  -1.13207  -1.12812  -1.03492  -0.93010
 Alpha  occ. eigenvalues --   -0.91508  -0.80825  -0.71026  -0.68981  -0.67581
 Alpha  occ. eigenvalues --   -0.65618  -0.63658  -0.62919  -0.60937  -0.59299
 Alpha  occ. eigenvalues --   -0.57156  -0.56603  -0.53626  -0.51666  -0.50986
 Alpha  occ. eigenvalues --   -0.49977  -0.49137  -0.47794  -0.47218  -0.46830
 Alpha  occ. eigenvalues --   -0.45962  -0.44657  -0.30452
 Alpha virt. eigenvalues --    0.03218   0.04469   0.04681   0.05211   0.05687
 Alpha virt. eigenvalues --    0.06081   0.06424   0.06548   0.07289   0.07491
 Alpha virt. eigenvalues --    0.08290   0.08556   0.09201   0.09440   0.10024

 Mulliken charges:
               1
     1  H    1.414323
     2  C   -2.509718
     3  C   -3.496247
     4  N   -1.652011
     5  H    1.668787
     6  Cl  -0.002354
     7  H    1.320369
     8  H    1.769259
     9  C   -2.027840
    10  C   -2.117634
    11  C   -3.731966
    12  H    1.445967
    13  H    1.634434
    14  C   -3.596198
    15  H    1.758972
    16  H    1.690049
    17  Cl   0.017711
    18  H    1.372785
    19  H    1.645621
    20  Cl   0.038331
    21  H    1.854621
    22  H    1.502740
 Sum of Mulliken charges =   0.00000

 Dipole moment (field-independent basis, Debye):
    X=              1.6915    Y=             -0.9488    Z=              2.3361  Tot=              3.0362

 Test job not archived.
 1\1\GINC-SE363\SP\RHF\Aug-CC-pVDZ\C6H12Cl3N1\OHZDE\08-Apr-2025\0\\#t h
 f aug-cc-pvdz iop(5/13=1,5/36=2,99/5=2) pseudo=read geom=check guess=(
 read,tcheck) scf=(maxcycle=1)\\title\\0,1\H,0,0.63564,-1.96353,1.85914
 \C,0,0.80434,-1.63818,0.81135\C,0,2.30021,-1.32447,0.7204\N,0,-0.13188
 ,-0.5962,0.48218\H,0,0.58656,-2.50788,0.17391\Cl,0,2.79956,-0.82003,-0
 .93694\H,0,2.89292,-2.21263,0.9788\H,0,2.58828,-0.50541,1.39221\C,0,-0
 .67109,-0.53564,-0.86086\C,0,-0.17071,0.57043,1.32758\C,0,-2.12273,-0.
 08531,-0.9252\H,0,-0.10587,0.14133,-1.53373\H,0,-0.59303,-1.54405,-1.2

 Normal termination of Gaussian 16 at Tue Apr  8 18:32:31 2025.
