 Gaussian 16, Revision C.01,

 ----------------------------------------------------------------------
 #t hf aug-cc-pvdz symm=none int=(grid=ultrafine) guess=(read,tcheck) s
 table=(opt,rrhf)
 ----------------------------------------------------------------------
 -----
 title
 -----
 Symbolic Z-matrix:
 Charge =  0 Multiplicity = 1

 SCF Done:  E(RHF) =  -382.148066143     A.U. after   12 cycles

 1\1\GINC-SE079\Stability\RHF\Aug-CC-pVDZ\C7H14N2\OHZDE\08-Apr-2025\0\\
 #t hf aug-cc-pvdz symm=none int=(grid=ultrafine) guess=(read,tcheck) s
 table=(opt,rrhf)\\title\\0,1\H,0,-2.75704,0.,-0.91999\N,0,-1.96634,0.,
 -0.2751\C,0,-1.17088,1.21528,-0.44365\C,0,-1.17088,-1.21528,-0.44365\H
 ,0,-0.76709,1.31606,-1.47889\H,0,-1.83263,2.0783,-0.27825\C,0,0.01193,
 1.23695,0.56541\H,0,-0.76709,-1.31606,-1.47889\H,0,-1.83263,-2.0783,-0
 .27825\C,0,0.01193,-1.23695,0.56541\H,0,-0.04355,2.15244,1.17606\C,0,1
 .37599,1.22002,-0.15393\C,0,-0.06989,0.,1.47087\H,0,-0.04355,-2.15244,

 Normal termination of Gaussian 16 at Tue Apr  8 17:25:28 2025.
 Gaussian 16:  ES64L-G16RevC.01  3-Jul-2019

 ----------------------------------------------------------------------
 #t hf aug-cc-pvdz iop(5/13=1,5/36=2,99/5=2) pseudo=read geom=check gue
 ss=(read,tcheck) scf=(maxcycle=1)
 ----------------------------------------------------------------------
 -----
 title
 -----
 Structure from the checkpoint file:  "37Conf8_Bispidin_5_mol1.chk"
 Charge =  0 Multiplicity = 1

                         Standard orientation:
 ---------------------------------------------------------------------
 Center     Atomic      Atomic             Coordinates (Angstroms)
 Number     Number       Type             X           Y           Z
 ---------------------------------------------------------------------
      1          1           0        1.089467   -2.694573    0.000000
      2          7           0        1.066903   -1.674484    0.000000
      3          6           0        0.422406   -1.178712    1.215280
      4          6           0        0.422406   -1.178712   -1.215280
      5          1           0       -0.627243   -1.543409    1.316060
      6          1           0        0.977726   -1.574806    2.078300
      7          6           0        0.422406    0.376036    1.236950
      8          1           0       -0.627243   -1.543409   -1.316060
      9          1           0        0.977726   -1.574806   -2.078300
     10          6           0        0.422406    0.376036   -1.236950
     11          1           0        0.922980    0.730152    2.152440
     12          6           0       -1.010148    0.946911    1.220020
     13          6           0        1.164358    0.901450   -0.000000
     14          1           0        0.922980    0.730152   -2.152440
     15          6           0       -1.010148    0.946911   -1.220020
     16          1           0       -1.587704    0.567213    2.077860
     17          1           0       -0.953421    2.044975    1.331120
     18          7           0       -1.764071    0.654800    0.000000
     19          1           0        1.160078    2.004279   -0.000000
     20          1           0        2.210475    0.567919   -0.000000
     21          1           0       -1.587704    0.567213   -2.077860
     22          1           0       -0.953421    2.044975   -1.331120
     23          1           0       -2.046651   -0.327608    0.000000
 ---------------------------------------------------------------------

 SCF Done:  E(RHF) =  -384.049085814     A.U. after    2 cycles

 The electronic state is 1-A'.
 Alpha  occ. eigenvalues --  -15.70847 -15.70520 -11.47123 -11.44488 -11.42374
 Alpha  occ. eigenvalues --  -11.41094 -11.40356 -11.36752 -11.34389  -1.44857
 Alpha  occ. eigenvalues --   -1.34869  -1.16685  -1.15899  -1.00477  -0.92926
 Alpha  occ. eigenvalues --   -0.87848  -0.85300  -0.73064  -0.70261  -0.67332
 Alpha  occ. eigenvalues --   -0.65351  -0.62292  -0.56585  -0.55905  -0.55222
 Alpha  occ. eigenvalues --   -0.53986  -0.49473  -0.48071  -0.46412  -0.46016
 Alpha  occ. eigenvalues --   -0.44606  -0.40212  -0.38027  -0.31833  -0.29500
 Alpha virt. eigenvalues --    0.04175   0.04849   0.04888   0.05051   0.05134
 Alpha virt. eigenvalues --    0.06004   0.06092   0.06394   0.06779   0.08189
 Alpha virt. eigenvalues --    0.08352   0.08553   0.08763   0.09087   0.12200

 Mulliken charges:
               1
     1  H    0.696475
     2  N   -2.198248
     3  C   -2.692031
     4  C   -2.692031
     5  H    1.547731
     6  H    1.347380
     7  C   -0.246655
     8  H    1.547731
     9  H    1.347380
    10  C   -0.246655
    11  H    1.555136
    12  C   -2.829723
    13  C   -2.789631
    14  H    1.555136
    15  C   -2.829723
    16  H    1.365972
    17  H    1.324131
    18  N   -1.538097
    19  H    1.314076
    20  H    1.348729
    21  H    1.365972
    22  H    1.324131
    23  H    0.422813
 Sum of Mulliken charges =  -0.00000

 Dipole moment (field-independent basis, Debye):
    X=              0.3975    Y=             -0.9637    Z=              0.0000  Tot=              1.0425

 Test job not archived.
 1\1\GINC-SE079\SP\RHF\Aug-CC-pVDZ\C7H14N2\OHZDE\08-Apr-2025\0\\#t hf a
 ug-cc-pvdz iop(5/13=1,5/36=2,99/5=2) pseudo=read geom=check guess=(rea
 d,tcheck) scf=(maxcycle=1)\\title\\0,1\H,0,-2.75704,0.,-0.91999\N,0,-1
 .96634,0.,-0.2751\C,0,-1.17088,1.21528,-0.44365\C,0,-1.17088,-1.21528,
 -0.44365\H,0,-0.76709,1.31606,-1.47889\H,0,-1.83263,2.0783,-0.27825\C,
 0,0.01193,1.23695,0.56541\H,0,-0.76709,-1.31606,-1.47889\H,0,-1.83263,
 -2.0783,-0.27825\C,0,0.01193,-1.23695,0.56541\H,0,-0.04355,2.15244,1.1
 7606\C,0,1.37599,1.22002,-0.15393\C,0,-0.06989,0.,1.47087\H,0,-0.04355

 Normal termination of Gaussian 16 at Tue Apr  8 17:25:37 2025.
