 Gaussian 16, Revision C.01,

 ----------------------------------------------------------------------
 #t hf aug-cc-pvdz symm=none int=(grid=ultrafine) guess=(read,tcheck) s
 table=(opt,rrhf)
 ----------------------------------------------------------------------
 -----
 title
 -----
 Symbolic Z-matrix:
 Charge =  0 Multiplicity = 1

 SCF Done:  E(RHF) =  -798.290954795     A.U. after   14 cycles

 1\1\GINC-SE459\Stability\RHF\Aug-CC-pVDZ\C9H14O6\OHZDE\08-Apr-2025\0\\
 #t hf aug-cc-pvdz symm=none int=(grid=ultrafine) guess=(read,tcheck) s
 table=(opt,rrhf)\\title\\0,1\H,0,0.80845,2.4183,2.00885\C,0,1.72571,2.
 19518,1.44378\C,0,1.51088,2.36396,-0.04267\H,0,2.03208,1.1688,1.68625\
 H,0,2.50901,2.89623,1.74668\O,0,0.55718,1.58888,-0.66076\O,0,2.11551,3
 .15707,-0.72443\C,0,-0.15076,0.53274,0.01642\C,0,-1.6037,0.66683,-0.42
 527\C,0,0.43521,-0.80731,-0.38322\H,0,-0.09639,0.65224,1.10822\O,0,-2.
 36378,-0.30136,0.3269\H,0,-1.71479,0.48097,-1.50411\H,0,-1.9707,1.6819

 Normal termination of Gaussian 16 at Tue Apr  8 19:01:59 2025.
 Gaussian 16:  ES64L-G16RevC.01  3-Jul-2019

 ----------------------------------------------------------------------
 #t hf aug-cc-pvdz iop(5/13=1,5/36=2,99/5=2) pseudo=read geom=check gue
 ss=(read,tcheck) scf=(maxcycle=1)
 ----------------------------------------------------------------------
 -----
 title
 -----
 Structure from the checkpoint file:  "37Conf8_Triacetin_6_mol1.chk"
 Charge =  0 Multiplicity = 1

                         Standard orientation:
 ---------------------------------------------------------------------
 Center     Atomic      Atomic             Coordinates (Angstroms)
 Number     Number       Type             X           Y           Z
 ---------------------------------------------------------------------
      1          1           0        0.808451    2.418300    2.008851
      2          6           0        1.725711    2.195179    1.443781
      3          6           0        1.510881    2.363959   -0.042669
      4          1           0        2.032080    1.168799    1.686251
      5          1           0        2.509011    2.896229    1.746681
      6          8           0        0.557181    1.588880   -0.660759
      7          8           0        2.115511    3.157069   -0.724429
      8          6           0       -0.150760    0.532740    0.016421
      9          6           0       -1.603700    0.666831   -0.425269
     10          6           0        0.435209   -0.807310   -0.383219
     11          1           0       -0.096390    0.652240    1.108221
     12          8           0       -2.363780   -0.301359    0.326901
     13          1           0       -1.714790    0.480971   -1.504109
     14          1           0       -1.970699    1.681921   -0.218409
     15          8           0        1.753349   -0.899341    0.196941
     16          1           0        0.506969   -0.884780   -1.478359
     17          1           0       -0.194341   -1.629380   -0.013309
     18          6           0       -3.706040   -0.312878    0.057641
     19          6           0        2.454219   -2.025391   -0.136559
     20          6           0       -4.397671   -1.383688    0.857461
     21          8           0       -4.227860    0.441822   -0.733629
     22          6           0        3.833399   -1.987622    0.464901
     23          8           0        1.998898   -2.906691   -0.833049
     24          1           0       -4.131492   -2.370578    0.451081
     25          1           0       -5.480981   -1.246327    0.788381
     26          1           0       -4.072401   -1.361508    1.905571
     27          1           0        4.420569   -1.191122   -0.014849
     28          1           0        4.326688   -2.951072    0.305711
     29          1           0        3.783449   -1.757652    1.537601
 ---------------------------------------------------------------------

 SCF Done:  E(RHF) =  -801.778130518     A.U. after    2 cycles

 The electronic state is 1-A.
 Alpha  occ. eigenvalues --  -21.10647 -21.10431 -21.09355 -21.06429 -21.06317
 Alpha  occ. eigenvalues --  -21.04951 -11.54221 -11.54057 -11.53130 -11.52567
 Alpha  occ. eigenvalues --  -11.49446 -11.42770 -11.41365 -11.40928 -11.40862
 Alpha  occ. eigenvalues --   -1.87564  -1.84284  -1.82621  -1.67539  -1.67221
 Alpha  occ. eigenvalues --   -1.65850  -1.19176  -1.13033  -1.12004  -1.10090
 Alpha  occ. eigenvalues --   -1.00574  -0.89605  -0.80083  -0.78403  -0.76188
 Alpha  occ. eigenvalues --   -0.70043  -0.68114  -0.67693  -0.65414  -0.64266
 Alpha  occ. eigenvalues --   -0.62640  -0.62053  -0.61303  -0.60617  -0.60038
 Alpha  occ. eigenvalues --   -0.58564  -0.55680  -0.53888  -0.53680  -0.51995
 Alpha  occ. eigenvalues --   -0.49284  -0.48402  -0.47600  -0.47225  -0.43989
 Alpha  occ. eigenvalues --   -0.43308  -0.41599  -0.34497  -0.33686  -0.31983
 Alpha  occ. eigenvalues --   -0.30887  -0.30622  -0.29913
 Alpha virt. eigenvalues --    0.02993   0.03661   0.03985   0.04308   0.04860
 Alpha virt. eigenvalues --    0.05739   0.06237   0.06498   0.06757   0.07215
 Alpha virt. eigenvalues --    0.07331   0.07993   0.08888   0.09254   0.09436

 Mulliken charges:
               1
     1  H    1.420243
     2  C   -4.690125
     3  C    5.239025
     4  H    1.561573
     5  H    1.036562
     6  O   -3.897140
     7  O   -3.181549
     8  C    0.777833
     9  C   -2.401483
    10  C   -1.322247
    11  H    2.323419
    12  O   -3.340894
    13  H    1.635038
    14  H    1.686853
    15  O   -3.272375
    16  H    1.769319
    17  H    1.781212
    18  C    5.452610
    19  C    5.157905
    20  C   -4.684992
    21  O   -3.054444
    22  C   -4.779522
    23  O   -3.140313
    24  H    1.299847
    25  H    1.236421
    26  H    1.377655
    27  H    1.367444
    28  H    1.229961
    29  H    1.412163
 Sum of Mulliken charges =   0.00000

 Dipole moment (field-independent basis, Debye):
    X=             -0.1806    Y=             -1.4039    Z=              2.8303  Tot=              3.1645

 Test job not archived.
 1\1\GINC-SE459\SP\RHF\Aug-CC-pVDZ\C9H14O6\OHZDE\08-Apr-2025\0\\#t hf a
 ug-cc-pvdz iop(5/13=1,5/36=2,99/5=2) pseudo=read geom=check guess=(rea
 d,tcheck) scf=(maxcycle=1)\\title\\0,1\H,0,0.80845,2.4183,2.00885\C,0,
 1.72571,2.19518,1.44378\C,0,1.51088,2.36396,-0.04267\H,0,2.03208,1.168
 8,1.68625\H,0,2.50901,2.89623,1.74668\O,0,0.55718,1.58888,-0.66076\O,0
 ,2.11551,3.15707,-0.72443\C,0,-0.15076,0.53274,0.01642\C,0,-1.6037,0.6
 6683,-0.42527\C,0,0.43521,-0.80731,-0.38322\H,0,-0.09639,0.65224,1.108
 22\O,0,-2.36378,-0.30136,0.3269\H,0,-1.71479,0.48097,-1.50411\H,0,-1.9

 Normal termination of Gaussian 16 at Tue Apr  8 19:02:28 2025.
