 Gaussian 16, Revision C.01,

 ----------------------------------------------------------------------
 #t hf aug-cc-pvdz symm=none int=(grid=ultrafine) guess=(read,tcheck) s
 table=(opt,rrhf)
 ----------------------------------------------------------------------
 -----
 title
 -----
 Symbolic Z-matrix:
 Charge =  0 Multiplicity = 1

 SCF Done:  E(RHF) =  -1673.90290553     A.U. after   16 cycles
 Normal termination of Gaussian 16 at Tue Apr  8 19:05:32 2025.
 Gaussian 16:  ES64L-G16RevC.01  3-Jul-2019

 ----------------------------------------------------------------------
 #t hf aug-cc-pvdz iop(5/13=1,5/36=2,99/5=2) pseudo=read geom=check gue
 ss=(read,tcheck) scf=(maxcycle=1)
 ----------------------------------------------------------------------
 -----
 title
 -----
 Structure from the checkpoint file:  "37Conf8_Pantoprazole_2_mol2.chk"
 Charge =  0 Multiplicity = 1

                         Standard orientation:
 ---------------------------------------------------------------------
 Center     Atomic      Atomic             Coordinates (Angstroms)
 Number     Number       Type             X           Y           Z
 ---------------------------------------------------------------------
      1          1           0        6.774449   -1.807912   -0.378991
      2          6           0        5.727249   -1.535532   -0.255831
      3          6           0        4.734309   -2.275612   -0.903171
      4          6           0        5.340020   -0.461702    0.550949
      5          1           0        5.018239   -3.119342   -1.539051
      6          7           0        3.428539   -2.027432   -0.800331
      7          8           0        6.183800    0.328488    1.258939
      8          6           0        3.958780   -0.168232    0.658129
      9          6           0        3.052149   -0.987412   -0.029111
     10          6           0        7.580220    0.038367    1.176209
     11          8           0        3.502340    0.823628    1.483229
     12          6           0        1.585759   -0.710071    0.046439
     13          1           0        7.948480    0.139927    0.142739
     14          1           0        7.797729   -0.976073    1.546679
     15          1           0        8.074370    0.776547    1.816749
     16          6           0        3.763650    2.170488    1.032869
     17         16           0        1.052330    0.166199   -1.507961
     18          1           0        0.994759   -1.636391    0.045189
     19          1           0        1.314590   -0.057031    0.883769
     20          6           0       -0.667220    0.319089   -0.995011
     21          8           0        1.565620    1.583499   -1.465291
     22          7           0       -1.549191   -0.638331   -0.802501
     23          7           0       -1.161110    1.585959   -0.837591
     24          6           0       -2.716120    0.040779   -0.477661
     25          1           0       -0.591450    2.422239   -0.943751
     26          6           0       -2.493920    1.446239   -0.495251
     27          6           0       -3.986081   -0.474030   -0.176681
     28          6           0       -3.510060    2.362160   -0.215411
     29          1           0       -4.168581   -1.546780   -0.213691
     30          6           0       -4.984550    0.449350    0.118799
     31          1           0       -3.342620    3.439370   -0.232971
     32          6           0       -4.759610    1.841560    0.099379
     33          8           0       -6.291570    0.082160    0.433759
     34          1           0       -5.594770    2.499380    0.338689
     35          6           0       -6.484621   -1.159730    0.986799
     36          9           0       -6.591241   -2.124810    0.010359
     37          9           0       -7.673251   -1.121650    1.637629
     38          1           0       -5.678861   -1.457420    1.679179
     39          1           0        3.230010    2.355788    0.088259
     40          1           0        4.842680    2.342778    0.910609
     41          1           0        3.375220    2.826038    1.821209
 ---------------------------------------------------------------------

 SCF Done:  E(RHF) =  -1679.67550698     A.U. after    2 cycles

 The electronic state is 1-A.
 Alpha  occ. eigenvalues --  -75.81365 -29.29229 -29.28520 -21.10391 -21.10134
 Alpha  occ. eigenvalues --  -21.06899 -21.02429 -15.81367 -15.74747 -15.74470
 Alpha  occ. eigenvalues --  -13.37760 -13.31200 -13.22232 -11.55836 -11.55511
 Alpha  occ. eigenvalues --  -11.55244 -11.50693 -11.49200 -11.48629 -11.46824
 Alpha  occ. eigenvalues --  -11.46590 -11.45986 -11.45887 -11.44152 -11.43656
 Alpha  occ. eigenvalues --  -11.43276 -11.41189 -11.40313 -11.39542  -8.15534
 Alpha  occ. eigenvalues --   -1.85156  -1.82720  -1.76521  -1.71283  -1.58514
 Alpha  occ. eigenvalues --   -1.44755  -1.31045  -1.30170  -1.22809  -1.21109
 Alpha  occ. eigenvalues --   -1.16998  -1.12153  -1.10065  -1.06421  -1.03125
 Alpha  occ. eigenvalues --   -0.99879  -0.96087  -0.90057  -0.87545  -0.87094
 Alpha  occ. eigenvalues --   -0.85241  -0.83029  -0.81826  -0.78348  -0.74193
 Alpha  occ. eigenvalues --   -0.71359  -0.71074  -0.70081  -0.67642  -0.65888
 Alpha  occ. eigenvalues --   -0.64790  -0.64064  -0.62671  -0.61843  -0.61199
 Alpha  occ. eigenvalues --   -0.60816  -0.59367  -0.59110  -0.58209  -0.57480
 Alpha  occ. eigenvalues --   -0.55157  -0.54766  -0.53342  -0.52575  -0.50572
 Alpha  occ. eigenvalues --   -0.50446  -0.48896  -0.45942  -0.45443  -0.44402
 Alpha  occ. eigenvalues --   -0.43793  -0.43336  -0.42291  -0.41973  -0.40561
 Alpha  occ. eigenvalues --   -0.40341  -0.38134  -0.37644  -0.36254  -0.33351
 Alpha  occ. eigenvalues --   -0.32508  -0.31886  -0.30966  -0.29989  -0.29086
 Alpha  occ. eigenvalues --   -0.28640  -0.27095  -0.25656  -0.21825
 Alpha virt. eigenvalues --    0.02893   0.03903   0.03984   0.04645   0.04794
 Alpha virt. eigenvalues --    0.05554   0.05628   0.05972   0.05991   0.06632
 Alpha virt. eigenvalues --    0.07318   0.07559   0.07666   0.08051   0.08207

 Mulliken charges:
               1
     1  H    1.848597
     2  C   -2.461387
     3  C   -0.734703
     4  C    6.692168
     5  H    1.790811
     6  N   -4.341956
     7  O   -5.038243
     8  C    4.002361
     9  C    3.288695
    10  C   -3.704479
    11  O   -5.021225
    12  C   -4.877328
    13  H    1.398549
    14  H    1.348457
    15  H    1.545958
    16  C   -4.033634
    17  S    4.282582
    18  H    1.548979
    19  H    1.820230
    20  C    2.195214
    21  O   -2.594592
    22  N   -4.831257
    23  N   -5.211742
    24  C    4.992618
    25  H    0.901833
    26  C    3.818105
    27  C   -1.826999
    28  C   -2.958992
    29  H    1.965340
    30  C    3.952475
    31  H    1.778578
    32  C   -4.702162
    33  O   -4.379867
    34  H    1.809349
    35  C   -0.946750
    36  F    0.185242
    37  F    0.577436
    38  H    1.404737
    39  H    1.646638
    40  H    1.526523
    41  H    1.343841
 Sum of Mulliken charges =  -0.00000

 Dipole moment (field-independent basis, Debye):
    X=              3.5570    Y=              1.8190    Z=              0.4627  Tot=              4.0218

 Test job not archived.
 1\1\GINC-SE365\SP\RHF\Aug-CC-pVDZ\C16H15F2N3O4S1\OHZDE\08-Apr-2025\0\\
 #t hf aug-cc-pvdz iop(5/13=1,5/36=2,99/5=2) pseudo=read geom=check gue
 ss=(read,tcheck) scf=(maxcycle=1)\\title\\0,1\H,0,6.77445,-1.80791,-0.
 37899\C,0,5.72725,-1.53553,-0.25583\C,0,4.73431,-2.27561,-0.90317\C,0,
 5.34002,-0.4617,0.55095\H,0,5.01824,-3.11934,-1.53905\N,0,3.42854,-2.0
 2743,-0.80033\O,0,6.1838,0.32849,1.25894\C,0,3.95878,-0.16823,0.65813\
 C,0,3.05215,-0.98741,-0.02911\C,0,7.58022,0.03837,1.17621\O,0,3.50234,
 0.82363,1.48323\C,0,1.58576,-0.71007,0.04644\H,0,7.94848,0.13993,0.142

 Normal termination of Gaussian 16 at Tue Apr  8 19:06:47 2025.
