 Gaussian 16, Revision C.01,

 ----------------------------------------------------------------------
 #t hf aug-cc-pvdz symm=none int=(grid=ultrafine) guess=(read,tcheck) s
 table=(opt,rrhf)
 ----------------------------------------------------------------------
 -----
 title
 -----
 Symbolic Z-matrix:
 Charge =  0 Multiplicity = 1

 SCF Done:  E(RHF) =  -898.751280797     A.U. after   15 cycles
 Normal termination of Gaussian 16 at Tue Apr  8 18:50:04 2025.
 Gaussian 16:  ES64L-G16RevC.01  3-Jul-2019

 ----------------------------------------------------------------------
 #t hf aug-cc-pvdz iop(5/13=1,5/36=2,99/5=2) pseudo=read geom=check gue
 ss=(read,tcheck) scf=(maxcycle=1)
 ----------------------------------------------------------------------
 -----
 title
 -----
 Structure from the checkpoint file:  "37Conf8_Knoevenagel_cond_5_mol2.chk"
 Charge =  0 Multiplicity = 1

                         Standard orientation:
 ---------------------------------------------------------------------
 Center     Atomic      Atomic             Coordinates (Angstroms)
 Number     Number       Type             X           Y           Z
 ---------------------------------------------------------------------
      1          8           0        2.216111   -1.061788   -1.622690
      2          6           0        2.027741   -0.832378   -0.445460
      3          6           0        0.672231   -0.747548    0.246970
      4          8           0        3.017311   -0.597488    0.449530
      5          6           0       -0.477479   -1.188349   -0.684160
      6          6           0        0.415310    0.677762    0.739640
      7          1           0        0.716741   -1.370648    1.151700
      8          6           0        4.364041   -0.588067   -0.096200
      9          6           0       -0.480589   -2.708429   -0.886090
     10          7           0       -1.734449   -0.607039   -0.198040
     11          1           0       -0.280419   -0.710859   -1.656140
     12          8           0        0.541620    1.556252   -0.282190
     13          8           0        0.147260    0.983952    1.882360
     14          6           0        5.312151   -0.268057    1.037340
     15          1           0        4.407670    0.159573   -0.902210
     16          1           0        4.566411   -1.571997   -0.545110
     17          1           0        6.345051   -0.249817    0.661640
     18          1           0        5.086530    0.714123    1.474710
     19          1           0        5.247901   -1.024057    1.831840
     20          1           0       -1.312779   -3.012409   -1.536910
     21          1           0        0.453921   -3.029088   -1.365050
     22          1           0       -0.582589   -3.242209    0.070290
     23          6           0       -2.758479   -0.476959   -1.228270
     24          6           0       -2.270349   -1.197309    1.027610
     25          6           0        0.208510    2.930682    0.038400
     26          1           0       -3.185599   -1.466269   -1.517990
     27          1           0       -2.286719   -0.052839   -2.128110
     28          6           0       -3.892280    0.427190   -0.746220
     29          1           0       -2.673909   -2.219969    0.846810
     30          1           0       -1.458579   -1.288079    1.763290
     31          6           0       -3.380529   -0.316109    1.597970
     32          6           0        0.350469    3.741602   -1.229970
     33          1           0       -0.818300    2.951261    0.434180
     34          1           0        0.880800    3.279722    0.836490
     35          1           0       -0.329420    3.373091   -2.010440
     36          1           0        1.378090    3.695352   -1.616020
     37          1           0        0.105279    4.793822   -1.027150
     38          1           0       -4.665370    0.495770   -1.527580
     39          1           0       -3.489260    1.441731   -0.589510
     40          6           0       -4.485809   -0.098300    0.562730
     41          1           0       -3.786059   -0.782910    2.509070
     42          1           0       -2.939740    0.650441    1.890750
     43          1           0       -5.251200    0.592840    0.948060
     44          1           0       -4.995349   -1.059100    0.367890
 ---------------------------------------------------------------------

 SCF Done:  E(RHF) =  -902.955337336     A.U. after    2 cycles

 The electronic state is 1-A.
 Alpha  occ. eigenvalues --  -21.09115 -21.08430 -21.05415 -21.04540 -15.69622
 Alpha  occ. eigenvalues --  -11.55767 -11.54771 -11.48866 -11.45402 -11.44836
 Alpha  occ. eigenvalues --  -11.44729 -11.43769 -11.43085 -11.41010 -11.38101
 Alpha  occ. eigenvalues --  -11.37717 -11.37646 -11.37374 -11.34709  -1.84933
 Alpha  occ. eigenvalues --   -1.82490  -1.66516  -1.65785  -1.45538  -1.25117
 Alpha  occ. eigenvalues --   -1.17124  -1.13885  -1.12338  -1.11657  -1.05972
 Alpha  occ. eigenvalues --   -0.94420  -0.91185  -0.89837  -0.89176  -0.83920
 Alpha  occ. eigenvalues --   -0.79987  -0.76970  -0.74483  -0.70054  -0.67186
 Alpha  occ. eigenvalues --   -0.65931  -0.65425  -0.64925  -0.63154  -0.62287
 Alpha  occ. eigenvalues --   -0.60587  -0.59568  -0.58265  -0.56961  -0.56231
 Alpha  occ. eigenvalues --   -0.55068  -0.54230  -0.53061  -0.52712  -0.52368
 Alpha  occ. eigenvalues --   -0.51822  -0.51023  -0.50203  -0.49469  -0.48792
 Alpha  occ. eigenvalues --   -0.46746  -0.46416  -0.45995  -0.44762  -0.44574
 Alpha  occ. eigenvalues --   -0.41746  -0.40470  -0.40036  -0.38980  -0.32688
 Alpha  occ. eigenvalues --   -0.32119  -0.31087  -0.29804  -0.27699
 Alpha virt. eigenvalues --    0.03703   0.03936   0.04147   0.04688   0.05072
 Alpha virt. eigenvalues --    0.05479   0.05689   0.05829   0.06234   0.06359
 Alpha virt. eigenvalues --    0.06443   0.06527   0.07136   0.07380   0.07559

 Mulliken charges:
               1
     1  O   -3.742108
     2  C    8.760910
     3  C   -4.299668
     4  O   -3.953358
     5  C   -1.999517
     6  C    9.987969
     7  H    2.025113
     8  C   -3.167418
     9  C   -5.202335
    10  N    2.237985
    11  H    2.195900
    12  O   -4.110230
    13  O   -4.142827
    14  C   -4.035546
    15  H    1.746436
    16  H    1.618756
    17  H    1.082017
    18  H    1.400509
    19  H    1.425267
    20  H    1.099045
    21  H    1.334145
    22  H    1.318161
    23  C   -2.895250
    24  C   -4.098099
    25  C   -2.958844
    26  H    1.335781
    27  H    1.662092
    28  C   -3.414015
    29  H    1.314509
    30  H    1.723090
    31  C   -3.138056
    32  C   -4.096204
    33  H    1.784221
    34  H    1.725428
    35  H    1.437049
    36  H    1.463119
    37  H    1.100184
    38  H    1.339108
    39  H    1.512330
    40  C   -2.870281
    41  H    1.329603
    42  H    1.492648
    43  H    1.413761
    44  H    1.258621
 Sum of Mulliken charges =  -0.00000

 Dipole moment (field-independent basis, Debye):
    X=              0.3789    Y=              0.6543    Z=             -0.5117  Tot=              0.9130

 Test job not archived.
 1\1\GINC-SE437\SP\RHF\Aug-CC-pVDZ\C14H25N1O4\OHZDE\08-Apr-2025\0\\#t h
 f aug-cc-pvdz iop(5/13=1,5/36=2,99/5=2) pseudo=read geom=check guess=(
 read,tcheck) scf=(maxcycle=1)\\title\\0,1\O,0,2.21611,-1.06179,-1.6226
 9\C,0,2.02774,-0.83238,-0.44546\C,0,0.67223,-0.74755,0.24697\O,0,3.017
 31,-0.59749,0.44953\C,0,-0.47748,-1.18835,-0.68416\C,0,0.41531,0.67776
 ,0.73964\H,0,0.71674,-1.37065,1.1517\C,0,4.36404,-0.58807,-0.0962\C,0,
 -0.48059,-2.70843,-0.88609\N,0,-1.73445,-0.60704,-0.19804\H,0,-0.28042
 ,-0.71086,-1.65614\O,0,0.54162,1.55625,-0.28219\O,0,0.14726,0.98395,1.

 Normal termination of Gaussian 16 at Tue Apr  8 18:51:39 2025.
