 Gaussian 16, Revision C.01,

 ----------------------------------------------------------------------
 #t hf aug-cc-pvdz symm=none int=(grid=ultrafine) guess=(read,tcheck) s
 table=(opt,rrhf)
 ----------------------------------------------------------------------
 -----
 title
 -----
 Symbolic Z-matrix:
 Charge =  0 Multiplicity = 1

 SCF Done:  E(RHF) =  -535.047539811     A.U. after   12 cycles
 Normal termination of Gaussian 16 at Tue Apr  8 18:57:44 2025.
 Gaussian 16:  ES64L-G16RevC.01  3-Jul-2019

 ----------------------------------------------------------------------
 #t hf aug-cc-pvdz iop(5/13=1,5/36=2,99/5=2) pseudo=read geom=check gue
 ss=(read,tcheck) scf=(maxcycle=1)
 ----------------------------------------------------------------------
 -----
 title
 -----
 Structure from the checkpoint file:  "37Conf8_RAMBO_6_mol1.chk"
 Charge =  0 Multiplicity = 1

                         Standard orientation:
 ---------------------------------------------------------------------
 Center     Atomic      Atomic             Coordinates (Angstroms)
 Number     Number       Type             X           Y           Z
 ---------------------------------------------------------------------
      1          1           0        1.075001   -1.788708    1.071911
      2          7           0        0.191051   -1.302019    0.919181
      3          7           0        0.278261   -0.637619   -0.339139
      4          1           0        0.058121   -0.648259    1.704461
      5          6           0       -1.061979   -0.406629   -0.957679
      6          6           0        0.843430    0.740361   -0.266579
      7          1           0       -0.902279   -0.467609   -2.045009
      8          6           0       -2.176239   -1.349250   -0.499589
      9          6           0       -1.523010    1.042450   -0.543929
     10          1           0        1.048870    1.035352   -1.311629
     11          6           0        2.151450    0.897162    0.498431
     12          6           0       -0.327880    1.593301    0.252851
     13          1           0       -2.888449   -1.479410   -1.330429
     14          1           0       -1.788209   -2.335850   -0.219179
     15          6           0       -2.863739   -0.615260    0.661421
     16          1           0       -1.674660    1.667970   -1.436149
     17          6           0       -2.848680    0.859280    0.225001
     18          8           0        3.306120    0.441183   -0.192429
     19          1           0        2.316129    1.972952    0.662901
     20          1           0        2.081750    0.418762    1.496871
     21          6           0        3.449141   -0.972797   -0.203409
     22          1           0        2.615001   -1.465848   -0.732129
     23          1           0        4.391641   -1.191217   -0.721979
     24          1           0        3.515881   -1.373557    0.828171
     25          1           0       -0.172621    2.671831    0.109741
     26          1           0       -0.467290    1.430351    1.337591
     27          1           0       -2.276359   -0.755140    1.581891
     28          1           0       -3.878299   -0.986971    0.864971
     29          1           0       -3.697820    1.051279   -0.449789
     30          1           0       -2.945500    1.560370    1.067841
 ---------------------------------------------------------------------

 SCF Done:  E(RHF) =  -537.659472947     A.U. after    2 cycles

 The electronic state is 1-A.
 Alpha  occ. eigenvalues --  -21.03933 -15.74219 -15.71526 -11.51896 -11.47238
 Alpha  occ. eigenvalues --  -11.44627 -11.44416 -11.40007 -11.39552 -11.39121
 Alpha  occ. eigenvalues --  -11.37313 -11.33745  -1.74122  -1.51179  -1.30602
 Alpha  occ. eigenvalues --   -1.20358  -1.10543  -1.06663  -0.99259  -0.98286
 Alpha  occ. eigenvalues --   -0.90755  -0.81524  -0.81330  -0.76931  -0.71390
 Alpha  occ. eigenvalues --   -0.67341  -0.65785  -0.63843  -0.62444  -0.60621
 Alpha  occ. eigenvalues --   -0.59704  -0.57436  -0.55718  -0.54158  -0.52111
 Alpha  occ. eigenvalues --   -0.50251  -0.48002  -0.45254  -0.44455  -0.43396
 Alpha  occ. eigenvalues --   -0.42299  -0.41363  -0.41180  -0.37287  -0.35254
 Alpha  occ. eigenvalues --   -0.31459  -0.28102
 Alpha virt. eigenvalues --    0.04218   0.04356   0.04540   0.05246   0.05272
 Alpha virt. eigenvalues --    0.05544   0.05709   0.06344   0.06521   0.06628
 Alpha virt. eigenvalues --    0.07023   0.07610   0.08085   0.08338   0.09012

 Mulliken charges:
               1
     1  H    0.646340
     2  N   -3.102501
     3  N   -0.211704
     4  H    0.627470
     5  C    0.628572
     6  C    0.679138
     7  H    1.769208
     8  C   -3.660731
     9  C   -0.457730
    10  H    1.677513
    11  C   -1.611500
    12  C   -3.327187
    13  H    1.336175
    14  H    1.485467
    15  C   -2.837868
    16  H    1.508181
    17  C   -3.698314
    18  O   -3.250502
    19  H    1.238174
    20  H    1.532124
    21  C   -3.374757
    22  H    1.588465
    23  H    1.222660
    24  H    1.440197
    25  H    1.180623
    26  H    1.452332
    27  H    1.507642
    28  H    1.302861
    29  H    1.298203
    30  H    1.411447
 Sum of Mulliken charges =   0.00000

 Dipole moment (field-independent basis, Debye):
    X=             -0.1268    Y=              0.5177    Z=              0.4953  Tot=              0.7276

 Test job not archived.
 1\1\GINC-SE095\SP\RHF\Aug-CC-pVDZ\C9H18N2O1\OHZDE\08-Apr-2025\0\\#t hf
  aug-cc-pvdz iop(5/13=1,5/36=2,99/5=2) pseudo=read geom=check guess=(r
 ead,tcheck) scf=(maxcycle=1)\\title\\0,1\H,0,1.075,-1.78871,1.07191\N,
 0,0.19105,-1.30202,0.91918\N,0,0.27826,-0.63762,-0.33914\H,0,0.05812,-
 0.64826,1.70446\C,0,-1.06198,-0.40663,-0.95768\C,0,0.84343,0.74036,-0.
 26658\H,0,-0.90228,-0.46761,-2.04501\C,0,-2.17624,-1.34925,-0.49959\C,
 0,-1.52301,1.04245,-0.54393\H,0,1.04887,1.03535,-1.31163\C,0,2.15145,0
 .89716,0.49843\C,0,-0.32788,1.5933,0.25285\H,0,-2.88845,-1.47941,-1.33

 Normal termination of Gaussian 16 at Tue Apr  8 18:58:13 2025.
