 Gaussian 16, Revision C.01,

 ----------------------------------------------------------------------
 #t hf aug-cc-pvdz symm=none int=(grid=ultrafine) guess=(read,tcheck) s
 table=(opt,rrhf)
 ----------------------------------------------------------------------
 -----
 title
 -----
 Symbolic Z-matrix:
 Charge =  0 Multiplicity = 1

 SCF Done:  E(RHF) =  -1009.03505716     A.U. after   15 cycles
 Normal termination of Gaussian 16 at Tue Apr  8 18:13:05 2025.
 Gaussian 16:  ES64L-G16RevC.01  3-Jul-2019

 ----------------------------------------------------------------------
 #t hf aug-cc-pvdz iop(5/13=1,5/36=2,99/5=2) pseudo=read geom=check gue
 ss=(read,tcheck) scf=(maxcycle=1)
 ----------------------------------------------------------------------
 -----
 title
 -----
 Structure from the checkpoint file:  "37Conf8_Gemcitabine_4_mol1.chk"
 Charge =  0 Multiplicity = 1

                         Standard orientation:
 ---------------------------------------------------------------------
 Center     Atomic      Atomic             Coordinates (Angstroms)
 Number     Number       Type             X           Y           Z
 ---------------------------------------------------------------------
      1          1           0       -4.677129   -0.782797   -0.108840
      2          8           0       -4.543939   -1.577777    0.441450
      3          6           0       -3.156299   -1.887267    0.435800
      4          6           0       -2.315189   -0.631017    0.596520
      5          1           0       -2.850930   -2.409077   -0.493610
      6          1           0       -2.973500   -2.566707    1.280560
      7          1           0       -2.659189   -0.069067    1.487110
      8          8           0       -0.928529   -0.973978    0.714880
      9          6           0       -2.352549    0.303153   -0.618660
     10          6           0       -0.199369    0.250082    0.563750
     11          1           0       -2.284589   -0.306547   -1.540770
     12          8           0       -3.524149    1.092323   -0.593900
     13          6           0       -1.010159    1.062322   -0.493650
     14          1           0       -0.171029    0.837482    1.497540
     15          7           0        1.167911   -0.036508    0.234650
     16          1           0       -3.496778    1.727273   -1.331340
     17          9           0       -1.190718    2.352892   -0.086420
     18          9           0       -0.369759    1.120672   -1.714140
     19          6           0        2.209091    0.596631    1.038720
     20          6           0        1.475181   -0.907279   -0.764900
     21          8           0        1.871772    1.362991    1.931440
     22          7           0        3.496021    0.277421    0.724400
     23          1           0        0.631771   -1.357378   -1.286570
     24          6           0        2.767991   -1.205349   -1.061070
     25          6           0        3.771041   -0.560599   -0.263600
     26          1           0        3.012911   -1.902769   -1.859360
     27          7           0        5.083811   -0.795750   -0.519880
     28          1           0        5.372531   -1.510820   -1.172890
     29          1           0        5.766351   -0.390350    0.110560
 ---------------------------------------------------------------------

 SCF Done:  E(RHF) =  -1013.27982589     A.U. after    2 cycles

 The electronic state is 1-A.
 Alpha  occ. eigenvalues --  -29.30367 -29.30094 -21.11612 -21.08815 -21.07726
 Alpha  occ. eigenvalues --  -21.01692 -15.79581 -15.79272 -15.71746 -11.67687
 Alpha  occ. eigenvalues --  -11.54146 -11.52913 -11.52337 -11.51433 -11.50945
 Alpha  occ. eigenvalues --  -11.48336 -11.42653 -11.41323  -1.83513  -1.75357
 Alpha  occ. eigenvalues --   -1.71188  -1.70832  -1.51946  -1.42998  -1.33428
 Alpha  occ. eigenvalues --   -1.28365  -1.17693  -1.13243  -1.00456  -0.99862
 Alpha  occ. eigenvalues --   -0.93524  -0.90358  -0.88069  -0.83611  -0.77072
 Alpha  occ. eigenvalues --   -0.74710  -0.72701  -0.71621  -0.69144  -0.67416
 Alpha  occ. eigenvalues --   -0.64944  -0.64844  -0.61545  -0.60558  -0.59599
 Alpha  occ. eigenvalues --   -0.57817  -0.56760  -0.54683  -0.54347  -0.50725
 Alpha  occ. eigenvalues --   -0.48958  -0.47872  -0.46942  -0.44871  -0.44391
 Alpha  occ. eigenvalues --   -0.41822  -0.39968  -0.37835  -0.36745  -0.36586
 Alpha  occ. eigenvalues --   -0.34804  -0.32970  -0.31369  -0.30078  -0.29358
 Alpha  occ. eigenvalues --   -0.27597  -0.25679  -0.23425
 Alpha virt. eigenvalues --    0.02900   0.03965   0.04216   0.04821   0.05162
 Alpha virt. eigenvalues --    0.06040   0.06273   0.06969   0.07301   0.08413
 Alpha virt. eigenvalues --    0.08591   0.09957   0.10414   0.10695   0.11610

 Mulliken charges:
               1
     1  H    1.017546
     2  O   -2.951195
     3  C   -1.214060
     4  C   -1.302984
     5  H    1.364057
     6  H    1.462185
     7  H    1.791626
     8  O   -3.987833
     9  C    0.736603
    10  C    2.514189
    11  H    1.754981
    12  O   -3.325841
    13  C    1.209695
    14  H    2.065681
    15  N   -3.024380
    16  H    0.741630
    17  F   -0.004959
    18  F   -0.017170
    19  C    5.848335
    20  C   -0.928579
    21  O   -3.482706
    22  N   -3.704867
    23  H    1.968543
    24  C   -1.487890
    25  C    3.711938
    26  H    1.593851
    27  N   -3.883147
    28  H    0.675271
    29  H    0.859481
 Sum of Mulliken charges =  -0.00000

 Dipole moment (field-independent basis, Debye):
    X=              1.0463    Y=             -0.6596    Z=             -4.6626  Tot=              4.8238

 Test job not archived.
 1\1\GINC-SE046\SP\RHF\Aug-CC-pVDZ\C9H11F2N3O4\OHZDE\08-Apr-2025\0\\#t
 hf aug-cc-pvdz iop(5/13=1,5/36=2,99/5=2) pseudo=read geom=check guess=
 (read,tcheck) scf=(maxcycle=1)\\title\\0,1\H,0,-4.67713,-0.7828,-0.108
 84\O,0,-4.54394,-1.57778,0.44145\C,0,-3.1563,-1.88727,0.4358\C,0,-2.31
 519,-0.63102,0.59652\H,0,-2.85093,-2.40908,-0.49361\H,0,-2.9735,-2.566
 71,1.28056\H,0,-2.65919,-0.06907,1.48711\O,0,-0.92853,-0.97398,0.71488
 \C,0,-2.35255,0.30315,-0.61866\C,0,-0.19937,0.25008,0.56375\H,0,-2.284
 59,-0.30655,-1.54077\O,0,-3.52415,1.09232,-0.5939\C,0,-1.01016,1.06232

 Normal termination of Gaussian 16 at Tue Apr  8 18:13:44 2025.
