 Gaussian 16, Revision C.01,

 ----------------------------------------------------------------------
 #t hf aug-cc-pvdz symm=none int=(grid=ultrafine) guess=(read,tcheck) s
 table=(opt,rrhf)
 ----------------------------------------------------------------------
 -----
 title
 -----
 Symbolic Z-matrix:
 Charge =  0 Multiplicity = 1

 SCF Done:  E(RHF) =  -898.731106546     A.U. after   15 cycles
 Normal termination of Gaussian 16 at Tue Apr  8 18:49:32 2025.
 Gaussian 16:  ES64L-G16RevC.01  3-Jul-2019

 ----------------------------------------------------------------------
 #t hf aug-cc-pvdz iop(5/13=1,5/36=2,99/5=2) pseudo=read geom=check gue
 ss=(read,tcheck) scf=(maxcycle=1)
 ----------------------------------------------------------------------
 -----
 title
 -----
 Structure from the checkpoint file:  "37Conf8_Knoevenagel_cond_7_mol1.chk"
 Charge =  0 Multiplicity = 1

                         Standard orientation:
 ---------------------------------------------------------------------
 Center     Atomic      Atomic             Coordinates (Angstroms)
 Number     Number       Type             X           Y           Z
 ---------------------------------------------------------------------
      1          8           0        2.349280   -0.745671   -1.468320
      2          6           0        2.067150   -0.482091   -0.314030
      3          6           0        0.682370   -0.611360    0.312660
      4          8           0        2.954580   -0.044701    0.607580
      5          6           0       -0.397480   -0.983890   -0.730820
      6          6           0        0.313620    0.591020    1.210470
      7          1           0        0.774270   -1.429830    1.044440
      8          6           0        4.333240    0.094259    0.162240
      9          6           0       -0.330850   -2.479020   -1.070440
     10          7           0       -1.703330   -0.491670   -0.277130
     11          1           0       -0.167120   -0.429200   -1.652890
     12          8           0        0.299570    1.847450    0.702040
     13          8           0        0.094090    0.442210    2.393480
     14          6           0        5.082220   -1.218361    0.284370
     15          1           0        4.331890    0.460389   -0.873710
     16          1           0        4.749230    0.863619    0.825100
     17          1           0        4.661060   -1.972341   -0.393470
     18          1           0        6.138140   -1.067931    0.016100
     19          1           0        5.040100   -1.598411    1.314290
     20          1           0       -1.099630   -2.745470   -1.809600
     21          1           0        0.649160   -2.723390   -1.500700
     22          1           0       -0.484170   -3.100520   -0.176220
     23          6           0       -2.670440   -0.318040   -1.357960
     24          6           0       -2.293010   -1.225140    0.846730
     25          6           0        0.320490    2.108130   -0.718130
     26          1           0       -3.029310   -1.296860   -1.753590
     27          1           0       -2.168670    0.198910   -2.191980
     28          6           0       -3.872040    0.493040   -0.874500
     29          1           0       -2.641940   -2.233890    0.529960
     30          1           0       -1.528430   -1.365230    1.623110
     31          6           0       -3.473340   -0.445530    1.422370
     32          6           0        0.498051    3.600660   -0.898500
     33          1           0        1.140800    1.558279   -1.204000
     34          1           0       -0.635430    1.764300   -1.141610
     35          1           0        0.496311    3.849300   -1.969340
     36          1           0        1.449351    3.937479   -0.464550
     37          1           0       -0.318989    4.150070   -0.411830
     38          1           0       -4.597160    0.600700   -1.696320
     39          1           0       -3.527060    1.504470   -0.602470
     40          6           0       -4.521070   -0.172310    0.341390
     41          1           0       -3.913070   -1.013780    2.256480
     42          1           0       -3.095640    0.503750    1.834710
     43          1           0       -5.336240    0.453180    0.736240
     44          1           0       -4.977800   -1.128390    0.028420
 ---------------------------------------------------------------------

 SCF Done:  E(RHF) =  -902.944460206     A.U. after    2 cycles

 The electronic state is 1-A.
 Alpha  occ. eigenvalues --  -21.09869 -21.07951 -21.06236 -21.03683 -15.70293
 Alpha  occ. eigenvalues --  -11.57530 -11.54461 -11.49631 -11.46279 -11.45823
 Alpha  occ. eigenvalues --  -11.45676 -11.44463 -11.43737 -11.41274 -11.39373
 Alpha  occ. eigenvalues --  -11.38619 -11.37984 -11.37757 -11.34986  -1.85283
 Alpha  occ. eigenvalues --   -1.82151  -1.67524  -1.65230  -1.46052  -1.25383
 Alpha  occ. eigenvalues --   -1.17053  -1.13732  -1.13442  -1.11992  -1.06708
 Alpha  occ. eigenvalues --   -0.95024  -0.91453  -0.90431  -0.89962  -0.84650
 Alpha  occ. eigenvalues --   -0.81117  -0.77298  -0.75838  -0.71264  -0.67311
 Alpha  occ. eigenvalues --   -0.66777  -0.65096  -0.64384  -0.63474  -0.61500
 Alpha  occ. eigenvalues --   -0.60949  -0.59922  -0.59601  -0.57154  -0.55926
 Alpha  occ. eigenvalues --   -0.55721  -0.54563  -0.53413  -0.53286  -0.52573
 Alpha  occ. eigenvalues --   -0.52339  -0.52037  -0.50951  -0.49587  -0.48890
 Alpha  occ. eigenvalues --   -0.48159  -0.47868  -0.46812  -0.44958  -0.44336
 Alpha  occ. eigenvalues --   -0.41625  -0.40398  -0.39570  -0.38917  -0.33727
 Alpha  occ. eigenvalues --   -0.31964  -0.30719  -0.30051  -0.27498
 Alpha virt. eigenvalues --    0.03603   0.03783   0.04078   0.04724   0.04787
 Alpha virt. eigenvalues --    0.05334   0.05606   0.05910   0.06080   0.06237
 Alpha virt. eigenvalues --    0.06330   0.06545   0.06993   0.07400   0.07768

 Mulliken charges:
               1
     1  O   -3.973321
     2  C    8.810103
     3  C   -2.377207
     4  O   -4.354755
     5  C   -1.192808
     6  C    8.168678
     7  H    1.825323
     8  C   -2.715315
     9  C   -5.906881
    10  N    3.284815
    11  H    2.757725
    12  O   -4.133191
    13  O   -3.929658
    14  C   -4.041671
    15  H    1.719850
    16  H    1.558013
    17  H    1.273750
    18  H    1.152506
    19  H    1.509374
    20  H    0.932141
    21  H    1.219356
    22  H    1.276955
    23  C   -3.157481
    24  C   -4.441094
    25  C   -2.312070
    26  H    1.294072
    27  H    1.825574
    28  C   -3.591739
    29  H    1.353783
    30  H    1.702982
    31  C   -3.345272
    32  C   -5.850127
    33  H    2.083397
    34  H    2.548554
    35  H    1.137700
    36  H    1.319857
    37  H    1.321897
    38  H    1.356366
    39  H    1.346559
    40  C   -2.805167
    41  H    1.346508
    42  H    1.368874
    43  H    1.450931
    44  H    1.182114
 Sum of Mulliken charges =  -0.00000

 Dipole moment (field-independent basis, Debye):
    X=              0.5779    Y=              0.3186    Z=             -1.4984  Tot=              1.6372

 Test job not archived.
 1\1\GINC-SE459\SP\RHF\Aug-CC-pVDZ\C14H25N1O4\OHZDE\08-Apr-2025\0\\#t h
 f aug-cc-pvdz iop(5/13=1,5/36=2,99/5=2) pseudo=read geom=check guess=(
 read,tcheck) scf=(maxcycle=1)\\title\\0,1\O,0,2.34928,-0.74567,-1.4683
 2\C,0,2.06715,-0.48209,-0.31403\C,0,0.68237,-0.61136,0.31266\O,0,2.954
 58,-0.0447,0.60758\C,0,-0.39748,-0.98389,-0.73082\C,0,0.31362,0.59102,
 1.21047\H,0,0.77427,-1.42983,1.04444\C,0,4.33324,0.09426,0.16224\C,0,-
 0.33085,-2.47902,-1.07044\N,0,-1.70333,-0.49167,-0.27713\H,0,-0.16712,
 -0.4292,-1.65289\O,0,0.29957,1.84745,0.70204\O,0,0.09409,0.44221,2.393

 Normal termination of Gaussian 16 at Tue Apr  8 18:51:09 2025.
