 Gaussian 16, Revision C.01,

 ----------------------------------------------------------------------
 #t hf aug-cc-pvdz symm=none int=(grid=ultrafine) guess=(read,tcheck) s
 table=(opt,rrhf)
 ----------------------------------------------------------------------
 -----
 title
 -----
 Symbolic Z-matrix:
 Charge =  0 Multiplicity = 1

 SCF Done:  E(RHF) =  -1587.90328843     A.U. after   16 cycles
 Normal termination of Gaussian 16 at Tue Apr  8 19:41:56 2025.
 Gaussian 16:  ES64L-G16RevC.01  3-Jul-2019

 ----------------------------------------------------------------------
 #t hf aug-cc-pvdz iop(5/13=1,5/36=2,99/5=2) pseudo=read geom=check gue
 ss=(read,tcheck) scf=(maxcycle=1)
 ----------------------------------------------------------------------
 -----
 title
 -----
 Structure from the checkpoint file:  "37Conf8_XylitolPentanit_7_mol1.chk"
 Charge =  0 Multiplicity = 1

                         Standard orientation:
 ---------------------------------------------------------------------
 Center     Atomic      Atomic             Coordinates (Angstroms)
 Number     Number       Type             X           Y           Z
 ---------------------------------------------------------------------
      1          1           0       -2.194101    1.817920    1.454400
      2          6           0       -1.255910    1.285550    1.250050
      3          6           0       -1.434100    0.393580    0.000160
      4          8           0       -0.178471    2.215930    1.095350
      5          1           0       -0.966670    0.711240    2.139070
      6          6           0       -0.734520   -0.981300    0.131140
      7          8           0       -2.804580    0.257010   -0.421280
      8          1           0       -1.028940    0.940740   -0.861460
      9          7           0       -0.559081    3.437770    0.323120
     10          6           0        0.817470   -0.967940    0.205710
     11          8           0       -1.250540   -1.993260   -0.756030
     12          1           0       -1.044950   -1.419090    1.091790
     13          7           0       -3.699610   -0.411991    0.546030
     14          8           0        0.377389    4.171890    0.182060
     15          8           0       -1.709611    3.515500   -0.035740
     16          6           0        1.568490    0.039300   -0.658380
     17          8           0        1.166360   -0.712670    1.576490
     18          1           0        1.143230   -1.987950   -0.053740
     19          7           0       -1.269370   -1.711820   -2.213580
     20          8           0       -3.232800   -0.671281    1.635070
     21          8           0       -4.792320   -0.585991    0.091050
     22          8           0        2.942900   -0.375259   -0.579820
     23          1           0        1.454290    1.056840   -0.260110
     24          1           0        1.215280    0.004230   -1.697290
     25          7           0        3.853760    0.564671   -1.256400
     26          8           0        4.999940    0.220741   -1.161520
     27          8           0        3.341100    1.515511   -1.799830
     28          7           0        1.958020   -1.814430    2.246470
     29          8           0       -0.767620   -0.676610   -2.589550
     30          8           0       -1.799690   -2.599120   -2.815020
     31          8           0        2.256880   -1.493010    3.358990
     32          8           0        2.159470   -2.812940    1.606760
 ---------------------------------------------------------------------

 SCF Done:  E(RHF) =  -1594.55876853     A.U. after    2 cycles

 The electronic state is 1-A.
 Alpha  occ. eigenvalues --  -21.18291 -21.18177 -21.17545 -21.17531 -21.17389
 Alpha  occ. eigenvalues --  -21.17159 -21.16936 -21.16917 -21.16833 -21.16718
 Alpha  occ. eigenvalues --  -21.16513 -21.16497 -21.16251 -21.15246 -21.14994
 Alpha  occ. eigenvalues --  -16.10246 -16.10039 -16.09926 -16.09463 -16.08222
 Alpha  occ. eigenvalues --  -11.62412 -11.59124 -11.55451 -11.51713 -11.48028
 Alpha  occ. eigenvalues --   -2.11190  -2.10362  -2.09679  -2.09191  -2.08702
 Alpha  occ. eigenvalues --   -1.83034  -1.80499  -1.79396  -1.78332  -1.78163
 Alpha  occ. eigenvalues --   -1.78052  -1.77567  -1.77458  -1.76572  -1.75894
 Alpha  occ. eigenvalues --   -1.25876  -1.17426  -1.09362  -1.03738  -1.00630
 Alpha  occ. eigenvalues --   -0.94913  -0.93437  -0.91886  -0.90892  -0.87686
 Alpha  occ. eigenvalues --   -0.79520  -0.78861  -0.78447  -0.77291  -0.76523
 Alpha  occ. eigenvalues --   -0.75563  -0.75198  -0.74911  -0.74142  -0.73555
 Alpha  occ. eigenvalues --   -0.72891  -0.72092  -0.70364  -0.69702  -0.68233
 Alpha  occ. eigenvalues --   -0.67168  -0.66425  -0.65920  -0.64031  -0.61781
 Alpha  occ. eigenvalues --   -0.58870  -0.57016  -0.55792  -0.52394  -0.51010
 Alpha  occ. eigenvalues --   -0.50054  -0.45300  -0.43247  -0.41327  -0.41278
 Alpha  occ. eigenvalues --   -0.40239  -0.39952  -0.39617  -0.39390  -0.38922
 Alpha  occ. eigenvalues --   -0.38734  -0.38271  -0.38047  -0.37754  -0.37700
 Alpha  occ. eigenvalues --   -0.37001  -0.36616  -0.36162  -0.35969  -0.35926
 Alpha  occ. eigenvalues --   -0.34731
 Alpha virt. eigenvalues --    0.04114   0.04771   0.05219   0.05951   0.06228
 Alpha virt. eigenvalues --    0.06679   0.07841   0.08477   0.09569   0.09992
 Alpha virt. eigenvalues --    0.10563   0.10874   0.11188   0.11679   0.12063

 Mulliken charges:
               1
     1  H    1.627336
     2  C   -2.958273
     3  C    2.946559
     4  O   -2.595732
     5  H    1.655197
     6  C    1.718752
     7  O   -3.881272
     8  H    2.654326
     9  N    5.839744
    10  C    0.833422
    11  O   -3.769101
    12  H    2.347263
    13  N    5.601464
    14  O   -2.763462
    15  O   -2.562926
    16  C   -3.268675
    17  O   -3.146131
    18  H    1.960335
    19  N    5.733516
    20  O   -2.807644
    21  O   -2.710844
    22  O   -3.057778
    23  H    2.347138
    24  H    2.163877
    25  N    6.631429
    26  O   -2.852789
    27  O   -2.788557
    28  N    5.940239
    29  O   -2.798516
    30  O   -2.678178
    31  O   -2.684330
    32  O   -2.676388
 Sum of Mulliken charges =   0.00000

 Dipole moment (field-independent basis, Debye):
    X=             -1.3314    Y=             -0.5533    Z=              1.1722  Tot=              1.8582

 Test job not archived.
 1\1\GINC-SE090\SP\RHF\Aug-CC-pVDZ\C5H7N5O15\OHZDE\08-Apr-2025\0\\#t hf
  aug-cc-pvdz iop(5/13=1,5/36=2,99/5=2) pseudo=read geom=check guess=(r
 ead,tcheck) scf=(maxcycle=1)\\title\\0,1\H,0,2.1941,1.81792,-1.4544\C,
 0,1.25591,1.28555,-1.25005\C,0,1.4341,0.39358,-0.00016\O,0,0.17847,2.2
 1593,-1.09535\H,0,0.96667,0.71124,-2.13907\C,0,0.73452,-0.9813,-0.1311
 4\O,0,2.80458,0.25701,0.42128\H,0,1.02894,0.94074,0.86146\N,0,0.55908,
 3.43777,-0.32312\C,0,-0.81747,-0.96794,-0.20571\O,0,1.25054,-1.99326,0
 .75603\H,0,1.04495,-1.41909,-1.09179\N,0,3.69961,-0.41199,-0.54603\O,0

 Normal termination of Gaussian 16 at Tue Apr  8 19:43:07 2025.
