 Gaussian 16, Revision C.01,

 ----------------------------------------------------------------------
 #t hf aug-cc-pvdz symm=none int=(grid=ultrafine) guess=(read,tcheck) s
 table=(opt,rrhf)
 ----------------------------------------------------------------------
 -----
 title
 -----
 Symbolic Z-matrix:
 Charge =  0 Multiplicity = 1

 SCF Done:  E(RHF) =  -1667.16735860     A.U. after   12 cycles
 Normal termination of Gaussian 16 at Tue Apr  8 18:33:01 2025.
 Gaussian 16:  ES64L-G16RevC.01  3-Jul-2019

 ----------------------------------------------------------------------
 #t hf aug-cc-pvdz iop(5/13=1,5/36=2,99/5=2) pseudo=read geom=check gue
 ss=(read,tcheck) scf=(maxcycle=1)
 ----------------------------------------------------------------------
 -----
 title
 -----
 Structure from the checkpoint file:  "37Conf8_N_iprit_8_mol1.chk"
 Charge =  0 Multiplicity = 1

                         Standard orientation:
 ---------------------------------------------------------------------
 Center     Atomic      Atomic             Coordinates (Angstroms)
 Number     Number       Type             X           Y           Z
 ---------------------------------------------------------------------
      1          1           0        1.691080   -0.349603    1.645732
      2          6           0        0.961609   -1.118192    1.358952
      3          6           0        1.575188   -2.019293    0.286062
      4          7           0       -0.299900   -0.462061    1.064592
      5          1           0        0.841108   -1.796982    2.233542
      6         17           0        1.949749   -1.200124   -1.273738
      7          1           0        0.911627   -2.854222    0.030442
      8          1           0        2.520087   -2.432504    0.662162
      9          6           0       -1.239981   -1.234400    0.274962
     10          6           0       -0.335169    0.986349    1.026852
     11          6           0       -2.691241   -0.788208    0.368772
     12          1           0       -0.967721   -1.315870   -0.798748
     13          1           0       -1.220382   -2.265040    0.675882
     14          6           0        0.277622    1.715338   -0.178288
     15          1           0       -1.388228    1.298530    1.080842
     16          1           0        0.142652    1.368568    1.942852
     17         17           0       -3.119249    0.544162   -0.781138
     18          1           0       -3.354612   -1.617728    0.099452
     19          1           0       -2.943390   -0.435688    1.376562
     20         17           0        2.027402    2.102346    0.067082
     21          1           0        0.213481    1.116608   -1.093658
     22          1           0       -0.218897    2.680259   -0.338528
 ---------------------------------------------------------------------

 SCF Done:  E(RHF) =  -1669.35502153     A.U. after    2 cycles

 The electronic state is 1-A.
 Alpha  occ. eigenvalues --  -99.88355 -99.87484 -99.86529 -15.71568 -11.48365
 Alpha  occ. eigenvalues --  -11.47405 -11.46092 -11.41720 -11.41037 -11.40139
 Alpha  occ. eigenvalues --  -10.45650 -10.44809 -10.43837  -9.65609  -9.65087
 Alpha  occ. eigenvalues --   -9.64872  -9.64740  -9.64266  -9.64009  -9.63793
 Alpha  occ. eigenvalues --   -9.63165  -9.63030  -1.46245  -1.33298  -1.32603
 Alpha  occ. eigenvalues --   -1.30340  -1.13310  -1.12793  -1.03239  -0.92766
 Alpha  occ. eigenvalues --   -0.91287  -0.80641  -0.70821  -0.69989  -0.66772
 Alpha  occ. eigenvalues --   -0.64939  -0.63875  -0.62915  -0.60597  -0.57928
 Alpha  occ. eigenvalues --   -0.57009  -0.56345  -0.54194  -0.52360  -0.51388
 Alpha  occ. eigenvalues --   -0.49882  -0.48563  -0.47982  -0.47236  -0.46029
 Alpha  occ. eigenvalues --   -0.45171  -0.44194  -0.30511
 Alpha virt. eigenvalues --    0.03353   0.04096   0.04663   0.05250   0.05429
 Alpha virt. eigenvalues --    0.05938   0.06375   0.06739   0.07032   0.07863
 Alpha virt. eigenvalues --    0.08315   0.09018   0.09207   0.09662   0.10454

 Mulliken charges:
               1
     1  H    1.673723
     2  C   -1.715445
     3  C   -3.765699
     4  N   -2.285080
     5  H    1.363461
     6  Cl   0.010576
     7  H    1.661677
     8  H    1.376576
     9  C   -1.795067
    10  C   -1.870189
    11  C   -4.032216
    12  H    1.746149
    13  H    1.703344
    14  C   -3.511275
    15  H    1.727464
    16  H    1.571599
    17  Cl   0.072855
    18  H    1.289055
    19  H    1.580967
    20  Cl   0.063675
    21  H    1.745570
    22  H    1.388280
 Sum of Mulliken charges =   0.00000

 Dipole moment (field-independent basis, Debye):
    X=             -1.9209    Y=             -3.0651    Z=              3.0121  Tot=              4.7072

 Test job not archived.
 1\1\GINC-SE364\SP\RHF\Aug-CC-pVDZ\C6H12Cl3N1\OHZDE\08-Apr-2025\0\\#t h
 f aug-cc-pvdz iop(5/13=1,5/36=2,99/5=2) pseudo=read geom=check guess=(
 read,tcheck) scf=(maxcycle=1)\\title\\0,1\H,0,1.69108,-0.3496,1.64573\
 C,0,0.96161,-1.11819,1.35895\C,0,1.57519,-2.01929,0.28606\N,0,-0.2999,
 -0.46206,1.06459\H,0,0.84111,-1.79698,2.23354\Cl,0,1.94975,-1.20012,-1
 .27374\H,0,0.91163,-2.85422,0.03044\H,0,2.52009,-2.4325,0.66216\C,0,-1
 .23998,-1.2344,0.27496\C,0,-0.33517,0.98635,1.02685\C,0,-2.69124,-0.78
 821,0.36877\H,0,-0.96772,-1.31587,-0.79875\H,0,-1.22038,-2.26504,0.675

 Normal termination of Gaussian 16 at Tue Apr  8 18:33:16 2025.
