 Gaussian 16, Revision C.01,

 ----------------------------------------------------------------------
 #t hf aug-cc-pvdz symm=none int=(grid=ultrafine) guess=(read,tcheck) s
 table=(opt,rrhf)
 ----------------------------------------------------------------------
 -----
 title
 -----
 Symbolic Z-matrix:
 Charge =  0 Multiplicity = 1

 SCF Done:  E(RHF) =  -1153.33337978     A.U. after   16 cycles
 Normal termination of Gaussian 16 at Tue Apr  8 18:51:06 2025.
 Gaussian 16:  ES64L-G16RevC.01  3-Jul-2019

 ----------------------------------------------------------------------
 #t hf aug-cc-pvdz iop(5/13=1,5/36=2,99/5=2) pseudo=read geom=check gue
 ss=(read,tcheck) scf=(maxcycle=1)
 ----------------------------------------------------------------------
 -----
 title
 -----
 Structure from the checkpoint file:  "37Conf8_Pyridoxalphosphate_2_mol2.chk"
 Charge =  0 Multiplicity = 1

                         Standard orientation:
 ---------------------------------------------------------------------
 Center     Atomic      Atomic             Coordinates (Angstroms)
 Number     Number       Type             X           Y           Z
 ---------------------------------------------------------------------
      1          1           0        2.483109    2.370330    0.046509
      2          8           0        3.204799    1.667021    0.196019
      3          6           0        2.583619    0.495300    0.038039
      4          6           0        1.204809    0.415930   -0.275151
      5          6           0        3.338669   -0.704159    0.185969
      6          6           0        0.453539    1.652840   -0.443001
      7          6           0        0.625750   -0.871610   -0.418581
      8          7           0        2.767460   -1.896199    0.039609
      9          6           0        4.796589   -0.627819    0.514599
     10          8           0        0.972619    2.774630   -0.299851
     11          1           0       -0.620521    1.589050   -0.711551
     12          6           0        1.451680   -1.972400   -0.249051
     13          6           0       -0.824380   -1.075510   -0.737251
     14          1           0        5.343159   -0.060929   -0.254541
     15          1           0        5.207030   -1.640629    0.587909
     16          1           0        4.957539   -0.093229    1.463279
     17          1           0        1.041700   -2.981950   -0.349831
     18          8           0       -1.635681   -0.699051    0.421409
     19          1           0       -1.140831   -0.478781   -1.607191
     20          1           0       -1.018940   -2.136411   -0.947811
     21         15           0       -3.034851    0.019719    0.138989
     22          8           0       -3.951860   -1.208201   -0.344561
     23          8           0       -3.557931    0.296659    1.628809
     24          8           0       -3.004871    1.193509   -0.764911
     25          1           0       -4.714640   -0.884162   -0.857361
     26          1           0       -3.385311    1.222359    1.879729
 ---------------------------------------------------------------------

 SCF Done:  E(RHF) =  -1157.06736921     A.U. after    2 cycles

 The electronic state is 1-A.
 Alpha  occ. eigenvalues -- -105.34802 -21.13603 -21.13445 -21.10415 -21.09381
 Alpha  occ. eigenvalues --  -21.08293 -21.04705 -15.76157 -11.53939 -11.52781
 Alpha  occ. eigenvalues --  -11.50970 -11.50084 -11.47879 -11.45602 -11.41333
 Alpha  occ. eigenvalues --  -11.38972  -2.97555  -2.01520  -1.94157  -1.93385
 Alpha  occ. eigenvalues --   -1.79042  -1.76692  -1.71332  -1.46891  -1.43907
 Alpha  occ. eigenvalues --   -1.42485  -1.28839  -1.23457  -1.15776  -1.07319
 Alpha  occ. eigenvalues --   -0.97648  -0.96449  -0.86191  -0.84385  -0.73070
 Alpha  occ. eigenvalues --   -0.72038  -0.67730  -0.65783  -0.63527  -0.62053
 Alpha  occ. eigenvalues --   -0.61789  -0.60612  -0.59794  -0.57797  -0.55243
 Alpha  occ. eigenvalues --   -0.53486  -0.52649  -0.51836  -0.51586  -0.48562
 Alpha  occ. eigenvalues --   -0.47141  -0.45854  -0.44700  -0.42645  -0.40404
 Alpha  occ. eigenvalues --   -0.38735  -0.36700  -0.36415  -0.35792  -0.30829
 Alpha  occ. eigenvalues --   -0.29534  -0.29303  -0.27737  -0.18958
 Alpha virt. eigenvalues --    0.03097   0.04705   0.05102   0.05109   0.05465
 Alpha virt. eigenvalues --    0.06525   0.06948   0.07205   0.07647   0.07885
 Alpha virt. eigenvalues --    0.08178   0.09225   0.09657   0.10235   0.10775

 Mulliken charges:
               1
     1  H    1.205125
     2  O   -4.434666
     3  C    2.621723
     4  C    1.792802
     5  C    2.072533
     6  C   -0.582885
     7  C    7.159744
     8  N   -4.561126
     9  C   -5.394801
    10  O   -3.360782
    11  H    1.727939
    12  C   -1.954400
    13  C   -4.000226
    14  H    1.231861
    15  H    1.250780
    16  H    1.229758
    17  H    1.711807
    18  O   -3.484939
    19  H    1.583140
    20  H    1.416018
    21  P    9.487596
    22  O   -2.635985
    23  O   -2.825417
    24  O   -2.910020
    25  H    0.781351
    26  H    0.873069
 Sum of Mulliken charges =   0.00000

 Dipole moment (field-independent basis, Debye):
    X=             -1.5318    Y=             -0.9155    Z=              1.3197  Tot=              2.2195

 Test job not archived.
 1\1\GINC-SE329\SP\RHF\Aug-CC-pVDZ\C8H10N1O6P1\OHZDE\08-Apr-2025\0\\#t
 hf aug-cc-pvdz iop(5/13=1,5/36=2,99/5=2) pseudo=read geom=check guess=
 (read,tcheck) scf=(maxcycle=1)\\title\\0,1\H,0,2.48311,2.37033,0.04651
 \O,0,3.2048,1.66702,0.19602\C,0,2.58362,0.4953,0.03804\C,0,1.20481,0.4
 1593,-0.27515\C,0,3.33867,-0.70416,0.18597\C,0,0.45354,1.65284,-0.443\
 C,0,0.62575,-0.87161,-0.41858\N,0,2.76746,-1.8962,0.03961\C,0,4.79659,
 -0.62782,0.5146\O,0,0.97262,2.77463,-0.29985\H,0,-0.62052,1.58905,-0.7
 1155\C,0,1.45168,-1.9724,-0.24905\C,0,-0.82438,-1.07551,-0.73725\H,0,5

 Normal termination of Gaussian 16 at Tue Apr  8 18:51:34 2025.
