 Gaussian 16, Revision C.01,

 ----------------------------------------------------------------------
 #t hf aug-cc-pvdz symm=none int=(grid=ultrafine) guess=(read,tcheck) s
 table=(opt,rrhf)
 ----------------------------------------------------------------------
 -----
 title
 -----
 Symbolic Z-matrix:
 Charge =  0 Multiplicity = 1

 SCF Done:  E(RHF) =  -382.157155423     A.U. after   12 cycles

 1\1\GINC-SE092\Stability\RHF\Aug-CC-pVDZ\C7H14N2\OHZDE\08-Apr-2025\0\\
 #t hf aug-cc-pvdz symm=none int=(grid=ultrafine) guess=(read,tcheck) s
 table=(opt,rrhf)\\title\\0,1\H,0,0.76351,0.,-1.75009\N,0,1.49086,0.,-1
 .03025\C,0,1.29354,-1.21771,-0.23748\C,0,1.29354,1.21771,-0.23748\H,0,
 1.29398,-2.0757,-0.92868\H,0,2.1665,-1.34454,0.42931\C,0,0.02075,-1.23
 429,0.63846\H,0,1.29398,2.0757,-0.92868\H,0,2.1665,1.34454,0.42931\C,0
 ,0.02075,1.23429,0.63846\H,0,0.02977,-2.15562,1.24583\C,0,-1.2828,-1.2
 2442,-0.17347\C,0,0.03923,0.,1.54893\H,0,0.02977,2.15562,1.24583\C,0,-

 Normal termination of Gaussian 16 at Tue Apr  8 17:25:23 2025.
 Gaussian 16:  ES64L-G16RevC.01  3-Jul-2019

 ----------------------------------------------------------------------
 #t hf aug-cc-pvdz iop(5/13=1,5/36=2,99/5=2) pseudo=read geom=check gue
 ss=(read,tcheck) scf=(maxcycle=1)
 ----------------------------------------------------------------------
 -----
 title
 -----
 Structure from the checkpoint file:  "37Conf8_Bispidin_3_mol2.chk"
 Charge =  0 Multiplicity = 1

                         Standard orientation:
 ---------------------------------------------------------------------
 Center     Atomic      Atomic             Coordinates (Angstroms)
 Number     Number       Type             X           Y           Z
 ---------------------------------------------------------------------
      1          1           0        1.889163   -0.277182    0.000000
      2          7           0        1.662698    0.720776    0.000000
      3          6           0        0.885463    0.972420    1.217710
      4          6           0        0.885463    0.972420   -1.217710
      5          1           0        1.472395    0.607361    2.075700
      6          1           0        0.781010    2.065927    1.344540
      7          6           0       -0.530962    0.355162    1.234290
      8          1           0        1.472395    0.607361   -2.075700
      9          1           0        0.781010    2.065927   -1.344540
     10          6           0       -0.530962    0.355162   -1.234290
     11          1           0       -1.041737    0.683930    2.155620
     12          6           0       -0.530962   -1.180570    1.224420
     13          6           0       -1.294010    0.852206   -0.000000
     14          1           0       -1.041737    0.683930   -2.155620
     15          6           0       -0.530962   -1.180570   -1.224420
     16          1           0        0.034016   -1.569454    2.087270
     17          1           0       -1.585653   -1.522710    1.338590
     18          7           0        0.092481   -1.697020   -0.000000
     19          1           0       -2.328099    0.467298   -0.000000
     20          1           0       -1.352382    1.953439    0.000000
     21          1           0        0.034016   -1.569454   -2.087270
     22          1           0       -1.585653   -1.522710   -1.338590
     23          1           0        0.066588   -2.717327   -0.000000
 ---------------------------------------------------------------------

 SCF Done:  E(RHF) =  -384.054691923     A.U. after    2 cycles

 The electronic state is 1-A'.
 Alpha  occ. eigenvalues --  -15.71163 -15.69065 -11.46400 -11.42733 -11.42494
 Alpha  occ. eigenvalues --  -11.42221 -11.41029 -11.37167 -11.34698  -1.44519
 Alpha  occ. eigenvalues --   -1.34118  -1.17759  -1.16030  -1.00586  -0.92461
 Alpha  occ. eigenvalues --   -0.87849  -0.85174  -0.74920  -0.69919  -0.65069
 Alpha  occ. eigenvalues --   -0.63634  -0.60585  -0.57749  -0.57038  -0.56445
 Alpha  occ. eigenvalues --   -0.55368  -0.48870  -0.47902  -0.46705  -0.46133
 Alpha  occ. eigenvalues --   -0.43477  -0.39161  -0.38318  -0.34289  -0.27160
 Alpha virt. eigenvalues --    0.03947   0.04818   0.04850   0.05104   0.05212
 Alpha virt. eigenvalues --    0.05400   0.06134   0.06447   0.06962   0.08010
 Alpha virt. eigenvalues --    0.08334   0.08499   0.08768   0.09357   0.12157

 Mulliken charges:
               1
     1  H    0.680450
     2  N   -2.005544
     3  C   -2.554202
     4  C   -2.554202
     5  H    1.390657
     6  H    1.318119
     7  C    0.079884
     8  H    1.390657
     9  H    1.318119
    10  C    0.079884
    11  H    1.662696
    12  C   -3.110917
    13  C   -3.210296
    14  H    1.662696
    15  C   -3.110917
    16  H    1.413287
    17  H    1.295845
    18  N   -1.548933
    19  H    1.216535
    20  H    1.251749
    21  H    1.413287
    22  H    1.295845
    23  H    0.625302
 Sum of Mulliken charges =  -0.00000

 Dipole moment (field-independent basis, Debye):
    X=             -1.2608    Y=             -1.2078    Z=             -0.0000  Tot=              1.7460

 Test job not archived.
 1\1\GINC-SE092\SP\RHF\Aug-CC-pVDZ\C7H14N2\OHZDE\08-Apr-2025\0\\#t hf a
 ug-cc-pvdz iop(5/13=1,5/36=2,99/5=2) pseudo=read geom=check guess=(rea
 d,tcheck) scf=(maxcycle=1)\\title\\0,1\H,0,0.76351,0.,-1.75009\N,0,1.4
 9086,0.,-1.03025\C,0,1.29354,-1.21771,-0.23748\C,0,1.29354,1.21771,-0.
 23748\H,0,1.29398,-2.0757,-0.92868\H,0,2.1665,-1.34454,0.42931\C,0,0.0
 2075,-1.23429,0.63846\H,0,1.29398,2.0757,-0.92868\H,0,2.1665,1.34454,0
 .42931\C,0,0.02075,1.23429,0.63846\H,0,0.02977,-2.15562,1.24583\C,0,-1
 .2828,-1.22442,-0.17347\C,0,0.03923,0.,1.54893\H,0,0.02977,2.15562,1.2

 Normal termination of Gaussian 16 at Tue Apr  8 17:25:31 2025.
