 Gaussian 16, Revision C.01,

 ----------------------------------------------------------------------
 #t hf aug-cc-pvdz symm=none int=(grid=ultrafine) guess=(read,tcheck) s
 table=(opt,rrhf)
 ----------------------------------------------------------------------
 -----
 title
 -----
 Symbolic Z-matrix:
 Charge =  0 Multiplicity = 1

 SCF Done:  E(RHF) =  -1673.87818271     A.U. after   16 cycles
 Normal termination of Gaussian 16 at Tue Apr  8 19:09:56 2025.
 Gaussian 16:  ES64L-G16RevC.01  3-Jul-2019

 ----------------------------------------------------------------------
 #t hf aug-cc-pvdz iop(5/13=1,5/36=2,99/5=2) pseudo=read geom=check gue
 ss=(read,tcheck) scf=(maxcycle=1)
 ----------------------------------------------------------------------
 -----
 title
 -----
 Structure from the checkpoint file:  "37Conf8_Pantoprazole_8_mol1.chk"
 Charge =  0 Multiplicity = 1

                         Standard orientation:
 ---------------------------------------------------------------------
 Center     Atomic      Atomic             Coordinates (Angstroms)
 Number     Number       Type             X           Y           Z
 ---------------------------------------------------------------------
      1          1           0        7.025210    0.405521   -0.286650
      2          6           0        6.005800    0.033501   -0.394450
      3          6           0        5.732550   -1.218679   -0.937240
      4          6           0        4.939040    0.843061    0.004000
      5          1           0        6.550340   -1.872639   -1.251950
      6          7           0        4.494130   -1.691619   -1.127530
      7          8           0        5.218090    2.071241    0.539480
      8          6           0        3.635860    0.323710   -0.118460
      9          6           0        3.460080   -0.933240   -0.729760
     10          6           0        4.598600    3.196691   -0.111770
     11          8           0        2.518970    1.019550    0.315850
     12          6           0        2.089560   -1.484560   -0.960210
     13          1           0        4.900440    3.233311   -1.170020
     14          1           0        3.501730    3.158670   -0.046190
     15          1           0        4.975110    4.084201    0.408580
     16          6           0        2.494190    1.272120    1.744060
     17         16           0        1.198190   -1.914420    0.652170
     18          1           0        1.448570   -0.806800   -1.536900
     19          1           0        2.157081   -2.457140   -1.463330
     20          6           0       -0.327130   -1.000570    0.262440
     21          8           0        0.888251   -3.368060    0.629240
     22          7           0       -1.532800   -1.494860    0.419690
     23          7           0       -0.310220    0.339910   -0.065490
     24          6           0       -2.382040   -0.427390    0.160790
     25          1           0        0.535770    0.893500   -0.195890
     26          6           0       -1.633140    0.741380   -0.141260
     27          6           0       -3.783760   -0.388911    0.183600
     28          6           0       -2.246300    1.961870   -0.431100
     29          1           0       -4.353130   -1.273471    0.464570
     30          6           0       -4.384050    0.829469   -0.122150
     31          1           0       -1.674890    2.860880   -0.664710
     32          6           0       -3.636650    1.986779   -0.422310
     33          8           0       -5.764830    1.017019   -0.135160
     34          1           0       -4.180320    2.903519   -0.649580
     35          6           0       -6.551560   -0.083151   -0.374910
     36          9           0       -7.748110    0.376849   -0.816200
     37          9           0       -6.791800   -0.780681    0.787160
     38          1           0       -6.114220   -0.778751   -1.111110
     39          1           0        1.566810    1.823260    1.939170
     40          1           0        3.362110    1.869940    2.052690
     41          1           0        2.479590    0.316710    2.288350
 ---------------------------------------------------------------------

 SCF Done:  E(RHF) =  -1679.65677698     A.U. after    2 cycles

 The electronic state is 1-A.
 Alpha  occ. eigenvalues --  -75.81555 -29.29210 -29.28484 -21.11027 -21.10405
 Alpha  occ. eigenvalues --  -21.10358 -21.01916 -15.81177 -15.76101 -15.74542
 Alpha  occ. eigenvalues --  -13.39341 -13.30901 -13.22902 -11.57853 -11.55612
 Alpha  occ. eigenvalues --  -11.55478 -11.52493 -11.48807 -11.48399 -11.48009
 Alpha  occ. eigenvalues --  -11.47696 -11.46939 -11.46573 -11.45554 -11.45391
 Alpha  occ. eigenvalues --  -11.44921 -11.43455 -11.41757 -11.39688  -8.15661
 Alpha  occ. eigenvalues --   -1.85172  -1.83913  -1.79148  -1.70577  -1.58504
 Alpha  occ. eigenvalues --   -1.46151  -1.31093  -1.30051  -1.22735  -1.21280
 Alpha  occ. eigenvalues --   -1.18704  -1.12715  -1.10401  -1.06481  -1.03638
 Alpha  occ. eigenvalues --   -1.00845  -0.98705  -0.90541  -0.88212  -0.87744
 Alpha  occ. eigenvalues --   -0.87092  -0.83497  -0.81844  -0.78358  -0.74508
 Alpha  occ. eigenvalues --   -0.71775  -0.71196  -0.70223  -0.68527  -0.68155
 Alpha  occ. eigenvalues --   -0.65904  -0.65020  -0.63996  -0.63929  -0.62372
 Alpha  occ. eigenvalues --   -0.61968  -0.60866  -0.59782  -0.59224  -0.57324
 Alpha  occ. eigenvalues --   -0.56577  -0.54873  -0.53614  -0.53350  -0.51677
 Alpha  occ. eigenvalues --   -0.50528  -0.49631  -0.47350  -0.46447  -0.45247
 Alpha  occ. eigenvalues --   -0.44075  -0.43379  -0.42940  -0.42017  -0.41165
 Alpha  occ. eigenvalues --   -0.39407  -0.39196  -0.37768  -0.37190  -0.33390
 Alpha  occ. eigenvalues --   -0.32611  -0.32397  -0.32028  -0.31721  -0.30029
 Alpha  occ. eigenvalues --   -0.29033  -0.27249  -0.25407  -0.21801
 Alpha virt. eigenvalues --    0.02117   0.03354   0.03608   0.03721   0.04307
 Alpha virt. eigenvalues --    0.04496   0.04842   0.05467   0.06069   0.06661
 Alpha virt. eigenvalues --    0.07100   0.07305   0.07711   0.08154   0.08354

 Mulliken charges:
               1
     1  H    1.810062
     2  C   -3.536630
     3  C   -0.726603
     4  C    7.535364
     5  H    1.764247
     6  N   -4.586588
     7  O   -4.710167
     8  C    3.741278
     9  C    4.114173
    10  C   -4.073057
    11  O   -3.824296
    12  C   -5.188410
    13  H    1.400996
    14  H    1.813711
    15  H    1.182076
    16  C   -4.391865
    17  S    3.904710
    18  H    1.619169
    19  H    1.535210
    20  C    1.551053
    21  O   -2.739043
    22  N   -4.843386
    23  N   -5.769521
    24  C    4.359780
    25  H    0.809345
    26  C    6.165109
    27  C   -1.699127
    28  C   -3.186429
    29  H    1.976854
    30  C    3.906959
    31  H    1.863075
    32  C   -5.044255
    33  O   -4.342733
    34  H    1.855359
    35  C   -0.264760
    36  F    0.044109
    37  F    0.186277
    38  H    1.426143
    39  H    1.321225
    40  H    1.513525
    41  H    1.527056
 Sum of Mulliken charges =   0.00000

 Dipole moment (field-independent basis, Debye):
    X=              2.9133    Y=              4.9950    Z=              1.1155  Tot=              5.8891

 Test job not archived.
 1\1\GINC-SE368\SP\RHF\Aug-CC-pVDZ\C16H15F2N3O4S1\OHZDE\08-Apr-2025\0\\
 #t hf aug-cc-pvdz iop(5/13=1,5/36=2,99/5=2) pseudo=read geom=check gue
 ss=(read,tcheck) scf=(maxcycle=1)\\title\\0,1\H,0,7.02521,0.40552,-0.2
 8665\C,0,6.0058,0.0335,-0.39445\C,0,5.73255,-1.21868,-0.93724\C,0,4.93
 904,0.84306,0.004\H,0,6.55034,-1.87264,-1.25195\N,0,4.49413,-1.69162,-
 1.12753\O,0,5.21809,2.07124,0.53948\C,0,3.63586,0.32371,-0.11846\C,0,3
 .46008,-0.93324,-0.72976\C,0,4.5986,3.19669,-0.11177\O,0,2.51897,1.019
 55,0.31585\C,0,2.08956,-1.48456,-0.96021\H,0,4.90044,3.23331,-1.17002\

 Normal termination of Gaussian 16 at Tue Apr  8 19:11:22 2025.
