 Gaussian 16, Revision C.01,

 ----------------------------------------------------------------------
 #t hf aug-cc-pvdz symm=none int=(grid=ultrafine) guess=(read,tcheck) s
 table=(opt,rrhf)
 ----------------------------------------------------------------------
 -----
 title
 -----
 Symbolic Z-matrix:
 Charge =  0 Multiplicity = 1

 SCF Done:  E(RHF) =  -787.713797900     A.U. after   16 cycles
 Normal termination of Gaussian 16 at Tue Apr  8 18:11:21 2025.
 Gaussian 16:  ES64L-G16RevC.01  3-Jul-2019

 ----------------------------------------------------------------------
 #t hf aug-cc-pvdz iop(5/13=1,5/36=2,99/5=2) pseudo=read geom=check gue
 ss=(read,tcheck) scf=(maxcycle=1)
 ----------------------------------------------------------------------
 -----
 title
 -----
 Structure from the checkpoint file:  "37Conf8_Eperisone_5_mol1.chk"
 Charge =  0 Multiplicity = 1

                         Standard orientation:
 ---------------------------------------------------------------------
 Center     Atomic      Atomic             Coordinates (Angstroms)
 Number     Number       Type             X           Y           Z
 ---------------------------------------------------------------------
      1          8           0       -0.009370    2.180170    1.074299
      2          6           0       -0.231560    0.996140    0.830559
      3          6           0        0.869880   -0.037070    1.043259
      4          6           0       -1.578280    0.579670    0.319949
      5          6           0        1.379580   -0.664940   -0.305061
      6          6           0        0.501790   -1.091920    2.096669
      7          1           0        1.697510    0.564460    1.449089
      8          6           0       -2.612270    1.531120    0.343519
      9          6           0       -1.858080   -0.692640   -0.203471
     10          7           0        2.797800   -0.515580   -0.577781
     11          1           0        0.838830   -0.221470   -1.155561
     12          1           0        1.149750   -1.744730   -0.305711
     13          6           0        3.664530   -1.164130    0.400689
     14          6           0        3.199610    0.863130   -0.851501
     15          1           0        3.299230   -2.193110    0.550409
     16          1           0        3.624030   -0.656590    1.393699
     17          6           0        5.114550   -1.177340   -0.080951
     18          1           0        2.501370    1.278620   -1.594901
     19          1           0        3.119370    1.505960    0.055169
     20          6           0        4.633940    0.917700   -1.373371
     21          1           0        5.750150   -1.647140    0.685719
     22          1           0        5.180170   -1.797120   -0.990351
     23          6           0        5.592720    0.242460   -0.390811
     24          1           0        4.920630    1.967190   -1.541931
     25          1           0        4.678440    0.402190   -2.346961
     26          1           0        6.617730    0.229320   -0.791891
     27          1           0        5.624780    0.827530    0.545679
     28          1           0       -0.324450   -1.737480    1.770459
     29          1           0        1.370280   -1.734140    2.302419
     30          1           0        0.202010   -0.618810    3.043079
     31          1           0       -2.383290    2.522570    0.737029
     32          6           0       -3.880790    1.216330   -0.127151
     33          1           0       -1.079050   -1.452180   -0.257801
     34          6           0       -3.128800   -0.999330   -0.686221
     35          1           0       -4.672410    1.969540   -0.097471
     36          6           0       -4.163710   -0.055230   -0.651751
     37          1           0       -3.322990   -1.990950   -1.102641
     38          6           0       -5.551870   -0.408430   -1.118051
     39          6           0       -6.425230   -0.949800    0.024029
     40          1           0       -5.490020   -1.160580   -1.920101
     41          1           0       -6.030470    0.483340   -1.552591
     42          1           0       -7.433900   -1.199180   -0.335381
     43          1           0       -5.981730   -1.856760    0.459609
     44          1           0       -6.521670   -0.207100    0.829019
 ---------------------------------------------------------------------

 SCF Done:  E(RHF) =  -791.572026947     A.U. after    2 cycles

 The electronic state is 1-A.
 Alpha  occ. eigenvalues --  -21.03866 -15.69770 -11.53849 -11.51344 -11.47288
 Alpha  occ. eigenvalues --  -11.45768 -11.45208 -11.44958 -11.44708 -11.42807
 Alpha  occ. eigenvalues --  -11.42287 -11.41747 -11.41067 -11.40577 -11.38510
 Alpha  occ. eigenvalues --  -11.37847 -11.37423 -11.36909 -11.34611  -1.69555
 Alpha  occ. eigenvalues --   -1.45088  -1.36137  -1.23531  -1.19736  -1.16591
 Alpha  occ. eigenvalues --   -1.11686  -1.09674  -1.07418  -1.00675  -0.94832
 Alpha  occ. eigenvalues --   -0.91409  -0.89668  -0.87208  -0.86412  -0.83957
 Alpha  occ. eigenvalues --   -0.77630  -0.76723  -0.67831  -0.67160  -0.65851
 Alpha  occ. eigenvalues --   -0.64235  -0.63469  -0.61941  -0.60861  -0.60033
 Alpha  occ. eigenvalues --   -0.59131  -0.58271  -0.57875  -0.57123  -0.55816
 Alpha  occ. eigenvalues --   -0.53871  -0.53476  -0.52913  -0.51974  -0.51139
 Alpha  occ. eigenvalues --   -0.49595  -0.48432  -0.47303  -0.46970  -0.46598
 Alpha  occ. eigenvalues --   -0.45234  -0.44729  -0.43351  -0.42195  -0.41791
 Alpha  occ. eigenvalues --   -0.40175  -0.39813  -0.33583  -0.31025  -0.29711
 Alpha  occ. eigenvalues --   -0.26546
 Alpha virt. eigenvalues --    0.03531   0.04006   0.04527   0.04934   0.05008
 Alpha virt. eigenvalues --    0.05307   0.05566   0.05771   0.05815   0.06151
 Alpha virt. eigenvalues --    0.06275   0.06508   0.06726   0.07230   0.07302

 Mulliken charges:
               1
     1  O   -4.366444
     2  C    3.985197
     3  C   -0.597732
     4  C    3.017890
     5  C   -1.489267
     6  C   -6.344115
     7  H    2.053932
     8  C   -4.153102
     9  C    1.138856
    10  N   -2.537703
    11  H    2.099778
    12  H    1.729883
    13  C   -3.195772
    14  C   -2.677727
    15  H    1.732078
    16  H    1.643691
    17  C   -3.421018
    18  H    1.500883
    19  H    1.687719
    20  C   -3.317072
    21  H    1.232306
    22  H    1.286407
    23  C   -3.127580
    24  H    1.255983
    25  H    1.321249
    26  H    1.409145
    27  H    1.387716
    28  H    1.325136
    29  H    1.272930
    30  H    1.317126
    31  H    1.902398
    32  C   -0.461709
    33  H    3.406178
    34  C   -3.829863
    35  H    1.801500
    36  C    1.076661
    37  H    1.757712
    38  C   -4.927540
    39  C   -4.339038
    40  H    1.221190
    41  H    1.182515
    42  H    1.163340
    43  H    1.454924
    44  H    1.421358
 Sum of Mulliken charges =   0.00000

 Dipole moment (field-independent basis, Debye):
    X=             -0.8175    Y=             -1.1122    Z=             -0.4536  Tot=              1.4529

 Test job not archived.
 1\1\GINC-SE454\SP\RHF\Aug-CC-pVDZ\C17H25N1O1\OHZDE\08-Apr-2025\0\\#t h
 f aug-cc-pvdz iop(5/13=1,5/36=2,99/5=2) pseudo=read geom=check guess=(
 read,tcheck) scf=(maxcycle=1)\\title\\0,1\O,0,-0.00937,2.18017,1.0743\
 C,0,-0.23156,0.99614,0.83056\C,0,0.86988,-0.03707,1.04326\C,0,-1.57828
 ,0.57967,0.31995\C,0,1.37958,-0.66494,-0.30506\C,0,0.50179,-1.09192,2.
 09667\H,0,1.69751,0.56446,1.44909\C,0,-2.61227,1.53112,0.34352\C,0,-1.
 85808,-0.69264,-0.20347\N,0,2.7978,-0.51558,-0.57778\H,0,0.83883,-0.22
 147,-1.15556\H,0,1.14975,-1.74473,-0.30571\C,0,3.66453,-1.16413,0.4006

 Normal termination of Gaussian 16 at Tue Apr  8 18:12:51 2025.
