 Gaussian 16, Revision C.01,

 ----------------------------------------------------------------------
 #t hf aug-cc-pvdz symm=none int=(grid=ultrafine) guess=(read,tcheck) s
 table=(opt,rrhf)
 ----------------------------------------------------------------------
 -----
 title
 -----
 Symbolic Z-matrix:
 Charge =  0 Multiplicity = 1

 SCF Done:  E(RHF) =  -798.279841861     A.U. after   14 cycles

 1\1\GINC-SE127\Stability\RHF\Aug-CC-pVDZ\C9H14O6\OHZDE\08-Apr-2025\0\\
 #t hf aug-cc-pvdz symm=none int=(grid=ultrafine) guess=(read,tcheck) s
 table=(opt,rrhf)\\title\\0,1\H,0,1.45865,-0.52659,1.53204\C,0,1.66486,
 -1.60088,1.47201\C,0,2.06687,-2.01859,0.0779\H,0,0.7654,-2.14572,1.791
 88\H,0,2.48823,-1.86242,2.14389\O,0,1.26153,-1.71742,-0.99982\O,0,3.06
 219,-2.66377,-0.15555\C,0,0.14017,-0.80794,-1.06154\C,0,0.57099,0.6368
 7,-1.24057\C,0,-0.93146,-1.01805,0.00739\H,0,-0.32652,-1.08812,-2.0199
 8\O,0,1.08383,1.16043,0.00318\H,0,1.35067,0.70336,-2.01306\H,0,-0.2895

 Normal termination of Gaussian 16 at Tue Apr  8 19:02:15 2025.
 Gaussian 16:  ES64L-G16RevC.01  3-Jul-2019

 ----------------------------------------------------------------------
 #t hf aug-cc-pvdz iop(5/13=1,5/36=2,99/5=2) pseudo=read geom=check gue
 ss=(read,tcheck) scf=(maxcycle=1)
 ----------------------------------------------------------------------
 -----
 title
 -----
 Structure from the checkpoint file:  "37Conf8_Triacetin_8_mol1.chk"
 Charge =  0 Multiplicity = 1

                         Standard orientation:
 ---------------------------------------------------------------------
 Center     Atomic      Atomic             Coordinates (Angstroms)
 Number     Number       Type             X           Y           Z
 ---------------------------------------------------------------------
      1          1           0        1.458650   -0.526589    1.532039
      2          6           0        1.664860   -1.600879    1.472009
      3          6           0        2.066870   -2.018589    0.077899
      4          1           0        0.765400   -2.145720    1.791879
      5          1           0        2.488230   -1.862419    2.143889
      6          8           0        1.261530   -1.717420   -0.999821
      7          8           0        3.062190   -2.663769   -0.155551
      8          6           0        0.140170   -0.807940   -1.061541
      9          6           0        0.570990    0.636870   -1.240571
     10          6           0       -0.931460   -1.018050    0.007389
     11          1           0       -0.326520   -1.088120   -2.019981
     12          8           0        1.083830    1.160430    0.003179
     13          1           0        1.350670    0.703361   -2.013061
     14          1           0       -0.289530    1.240290   -1.563691
     15          8           0       -2.135860   -0.437150   -0.540071
     16          1           0       -1.089460   -2.092220    0.186079
     17          1           0       -0.703540   -0.530880    0.961409
     18          6           0        1.281000    2.514971    0.029719
     19          6           0       -3.165280   -0.295610    0.350279
     20          6           0        1.833940    2.940201    1.363379
     21          8           0        1.034450    3.239520   -0.909571
     22          6           0       -4.353320    0.344060   -0.315691
     23          8           0       -3.093410   -0.644020    1.509369
     24          1           0        1.950430    4.027791    1.379209
     25          1           0        2.807200    2.459191    1.535699
     26          1           0        1.163080    2.622130    2.173539
     27          1           0       -4.639110   -0.221930   -1.212631
     28          1           0       -4.095000    1.361870   -0.641191
     29          1           0       -5.188960    0.382300    0.389269
 ---------------------------------------------------------------------

 SCF Done:  E(RHF) =  -801.770830050     A.U. after    2 cycles

 The electronic state is 1-A.
 Alpha  occ. eigenvalues --  -21.10934 -21.10636 -21.09040 -21.06797 -21.06701
 Alpha  occ. eigenvalues --  -21.04674 -11.54853 -11.54504 -11.53177 -11.53022
 Alpha  occ. eigenvalues --  -11.49092 -11.43288 -11.41338 -11.41109 -11.41049
 Alpha  occ. eigenvalues --   -1.87225  -1.84743  -1.82373  -1.67769  -1.67653
 Alpha  occ. eigenvalues --   -1.65469  -1.19348  -1.13376  -1.11817  -1.10162
 Alpha  occ. eigenvalues --   -1.01603  -0.89883  -0.80065  -0.77097  -0.76200
 Alpha  occ. eigenvalues --   -0.71444  -0.68899  -0.66136  -0.64895  -0.64034
 Alpha  occ. eigenvalues --   -0.63051  -0.62468  -0.61284  -0.61064  -0.59783
 Alpha  occ. eigenvalues --   -0.59314  -0.56656  -0.54625  -0.53502  -0.52716
 Alpha  occ. eigenvalues --   -0.49131  -0.49002  -0.48475  -0.47108  -0.44403
 Alpha  occ. eigenvalues --   -0.42581  -0.39139  -0.34775  -0.34046  -0.32074
 Alpha  occ. eigenvalues --   -0.31381  -0.30991  -0.29661
 Alpha virt. eigenvalues --    0.02844   0.03717   0.04336   0.04707   0.04984
 Alpha virt. eigenvalues --    0.05854   0.06057   0.06167   0.06305   0.06671
 Alpha virt. eigenvalues --    0.07686   0.08234   0.08982   0.09503   0.10154

 Mulliken charges:
               1
     1  H    2.074350
     2  C   -4.854526
     3  C    5.039441
     4  H    1.465005
     5  H    0.972431
     6  O   -4.256325
     7  O   -3.140879
     8  C    1.794253
     9  C   -2.516705
    10  C   -1.987784
    11  H    1.922639
    12  O   -2.896086
    13  H    1.657088
    14  H    1.806273
    15  O   -3.901542
    16  H    1.748169
    17  H    2.164469
    18  C    5.510568
    19  C    5.256160
    20  C   -4.751812
    21  O   -3.177560
    22  C   -4.763115
    23  O   -3.116190
    24  H    1.212922
    25  H    1.384975
    26  H    1.403661
    27  H    1.373123
    28  H    1.327224
    29  H    1.249774
 Sum of Mulliken charges =  -0.00000

 Dipole moment (field-independent basis, Debye):
    X=             -1.8302    Y=              1.2072    Z=              0.1382  Tot=              2.1969

 Test job not archived.
 1\1\GINC-SE127\SP\RHF\Aug-CC-pVDZ\C9H14O6\OHZDE\08-Apr-2025\0\\#t hf a
 ug-cc-pvdz iop(5/13=1,5/36=2,99/5=2) pseudo=read geom=check guess=(rea
 d,tcheck) scf=(maxcycle=1)\\title\\0,1\H,0,1.45865,-0.52659,1.53204\C,
 0,1.66486,-1.60088,1.47201\C,0,2.06687,-2.01859,0.0779\H,0,0.7654,-2.1
 4572,1.79188\H,0,2.48823,-1.86242,2.14389\O,0,1.26153,-1.71742,-0.9998
 2\O,0,3.06219,-2.66377,-0.15555\C,0,0.14017,-0.80794,-1.06154\C,0,0.57
 099,0.63687,-1.24057\C,0,-0.93146,-1.01805,0.00739\H,0,-0.32652,-1.088
 12,-2.01998\O,0,1.08383,1.16043,0.00318\H,0,1.35067,0.70336,-2.01306\H

 Normal termination of Gaussian 16 at Tue Apr  8 19:02:48 2025.
