 Gaussian 16, Revision C.01,

 ----------------------------------------------------------------------
 #t hf aug-cc-pvdz symm=none int=(grid=ultrafine) guess=(read,tcheck) s
 table=(opt,rrhf)
 ----------------------------------------------------------------------
 -----
 title
 -----
 Symbolic Z-matrix:
 Charge =  0 Multiplicity = 1

 SCF Done:  E(RHF) =  -917.594300472     A.U. after   11 cycles
 Normal termination of Gaussian 16 at Tue Apr  8 17:41:43 2025.
 Gaussian 16:  ES64L-G16RevC.01  3-Jul-2019

 ----------------------------------------------------------------------
 #t hf aug-cc-pvdz iop(5/13=1,5/36=2,99/5=2) pseudo=read geom=check gue
 ss=(read,tcheck) scf=(maxcycle=1)
 ----------------------------------------------------------------------
 -----
 title
 -----
 Structure from the checkpoint file:  "37Conf8_18crown6_3_mol2.chk"
 Charge =  0 Multiplicity = 1

                         Standard orientation:
 ---------------------------------------------------------------------
 Center     Atomic      Atomic             Coordinates (Angstroms)
 Number     Number       Type             X           Y           Z
 ---------------------------------------------------------------------
      1          1           0        1.026364    3.550782    1.237661
      2          6           0        0.427489    2.756838    0.743911
      3          1           0        0.642033    1.805311    1.258711
      4          8           0        0.779006    2.682857   -0.638439
      5          6           0       -1.044376    3.101099    0.877901
      6          6           0        2.164418    2.455562   -0.877439
      7          1           0       -1.288098    3.953407    0.213271
      8          1           0       -1.229789    3.411194    1.918231
      9          8           0       -1.935899    2.016663    0.638621
     10          1           0        2.340111    2.771801   -1.917609
     11          1           0        2.779210    3.093705   -0.212329
     12          6           0        2.604860    1.009526   -0.743669
     13          6           0       -2.176193    1.749883   -0.743789
     14          1           0        1.890384    0.346910   -1.260299
     15          1           0        3.593075    0.890253   -1.235659
     16          8           0        2.714584    0.667435    0.638681
     17          1           0       -1.244922    1.461144   -1.259399
     18          1           0       -2.565584    2.665370   -1.236799
     19          6           0       -3.209224    0.646348   -0.877839
     20          6           0        3.209244   -0.646477    0.877721
     21          1           0       -3.570521    0.640632   -1.918159
     22          1           0       -4.069378    0.860541   -0.213159
     23          8           0       -2.714614   -0.667544   -0.638619
     24          1           0        4.069368   -0.860570    0.212971
     25          1           0        3.570611   -0.640881    1.918031
     26          6           0        2.176233   -1.750012    0.743631
     27          6           0       -2.604641   -1.009375    0.743771
     28          1           0        2.565744   -2.665579    1.236401
     29          1           0        1.245042   -1.461403    1.259461
     30          8           0        1.935689   -2.016552   -0.638789
     31          1           0       -3.592745   -0.889912    1.235951
     32          1           0       -1.890004   -0.346719    1.260131
     33          6           0       -2.164288   -2.455421    0.877741
     34          6           0        1.044235   -3.101049   -0.878069
     35          1           0       -2.779250   -3.093645    0.212861
     36          1           0       -2.339811   -2.771460    1.917991
     37          8           0       -0.778936   -2.682866    0.638531
     38          1           0        1.229539   -3.411013   -1.918469
     39          1           0        1.288137   -3.953396   -0.213579
     40          6           0       -0.427640   -2.756917   -0.743869
     41          1           0       -0.642363   -1.805461   -1.258709
     42          1           0       -1.026504   -3.550971   -1.237469
 ---------------------------------------------------------------------

 SCF Done:  E(RHF) =  -921.762948377     A.U. after    2 cycles

 The electronic state is 1-A.
 Alpha  occ. eigenvalues --  -21.03504 -21.03504 -21.03502 -21.03501 -21.03453
 Alpha  occ. eigenvalues --  -21.03450 -11.47264 -11.46655 -11.46650 -11.45888
 Alpha  occ. eigenvalues --  -11.45882 -11.45783 -11.38957 -11.38774 -11.38774
 Alpha  occ. eigenvalues --  -11.38591 -11.38590 -11.38256  -1.78274  -1.75865
 Alpha  occ. eigenvalues --   -1.75863  -1.71411  -1.71409  -1.70356  -1.14147
 Alpha  occ. eigenvalues --   -1.11617  -1.11616  -1.05136  -1.05134  -0.98914
 Alpha  occ. eigenvalues --   -0.90383  -0.85877  -0.85875  -0.82727  -0.82598
 Alpha  occ. eigenvalues --   -0.82595  -0.68022  -0.66040  -0.66036  -0.65692
 Alpha  occ. eigenvalues --   -0.65688  -0.63785  -0.63686  -0.63683  -0.60400
 Alpha  occ. eigenvalues --   -0.60394  -0.59757  -0.58883  -0.55437  -0.53728
 Alpha  occ. eigenvalues --   -0.53722  -0.53565  -0.52117  -0.52114  -0.49368
 Alpha  occ. eigenvalues --   -0.47938  -0.47931  -0.47461  -0.47460  -0.47004
 Alpha  occ. eigenvalues --   -0.38549  -0.38363  -0.38361  -0.37104  -0.37102
 Alpha  occ. eigenvalues --   -0.35534  -0.30151  -0.28990  -0.28982  -0.28464
 Alpha  occ. eigenvalues --   -0.28158  -0.28153
 Alpha virt. eigenvalues --    0.04254   0.04256   0.04464   0.05023   0.05387
 Alpha virt. eigenvalues --    0.05620   0.05622   0.05770   0.05770   0.05956
 Alpha virt. eigenvalues --    0.06585   0.06586   0.06910   0.07174   0.07176

 Mulliken charges:
               1
     1  H    1.596563
     2  C   -1.801853
     3  H    2.379746
     4  O   -3.285622
     5  C   -1.922267
     6  C   -1.921057
     7  H    1.747862
     8  H    1.286025
     9  O   -3.286196
    10  H    1.285600
    11  H    1.748268
    12  C   -1.802833
    13  C   -1.802381
    14  H    2.379441
    15  H    1.595314
    16  O   -3.286208
    17  H    2.379361
    18  H    1.595822
    19  C   -1.920473
    20  C   -1.920376
    21  H    1.286065
    22  H    1.748652
    23  O   -3.286358
    24  H    1.748694
    25  H    1.285965
    26  C   -1.802105
    27  C   -1.802905
    28  H    1.595750
    29  H    2.379073
    30  O   -3.286035
    31  H    1.595395
    32  H    2.379819
    33  C   -1.921219
    34  C   -1.922183
    35  H    1.748232
    36  H    1.285670
    37  O   -3.285635
    38  H    1.285934
    39  H    1.747959
    40  C   -1.801868
    41  H    2.379890
    42  H    1.596479
 Sum of Mulliken charges =   0.00000

 Dipole moment (field-independent basis, Debye):
    X=              0.0001    Y=              0.0002    Z=             -0.0000  Tot=              0.0002

 Test job not archived.
 1\1\GINC-SE368\SP\RHF\Aug-CC-pVDZ\C12H24O6\OHZDE\08-Apr-2025\0\\#t hf
 aug-cc-pvdz iop(5/13=1,5/36=2,99/5=2) pseudo=read geom=check guess=(re
 ad,tcheck) scf=(maxcycle=1)\\title\\0,1\H,0,1.02858,3.55014,1.23766\C,
 0,0.42921,2.75657,0.74391\H,0,0.64316,1.80491,1.25871\O,0,0.78068,2.68
 237,-0.63844\C,0,-1.04244,3.10175,0.8779\C,0,2.16595,2.45421,-0.87744\
 H,0,-1.28563,3.95421,0.21327\H,0,-1.22766,3.41196,1.91823\O,0,-1.93464
 ,2.01787,0.63862\H,0,2.34184,2.77034,-1.91761\H,0,2.78114,3.09197,-0.2
 1233\C,0,2.60549,1.0079,-0.74367\C,0,-2.1751,1.75124,-0.74379\H,0,1.89

 Normal termination of Gaussian 16 at Tue Apr  8 17:43:00 2025.
