 Gaussian 16, Revision C.01,

 ----------------------------------------------------------------------
 #t hf aug-cc-pvdz symm=none int=(grid=ultrafine) guess=(read,tcheck) s
 table=(opt,rrhf)
 ----------------------------------------------------------------------
 -----
 title
 -----
 Symbolic Z-matrix:
 Charge =  0 Multiplicity = 1

 SCF Done:  E(RHF) =  -449.649055522     A.U. after   15 cycles
 Normal termination of Gaussian 16 at Tue Apr  8 19:07:22 2025.
 Gaussian 16:  ES64L-G16RevC.01  3-Jul-2019

 ----------------------------------------------------------------------
 #t hf aug-cc-pvdz iop(5/13=1,5/36=2,99/5=2) pseudo=read geom=check gue
 ss=(read,tcheck) scf=(maxcycle=1)
 ----------------------------------------------------------------------
 -----
 title
 -----
 Structure from the checkpoint file:  "3B-69_12a_pyrazole_dimerBC_mol1.chk"
 Charge =  0 Multiplicity = 1

                         Standard orientation:
 ---------------------------------------------------------------------
 Center     Atomic      Atomic             Coordinates (Angstroms)
 Number     Number       Type             X           Y           Z
 ---------------------------------------------------------------------
      1          6           0        1.178820    0.273030   -0.133543
      2          6           0        2.194149    1.241675   -0.127830
      3          6           0        3.364775    0.523034    0.009638
      4          1           0        3.622673   -1.617433    0.094414
      5          1           0        4.393248    0.833634    0.047604
      6          1           0        2.091828    2.307229   -0.214915
      7          1           0        0.117091    0.419287   -0.227211
      8          7           0        3.020558   -0.779721    0.080282
      9          7           0        1.685620   -0.954749   -0.008791
     10          6           0       -2.373985    0.599792    1.000875
     11          6           0       -2.697002    1.029559   -0.295334
     12          6           0       -2.489172   -0.076747   -1.094460
     13          1           0       -1.736612   -2.018040   -0.528484
     14          1           0       -2.589943   -0.220831   -2.155004
     15          1           0       -3.028881    2.002682   -0.605730
     16          1           0       -2.398016    1.163873    1.916664
     17          7           0       -2.074490   -1.073935   -0.285572
     18          7           0       -1.994102   -0.679090    1.002165
 ---------------------------------------------------------------------

 SCF Done:  E(RHF) =  -451.745375435     A.U. after    2 cycles

 The electronic state is 1-A.
 Alpha  occ. eigenvalues --  -15.80519 -15.80212 -15.74157 -15.73673 -11.44909
 Alpha  occ. eigenvalues --  -11.44519 -11.42485 -11.42170 -11.36790 -11.36159
 Alpha  occ. eigenvalues --   -1.59770  -1.58949  -1.17456  -1.16918  -1.13276
 Alpha  occ. eigenvalues --   -1.12767  -0.83929  -0.83548  -0.80977  -0.80480
 Alpha  occ. eigenvalues --   -0.74388  -0.74074  -0.60689  -0.59425  -0.57927
 Alpha  occ. eigenvalues --   -0.56990  -0.54620  -0.54196  -0.52428  -0.51665
 Alpha  occ. eigenvalues --   -0.39864  -0.39594  -0.34251  -0.33411  -0.32277
 Alpha  occ. eigenvalues --   -0.31617
 Alpha virt. eigenvalues --    0.03419   0.04627   0.05026   0.05693   0.05847
 Alpha virt. eigenvalues --    0.06092   0.06486   0.08927   0.10541   0.10899
 Alpha virt. eigenvalues --    0.11517   0.12157   0.12508   0.13127   0.13572

 Mulliken charges:
               1
     1  C    0.902046
     2  C   -1.656292
     3  C    0.077404
     4  H    0.891872
     5  H    1.299331
     6  H    1.170324
     7  H    2.041716
     8  N   -2.056054
     9  N   -2.303767
    10  C   -0.242487
    11  C   -0.554559
    12  C   -0.434105
    13  H    0.963396
    14  H    1.334619
    15  H    1.266684
    16  H    1.411635
    17  N   -2.111828
    18  N   -1.999935
 Sum of Mulliken charges =   0.00000

 Dipole moment (field-independent basis, Debye):
    X=              1.7590    Y=             -0.3078    Z=             -1.8589  Tot=              2.5776

 Test job not archived.
 1\1\GINC-SE249\SP\RHF\Aug-CC-pVDZ\C6H8N4\OHZDE\08-Apr-2025\0\\#t hf au
 g-cc-pvdz iop(5/13=1,5/36=2,99/5=2) pseudo=read geom=check guess=(read
 ,tcheck) scf=(maxcycle=1)\\title\\0,1\C,0,5.922353,2.348921,6.261977\C
 ,0,5.048807,1.377253,6.773813\C,0,5.801878,0.678241,7.695754\H,0,7.837
 666,1.037377,8.313722\H,0,5.55454,-0.141615,8.345623\H,0,4.020061,1.21
 0588,6.514271\H,0,5.722353,3.102313,5.520469\N,0,7.033572,1.229218,7.6
 96363\N,0,7.127429,2.256777,6.826913\C,0,5.922353,3.945079,2.875477\C,
 0,5.048807,4.916747,3.387313\C,0,5.801878,5.615759,4.309254\H,0,7.8376

 Normal termination of Gaussian 16 at Tue Apr  8 19:07:32 2025.
