 Gaussian 16, Revision C.01,

 ----------------------------------------------------------------------
 #t hf aug-cc-pvdz symm=none int=(grid=ultrafine) guess=(read,tcheck) s
 table=(opt,rrhf)
 ----------------------------------------------------------------------
 -----
 title
 -----
 Symbolic Z-matrix:
 Charge =  0 Multiplicity = 1

 SCF Done:  E(RHF) =  -449.647011705     A.U. after   15 cycles
 Normal termination of Gaussian 16 at Tue Apr  8 19:08:20 2025.
 Gaussian 16:  ES64L-G16RevC.01  3-Jul-2019

 ----------------------------------------------------------------------
 #t hf aug-cc-pvdz iop(5/13=1,5/36=2,99/5=2) pseudo=read geom=check gue
 ss=(read,tcheck) scf=(maxcycle=1)
 ----------------------------------------------------------------------
 -----
 title
 -----
 Structure from the checkpoint file:  "3B-69_12b_pyrazole_dimerAC_mol1.chk"
 Charge =  0 Multiplicity = 1

                         Standard orientation:
 ---------------------------------------------------------------------
 Center     Atomic      Atomic             Coordinates (Angstroms)
 Number     Number       Type             X           Y           Z
 ---------------------------------------------------------------------
      1          6           0        1.882527   -0.189176    0.955265
      2          6           0        1.647131    0.941052    0.156471
      3          6           0        2.595762    0.867166   -0.845155
      4          1           0        4.087056   -0.652044   -1.186601
      5          1           0        2.789299    1.515001   -1.680309
      6          1           0        0.895593    1.696691    0.291068
      7          1           0        1.364962   -0.517406    1.840271
      8          7           0        3.327893   -0.241919   -0.615869
      9          7           0        2.902418   -0.906783    0.479923
     10          6           0       -2.684671   -0.971797   -0.752262
     11          6           0       -1.697038   -0.968318    0.244617
     12          6           0       -1.843240    0.248486    0.880009
     13          1           0       -3.204840    1.853886    0.406689
     14          1           0       -1.301783    0.700077    1.691525
     15          1           0       -0.979906   -1.736115    0.467477
     16          1           0       -2.902590   -1.739770   -1.473485
     17          7           0       -2.862245    0.890145    0.271283
     18          7           0       -3.389583    0.160728   -0.733952
 ---------------------------------------------------------------------

 SCF Done:  E(RHF) =  -451.741032494     A.U. after    2 cycles

 The electronic state is 1-A.
 Alpha  occ. eigenvalues --  -15.81027 -15.80728 -15.74676 -15.74244 -11.45254
 Alpha  occ. eigenvalues --  -11.44989 -11.42916 -11.42318 -11.37305 -11.36629
 Alpha  occ. eigenvalues --   -1.59922  -1.59617  -1.17890  -1.17484  -1.13517
 Alpha  occ. eigenvalues --   -1.13175  -0.84419  -0.84052  -0.81564  -0.81027
 Alpha  occ. eigenvalues --   -0.75013  -0.74317  -0.60252  -0.60015  -0.58497
 Alpha  occ. eigenvalues --   -0.57950  -0.55173  -0.54673  -0.52882  -0.52430
 Alpha  occ. eigenvalues --   -0.40436  -0.40064  -0.34596  -0.33852  -0.32688
 Alpha  occ. eigenvalues --   -0.31681
 Alpha virt. eigenvalues --    0.03305   0.04444   0.05274   0.05412   0.05842
 Alpha virt. eigenvalues --    0.06357   0.06566   0.07486   0.10750   0.10864
 Alpha virt. eigenvalues --    0.11162   0.11585   0.12301   0.13124   0.13382

 Mulliken charges:
               1
     1  C    0.183340
     2  C   -0.811346
     3  C   -0.258771
     4  H    0.898710
     5  H    1.306331
     6  H    1.400355
     7  H    1.537654
     8  N   -2.096707
     9  N   -2.171946
    10  C   -0.295228
    11  C   -0.839617
    12  C    0.412026
    13  H    0.936305
    14  H    1.450270
    15  H    1.359330
    16  H    1.413302
    17  N   -2.336307
    18  N   -2.087701
 Sum of Mulliken charges =   0.00000

 Dipole moment (field-independent basis, Debye):
    X=              1.6097    Y=              2.0549    Z=             -0.4906  Tot=              2.6560

 Test job not archived.
 1\1\GINC-SE028\SP\RHF\Aug-CC-pVDZ\C6H8N4\OHZDE\08-Apr-2025\0\\#t hf au
 g-cc-pvdz iop(5/13=1,5/36=2,99/5=2) pseudo=read geom=check guess=(read
 ,tcheck) scf=(maxcycle=1)\\title\\0,1\C,0,2.437016,5.579002,5.969045\C
 ,0,3.286074,4.843862,6.811403\C,0,2.498278,3.817185,7.295063\H,0,0.439
 312,3.364017,6.843575\H,0,2.727516,3.011175,7.967689\H,0,4.320061,5.03
 4319,7.031661\H,0,2.650612,6.458651,5.386431\N,0,1.271334,3.972773,6.7
 57422\N,0,1.214905,5.04376,5.93667\C,0,5.922353,3.945079,2.875477\C,0,
 5.048807,4.916747,3.387313\C,0,5.801878,5.615759,4.309254\H,0,7.837666

 Normal termination of Gaussian 16 at Tue Apr  8 19:08:28 2025.
