 Gaussian 16, Revision C.01,

 ----------------------------------------------------------------------
 #t hf aug-cc-pvdz symm=none int=(grid=ultrafine) guess=(read,tcheck) s
 table=(opt,rrhf)
 ----------------------------------------------------------------------
 -----
 title
 -----
 Symbolic Z-matrix:
 Charge =  0 Multiplicity = 1

 SCF Done:  E(RHF) =  -624.041932553     A.U. after   13 cycles
 Normal termination of Gaussian 16 at Tue Apr  8 19:09:18 2025.
 Gaussian 16:  ES64L-G16RevC.01  3-Jul-2019

 ----------------------------------------------------------------------
 #t hf aug-cc-pvdz iop(5/13=1,5/36=2,99/5=2) pseudo=read geom=check gue
 ss=(read,tcheck) scf=(maxcycle=1)
 ----------------------------------------------------------------------
 -----
 title
 -----
 Structure from the checkpoint file:  "3B-69_09c_acetamide_trimer_mol1.chk"
 Charge =  0 Multiplicity = 1

                         Standard orientation:
 ---------------------------------------------------------------------
 Center     Atomic      Atomic             Coordinates (Angstroms)
 Number     Number       Type             X           Y           Z
 ---------------------------------------------------------------------
      1          6           0        4.932764   -1.380337    0.473244
      2          6           0        3.801533   -0.618548   -0.176202
      3          8           0        2.672066   -1.137640   -0.299615
      4          7           0        4.080926    0.598631   -0.640720
      5          1           0        3.420415    1.092525   -1.244297
      6          1           0        5.015808    0.993260   -0.516477
      7          1           0        5.478885   -1.903917   -0.313991
      8          1           0        5.633396   -0.727980    0.990246
      9          1           0        4.540089   -2.117505    1.167317
     10          6           0       -2.970287   -1.395362    0.648336
     11          6           0       -4.101517   -0.633572   -0.001110
     12          8           0       -5.230985   -1.152664   -0.124523
     13          7           0       -3.822125    0.583607   -0.465629
     14          1           0       -4.482636    1.077500   -1.069206
     15          1           0       -2.887244    0.978236   -0.341384
     16          1           0       -2.424166   -1.918941   -0.138899
     17          1           0       -2.269655   -0.743004    1.165338
     18          1           0       -3.362963   -2.132530    1.342409
     19          6           0        0.983105    1.847544    0.922654
     20          6           0       -0.148910    1.249348    0.121101
     21          8           0       -1.277769    1.784166    0.115563
     22          7           0        0.129154    0.164552   -0.600884
     23          1           0       -0.531841   -0.183037   -1.298577
     24          1           0        1.063570   -0.248839   -0.567013
     25          1           0        1.529922    2.531486    0.270476
     26          1           0        1.682927    1.096288    1.282668
     27          1           0        0.591181    2.413603    1.762488
 ---------------------------------------------------------------------

 SCF Done:  E(RHF) =  -626.868942446     A.U. after    2 cycles

 The electronic state is 1-A.
 Alpha  occ. eigenvalues --  -21.05068 -21.01699 -20.97554 -15.82068 -15.77073
 Alpha  occ. eigenvalues --  -15.73333 -11.53938 -11.51148 -11.46290 -11.41855
 Alpha  occ. eigenvalues --  -11.39864 -11.36240  -1.72937  -1.69655  -1.64559
 Alpha  occ. eigenvalues --   -1.39257  -1.35008  -1.30990  -1.12298  -1.09741
 Alpha  occ. eigenvalues --   -1.06150  -0.85107  -0.81341  -0.77347  -0.74884
 Alpha  occ. eigenvalues --   -0.71463  -0.67781  -0.65713  -0.64148  -0.62674
 Alpha  occ. eigenvalues --   -0.61624  -0.59553  -0.57996  -0.57767  -0.55135
 Alpha  occ. eigenvalues --   -0.52616  -0.51723  -0.51077  -0.49313  -0.47381
 Alpha  occ. eigenvalues --   -0.45573  -0.42711  -0.35754  -0.32809  -0.31791
 Alpha  occ. eigenvalues --   -0.29356  -0.27522  -0.24485
 Alpha virt. eigenvalues --    0.01372   0.03125   0.03753   0.04268   0.04884
 Alpha virt. eigenvalues --    0.05338   0.05799   0.05893   0.06743   0.07232
 Alpha virt. eigenvalues --    0.07493   0.08569   0.09010   0.09275   0.10406

 Mulliken charges:
               1
     1  C   -3.817640
     2  C    4.976180
     3  O   -3.547937
     4  N   -3.074008
     5  H    0.784121
     6  H    0.812369
     7  H    1.225816
     8  H    1.238601
     9  H    1.281019
    10  C   -4.502205
    11  C    4.830109
    12  O   -3.196348
    13  N   -2.915654
    14  H    0.737375
    15  H    1.106542
    16  H    1.378772
    17  H    1.499167
    18  H    1.155437
    19  C   -4.413338
    20  C    5.221911
    21  O   -3.673203
    22  N   -3.127925
    23  H    0.754104
    24  H    1.263731
    25  H    1.347006
    26  H    1.462644
    27  H    1.193353
 Sum of Mulliken charges =  -0.00000

 Dipole moment (field-independent basis, Debye):
    X=             10.0204    Y=              1.7501    Z=             -1.0359  Tot=             10.2247

 Test job not archived.
 1\1\GINC-SE332\SP\RHF\Aug-CC-pVDZ\C6H15N3O3\OHZDE\08-Apr-2025\0\\#t hf
  aug-cc-pvdz iop(5/13=1,5/36=2,99/5=2) pseudo=read geom=check guess=(r
 ead,tcheck) scf=(maxcycle=1)\\title\\0,1\C,0,7.996134,3.456191,13.3638
 9\C,0,9.504286,3.375543,13.391436\O,0,10.101066,2.418723,12.854098\N,0
 ,10.149217,4.340524,14.045834\H,0,11.145574,4.254138,14.25636\H,0,9.62
 7308,5.111269,14.468606\H,0,7.618679,2.972605,14.267104\H,0,7.632469,4
 .481583,13.355768\H,0,7.606727,2.923905,12.501115\C,0,13.742134,0.1387
 36,9.066557\C,0,15.250286,0.058089,9.094103\O,0,15.847066,-0.898732,8.

 Normal termination of Gaussian 16 at Tue Apr  8 19:09:33 2025.
