 Gaussian 16, Revision C.01,

 ----------------------------------------------------------------------
 #t hf aug-cc-pvdz symm=none int=(grid=ultrafine) guess=(read,tcheck) s
 table=(opt,rrhf)
 ----------------------------------------------------------------------
 -----
 title
 -----
 Symbolic Z-matrix:
 Charge =  0 Multiplicity = 1

 SCF Done:  E(RHF) =  -152.077500724     A.U. after   11 cycles
 Normal termination of Gaussian 16 at Tue Apr  8 19:00:39 2025.
 Gaussian 16:  ES64L-G16RevC.01  3-Jul-2019

 ----------------------------------------------------------------------
 #t hf aug-cc-pvdz iop(5/13=1,5/36=2,99/5=2) pseudo=read geom=check gue
 ss=(read,tcheck) scf=(maxcycle=1)
 ----------------------------------------------------------------------
 -----
 title
 -----
 Structure from the checkpoint file:  "3B-69_01a_water_dimerAB_mol1.chk"
 Charge =  0 Multiplicity = 1

                         Standard orientation:
 ---------------------------------------------------------------------
 Center     Atomic      Atomic             Coordinates (Angstroms)
 Number     Number       Type             X           Y           Z
 ---------------------------------------------------------------------
      1          8           0        2.253394    0.039669    0.107892
      2          1           0        1.503868   -0.172685   -0.497687
      3          1           0        3.099611   -0.142204   -0.366123
      4          8           0       -2.249627   -0.031105   -0.113715
      5          1           0       -2.314408   -0.637295    0.660785
      6          1           0       -2.319211    0.883665    0.249610
 ---------------------------------------------------------------------

 SCF Done:  E(RHF) =  -152.733060248     A.U. after    2 cycles

 The electronic state is 1-A.
 Alpha  occ. eigenvalues --  -21.09707 -21.08891  -1.64908  -1.64092  -0.62973
 Alpha  occ. eigenvalues --   -0.62750  -0.46252  -0.44973  -0.35459  -0.34706
 Alpha virt. eigenvalues --    0.03669   0.05025   0.06376   0.08370   0.18296
 Alpha virt. eigenvalues --    0.19766   0.22200   0.22419   0.22928   0.23354
 Alpha virt. eigenvalues --    0.24384   0.26774   0.28790   0.28955   0.31270

 Mulliken charges:
               1
     1  O   -1.807166
     2  H    0.893696
     3  H    0.908813
     4  O   -1.756197
     5  H    0.880623
     6  H    0.880231
 Sum of Mulliken charges =  -0.00000

 Dipole moment (field-independent basis, Debye):
    X=             -0.1125    Y=             -0.0756    Z=              0.0323  Tot=              0.1393

 Test job not archived.
 1\1\GINC-SE115\SP\RHF\Aug-CC-pVDZ\H4O2\OHZDE\08-Apr-2025\0\\#t hf aug-
 cc-pvdz iop(5/13=1,5/36=2,99/5=2) pseudo=read geom=check guess=(read,t
 check) scf=(maxcycle=1)\\title\\0,1\O,0,-0.084889,0.056804,0.055205\H,
 0,0.710375,0.517729,0.413971\H,0,-0.890958,0.498588,0.414274\O,0,4.422
 945,-0.026001,-0.007196\H,0,4.446575,-0.955128,0.320949\H,0,4.445532,-
 0.08411,-0.991962\\Version=ES64L-G16RevC.01\State=1-A\HF=-152.7330602\
 RMSD=2.792e-02\Dipole=0.0439156,-0.0241148,0.0222498\Quadrupole=0.1023
 455,-0.1590324,0.056687,-2.7781681,-2.0391907,0.0419825\PG=C01 [X(H4O2

 Normal termination of Gaussian 16 at Tue Apr  8 19:00:41 2025.
