 Gaussian 16, Revision C.01,

 ----------------------------------------------------------------------
 #t hf aug-cc-pvdz symm=none int=(grid=ultrafine) guess=(read,tcheck) s
 table=(opt,rrhf)
 ----------------------------------------------------------------------
 -----
 title
 -----
 Symbolic Z-matrix:
 Charge =  0 Multiplicity = 1

 SCF Done:  E(RHF) =  -906.667482517     A.U. after   15 cycles
 Normal termination of Gaussian 16 at Tue Apr  8 19:15:34 2025.
 Gaussian 16:  ES64L-G16RevC.01  3-Jul-2019

 ----------------------------------------------------------------------
 #t hf aug-cc-pvdz iop(5/13=1,5/36=2,99/5=2) pseudo=read geom=check gue
 ss=(read,tcheck) scf=(maxcycle=1)
 ----------------------------------------------------------------------
 -----
 title
 -----
 Structure from the checkpoint file:  "3B-69_20b_maleic_acid_dimerAB_mol1.chk"
 Charge =  0 Multiplicity = 1

                         Standard orientation:
 ---------------------------------------------------------------------
 Center     Atomic      Atomic             Coordinates (Angstroms)
 Number     Number       Type             X           Y           Z
 ---------------------------------------------------------------------
      1          6           0        2.218996    0.481849   -0.006607
      2          6           0        3.387031    1.392493   -0.048795
      3          1           0        3.128333    2.443900   -0.089144
      4          6           0        4.685582    1.073185   -0.065414
      5          1           0        5.385855    1.895812   -0.125132
      6          6           0        5.376499   -0.243546    0.006321
      7          8           0        1.089788    1.131122    0.105594
      8          1           0        0.291157    0.516962    0.094389
      9          8           0        2.280006   -0.747528   -0.093583
     10          8           0        4.715476   -1.376480    0.014885
     11          1           0        3.711711   -1.244721   -0.069171
     12          8           0        6.603847   -0.278533    0.078016
     13          6           0       -5.248958    0.159699   -0.005383
     14          6           0       -4.080924    1.070344   -0.047571
     15          1           0       -4.339622    2.121750   -0.087919
     16          6           0       -2.782372    0.751036   -0.064189
     17          1           0       -2.082100    1.573662   -0.123907
     18          6           0       -2.091456   -0.565695    0.007546
     19          8           0       -6.378166    0.808972    0.106819
     20          1           0       -7.176797    0.194812    0.095613
     21          8           0       -5.187949   -1.069678   -0.092359
     22          8           0       -2.752479   -1.698630    0.016109
     23          1           0       -3.756244   -1.566871   -0.067946
     24          8           0       -0.864108   -0.600683    0.079240
 ---------------------------------------------------------------------

 SCF Done:  E(RHF) =  -910.469991075     A.U. after    2 cycles

 The electronic state is 1-A.
 Alpha  occ. eigenvalues --  -21.19447 -21.12370 -21.11791 -21.11589 -21.07952
 Alpha  occ. eigenvalues --  -21.06677 -21.05812 -21.01762 -11.62212 -11.58547
 Alpha  occ. eigenvalues --  -11.56512 -11.53205 -11.51425 -11.47778 -11.47633
 Alpha  occ. eigenvalues --  -11.42442  -1.91149  -1.85583  -1.84689  -1.79245
 Alpha  occ. eigenvalues --   -1.73136  -1.68218  -1.66481  -1.60616  -1.26259
 Alpha  occ. eigenvalues --   -1.20959  -1.04312  -0.98631  -0.90221  -0.84382
 Alpha  occ. eigenvalues --   -0.79250  -0.77109  -0.73770  -0.72381  -0.71496
 Alpha  occ. eigenvalues --   -0.67316  -0.65094  -0.64012  -0.62619  -0.60420
 Alpha  occ. eigenvalues --   -0.59177  -0.58392  -0.57649  -0.54249  -0.53303
 Alpha  occ. eigenvalues --   -0.51158  -0.50202  -0.48873  -0.44403  -0.43864
 Alpha  occ. eigenvalues --   -0.43735  -0.40619  -0.38480  -0.35348  -0.35128
 Alpha  occ. eigenvalues --   -0.34350  -0.33799  -0.29282  -0.28744  -0.27471
 Alpha virt. eigenvalues --    0.01229   0.02788   0.02987   0.03997   0.05075
 Alpha virt. eigenvalues --    0.05437   0.07039   0.07341   0.08200   0.08574
 Alpha virt. eigenvalues --    0.08783   0.09111   0.09777   0.10424   0.10716

 Mulliken charges:
               1
     1  C    6.078788
     2  C   -1.495505
     3  H    1.480414
     4  C   -0.486504
     5  H    1.307880
     6  C    3.960092
     7  O   -4.248804
     8  H    1.961863
     9  O   -3.864575
    10  O   -3.301516
    11  H    1.906949
    12  O   -3.087447
    13  C    5.524500
    14  C   -1.770562
    15  H    1.369147
    16  C    0.000901
    17  H    1.471688
    18  C    4.569185
    19  O   -3.649320
    20  H    1.095284
    21  O   -3.629189
    22  O   -3.534902
    23  H    1.817096
    24  O   -3.475464
 Sum of Mulliken charges =  -0.00000

 Dipole moment (field-independent basis, Debye):
    X=            -11.8903    Y=              3.3632    Z=             -0.2263  Tot=             12.3589

 Test job not archived.
 1\1\GINC-SE461\SP\RHF\Aug-CC-pVDZ\C8H8O8\OHZDE\08-Apr-2025\0\\#t hf au
 g-cc-pvdz iop(5/13=1,5/36=2,99/5=2) pseudo=read geom=check guess=(read
 ,tcheck) scf=(maxcycle=1)\\title\\0,1\C,0,0.320145,1.506583,4.741899\C
 ,0,-0.886058,0.648358,4.679587\H,0,-0.67292,-0.411968,4.6141\C,0,-2.16
 9644,1.023617,4.672055\H,0,-2.904729,0.233566,4.593744\C,0,-2.803159,2
 .366825,4.775701\O,0,1.42034,0.806792,4.837391\H,0,2.244696,1.386069,4
 .839756\O,0,0.312161,2.73916,4.684069\O,0,-2.093922,3.46971,4.81025\H,
 0,-1.096782,3.296855,4.721917\O,0,-4.027847,2.45295,4.849654\C,0,7.795

 Normal termination of Gaussian 16 at Tue Apr  8 19:15:53 2025.
