 Gaussian 16, Revision C.01,

 ----------------------------------------------------------------------
 #t hf aug-cc-pvdz symm=none int=(grid=ultrafine) guess=(read,tcheck) s
 table=(opt,rrhf)
 ----------------------------------------------------------------------
 -----
 title
 -----
 Symbolic Z-matrix:
 Charge =  0 Multiplicity = 1

 SCF Done:  E(RHF) =  -416.023575074     A.U. after   14 cycles
 Normal termination of Gaussian 16 at Tue Apr  8 19:05:51 2025.
 Gaussian 16:  ES64L-G16RevC.01  3-Jul-2019

 ----------------------------------------------------------------------
 #t hf aug-cc-pvdz iop(5/13=1,5/36=2,99/5=2) pseudo=read geom=check gue
 ss=(read,tcheck) scf=(maxcycle=1)
 ----------------------------------------------------------------------
 -----
 title
 -----
 Structure from the checkpoint file:  "3B-69_09a_acetamide_dimerAC_mol1.chk"
 Charge =  0 Multiplicity = 1

                         Standard orientation:
 ---------------------------------------------------------------------
 Center     Atomic      Atomic             Coordinates (Angstroms)
 Number     Number       Type             X           Y           Z
 ---------------------------------------------------------------------
      1          6           0       -1.568528    1.215529   -0.519852
      2          6           0       -2.324032   -0.017239   -0.082493
      3          8           0       -3.572596   -0.019141   -0.044178
      4          7           0       -1.597982   -1.068852    0.294763
      5          1           0       -2.034099   -1.863210    0.767317
      6          1           0       -0.577524   -1.032597    0.244513
      7          1           0       -1.343523    1.803967    0.371908
      8          1           0       -0.627089    0.976769   -1.010193
      9          1           0       -2.182876    1.817753   -1.182610
     10          6           0        3.381650   -0.089859   -0.632567
     11          6           0        2.051687   -0.112203    0.083314
     12          8           0        1.248294   -1.052113   -0.094210
     13          7           0        1.805383    0.885000    0.932008
     14          1           0        1.013822    0.839584    1.576896
     15          1           0        2.484532    1.640414    1.047237
     16          1           0        4.116711   -0.576145    0.011896
     17          1           0        3.730202    0.920634   -0.835451
     18          1           0        3.317784   -0.647540   -1.562223
 ---------------------------------------------------------------------

 SCF Done:  E(RHF) =  -417.906760812     A.U. after    2 cycles

 The electronic state is 1-A.
 Alpha  occ. eigenvalues --  -21.03989 -20.98623 -15.81068 -15.74489 -11.52861
 Alpha  occ. eigenvalues --  -11.47389 -11.41045 -11.37496  -1.71828  -1.65608
 Alpha  occ. eigenvalues --   -1.38240  -1.32162  -1.11460  -1.07443  -0.84119
 Alpha  occ. eigenvalues --   -0.78557  -0.73883  -0.69142  -0.64541  -0.63274
 Alpha  occ. eigenvalues --   -0.60817  -0.59290  -0.56940  -0.53006  -0.51604
 Alpha  occ. eigenvalues --   -0.49852  -0.46775  -0.43872  -0.34673  -0.31458
 Alpha  occ. eigenvalues --   -0.28631  -0.25549
 Alpha virt. eigenvalues --    0.02005   0.03822   0.04486   0.04941   0.05639
 Alpha virt. eigenvalues --    0.06269   0.06719   0.07143   0.08299   0.09576
 Alpha virt. eigenvalues --    0.10389   0.11884   0.12225   0.13186   0.14316

 Mulliken charges:
               1
     1  C   -4.375950
     2  C    4.768581
     3  O   -3.180433
     4  N   -2.902912
     5  H    0.732069
     6  H    1.112853
     7  H    1.350402
     8  H    1.445400
     9  H    1.147680
    10  C   -3.703149
    11  C    4.838365
    12  O   -3.489263
    13  N   -3.056829
    14  H    0.777690
    15  H    0.803819
    16  H    1.223632
    17  H    1.230322
    18  H    1.277722
 Sum of Mulliken charges =  -0.00000

 Dipole moment (field-independent basis, Debye):
    X=              5.7391    Y=              1.4651    Z=              1.3494  Tot=              6.0749

 Test job not archived.
 1\1\GINC-SE098\SP\RHF\Aug-CC-pVDZ\C4H10N2O2\OHZDE\08-Apr-2025\0\\#t hf
  aug-cc-pvdz iop(5/13=1,5/36=2,99/5=2) pseudo=read geom=check guess=(r
 ead,tcheck) scf=(maxcycle=1)\\title\\0,1\C,0,-1.004918,11.251778,13.36
 389\C,0,-1.828837,9.986003,13.391436\O,0,-2.955857,9.947587,12.854098\
 N,0,-1.315604,8.944986,14.045834\H,0,-1.888595,8.125309,14.25636\H,0,-
 0.387165,9.0116,14.468606\H,0,-1.234988,11.820456,14.267104\H,0,0.0649
 3,11.054024,13.355768\H,0,-1.271188,11.855156,12.501115\C,0,3.495866,1
 0.0911,15.512557\C,0,1.987714,10.010453,15.540103\O,0,1.390934,9.05363

 Normal termination of Gaussian 16 at Tue Apr  8 19:05:58 2025.
