 Gaussian 16, Revision C.01,

 ----------------------------------------------------------------------
 #t hf aug-cc-pvdz symm=none int=(grid=ultrafine) guess=(read,tcheck) s
 table=(opt,rrhf)
 ----------------------------------------------------------------------
 -----
 title
 -----
 Symbolic Z-matrix:
 Charge =  0 Multiplicity = 1

 SCF Done:  E(RHF) =  -599.495322896     A.U. after   14 cycles
 Normal termination of Gaussian 16 at Tue Apr  8 19:10:34 2025.
 Gaussian 16:  ES64L-G16RevC.01  3-Jul-2019

 ----------------------------------------------------------------------
 #t hf aug-cc-pvdz iop(5/13=1,5/36=2,99/5=2) pseudo=read geom=check gue
 ss=(read,tcheck) scf=(maxcycle=1)
 ----------------------------------------------------------------------
 -----
 title
 -----
 Structure from the checkpoint file:  "3B-69_14b_cyanoacetamide_dimerAC_mol1.chk"
 Charge =  0 Multiplicity = 1

                         Standard orientation:
 ---------------------------------------------------------------------
 Center     Atomic      Atomic             Coordinates (Angstroms)
 Number     Number       Type             X           Y           Z
 ---------------------------------------------------------------------
      1          6           0       -3.142395   -0.008847    0.018117
      2          6           0       -1.068365    1.327899   -0.186376
      3          6           0       -2.090101    0.855083    0.727091
      4          1           0       -1.603933    0.314273    1.539642
      5          1           0       -2.569043    1.722899    1.186405
      6          1           0       -4.793530   -1.125775    0.406801
      7          1           0       -4.029870   -0.404070    1.826162
      8          7           0       -4.077305   -0.525293    0.820738
      9          7           0       -0.256611    1.705222   -0.907729
     10          8           0       -3.120785   -0.164231   -1.205403
     11          6           0        3.769423    0.384640    0.051911
     12          6           0        2.728054   -0.189199   -0.776258
     13          6           0        1.664622   -0.917527    0.055265
     14          1           0        3.187317   -0.843201   -1.516477
     15          1           0        2.242579    0.621939   -1.325217
     16          1           0        0.046901   -2.120303   -0.165335
     17          1           0        0.898726   -1.742007   -1.660433
     18          7           0        4.592017    0.845392    0.709411
     19          7           0        0.850283   -1.711905   -0.647991
     20          8           0        1.582627   -0.752016    1.274021
 ---------------------------------------------------------------------

 SCF Done:  E(RHF) =  -602.141104556     A.U. after    2 cycles

 The electronic state is 1-A.
 Alpha  occ. eigenvalues --  -21.05453 -21.03704 -15.81905 -15.80020 -15.77067
 Alpha  occ. eigenvalues --  -15.74910 -11.55000 -11.53279 -11.49034 -11.46513
 Alpha  occ. eigenvalues --  -11.44499 -11.41849  -1.72876  -1.71185  -1.39544
 Alpha  occ. eigenvalues --   -1.37681  -1.32678  -1.30369  -1.16490  -1.14312
 Alpha  occ. eigenvalues --   -0.87149  -0.85140  -0.76208  -0.74331  -0.71557
 Alpha  occ. eigenvalues --   -0.69315  -0.68132  -0.66573  -0.65607  -0.63231
 Alpha  occ. eigenvalues --   -0.54770  -0.53139  -0.52974  -0.51956  -0.50646
 Alpha  occ. eigenvalues --   -0.50033  -0.44725  -0.44435  -0.42388  -0.42184
 Alpha  occ. eigenvalues --   -0.35579  -0.33886  -0.32203  -0.30538
 Alpha virt. eigenvalues --    0.01774   0.03594   0.04203   0.04608   0.05422
 Alpha virt. eigenvalues --    0.05816   0.06941   0.07646   0.09523   0.09975
 Alpha virt. eigenvalues --    0.10237   0.10493   0.10587   0.11944   0.12515

 Mulliken charges:
               1
     1  C    5.234411
     2  C    2.908858
     3  C   -3.692415
     4  H    1.544104
     5  H    1.468181
     6  H    0.793263
     7  H    0.824903
     8  N   -3.306320
     9  N   -2.782001
    10  O   -2.994981
    11  C    2.733218
    12  C   -4.008845
    13  C    5.751676
    14  H    1.508207
    15  H    1.691217
    16  H    0.819019
    17  H    0.879355
    18  N   -2.561293
    19  N   -3.566119
    20  O   -3.244437
 Sum of Mulliken charges =  -0.00000

 Dipole moment (field-independent basis, Debye):
    X=             -7.0989    Y=             -3.3661    Z=              0.2162  Tot=              7.8595

 Test job not archived.
 1\1\GINC-SE120\SP\RHF\Aug-CC-pVDZ\C6H8N4O2\OHZDE\08-Apr-2025\0\\#t hf
 aug-cc-pvdz iop(5/13=1,5/36=2,99/5=2) pseudo=read geom=check guess=(re
 ad,tcheck) scf=(maxcycle=1)\\title\\0,1\C,0,2.712508,16.885489,6.36813
 8\C,0,2.839569,14.413417,6.423138\C,0,2.199576,15.555103,5.799531\H,0,
 2.351814,15.490712,4.721686\H,0,1.121642,15.473767,5.957336\H,0,2.5237
 51,18.891506,6.112956\H,0,1.586888,17.904765,4.987234\N,0,2.203727,17.
 976476,5.788601\N,0,3.344448,13.505572,6.915663\O,0,3.504903,16.911923
 ,7.313138\C,0,5.578016,10.975209,4.180296\C,0,5.959025,12.127875,4.971

 Normal termination of Gaussian 16 at Tue Apr  8 19:10:46 2025.
