 Gaussian 16, Revision C.01,

 ----------------------------------------------------------------------
 #t hf aug-cc-pvdz symm=none int=(grid=ultrafine) guess=(read,tcheck) s
 table=(opt,rrhf)
 ----------------------------------------------------------------------
 -----
 title
 -----
 Symbolic Z-matrix:
 Charge =  0 Multiplicity = 1

 SCF Done:  E(RHF) =  -781.246605677     A.U. after   14 cycles
 Normal termination of Gaussian 16 at Tue Apr  8 19:14:05 2025.
 Gaussian 16:  ES64L-G16RevC.01  3-Jul-2019

 ----------------------------------------------------------------------
 #t hf aug-cc-pvdz iop(5/13=1,5/36=2,99/5=2) pseudo=read geom=check gue
 ss=(read,tcheck) scf=(maxcycle=1)
 ----------------------------------------------------------------------
 -----
 title
 -----
 Structure from the checkpoint file:  "3B-69_16a_triazolidinedione_dimerBC_mol1.chk"
 Charge =  0 Multiplicity = 1

                         Standard orientation:
 ---------------------------------------------------------------------
 Center     Atomic      Atomic             Coordinates (Angstroms)
 Number     Number       Type             X           Y           Z
 ---------------------------------------------------------------------
      1          7           0        1.621392   -0.381788    1.175747
      2          7           0        0.787507    0.750604    1.185037
      3          6           0        1.111459    1.522871    0.104203
      4          7           0        1.984563    0.766964   -0.649327
      5          6           0        2.296675   -0.409650   -0.001549
      6          8           0        0.703956    2.646450   -0.174948
      7          8           0        3.041983   -1.300217   -0.414909
      8          1           0        1.263147   -1.257158    1.577781
      9          1           0        0.602562    1.185932    2.088591
     10          1           0        2.426703    1.088559   -1.524377
     11          7           0       -1.665645   -1.397826    0.790391
     12          7           0       -2.499530   -0.265433    0.799681
     13          6           0       -2.175578    0.506833   -0.281153
     14          7           0       -1.302474   -0.249074   -1.034683
     15          6           0       -0.990362   -1.425687   -0.386906
     16          8           0       -2.583081    1.630412   -0.560305
     17          8           0       -0.245053   -2.316255   -0.800265
     18          1           0       -2.023890   -2.273195    1.192425
     19          1           0       -2.684475    0.169894    1.703235
     20          1           0       -0.860334    0.072522   -1.909734
 ---------------------------------------------------------------------

 SCF Done:  E(RHF) =  -784.547506399     A.U. after    2 cycles

 The electronic state is 1-A.
 Alpha  occ. eigenvalues --  -21.05558 -21.05216 -21.05022 -21.04146 -15.83355
 Alpha  occ. eigenvalues --  -15.82763 -15.82701 -15.81862 -15.81744 -15.81454
 Alpha  occ. eigenvalues --  -11.56040 -11.55316 -11.53586 -11.52901  -1.77655
 Alpha  occ. eigenvalues --   -1.76912  -1.72354  -1.71599  -1.60760  -1.60111
 Alpha  occ. eigenvalues --   -1.39267  -1.38728  -1.23857  -1.23281  -0.93711
 Alpha  occ. eigenvalues --   -0.93120  -0.89845  -0.89284  -0.74805  -0.74491
 Alpha  occ. eigenvalues --   -0.74080  -0.72504  -0.67090  -0.66607  -0.66453
 Alpha  occ. eigenvalues --   -0.65363  -0.55164  -0.54568  -0.53889  -0.52316
 Alpha  occ. eigenvalues --   -0.51772  -0.51236  -0.50641  -0.49790  -0.35379
 Alpha  occ. eigenvalues --   -0.34835  -0.34244  -0.32936  -0.31540  -0.30938
 Alpha  occ. eigenvalues --   -0.30285  -0.30005
 Alpha virt. eigenvalues --    0.02011   0.03681   0.04536   0.05443   0.06108
 Alpha virt. eigenvalues --    0.06393   0.08090   0.09222   0.09830   0.10199
 Alpha virt. eigenvalues --    0.11227   0.11844   0.11915   0.12614   0.12681

 Mulliken charges:
               1
     1  N   -2.373850
     2  N   -1.970192
     3  C    5.889234
     4  N   -2.969360
     5  C    5.599783
     6  O   -3.371650
     7  O   -3.231384
     8  H    0.772473
     9  H    0.841601
    10  H    0.832959
    11  N   -2.420495
    12  N   -2.503939
    13  C    5.508412
    14  N   -2.796848
    15  C    6.282689
    16  O   -3.225530
    17  O   -3.408248
    18  H    0.839280
    19  H    0.833573
    20  H    0.871493
 Sum of Mulliken charges =   0.00000

 Dipole moment (field-independent basis, Debye):
    X=             -1.4094    Y=             -0.7847    Z=              2.8956  Tot=              3.3146

 Test job not archived.
 1\1\GINC-SE092\SP\RHF\Aug-CC-pVDZ\C4H6N6O4\OHZDE\08-Apr-2025\0\\#t hf
 aug-cc-pvdz iop(5/13=1,5/36=2,99/5=2) pseudo=read geom=check guess=(re
 ad,tcheck) scf=(maxcycle=1)\\title\\0,1\N,0,4.758199,16.90365,2.170497
 \N,0,5.216569,15.90098,1.297392\C,0,4.80265,16.21938,0.033733\N,0,4.27
 9392,17.492314,0.119488\C,0,4.256265,17.923919,1.428927\O,0,4.89088,15
 .54291,-0.98657\O,0,3.856001,19.016772,1.835033\H,0,5.310494,17.110082
 ,3.01228\H,0,5.163831,14.936932,1.625956\H,0,3.862617,18.004684,-0.673
 229\N,0,8.220199,16.90365,2.170497\N,0,8.678569,15.90098,1.297392\C,0,

 Normal termination of Gaussian 16 at Tue Apr  8 19:14:21 2025.
