 Gaussian 16, Revision C.01,

 ----------------------------------------------------------------------
 #t hf aug-cc-pvdz symm=none int=(grid=ultrafine) guess=(read,tcheck) s
 table=(opt,rrhf)
 ----------------------------------------------------------------------
 -----
 title
 -----
 Symbolic Z-matrix:
 Charge =  0 Multiplicity = 1

 SCF Done:  E(RHF) =  -591.809419347     A.U. after   15 cycles
 Normal termination of Gaussian 16 at Tue Apr  8 19:10:34 2025.
 Gaussian 16:  ES64L-G16RevC.01  3-Jul-2019

 ----------------------------------------------------------------------
 #t hf aug-cc-pvdz iop(5/13=1,5/36=2,99/5=2) pseudo=read geom=check gue
 ss=(read,tcheck) scf=(maxcycle=1)
 ----------------------------------------------------------------------
 -----
 title
 -----
 Structure from the checkpoint file:  "3B-69_15c_cyanoguanidine_dimerAB_mol1.chk"
 Charge =  0 Multiplicity = 1

                         Standard orientation:
 ---------------------------------------------------------------------
 Center     Atomic      Atomic             Coordinates (Angstroms)
 Number     Number       Type             X           Y           Z
 ---------------------------------------------------------------------
      1          7           0        4.629953    1.296552    0.612305
      2          6           0        3.920316    0.582947    0.017664
      3          7           0        3.194156   -0.189632   -0.723480
      4          6           0        2.163859   -0.873060   -0.199138
      5          7           0        1.788535   -0.783297    1.081662
      6          7           0        1.469631   -1.660570   -1.019105
      7          1           0        1.073517   -1.411789    1.428486
      8          1           0        2.286757   -0.212514    1.753912
      9          1           0        0.685793   -2.185018   -0.646496
     10          1           0        1.776071   -1.769137   -1.985707
     11          7           0       -4.191680   -1.746623    0.428116
     12          6           0       -3.843146   -0.662194    0.165529
     13          7           0       -3.557089    0.562335   -0.138086
     14          6           0       -2.288489    1.001046   -0.096725
     15          7           0       -1.243986    0.224088    0.211047
     16          7           0       -2.070735    2.277857   -0.407863
     17          1           0       -0.332942    0.651278    0.329572
     18          1           0       -1.350027   -0.749432    0.469796
     19          1           0       -1.120639    2.631570   -0.385788
     20          1           0       -2.865262    2.887650   -0.599933
 ---------------------------------------------------------------------

 SCF Done:  E(RHF) =  -594.472374277     A.U. after    2 cycles

 The electronic state is 1-A.
 Alpha  occ. eigenvalues --  -15.84290 -15.83574 -15.83241 -15.82648 -15.75058
 Alpha  occ. eigenvalues --  -15.74172 -15.72537 -15.71962 -11.56855 -11.55850
 Alpha  occ. eigenvalues --  -11.44536 -11.44097  -1.57473  -1.56366  -1.37300
 Alpha  occ. eigenvalues --   -1.36506  -1.35015  -1.34000  -1.23262  -1.22663
 Alpha  occ. eigenvalues --   -0.94372  -0.93527  -0.82465  -0.81622  -0.77874
 Alpha  occ. eigenvalues --   -0.76891  -0.68690  -0.67874  -0.66670  -0.65835
 Alpha  occ. eigenvalues --   -0.64971  -0.63945  -0.53935  -0.53326  -0.50220
 Alpha  occ. eigenvalues --   -0.49514  -0.49437  -0.48949  -0.44296  -0.42570
 Alpha  occ. eigenvalues --   -0.36197  -0.35587  -0.32277  -0.31569
 Alpha virt. eigenvalues --    0.01498   0.02931   0.03522   0.04302   0.05327
 Alpha virt. eigenvalues --    0.05822   0.06362   0.07837   0.08543   0.09470
 Alpha virt. eigenvalues --    0.10007   0.10585   0.10967   0.11505   0.12113

 Mulliken charges:
               1
     1  N   -2.731482
     2  C    3.158741
     3  N   -2.686632
     4  C    4.893009
     5  N   -2.565078
     6  N   -2.862571
     7  H    0.775535
     8  H    0.698230
     9  H    0.681289
    10  H    0.713606
    11  N   -2.798877
    12  C    3.564378
    13  N   -2.686297
    14  C    4.232756
    15  N   -2.349451
    16  N   -2.928631
    17  H    0.744195
    18  H    0.769732
    19  H    0.671616
    20  H    0.705934
 Sum of Mulliken charges =  -0.00000

 Dipole moment (field-independent basis, Debye):
    X=              0.2289    Y=              0.2331    Z=             -0.4395  Tot=              0.5477

 Test job not archived.
 1\1\GINC-SE100\SP\RHF\Aug-CC-pVDZ\C4H8N8\OHZDE\08-Apr-2025\0\\#t hf au
 g-cc-pvdz iop(5/13=1,5/36=2,99/5=2) pseudo=read geom=check guess=(read
 ,tcheck) scf=(maxcycle=1)\\title\\0,1\N,0,3.187601,-0.047335,-1.496641
 \C,0,2.374574,0.453351,-0.822315\N,0,1.447054,1.06357,-0.158373\C,0,1.
 185537,0.733156,1.116757\N,0,1.867065,-0.194691,1.797929\N,0,0.206646,
 1.393807,1.733021\H,0,1.540497,-0.46649,2.717722\H,0,2.611069,-0.73846
 5,1.377566\H,0,-0.007785,1.163282,2.696952\H,0,-0.346843,2.07056,1.207
 981\N,0,1.420831,2.164565,7.397293\C,0,2.233857,2.665251,6.722967\N,0,

 Normal termination of Gaussian 16 at Tue Apr  8 19:10:45 2025.
