 Gaussian 16, Revision C.01,

 ----------------------------------------------------------------------
 #t hf aug-cc-pvdz symm=none int=(grid=ultrafine) guess=(read,tcheck) s
 table=(opt,rrhf)
 ----------------------------------------------------------------------
 -----
 title
 -----
 Symbolic Z-matrix:
 Charge =  0 Multiplicity = 1

 SCF Done:  E(RHF) =  -1137.85486370     A.U. after   16 cycles
 Normal termination of Gaussian 16 at Tue Apr  8 20:02:22 2025.
 Gaussian 16:  ES64L-G16RevC.01  3-Jul-2019

 ----------------------------------------------------------------------
 #t hf aug-cc-pvdz iop(5/13=1,5/36=2,99/5=2) pseudo=read geom=check gue
 ss=(read,tcheck) scf=(maxcycle=1)
 ----------------------------------------------------------------------
 -----
 title
 -----
 Structure from the checkpoint file:  "3B-69_21a_p-benzoquinone_trimer_mol1.chk"
 Charge =  0 Multiplicity = 1

                         Standard orientation:
 ---------------------------------------------------------------------
 Center     Atomic      Atomic             Coordinates (Angstroms)
 Number     Number       Type             X           Y           Z
 ---------------------------------------------------------------------
      1          8           0       -2.143774    1.062257    1.928017
      2          6           0       -1.174454    1.575626    1.380828
      3          6           0        0.204126    1.281144    1.834711
      4          1           0        0.311504    0.593575    2.664421
      5          6           0       -1.350036    2.500935    0.236134
      6          1           0       -2.371976    2.699569   -0.066109
      7          8           0        2.053329    3.274006   -0.462844
      8          6           0        1.084009    2.760636    0.084345
      9          6           0        1.259591    1.835327    1.229040
     10          1           0        2.281531    1.636693    1.531284
     11          6           0       -0.294571    3.055118   -0.369538
     12          1           0       -0.401949    3.742687   -1.199248
     13          8           0        5.615588   -1.970960    0.655853
     14          6           0        4.595004   -1.514244    0.153495
     15          6           0        3.257223   -1.886061    0.668575
     16          1           0        3.226564   -2.577560    1.501395
     17          6           0        4.665995   -0.581915   -0.996755
     18          1           0        5.660349   -0.325877   -1.344424
     19          8           0        1.196176   -0.004526   -1.540885
     20          6           0        2.216761   -0.461243   -1.038527
     21          6           0        2.145769   -1.393571    0.111723
     22          1           0        1.151416   -1.649609    0.459392
     23          6           0        3.554541   -0.089424   -1.553607
     24          1           0        3.585201    0.602074   -2.386427
     25          8           0       -1.150954   -2.163605    0.808298
     26          6           0       -2.171538   -1.706889    0.305940
     27          6           0       -3.509319   -2.078706    0.821020
     28          1           0       -3.539978   -2.770205    1.653840
     29          6           0       -2.100547   -0.774560   -0.844310
     30          1           0       -1.106193   -0.518522   -1.191979
     31          8           0       -5.570366   -0.197171   -1.388440
     32          6           0       -4.549781   -0.653888   -0.886082
     33          6           0       -4.620773   -1.586216    0.264167
     34          1           0       -5.615126   -1.842254    0.611837
     35          6           0       -3.212001   -0.282069   -1.401162
     36          1           0       -3.181341    0.409429   -2.233982
 ---------------------------------------------------------------------

 SCF Done:  E(RHF) =  -1142.81558504     A.U. after    2 cycles

 The electronic state is 1-A.
 Alpha  occ. eigenvalues --  -21.08731 -21.08420 -21.08376 -21.08345 -21.08076
 Alpha  occ. eigenvalues --  -21.07775 -11.58144 -11.57985 -11.57167 -11.52675
 Alpha  occ. eigenvalues --  -11.52497 -11.51942 -11.49303 -11.49182 -11.48631
 Alpha  occ. eigenvalues --  -11.47960 -11.47821 -11.47110 -11.44782 -11.44403
 Alpha  occ. eigenvalues --  -11.44130 -11.42231 -11.42075 -11.41648  -1.74698
 Alpha  occ. eigenvalues --   -1.74035  -1.73634  -1.72448  -1.72256  -1.71796
 Alpha  occ. eigenvalues --   -1.30645  -1.30546  -1.29884  -1.15867  -1.15598
 Alpha  occ. eigenvalues --   -1.15050  -1.02174  -1.02073  -1.01452  -0.91698
 Alpha  occ. eigenvalues --   -0.91557  -0.90974  -0.85452  -0.85243  -0.84698
 Alpha  occ. eigenvalues --   -0.68436  -0.68331  -0.68123  -0.67928  -0.67573
 Alpha  occ. eigenvalues --   -0.67059  -0.66963  -0.66791  -0.66311  -0.64001
 Alpha  occ. eigenvalues --   -0.63660  -0.63193  -0.57864  -0.57370  -0.56611
 Alpha  occ. eigenvalues --   -0.53484  -0.52836  -0.52802  -0.52509  -0.52034
 Alpha  occ. eigenvalues --   -0.51432  -0.50378  -0.49556  -0.49461  -0.48792
 Alpha  occ. eigenvalues --   -0.48661  -0.47734  -0.41207  -0.40152  -0.39416
 Alpha  occ. eigenvalues --   -0.34591  -0.34515  -0.34015  -0.32666  -0.31787
 Alpha  occ. eigenvalues --   -0.31469  -0.31336  -0.31039  -0.30831
 Alpha virt. eigenvalues --    0.02978   0.03683   0.04213   0.04355   0.04522
 Alpha virt. eigenvalues --    0.04866   0.04921   0.05244   0.05918   0.06025
 Alpha virt. eigenvalues --    0.06507   0.06532   0.06930   0.07413   0.07874

 Mulliken charges:
               1
     1  O   -4.329404
     2  C    3.603230
     3  C   -1.656805
     4  H    1.831190
     5  C   -1.099803
     6  H    1.828156
     7  O   -4.022649
     8  C    3.563121
     9  C   -1.583858
    10  H    2.025535
    11  C   -2.158589
    12  H    1.766705
    13  O   -3.802450
    14  C    2.762333
    15  C   -2.192974
    16  H    1.637120
    17  C   -2.037871
    18  H    1.699097
    19  O   -4.798639
    20  C    3.991016
    21  C    1.044483
    22  H    2.204140
    23  C   -2.104093
    24  H    1.851769
    25  O   -4.808349
    26  C    3.697309
    27  C   -2.097560
    28  H    1.806201
    29  C    0.764075
    30  H    2.289300
    31  O   -3.846346
    32  C    2.850143
    33  C   -1.877088
    34  H    1.676998
    35  C   -2.137764
    36  H    1.662324
 Sum of Mulliken charges =  -0.00000

 Dipole moment (field-independent basis, Debye):
    X=              0.1612    Y=              0.0402    Z=              0.0119  Tot=              0.1666

 Test job not archived.
 1\1\GINC-SE044\SP\RHF\Aug-CC-pVDZ\C18H12O6\OHZDE\08-Apr-2025\0\\#t hf
 aug-cc-pvdz iop(5/13=1,5/36=2,99/5=2) pseudo=read geom=check guess=(re
 ad,tcheck) scf=(maxcycle=1)\\title\\0,1\O,0,0.080654,12.312048,7.62370
 3\C,0,-0.510475,11.31644,7.221364\C,0,0.018253,9.957365,7.479383\H,0,0
 .942935,9.888301,8.038752\C,0,-1.783484,11.439808,6.471979\H,0,-2.1386
 94,12.448619,6.295076\O,0,-2.49858,8.000952,5.895778\C,0,-1.907451,8.9
 9656,6.298118\C,0,-0.634441,8.873192,7.047503\H,0,-0.279231,7.864381,7
 .224406\C,0,-2.436179,10.355635,6.040099\H,0,-3.360861,10.424699,5.480

 Normal termination of Gaussian 16 at Tue Apr  8 20:03:47 2025.
