 Gaussian 16, Revision C.01,

 ----------------------------------------------------------------------
 #t hf aug-cc-pvdz symm=none int=(grid=ultrafine) guess=(read,tcheck) s
 table=(opt,rrhf)
 ----------------------------------------------------------------------
 -----
 title
 -----
 Symbolic Z-matrix:
 Charge =  0 Multiplicity = 1

 SCF Done:  E(RHF) =  -1018.16948458     A.U. after   14 cycles
 Normal termination of Gaussian 16 at Tue Apr  8 19:10:46 2025.
 Gaussian 16:  ES64L-G16RevC.01  3-Jul-2019

 ----------------------------------------------------------------------
 #t hf aug-cc-pvdz iop(5/13=1,5/36=2,99/5=2) pseudo=read geom=check gue
 ss=(read,tcheck) scf=(maxcycle=1)
 ----------------------------------------------------------------------
 -----
 title
 -----
 Structure from the checkpoint file:  "3B-69_08c_vinylene_carbonate_trimer_mol1.chk"
 Charge =  0 Multiplicity = 1

                         Standard orientation:
 ---------------------------------------------------------------------
 Center     Atomic      Atomic             Coordinates (Angstroms)
 Number     Number       Type             X           Y           Z
 ---------------------------------------------------------------------
      1          6           0        4.154051   -1.114059   -0.333750
      2          6           0        3.258602   -0.157496   -0.153043
      3          6           0        2.241164   -2.095122    0.200071
      4          1           0        5.196293   -1.126681   -0.588004
      5          1           0        3.278306    0.912260   -0.217505
      6          8           0        3.535944   -2.344373   -0.106674
      7          8           0        2.047337   -0.754104    0.201780
      8          8           0        1.399402   -2.918430    0.423340
      9          6           0       -1.374548   -1.063722   -0.032514
     10          6           0       -1.612344   -2.364175   -0.074574
     11          6           0       -3.573306   -1.330364   -0.063298
     12          1           0       -0.484601   -0.464765   -0.014653
     13          1           0       -0.995738   -3.240839   -0.087961
     14          8           0       -2.597787   -0.392176   -0.034311
     15          8           0       -2.994846   -2.554662   -0.112063
     16          8           0       -4.752973   -1.120472   -0.039254
     17          6           0       -1.404065    2.621670   -0.004344
     18          6           0       -1.166269    3.922123    0.037716
     19          6           0        0.794692    2.888313    0.026439
     20          1           0       -2.294012    2.022713   -0.022205
     21          1           0       -1.782876    4.798787    0.051104
     22          8           0       -0.180825    1.950125   -0.002547
     23          8           0        0.216233    4.112611    0.075206
     24          8           0        1.974360    2.678420    0.002397
 ---------------------------------------------------------------------

 SCF Done:  E(RHF) =  -1022.36719282     A.U. after    2 cycles

 The electronic state is 1-A.
 Alpha  occ. eigenvalues --  -21.16274 -21.15945 -21.15063 -21.14906 -21.13960
 Alpha  occ. eigenvalues --  -21.13316 -21.08564 -21.07400 -21.05797 -11.58727
 Alpha  occ. eigenvalues --  -11.57264 -11.55661 -11.53512 -11.52070 -11.51547
 Alpha  occ. eigenvalues --  -11.46394 -11.45050 -11.43802  -2.00122  -1.98983
 Alpha  occ. eigenvalues --   -1.97625  -1.76832  -1.75673  -1.74469  -1.72485
 Alpha  occ. eigenvalues --   -1.71191  -1.69294  -1.14656  -1.13386  -1.11835
 Alpha  occ. eigenvalues --   -0.89636  -0.88385  -0.87132  -0.85657  -0.84415
 Alpha  occ. eigenvalues --   -0.83228  -0.76731  -0.75146  -0.73489  -0.68765
 Alpha  occ. eigenvalues --   -0.67658  -0.66304  -0.64881  -0.63699  -0.62233
 Alpha  occ. eigenvalues --   -0.55952  -0.54249  -0.53445  -0.52508  -0.51753
 Alpha  occ. eigenvalues --   -0.50671  -0.49316  -0.48196  -0.46897  -0.46595
 Alpha  occ. eigenvalues --   -0.45801  -0.45623  -0.44738  -0.44132  -0.43522
 Alpha  occ. eigenvalues --   -0.34999  -0.33749  -0.31995  -0.29476  -0.28359
 Alpha  occ. eigenvalues --   -0.26657
 Alpha virt. eigenvalues --    0.02517   0.03785   0.05245   0.05898   0.06252
 Alpha virt. eigenvalues --    0.06600   0.08450   0.08740   0.09112   0.09327
 Alpha virt. eigenvalues --    0.09870   0.10273   0.10502   0.11164   0.11318

 Mulliken charges:
               1
     1  C    0.147401
     2  C    0.785524
     3  C    6.495035
     4  H    1.294842
     5  H    1.608183
     6  O   -3.466138
     7  O   -3.401174
     8  O   -3.345395
     9  C    0.687789
    10  C   -0.534304
    11  C    7.081828
    12  H    1.567163
    13  H    1.505973
    14  O   -3.436160
    15  O   -3.535309
    16  O   -3.480832
    17  C    0.928478
    18  C    0.119847
    19  C    6.384576
    20  H    1.571846
    21  H    1.277898
    22  O   -3.346272
    23  O   -3.382360
    24  O   -3.528437
 Sum of Mulliken charges =  -0.00000

 Dipole moment (field-independent basis, Debye):
    X=              2.9928    Y=              2.9592    Z=             -0.5686  Tot=              4.2470

 Test job not archived.
 1\1\GINC-SE333\SP\RHF\Aug-CC-pVDZ\C9H6O9\OHZDE\08-Apr-2025\0\\#t hf au
 g-cc-pvdz iop(5/13=1,5/36=2,99/5=2) pseudo=read geom=check guess=(read
 ,tcheck) scf=(maxcycle=1)\\title\\0,1\C,0,0.845927,15.309211,1.553806\
 C,0,1.46459,14.71303,2.55945\C,0,0.932131,13.146144,1.084452\H,0,0.584
 258,16.325703,1.331665\H,0,1.890128,15.047782,3.484534\O,0,0.509604,14
 .34051,0.607341\O,0,1.545281,13.348493,2.275671\O,0,0.782676,12.082704
 ,0.552468\C,0,1.292572,10.034211,3.17663\C,0,0.673909,9.43803,2.170986
 \C,0,1.206368,7.871144,3.645984\H,0,1.554241,11.050703,3.398771\H,0,0.

 Normal termination of Gaussian 16 at Tue Apr  8 19:11:10 2025.
