 Gaussian 16, Revision C.01,

 ----------------------------------------------------------------------
 #t hf aug-cc-pvdz symm=none int=(grid=ultrafine) guess=(read,tcheck) s
 table=(opt,rrhf)
 ----------------------------------------------------------------------
 -----
 title
 -----
 Symbolic Z-matrix:
 Charge =  0 Multiplicity = 1

 SCF Done:  E(RHF) =  -610.990991138     A.U. after   14 cycles
 Normal termination of Gaussian 16 at Tue Apr  8 19:17:40 2025.
 Gaussian 16:  ES64L-G16RevC.01  3-Jul-2019

 ----------------------------------------------------------------------
 #t hf aug-cc-pvdz iop(5/13=1,5/36=2,99/5=2) pseudo=read geom=check gue
 ss=(read,tcheck) scf=(maxcycle=1)
 ----------------------------------------------------------------------
 -----
 title
 -----
 Structure from the checkpoint file:  "3B-69_23a_cyclobutylfuran_dimerAB_mol1.chk"
 Charge =  0 Multiplicity = 1

                         Standard orientation:
 ---------------------------------------------------------------------
 Center     Atomic      Atomic             Coordinates (Angstroms)
 Number     Number       Type             X           Y           Z
 ---------------------------------------------------------------------
      1          8           0       -3.396978   -1.548031    0.004068
      2          6           0       -3.922958   -0.391526   -0.549820
      3          1           0       -4.834348   -0.519893   -1.103846
      4          6           0       -3.102049    0.630135   -0.225307
      5          6           0       -2.547105    2.049518   -0.167369
      6          1           0       -2.219647    2.456237   -1.123162
      7          1           0       -3.182018    2.784651    0.325215
      8          6           0       -1.374274    1.459262    0.724069
      9          1           0       -0.378984    1.547464    0.293577
     10          1           0       -1.349670    1.825099    1.748591
     11          6           0       -2.039661    0.104609    0.555009
     12          6           0       -2.231344   -1.223762    0.681017
     13          1           0       -1.734750   -2.042822    1.167602
     14          8           0        1.890206   -1.925468   -0.293777
     15          6           0        1.364226   -0.768963   -0.847665
     16          1           0        0.452835   -0.897330   -1.401691
     17          6           0        2.185134    0.252699   -0.523152
     18          6           0        2.740078    1.672082   -0.465213
     19          1           0        3.067537    2.078800   -1.421006
     20          1           0        2.105166    2.407215    0.027371
     21          6           0        3.912910    1.081826    0.426224
     22          1           0        4.908200    1.170027   -0.004268
     23          1           0        3.937514    1.447662    1.450746
     24          6           0        3.247523   -0.272827    0.257165
     25          6           0        3.055839   -1.601198    0.383173
     26          1           0        3.552433   -2.420259    0.869757
 ---------------------------------------------------------------------

 SCF Done:  E(RHF) =  -613.863089760     A.U. after    2 cycles

 The electronic state is 1-A.
 Alpha  occ. eigenvalues --  -21.09720 -21.09467 -11.50057 -11.49273 -11.46926
 Alpha  occ. eigenvalues --  -11.46445 -11.44600 -11.44102 -11.40349 -11.40110
 Alpha  occ. eigenvalues --  -11.40034 -11.39431 -11.35706 -11.35494  -1.81661
 Alpha  occ. eigenvalues --   -1.81440  -1.33296  -1.32823  -1.04894  -1.04627
 Alpha  occ. eigenvalues --   -1.04431  -1.04144  -0.92235  -0.91836  -0.81376
 Alpha  occ. eigenvalues --   -0.81060  -0.71788  -0.71468  -0.69997  -0.69723
 Alpha  occ. eigenvalues --   -0.64907  -0.64526  -0.55054  -0.54783  -0.54258
 Alpha  occ. eigenvalues --   -0.54022  -0.52689  -0.52265  -0.51940  -0.51544
 Alpha  occ. eigenvalues --   -0.46597  -0.46273  -0.41160  -0.40865  -0.39719
 Alpha  occ. eigenvalues --   -0.39398  -0.31310  -0.31166  -0.30932  -0.30429
 Alpha virt. eigenvalues --    0.03480   0.04098   0.04730   0.05328   0.05424
 Alpha virt. eigenvalues --    0.05625   0.05718   0.06312   0.06618   0.06929
 Alpha virt. eigenvalues --    0.07710   0.09281   0.09618   0.10398   0.11173

 Mulliken charges:
               1
     1  O   -3.818042
     2  C   -0.550435
     3  H    1.389888
     4  C    1.636454
     5  C   -3.657382
     6  H    1.263736
     7  H    1.273477
     8  C   -3.986764
     9  H    2.027769
    10  H    1.271616
    11  C    2.752247
    12  C   -0.988202
    13  H    1.468555
    14  O   -3.860702
    15  C   -0.262462
    16  H    1.536132
    17  C    2.406649
    18  C   -4.180878
    19  H    1.254303
    20  H    1.424791
    21  C   -3.858313
    22  H    1.259517
    23  H    1.259286
    24  C    1.748200
    25  C   -0.216400
    26  H    1.406959
 Sum of Mulliken charges =  -0.00000

 Dipole moment (field-independent basis, Debye):
    X=              0.5044    Y=              0.7962    Z=              0.1355  Tot=              0.9522

 Test job not archived.
 1\1\GINC-SE228\SP\RHF\Aug-CC-pVDZ\C12H12O2\OHZDE\08-Apr-2025\0\\#t hf
 aug-cc-pvdz iop(5/13=1,5/36=2,99/5=2) pseudo=read geom=check guess=(re
 ad,tcheck) scf=(maxcycle=1)\\title\\0,1\O,0,-0.126301,16.441388,12.924
 526\C,0,-0.701266,17.4636,12.185981\H,0,-1.568703,17.187494,11.615566\
 C,0,0.02543,18.581936,12.396288\C,0,0.473934,20.034432,12.273536\H,0,0
 .824753,20.32698,11.284835\H,0,-0.238268,20.779526,12.625356\C,0,1.633
 898,19.669284,13.293216\H,0,2.642979,19.773757,12.900092\H,0,1.574915,
 20.176469,14.254138\C,0,1.077037,18.256376,13.291762\C,0,0.973511,16.9

 Normal termination of Gaussian 16 at Tue Apr  8 19:18:03 2025.
