 Gaussian 16, Revision C.01,

 ----------------------------------------------------------------------
 #t hf aug-cc-pvdz symm=none int=(grid=ultrafine) guess=(read,tcheck) s
 table=(opt,rrhf)
 ----------------------------------------------------------------------
 -----
 title
 -----
 Symbolic Z-matrix:
 Charge =  0 Multiplicity = 1

 SCF Done:  E(RHF) =  -692.182972365     A.U. after   14 cycles
 Normal termination of Gaussian 16 at Tue Apr  8 19:32:37 2025.
 Gaussian 16:  ES64L-G16RevC.01  3-Jul-2019

 ----------------------------------------------------------------------
 #t hf aug-cc-pvdz iop(5/13=1,5/36=2,99/5=2) pseudo=read geom=check gue
 ss=(read,tcheck) scf=(maxcycle=1)
 ----------------------------------------------------------------------
 -----
 title
 -----
 Structure from the checkpoint file:  "3B-69_19a_benzene_trimer_mol1.chk"
 Charge =  0 Multiplicity = 1

                         Standard orientation:
 ---------------------------------------------------------------------
 Center     Atomic      Atomic             Coordinates (Angstroms)
 Number     Number       Type             X           Y           Z
 ---------------------------------------------------------------------
      1          6           0        2.949186    1.902263    0.853920
      2          6           0        2.184125    1.006363    0.112056
      3          6           0        2.771496    3.273500    0.690783
      4          1           0        3.675878    1.529379    1.563743
      5          1           0        2.311117   -0.061221    0.234070
      6          1           0        3.354642    3.962769    1.283823
      7          6           0        1.064884    2.858457   -0.957418
      8          6           0        1.829945    3.754357   -0.215554
      9          6           0        1.242573    1.487221   -0.794281
     10          1           0        0.338192    3.231342   -1.667241
     11          1           0        1.702952    4.821942   -0.337568
     12          1           0        0.659427    0.797951   -1.387321
     13          6           0       -4.868519   -0.092662   -0.153927
     14          6           0       -4.446556    0.144653    1.151426
     15          6           0       -3.953252   -0.048103   -1.202153
     16          1           0       -5.908098   -0.320370   -0.349879
     17          1           0       -5.148646    0.108328    1.973923
     18          1           0       -4.283824   -0.252553   -2.210007
     19          6           0       -2.191468    0.472842    0.355438
     20          6           0       -2.613430    0.235527   -0.949915
     21          6           0       -3.106735    0.428283    1.403664
     22          1           0       -1.151889    0.700550    0.551391
     23          1           0       -1.911341    0.271853   -1.772412
     24          1           0       -2.776162    0.632733    2.411518
     25          6           0        0.570446   -2.064316   -0.928216
     26          6           0        1.814343   -2.464057   -1.409093
     27          6           0        0.280357   -2.169831    0.429426
     28          1           0       -0.166614   -1.663380   -1.611566
     29          1           0        2.051730   -2.382415   -2.461576
     30          1           0       -0.679589   -1.839552    0.798571
     31          6           0        2.475472   -3.076585    0.830202
     32          6           0        1.231574   -2.676844    1.311080
     33          6           0        2.765561   -2.971070   -0.527440
     34          1           0        3.212531   -3.477521    1.513552
     35          1           0        0.994185   -2.758479    2.363569
     36          1           0        3.725507   -3.301349   -0.896584
 ---------------------------------------------------------------------

 SCF Done:  E(RHF) =  -695.569607115     A.U. after    2 cycles

 The electronic state is 1-A.
 Alpha  occ. eigenvalues --  -11.52552 -11.52149 -11.51977 -11.43003 -11.42891
 Alpha  occ. eigenvalues --  -11.42765 -11.42715 -11.42460 -11.42222 -11.40601
 Alpha  occ. eigenvalues --  -11.40501 -11.40376 -11.40326 -11.40000 -11.39810
 Alpha  occ. eigenvalues --  -11.36206 -11.36127 -11.35534  -1.33913  -1.33503
 Alpha  occ. eigenvalues --   -1.32825  -1.09111  -1.08979  -1.08900  -1.08725
 Alpha  occ. eigenvalues --   -1.08295  -1.08212  -0.85976  -0.85793  -0.85654
 Alpha  occ. eigenvalues --   -0.85538  -0.85105  -0.85065  -0.72368  -0.72001
 Alpha  occ. eigenvalues --   -0.71436  -0.65859  -0.65353  -0.64935  -0.58654
 Alpha  occ. eigenvalues --   -0.58342  -0.58077  -0.57798  -0.57617  -0.57418
 Alpha  occ. eigenvalues --   -0.55868  -0.55687  -0.55191  -0.50080  -0.49969
 Alpha  occ. eigenvalues --   -0.49467  -0.45043  -0.44719  -0.44540  -0.44254
 Alpha  occ. eigenvalues --   -0.43983  -0.43876  -0.33428  -0.33127  -0.32860
 Alpha  occ. eigenvalues --   -0.32710  -0.32181  -0.31863
 Alpha virt. eigenvalues --    0.03399   0.04499   0.04661   0.04740   0.05048
 Alpha virt. eigenvalues --    0.05299   0.05523   0.05738   0.05935   0.06483
 Alpha virt. eigenvalues --    0.06632   0.07068   0.07807   0.08230   0.08469

 Mulliken charges:
               1
     1  C   -3.479632
     2  C   -0.140385
     3  C   -1.919153
     4  H    1.562413
     5  H    2.318963
     6  H    1.562374
     7  C   -2.321982
     8  C   -2.602990
     9  C   -0.052386
    10  H    1.564966
    11  H    1.572444
    12  H    2.540417
    13  C   -2.088673
    14  C   -2.318807
    15  C   -2.386596
    16  H    1.557599
    17  H    1.575910
    18  H    1.564516
    19  C    1.169093
    20  C   -1.443088
    21  C   -3.852654
    22  H    2.621420
    23  H    2.054640
    24  H    1.523855
    25  C   -0.988964
    26  C   -2.399331
    27  C   -1.213453
    28  H    2.147306
    29  H    1.628148
    30  H    2.121523
    31  C   -1.639353
    32  C   -2.772352
    33  C   -2.204091
    34  H    1.562228
    35  H    1.573384
    36  H    1.602691
 Sum of Mulliken charges =   0.00000

 Dipole moment (field-independent basis, Debye):
    X=             -0.0623    Y=             -0.2326    Z=              0.2136  Tot=              0.3219

 Test job not archived.
 1\1\GINC-SE284\SP\RHF\Aug-CC-pVDZ\C18H18\OHZDE\08-Apr-2025\0\\#t hf au
 g-cc-pvdz iop(5/13=1,5/36=2,99/5=2) pseudo=read geom=check guess=(read
 ,tcheck) scf=(maxcycle=1)\\title\\0,1\C,0,14.171733,20.025411,6.67944\
 C,0,13.70564,19.092508,7.60181\C,0,15.173718,19.675303,5.77837\H,0,13.
 746682,21.020351,6.65947\H,0,12.924382,19.352746,8.30371\H,0,15.516834
 ,20.39801,5.05255\C,0,15.248667,17.459389,6.71936\C,0,15.71476,18.3922
 92,5.79699\C,0,14.246682,17.809497,7.62043\H,0,15.673718,16.464449,6.7
 3933\H,0,16.496018,18.132054,5.09509\H,0,13.903566,17.08679,8.34625\C,

 Normal termination of Gaussian 16 at Tue Apr  8 19:33:50 2025.
