 Gaussian 16, Revision C.01,

 ----------------------------------------------------------------------
 #t hf aug-cc-pvdz symm=none int=(grid=ultrafine) guess=(read,tcheck) s
 table=(opt,rrhf)
 ----------------------------------------------------------------------
 -----
 title
 -----
 Symbolic Z-matrix:
 Charge =  0 Multiplicity = 1

 SCF Done:  E(RHF) =  -962.271554087     A.U. after   13 cycles
 Normal termination of Gaussian 16 at Tue Apr  8 19:28:38 2025.
 Gaussian 16:  ES64L-G16RevC.01  3-Jul-2019

 ----------------------------------------------------------------------
 #t hf aug-cc-pvdz iop(5/13=1,5/36=2,99/5=2) pseudo=read geom=check gue
 ss=(read,tcheck) scf=(maxcycle=1)
 ----------------------------------------------------------------------
 -----
 title
 -----
 Structure from the checkpoint file:  "3B-69_17b_oxazolidinone_trimer_mol1.chk"
 Charge =  0 Multiplicity = 1

                         Standard orientation:
 ---------------------------------------------------------------------
 Center     Atomic      Atomic             Coordinates (Angstroms)
 Number     Number       Type             X           Y           Z
 ---------------------------------------------------------------------
      1          7           0        2.607809   -0.633273   -0.289060
      2          8           0        4.535914    0.259140    0.332464
      3          8           0        3.090070   -0.321551    1.954650
      4          6           0        3.219206   -0.281751   -1.564276
      5          6           0        4.644856    0.071547   -1.107235
      6          6           0        3.354057   -0.256302    0.759597
      7          1           0        1.651245   -0.976611   -0.173500
      8          1           0        2.703102    0.554864   -2.032736
      9          1           0        3.212921   -1.124297   -2.253498
     10          1           0        5.353554   -0.737208   -1.278773
     11          1           0        5.024371    0.991724   -1.536132
     12          7           0       -1.697722   -1.232941   -1.044824
     13          8           0       -2.094361   -2.212943    0.900055
     14          8           0        0.036669   -1.671441    0.426090
     15          6           0       -3.120183   -1.538075   -1.128774
     16          6           0       -3.406473   -1.956537    0.323504
     17          6           0       -1.141597   -1.684399    0.089013
     18          1           0       -1.131173   -0.867297   -1.813964
     19          1           0       -3.311928   -2.334205   -1.846516
     20          1           0       -3.697961   -0.662124   -1.418314
     21          1           0       -3.869865   -1.161811    0.906121
     22          1           0       -3.991602   -2.864954    0.407836
     23          7           0       -1.878722    1.429088    1.098577
     24          8           0       -1.482083    2.409090   -0.846303
     25          8           0       -3.613114    1.867588   -0.372337
     26          6           0       -0.456262    1.734222    1.182527
     27          6           0       -0.169971    2.152684   -0.269751
     28          6           0       -2.434847    1.880546   -0.035260
     29          1           0       -2.445272    1.063443    1.867717
     30          1           0       -0.264516    2.530351    1.900268
     31          1           0        0.121516    0.858272    1.472067
     32          1           0        0.293421    1.357959   -0.852368
     33          1           0        0.415158    3.061101   -0.354084
 ---------------------------------------------------------------------

 SCF Done:  E(RHF) =  -966.462367671     A.U. after    2 cycles

 The electronic state is 1-A.
 Alpha  occ. eigenvalues --  -21.10511 -21.09574 -21.07881 -21.04452 -21.02795
 Alpha  occ. eigenvalues --  -21.00424 -15.79293 -15.77905 -15.75053 -11.54491
 Alpha  occ. eigenvalues --  -11.52528 -11.50446 -11.50245 -11.49769 -11.48726
 Alpha  occ. eigenvalues --  -11.42904 -11.42287 -11.41642  -1.87101  -1.85935
 Alpha  occ. eigenvalues --   -1.84184  -1.67992  -1.65717  -1.63249  -1.42318
 Alpha  occ. eigenvalues --   -1.41017  -1.39085  -1.12761  -1.11690  -1.10759
 Alpha  occ. eigenvalues --   -0.92834  -0.91905  -0.91020  -0.85508  -0.84110
 Alpha  occ. eigenvalues --   -0.82235  -0.72276  -0.71528  -0.71263  -0.70538
 Alpha  occ. eigenvalues --   -0.69906  -0.68838  -0.62212  -0.60913  -0.59583
 Alpha  occ. eigenvalues --   -0.59380  -0.58392  -0.57377  -0.57135  -0.56201
 Alpha  occ. eigenvalues --   -0.55927  -0.55149  -0.54931  -0.54629  -0.49971
 Alpha  occ. eigenvalues --   -0.49051  -0.46939  -0.44039  -0.43160  -0.41932
 Alpha  occ. eigenvalues --   -0.36120  -0.34977  -0.33833  -0.32904  -0.32191
 Alpha  occ. eigenvalues --   -0.31459  -0.30052  -0.29286  -0.27616
 Alpha virt. eigenvalues --    0.02860   0.03382   0.03757   0.04466   0.04857
 Alpha virt. eigenvalues --    0.05116   0.05626   0.05934   0.06376   0.06732
 Alpha virt. eigenvalues --    0.07009   0.08244   0.08534   0.09077   0.09826

 Mulliken charges:
               1
     1  N   -2.370199
     2  O   -3.129252
     3  O   -3.239548
     4  C   -2.707618
     5  C   -1.872204
     6  C    6.322422
     7  H    1.308014
     8  H    1.702410
     9  H    1.490877
    10  H    1.440429
    11  H    1.431566
    12  N   -2.688969
    13  O   -3.283815
    14  O   -3.957373
    15  C   -3.058334
    16  C   -1.756916
    17  C    7.553869
    18  H    0.830145
    19  H    1.377876
    20  H    1.707608
    21  H    1.549858
    22  H    1.436103
    23  N   -2.583499
    24  O   -3.347340
    25  O   -3.498907
    26  C   -3.640622
    27  C   -1.681235
    28  C    7.203707
    29  H    0.866088
    30  H    1.446689
    31  H    1.821256
    32  H    1.812661
    33  H    1.514254
 Sum of Mulliken charges =   0.00000

 Dipole moment (field-independent basis, Debye):
    X=             -1.6250    Y=             -0.7896    Z=             -3.3060  Tot=              3.7675

 Test job not archived.
 1\1\GINC-SE335\SP\RHF\Aug-CC-pVDZ\C9H15N3O6\OHZDE\08-Apr-2025\0\\#t hf
  aug-cc-pvdz iop(5/13=1,5/36=2,99/5=2) pseudo=read geom=check guess=(r
 ead,tcheck) scf=(maxcycle=1)\\title\\0,1\N,0,7.885048,10.511445,5.3704
 38\O,0,6.875708,12.006394,4.087222\O,0,7.551157,12.675241,6.125743\C,0
 ,7.491717,9.719721,4.211985\C,0,7.051351,10.831913,3.244881\C,0,7.4655
 55,11.782764,5.290126\H,0,8.287993,10.13073,6.230055\H,0,6.687519,9.02
 875,4.460112\H,0,8.33072,9.149585,3.817056\H,0,7.813568,11.07137,2.504
 984\H,0,6.107802,10.631202,2.750776\N,0,8.750652,7.674945,8.637451\O,0

 Normal termination of Gaussian 16 at Tue Apr  8 19:29:25 2025.
