 Gaussian 16, Revision C.01,

 ----------------------------------------------------------------------
 #t hf aug-cc-pvdz symm=none int=(grid=ultrafine) guess=(read,tcheck) s
 table=(opt,rrhf)
 ----------------------------------------------------------------------
 -----
 title
 -----
 Symbolic Z-matrix:
 Charge =  0 Multiplicity = 1

 SCF Done:  E(RHF) =  -899.256391679     A.U. after   14 cycles
 Normal termination of Gaussian 16 at Tue Apr  8 19:25:16 2025.
 Gaussian 16:  ES64L-G16RevC.01  3-Jul-2019

 ----------------------------------------------------------------------
 #t hf aug-cc-pvdz iop(5/13=1,5/36=2,99/5=2) pseudo=read geom=check gue
 ss=(read,tcheck) scf=(maxcycle=1)
 ----------------------------------------------------------------------
 -----
 title
 -----
 Structure from the checkpoint file:  "3B-69_14b_cyanoacetamide_trimer_mol1.chk"
 Charge =  0 Multiplicity = 1

                         Standard orientation:
 ---------------------------------------------------------------------
 Center     Atomic      Atomic             Coordinates (Angstroms)
 Number     Number       Type             X           Y           Z
 ---------------------------------------------------------------------
      1          6           0        1.526040    2.265484   -0.086158
      2          6           0       -0.899181    2.320806   -0.581687
      3          6           0        0.413655    2.010356   -1.112729
      4          1           0        0.411335    0.975853   -1.457504
      5          1           0        0.579181    2.624078   -2.001214
      6          1           0        3.533393    2.068479    0.151693
      7          1           0        2.904628    1.488331   -1.393203
      8          7           0        2.754483    1.938762   -0.497441
      9          7           0       -1.941856    2.566408   -0.164343
     10          8           0        1.277214    2.769764    1.011750
     11          6           0        1.629135   -1.504794   -0.376840
     12          6           0        3.983630   -1.571886    0.386154
     13          6           0        3.089032   -1.825802   -0.726117
     14          1           0        3.211212   -2.863492   -1.038111
     15          1           0        3.411821   -1.216106   -1.573193
     16          1           0       -0.242118   -1.602466   -1.160246
     17          1           0        1.036967   -2.231476   -2.202796
     18          7           0        0.748170   -1.777493   -1.343541
     19          7           0        4.696261   -1.371238    1.265679
     20          8           0        1.329199   -0.999205    0.707610
     21          6           0       -4.678568   -0.805320   -0.039207
     22          6           0       -3.726281   -0.288147    0.922711
     23          6           0       -2.289461   -0.718409    0.601460
     24          1           0       -4.032118   -0.596695    1.921624
     25          1           0       -3.774472    0.803659    0.897725
     26          1           0       -0.422282   -0.681248    1.391787
     27          1           0       -1.687078   -0.058871    2.448655
     28          7           0       -5.433129   -1.210224   -0.805986
     29          7           0       -1.413097   -0.531480    1.594332
     30          8           0       -1.993201   -1.183925   -0.500814
 ---------------------------------------------------------------------

 SCF Done:  E(RHF) =  -903.228977346     A.U. after    2 cycles

 The electronic state is 1-A.
 Alpha  occ. eigenvalues --  -21.06576 -21.04480 -21.04442 -15.81287 -15.81099
 Alpha  occ. eigenvalues --  -15.78541 -15.78023 -15.76812 -15.75286 -11.57424
 Alpha  occ. eigenvalues --  -11.54653 -11.54446 -11.50365 -11.48923 -11.47097
 Alpha  occ. eigenvalues --  -11.45254 -11.44453 -11.42365  -1.74971  -1.72806
 Alpha  occ. eigenvalues --   -1.71801  -1.40090  -1.38821  -1.37004  -1.33373
 Alpha  occ. eigenvalues --   -1.32420  -1.30673  -1.17594  -1.16137  -1.14486
 Alpha  occ. eigenvalues --   -0.87953  -0.86495  -0.84611  -0.76829  -0.75679
 Alpha  occ. eigenvalues --   -0.74261  -0.72552  -0.71232  -0.69850  -0.69538
 Alpha  occ. eigenvalues --   -0.67822  -0.67073  -0.65896  -0.64967  -0.62500
 Alpha  occ. eigenvalues --   -0.55638  -0.54306  -0.53942  -0.53303  -0.52852
 Alpha  occ. eigenvalues --   -0.52797  -0.51486  -0.51123  -0.50674  -0.45591
 Alpha  occ. eigenvalues --   -0.45160  -0.44436  -0.44120  -0.42751  -0.42622
 Alpha  occ. eigenvalues --   -0.36680  -0.35002  -0.34412  -0.33829  -0.31562
 Alpha  occ. eigenvalues --   -0.31204
 Alpha virt. eigenvalues --    0.01043   0.02854   0.03567   0.04164   0.04530
 Alpha virt. eigenvalues --    0.05143   0.06301   0.06659   0.07122   0.07539
 Alpha virt. eigenvalues --    0.07648   0.08197   0.09331   0.09733   0.10087

 Mulliken charges:
               1
     1  C    6.076582
     2  C    3.075172
     3  C   -4.466814
     4  H    1.927800
     5  H    1.441463
     6  H    0.875891
     7  H    0.874613
     8  N   -3.726590
     9  N   -2.867346
    10  O   -3.285825
    11  C    6.520667
    12  C    2.705087
    13  C   -4.225331
    14  H    1.521205
    15  H    1.608519
    16  H    1.190340
    17  H    0.915952
    18  N   -3.930725
    19  N   -2.543167
    20  O   -3.744316
    21  C    2.636018
    22  C   -4.280036
    23  C    6.376070
    24  H    1.516116
    25  H    1.718598
    26  H    1.159093
    27  H    0.937038
    28  N   -2.524593
    29  N   -3.721781
    30  O   -3.759700
 Sum of Mulliken charges =   0.00000

 Dipole moment (field-independent basis, Debye):
    X=              4.8969    Y=             -0.9760    Z=             -2.3728  Tot=              5.5283

 Test job not archived.
 1\1\GINC-SE179\SP\RHF\Aug-CC-pVDZ\C9H12N6O3\OHZDE\08-Apr-2025\0\\#t hf
  aug-cc-pvdz iop(5/13=1,5/36=2,99/5=2) pseudo=read geom=check guess=(r
 ead,tcheck) scf=(maxcycle=1)\\title\\0,1\C,0,2.712508,16.885489,6.3681
 38\C,0,2.839569,14.413417,6.423138\C,0,2.199576,15.555103,5.799531\H,0
 ,2.351814,15.490712,4.721686\H,0,1.121642,15.473767,5.957336\H,0,2.523
 751,18.891506,6.112956\H,0,1.586888,17.904765,4.987234\N,0,2.203727,17
 .976476,5.788601\N,0,3.344448,13.505572,6.915663\O,0,3.504903,16.91192
 3,7.313138\C,0,4.07858,17.004511,2.842545\C,0,4.205641,19.476583,2.897

 Normal termination of Gaussian 16 at Tue Apr  8 19:25:56 2025.
