 Gaussian 16, Revision C.01,

 ----------------------------------------------------------------------
 #t hf aug-cc-pvdz symm=none int=(grid=ultrafine) guess=(read,tcheck) s
 table=(opt,rrhf)
 ----------------------------------------------------------------------
 -----
 title
 -----
 Symbolic Z-matrix:
 Charge =  0 Multiplicity = 1

 SCF Done:  E(RHF) =  -678.769192438     A.U. after   14 cycles
 Normal termination of Gaussian 16 at Tue Apr  8 19:05:33 2025.
 Gaussian 16:  ES64L-G16RevC.01  3-Jul-2019

 ----------------------------------------------------------------------
 #t hf aug-cc-pvdz iop(5/13=1,5/36=2,99/5=2) pseudo=read geom=check gue
 ss=(read,tcheck) scf=(maxcycle=1)
 ----------------------------------------------------------------------
 -----
 title
 -----
 Structure from the checkpoint file:  "3B-69_08b_vinylene_carbonate_dimerBC_mol1.chk"
 Charge =  0 Multiplicity = 1

                         Standard orientation:
 ---------------------------------------------------------------------
 Center     Atomic      Atomic             Coordinates (Angstroms)
 Number     Number       Type             X           Y           Z
 ---------------------------------------------------------------------
      1          6           0       -1.550749    0.461105    0.916747
      2          6           0       -2.015298    1.439930    0.158069
      3          6           0       -3.398675   -0.279155   -0.054730
      4          1           0       -0.705893    0.355282    1.569506
      5          1           0       -1.691263    2.437284   -0.063754
      6          8           0       -2.413497   -0.629974    0.804935
      7          8           0       -3.191643    0.999779   -0.451425
      8          8           0       -4.300100   -0.980966   -0.416868
      9          6           0        1.550749   -0.461104   -0.916747
     10          6           0        2.015298   -1.439929   -0.158069
     11          6           0        3.398675    0.279154    0.054730
     12          1           0        0.705893   -0.355282   -1.569506
     13          1           0        1.691263   -2.437284    0.063753
     14          8           0        2.413498    0.629974   -0.804935
     15          8           0        3.191643   -0.999779    0.451425
     16          8           0        4.300100    0.980965    0.416868
 ---------------------------------------------------------------------

 SCF Done:  E(RHF) =  -681.568535641     A.U. after    2 cycles

 The electronic state is 1-A.
 Alpha  occ. eigenvalues --  -21.15589 -21.15580 -21.15377 -21.15370 -21.07152
 Alpha  occ. eigenvalues --  -21.07150 -11.56837 -11.56832 -11.52943 -11.52455
 Alpha  occ. eigenvalues --  -11.46687 -11.46526  -1.99412  -1.99408  -1.76190
 Alpha  occ. eigenvalues --   -1.76168  -1.70622  -1.70620  -1.14624  -1.14503
 Alpha  occ. eigenvalues --   -0.89504  -0.89413  -0.85069  -0.85010  -0.76359
 Alpha  occ. eigenvalues --   -0.76214  -0.68214  -0.68141  -0.64462  -0.64434
 Alpha  occ. eigenvalues --   -0.54200  -0.54163  -0.52646  -0.52617  -0.48973
 Alpha  occ. eigenvalues --   -0.48328  -0.46000  -0.45977  -0.45340  -0.45275
 Alpha  occ. eigenvalues --   -0.33333  -0.33326  -0.28861  -0.28281
 Alpha virt. eigenvalues --    0.02440   0.03657   0.03965   0.04694   0.07417
 Alpha virt. eigenvalues --    0.07736   0.08413   0.09345   0.09982   0.10605
 Alpha virt. eigenvalues --    0.10692   0.11057   0.11100   0.11938   0.12298

 Mulliken charges:
               1
     1  C    0.199136
     2  C    0.234534
     3  C    6.448761
     4  H    1.418039
     5  H    1.349479
     6  O   -3.220133
     7  O   -3.264661
     8  O   -3.165154
     9  C    0.199139
    10  C    0.234531
    11  C    6.448767
    12  H    1.418038
    13  H    1.349477
    14  O   -3.220134
    15  O   -3.264662
    16  O   -3.165156
 Sum of Mulliken charges =   0.00000

 Dipole moment (field-independent basis, Debye):
    X=             -0.0000    Y=             -0.0000    Z=             -0.0000  Tot=              0.0000

 Test job not archived.
 1\1\GINC-SE195\SP\RHF\Aug-CC-pVDZ\C6H4O6\OHZDE\08-Apr-2025\0\\#t hf au
 g-cc-pvdz iop(5/13=1,5/36=2,99/5=2) pseudo=read geom=check guess=(read
 ,tcheck) scf=(maxcycle=1)\\title\\0,1\C,0,7.061072,10.034211,7.907066\
 C,0,6.442408,9.43803,6.901422\C,0,6.974868,7.871144,8.37642\H,0,7.3227
 4,11.050703,8.129207\H,0,6.016871,9.772782,5.976338\O,0,7.397394,9.065
 51,8.853531\O,0,6.361718,8.073493,7.185201\O,0,7.124323,6.807704,8.908
 405\C,0,10.244426,11.06579,6.284242\C,0,10.863089,11.66197,7.289886\C,
 0,10.33063,13.228856,5.814889\H,0,9.982757,10.049297,6.062101\H,0,11.2

 Normal termination of Gaussian 16 at Tue Apr  8 19:05:43 2025.
