 Gaussian 16, Revision C.01,

 ----------------------------------------------------------------------
 #t hf aug-cc-pvdz symm=none int=(grid=ultrafine) guess=(read,tcheck) s
 table=(opt,rrhf)
 ----------------------------------------------------------------------
 -----
 title
 -----
 Symbolic Z-matrix:
 Charge =  0 Multiplicity = 1

 SCF Done:  E(RHF) =  -453.326818673     A.U. after   15 cycles
 Normal termination of Gaussian 16 at Tue Apr  8 19:10:01 2025.
 Gaussian 16:  ES64L-G16RevC.01  3-Jul-2019

 ----------------------------------------------------------------------
 #t hf aug-cc-pvdz iop(5/13=1,5/36=2,99/5=2) pseudo=read geom=check gue
 ss=(read,tcheck) scf=(maxcycle=1)
 ----------------------------------------------------------------------
 -----
 title
 -----
 Structure from the checkpoint file:  "3B-69_20a_maleic_acid_dimerAC_mol2.chk"
 Charge =  0 Multiplicity = 1

                         Standard orientation:
 ---------------------------------------------------------------------
 Center     Atomic      Atomic             Coordinates (Angstroms)
 Number     Number       Type             X           Y           Z
 ---------------------------------------------------------------------
      1          6           0        1.547681   -0.052539   -0.004966
      2          6           0        0.632620    1.111986   -0.048616
      3          1           0        1.136331    2.070434   -0.089365
      4          6           0       -0.704600    1.113942   -0.066091
      5          1           0       -1.186726    2.080651   -0.126845
      6          6           0       -1.691629    0.001785    0.005851
      7          8           0        2.799717    0.306559    0.107765
      8          1           0        3.427442   -0.481468    0.097555
      9          8           0        1.193202   -1.231330   -0.091281
     10          8           0       -1.322110   -1.256757    0.015598
     11          1           0       -0.316031   -1.370035   -0.067729
     12          8           0       -2.891490    0.262700    0.076582
 ---------------------------------------------------------------------

 SCF Done:  E(RHF) =  -455.225232307     A.U. after    2 cycles

 The electronic state is 1-A.
 Alpha  occ. eigenvalues --  -21.17549 -21.09534 -21.08804 -21.03752 -11.59525
 Alpha  occ. eigenvalues --  -11.53490 -11.49773 -11.44759  -1.89073  -1.81417
 Alpha  occ. eigenvalues --   -1.70847  -1.62616  -1.23458  -1.01367  -0.87093
 Alpha  occ. eigenvalues --   -0.75958  -0.74279  -0.70011  -0.62604  -0.61536
 Alpha  occ. eigenvalues --   -0.59912  -0.55543  -0.51412  -0.48597  -0.46639
 Alpha  occ. eigenvalues --   -0.41185  -0.38511  -0.32364  -0.30759  -0.29635
 Alpha virt. eigenvalues --    0.02425   0.03816   0.05641   0.05763   0.07669
 Alpha virt. eigenvalues --    0.09788   0.09900   0.10376   0.12069   0.12577
 Alpha virt. eigenvalues --    0.12798   0.13113   0.13668   0.14937   0.15077

 Mulliken charges:
               1
     1  C    5.262113
     2  C   -0.918147
     3  H    1.361600
     4  C   -0.583164
     5  H    1.282328
     6  C    4.123623
     7  O   -3.543546
     8  H    1.057662
     9  O   -3.553154
    10  O   -3.301354
    11  H    1.816608
    12  O   -3.004568
 Sum of Mulliken charges =  -0.00000

 Dipole moment (field-independent basis, Debye):
    X=              4.5831    Y=              1.1179    Z=             -0.1125  Tot=              4.7188

 Test job not archived.
 1\1\GINC-SE342\SP\RHF\Aug-CC-pVDZ\C4H4O4\OHZDE\08-Apr-2025\0\\#t hf au
 g-cc-pvdz iop(5/13=1,5/36=2,99/5=2) pseudo=read geom=check guess=(read
 ,tcheck) scf=(maxcycle=1)\\title\\0,1\C,0,-1.812866,3.535867,7.854403\
 C,0,-3.01907,4.394092,7.79209\H,0,-2.805931,5.454418,7.726603\C,0,-4.3
 02655,4.018833,7.784558\H,0,-5.03774,4.808884,7.706247\C,0,-4.936171,2
 .675625,7.888204\O,0,-0.712671,4.235658,7.949894\H,0,0.111684,3.656381
 ,7.95226\O,0,-1.82085,2.30329,7.796572\O,0,-4.226933,1.57274,7.922753\
 H,0,-3.229793,1.745595,7.83442\O,0,-6.160859,2.5895,7.962157\\Version=

 Normal termination of Gaussian 16 at Tue Apr  8 19:10:05 2025.
