 Gaussian 16, Revision C.01,

 ----------------------------------------------------------------------
 #t hf aug-cc-pvdz symm=none int=(grid=ultrafine) guess=(read,tcheck) s
 table=(opt,rrhf)
 ----------------------------------------------------------------------
 -----
 title
 -----
 Symbolic Z-matrix:
 Charge =  0 Multiplicity = 1

 SCF Done:  E(RHF) =  -1359.96635056     A.U. after   16 cycles
 Normal termination of Gaussian 16 at Tue Apr  8 19:37:19 2025.
 Gaussian 16:  ES64L-G16RevC.01  3-Jul-2019

 ----------------------------------------------------------------------
 #t hf aug-cc-pvdz iop(5/13=1,5/36=2,99/5=2) pseudo=read geom=check gue
 ss=(read,tcheck) scf=(maxcycle=1)
 ----------------------------------------------------------------------
 -----
 title
 -----
 Structure from the checkpoint file:  "3B-69_20c_maleic_acid_trimer_mol1.chk"
 Charge =  0 Multiplicity = 1

                         Standard orientation:
 ---------------------------------------------------------------------
 Center     Atomic      Atomic             Coordinates (Angstroms)
 Number     Number       Type             X           Y           Z
 ---------------------------------------------------------------------
      1          6           0       -4.061292   -1.364128   -0.121181
      2          8           0       -4.572788   -0.841273    0.969377
      3          1           0       -4.390114    0.156173    1.040526
      4          8           0       -4.249526   -2.555432   -0.350011
      5          6           0       -3.261585   -0.550832   -1.082477
      6          1           0       -2.876982   -1.156969   -1.892174
      7          6           0       -2.953998    0.751439   -1.110432
      8          1           0       -2.343318    1.101036   -1.933619
      9          6           0       -3.353932    1.808265   -0.149679
     10          8           0       -2.878397    2.983754   -0.470538
     11          1           0       -3.203927    3.696041    0.163460
     12          8           0       -4.063777    1.622195    0.841553
     13          6           0       -0.382707   -1.653106    0.036842
     14          8           0       -0.894203   -1.130251    1.127400
     15          1           0       -0.711529   -0.132805    1.198549
     16          8           0       -0.570942   -2.844411   -0.191988
     17          6           0        0.417000   -0.839811   -0.924454
     18          1           0        0.801603   -1.445947   -1.734151
     19          6           0        0.724586    0.462460   -0.952409
     20          1           0        1.335267    0.812058   -1.775596
     21          6           0        0.324653    1.519287    0.008344
     22          8           0        0.800188    2.694776   -0.312515
     23          1           0        0.474658    3.407062    0.321482
     24          8           0       -0.385192    1.333217    0.999576
     25          6           0        3.295878   -1.942085    0.194865
     26          8           0        2.784382   -1.419229    1.285423
     27          1           0        2.967056   -0.421783    1.356572
     28          8           0        3.107643   -3.133389   -0.033965
     29          6           0        4.095585   -1.128789   -0.766431
     30          1           0        4.480188   -1.734926   -1.576128
     31          6           0        4.403171    0.173482   -0.794386
     32          1           0        5.013851    0.523080   -1.617573
     33          6           0        4.003238    1.230309    0.166367
     34          8           0        4.478773    2.405798   -0.154492
     35          1           0        4.153242    3.118084    0.479505
     36          8           0        3.293392    1.044239    1.157599
 ---------------------------------------------------------------------

 SCF Done:  E(RHF) =  -1365.69143038     A.U. after    2 cycles

 The electronic state is 1-A.
 Alpha  occ. eigenvalues --  -21.19221 -21.18872 -21.17576 -21.11221 -21.10381
 Alpha  occ. eigenvalues --  -21.09902 -21.08925 -21.08405 -21.07237 -21.04938
 Alpha  occ. eigenvalues --  -21.03406 -21.02223 -11.62263 -11.62129 -11.59656
 Alpha  occ. eigenvalues --  -11.55478 -11.54742 -11.52789 -11.51810 -11.51282
 Alpha  occ. eigenvalues --  -11.49578 -11.46447 -11.45823 -11.44212  -1.90909
 Alpha  occ. eigenvalues --   -1.90167  -1.88736  -1.82557  -1.80994  -1.79738
 Alpha  occ. eigenvalues --   -1.72632  -1.71879  -1.70342  -1.63807  -1.62212
 Alpha  occ. eigenvalues --   -1.61040  -1.24841  -1.24039  -1.22636  -1.02760
 Alpha  occ. eigenvalues --   -1.01935  -1.00578  -0.88425  -0.87556  -0.86253
 Alpha  occ. eigenvalues --   -0.77211  -0.76355  -0.75679  -0.75078  -0.74639
 Alpha  occ. eigenvalues --   -0.73312  -0.71512  -0.70786  -0.69435  -0.64288
 Alpha  occ. eigenvalues --   -0.63587  -0.62991  -0.62680  -0.61531  -0.61435
 Alpha  occ. eigenvalues --   -0.60945  -0.60738  -0.59487  -0.57476  -0.55596
 Alpha  occ. eigenvalues --   -0.53303  -0.52638  -0.51609  -0.50402  -0.49999
 Alpha  occ. eigenvalues --   -0.48975  -0.47920  -0.47816  -0.46680  -0.45459
 Alpha  occ. eigenvalues --   -0.43057  -0.42205  -0.40963  -0.40339  -0.39491
 Alpha  occ. eigenvalues --   -0.37978  -0.33811  -0.32805  -0.32282  -0.31507
 Alpha  occ. eigenvalues --   -0.30713  -0.30332  -0.29178  -0.28602  -0.27975
 Alpha virt. eigenvalues --    0.01030   0.01980   0.02281   0.03325   0.03792
 Alpha virt. eigenvalues --    0.04225   0.04618   0.04964   0.05243   0.06111
 Alpha virt. eigenvalues --    0.06439   0.06943   0.07821   0.08104   0.08465

 Mulliken charges:
               1
     1  C    4.582915
     2  O   -3.551967
     3  H    1.889347
     4  O   -3.169482
     5  C   -1.166157
     6  H    1.482931
     7  C   -2.008104
     8  H    1.739519
     9  C    6.503085
    10  O   -3.928851
    11  H    1.114804
    12  O   -3.944695
    13  C    4.422500
    14  O   -3.508988
    15  H    2.093082
    16  O   -3.302813
    17  C   -1.042405
    18  H    1.760922
    19  C   -2.217202
    20  H    2.040375
    21  C    6.889966
    22  O   -4.157509
    23  H    1.088694
    24  O   -3.794701
    25  C    4.841244
    26  O   -3.436379
    27  H    1.998072
    28  O   -3.281485
    29  C   -1.201271
    30  H    1.384564
    31  C   -1.078349
    32  H    1.536938
    33  C    5.865881
    34  O   -3.936485
    35  H    1.088267
    36  O   -3.596265
 Sum of Mulliken charges =   0.00000

 Dipole moment (field-independent basis, Debye):
    X=              5.1790    Y=             10.2401    Z=             -1.9111  Tot=             11.6333

 Test job not archived.
 1\1\GINC-SE212\SP\RHF\Aug-CC-pVDZ\C12H12O12\OHZDE\08-Apr-2025\0\\#t hf
  aug-cc-pvdz iop(5/13=1,5/36=2,99/5=2) pseudo=read geom=check guess=(r
 ead,tcheck) scf=(maxcycle=1)\\title\\0,1\C,0,-1.647553,10.845738,6.203
 201\O,0,-2.15126,10.135432,5.220314\H,0,-2.044314,9.136168,5.373168\O,
 0,-1.751616,12.068249,6.16272\C,0,-0.955798,10.207203,7.360275\H,0,-0.
 559945,10.946547,8.044089\C,0,-0.752528,8.923996,7.681774\H,0,-0.20685
 6,8.720057,8.594701\C,0,-1.192451,7.714058,6.945301\O,0,-0.824514,6.60
 6276,7.53547\H,0,-1.177353,5.797481,7.049024\O,0,-1.842498,7.729101,5.

 Normal termination of Gaussian 16 at Tue Apr  8 19:38:42 2025.
