 Gaussian 16, Revision C.01,

 ----------------------------------------------------------------------
 #t hf aug-cc-pvdz symm=none int=(grid=ultrafine) guess=(read,tcheck) s
 table=(opt,rrhf)
 ----------------------------------------------------------------------
 -----
 title
 -----
 Symbolic Z-matrix:
 Charge =  0 Multiplicity = 1

 SCF Done:  E(RHF) =  -899.233419917     A.U. after   15 cycles
 Normal termination of Gaussian 16 at Tue Apr  8 19:31:54 2025.
 Gaussian 16:  ES64L-G16RevC.01  3-Jul-2019

 ----------------------------------------------------------------------
 #t hf aug-cc-pvdz iop(5/13=1,5/36=2,99/5=2) pseudo=read geom=check gue
 ss=(read,tcheck) scf=(maxcycle=1)
 ----------------------------------------------------------------------
 -----
 title
 -----
 Structure from the checkpoint file:  "3B-69_14a_cyanoacetamide_trimer_mol1.chk"
 Charge =  0 Multiplicity = 1

                         Standard orientation:
 ---------------------------------------------------------------------
 Center     Atomic      Atomic             Coordinates (Angstroms)
 Number     Number       Type             X           Y           Z
 ---------------------------------------------------------------------
      1          6           0        1.529493   -1.110799   -1.281176
      2          6           0        3.504647   -1.909264   -0.019618
      3          6           0        2.119907   -2.180818   -0.352300
      4          1           0        2.059017   -3.176534   -0.792655
      5          1           0        1.545657   -2.225855    0.575961
      6          1           0       -0.166095   -0.670330   -2.308707
      7          1           0       -0.205385   -2.198273   -1.424137
      8          7           0        0.272875   -1.339684   -1.672963
      9          7           0        4.602638   -1.697036    0.246921
     10          8           0        2.177998   -0.108956   -1.593211
     11          6           0        1.262039    1.983278    0.878751
     12          6           0       -0.535230    2.921650   -0.542373
     13          6           0       -0.177738    1.847967    0.363898
     14          1           0       -0.336891    0.897490   -0.146334
     15          1           0       -0.876109    1.860074    1.203893
     16          1           0        2.627666    1.014353    2.028140
     17          1           0        1.082593    0.179677    1.841903
     18          7           0        1.670285    0.987884    1.670899
     19          7           0       -0.822626    3.771715   -1.261024
     20          8           0        1.950883    2.966549    0.595402
     21          6           0       -1.617708   -1.386485    1.366779
     22          6           0       -2.882479   -1.769942    0.772709
     23          6           0       -3.495289   -0.638101   -0.061663
     24          1           0       -3.554138   -2.106646    1.561424
     25          1           0       -2.705965   -2.626744    0.117180
     26          1           0       -5.201290   -0.155651   -1.046123
     27          1           0       -5.261160   -1.678151   -0.161566
     28          7           0       -0.611248   -1.084432    1.832677
     29          7           0       -4.780613   -0.814076   -0.386823
     30          8           0       -2.825498    0.338792   -0.403046
 ---------------------------------------------------------------------

 SCF Done:  E(RHF) =  -903.208336323     A.U. after    2 cycles

 The electronic state is 1-A.
 Alpha  occ. eigenvalues --  -21.08199 -21.04365 -21.00229 -15.84357 -15.81574
 Alpha  occ. eigenvalues --  -15.81379 -15.76272 -15.76032 -15.72723 -11.58730
 Alpha  occ. eigenvalues --  -11.55083 -11.54246 -11.50715 -11.49319 -11.48222
 Alpha  occ. eigenvalues --  -11.44626 -11.43262 -11.40314  -1.75876  -1.71738
 Alpha  occ. eigenvalues --   -1.67622  -1.42369  -1.39007  -1.37388  -1.34303
 Alpha  occ. eigenvalues --   -1.31501  -1.28180  -1.20603  -1.15721  -1.11781
 Alpha  occ. eigenvalues --   -0.90171  -0.86509  -0.82205  -0.78953  -0.75878
 Alpha  occ. eigenvalues --   -0.75638  -0.72634  -0.71806  -0.70843  -0.68168
 Alpha  occ. eigenvalues --   -0.67571  -0.67026  -0.64867  -0.63716  -0.60824
 Alpha  occ. eigenvalues --   -0.58258  -0.57270  -0.55054  -0.54123  -0.51664
 Alpha  occ. eigenvalues --   -0.50805  -0.49838  -0.49511  -0.49324  -0.48299
 Alpha  occ. eigenvalues --   -0.46637  -0.43558  -0.43142  -0.40359  -0.39925
 Alpha  occ. eigenvalues --   -0.38256  -0.35209  -0.34456  -0.31141  -0.30222
 Alpha  occ. eigenvalues --   -0.26925
 Alpha virt. eigenvalues --   -0.00519   0.01476   0.02357   0.03284   0.03644
 Alpha virt. eigenvalues --    0.03982   0.05741   0.06353   0.06612   0.07165
 Alpha virt. eigenvalues --    0.07422   0.08052   0.08745   0.08914   0.09731

 Mulliken charges:
               1
     1  C    6.172366
     2  C    2.837408
     3  C   -4.239471
     4  H    1.548988
     5  H    1.898185
     6  H    0.930887
     7  H    0.853839
     8  N   -3.856899
     9  N   -2.638769
    10  O   -3.535235
    11  C    5.673358
    12  C    1.989322
    13  C   -4.067711
    14  H    2.496863
    15  H    1.628718
    16  H    0.829792
    17  H    0.996411
    18  N   -3.581119
    19  N   -2.561750
    20  O   -3.390225
    21  C    2.972676
    22  C   -3.433737
    23  C    5.463302
    24  H    1.438431
    25  H    1.545232
    26  H    0.775274
    27  H    0.823960
    28  N   -2.994085
    29  N   -3.363771
    30  O   -3.212242
 Sum of Mulliken charges =   0.00000

 Dipole moment (field-independent basis, Debye):
    X=            -10.6866    Y=             -9.4102    Z=              0.4934  Tot=             14.2478

 Test job not archived.
 1\1\GINC-SE455\SP\RHF\Aug-CC-pVDZ\C9H12N6O3\OHZDE\08-Apr-2025\0\\#t hf
  aug-cc-pvdz iop(5/13=1,5/36=2,99/5=2) pseudo=read geom=check guess=(r
 ead,tcheck) scf=(maxcycle=1)\\title\\0,1\C,0,1.548277,23.663489,4.2086
 42\C,0,1.421215,21.191417,4.153643\C,0,2.061208,22.333103,4.77725\H,0,
 1.908971,22.268712,5.855094\H,0,3.139142,22.251767,4.619444\H,0,1.7370
 34,25.669506,4.463824\H,0,2.673896,24.682765,5.589546\N,0,2.057057,24.
 754476,4.788179\N,0,0.916336,20.283572,3.661117\O,0,0.755881,23.689923
 ,3.263642\C,0,2.914349,23.782511,0.683048\C,0,2.787287,26.254583,0.628

 Normal termination of Gaussian 16 at Tue Apr  8 19:32:42 2025.
