 Gaussian 16, Revision C.01,

 ----------------------------------------------------------------------
 #t hf aug-cc-pvdz symm=none int=(grid=ultrafine) guess=(read,tcheck) s
 table=(opt,rrhf)
 ----------------------------------------------------------------------
 -----
 title
 -----
 Symbolic Z-matrix:
 Charge =  0 Multiplicity = 1

 SCF Done:  E(RHF) =  -345.187877346     A.U. after   12 cycles

 1\1\GINC-SE402\Stability\RHF\Aug-CC-pVDZ\C3H12O3\OHZDE\08-Apr-2025\0\\
 #t hf aug-cc-pvdz symm=none int=(grid=ultrafine) guess=(read,tcheck) s
 table=(opt,rrhf)\\title\\0,1\O,0,3.211523,12.095308,13.092198\H,0,4.06
 5726,12.592587,13.07324\C,0,3.425896,10.840226,13.751501\H,0,4.053811,
 10.192498,13.135247\H,0,2.456381,10.363499,13.883414\H,0,3.894402,10.9
 68294,14.729265\O,0,0.929023,13.503692,13.237802\H,0,1.783226,13.00641
 3,13.25676\C,0,1.143396,14.758774,12.578499\H,0,1.771311,15.406502,13.
 194753\H,0,0.173881,15.235501,12.446586\H,0,1.611902,14.630706,11.6007

 Normal termination of Gaussian 16 at Tue Apr  8 19:01:07 2025.
 Gaussian 16:  ES64L-G16RevC.01  3-Jul-2019

 ----------------------------------------------------------------------
 #t hf aug-cc-pvdz iop(5/13=1,5/36=2,99/5=2) pseudo=read geom=check gue
 ss=(read,tcheck) scf=(maxcycle=1)
 ----------------------------------------------------------------------
 -----
 title
 -----
 Structure from the checkpoint file:  "3B-69_03a_methanol_ethyne_trimer_mol1.chk"
 Charge =  0 Multiplicity = 1

                         Standard orientation:
 ---------------------------------------------------------------------
 Center     Atomic      Atomic             Coordinates (Angstroms)
 Number     Number       Type             X           Y           Z
 ---------------------------------------------------------------------
      1          8           0       -0.168403    1.120818    0.285425
      2          1           0        0.688695    0.641635    0.171083
      3          6           0        0.036813    2.506891   -0.018803
      4          1           0        0.662807    2.972568    0.745968
      5          1           0       -0.935809    2.995394   -0.018677
      6          1           0        0.503167    2.644888   -0.996244
      7          8           0       -2.443191   -0.213332   -0.224412
      8          1           0       -1.591919    0.276648   -0.112324
      9          6           0       -2.219670   -1.596696    0.079250
     10          1           0       -1.589860   -2.054436   -0.687178
     11          1           0       -3.186037   -2.097453    0.081682
     12          1           0       -1.749032   -1.728771    1.055456
     13          8           0        2.121714   -0.184482   -0.230434
     14          1           0        2.972986    0.305499   -0.118345
     15          6           0        2.345235   -1.567845    0.073228
     16          1           0        2.975045   -2.025585   -0.693199
     17          1           0        1.378867   -2.068602    0.075661
     18          1           0        2.815873   -1.699920    1.049434
 ---------------------------------------------------------------------

 SCF Done:  E(RHF) =  -346.761836301     A.U. after    2 cycles

 The electronic state is 1-A.
 Alpha  occ. eigenvalues --  -21.10134 -21.04465 -21.00675 -11.42660 -11.39612
 Alpha  occ. eigenvalues --  -11.37176  -1.73996  -1.68985  -1.63717  -1.00421
 Alpha  occ. eigenvalues --   -0.97238  -0.94371  -0.67594  -0.64010  -0.62152
 Alpha  occ. eigenvalues --   -0.60187  -0.58858  -0.56917  -0.56645  -0.54353
 Alpha  occ. eigenvalues --   -0.51456  -0.45410  -0.40584  -0.35963  -0.34395
 Alpha  occ. eigenvalues --   -0.30569  -0.27077
 Alpha virt. eigenvalues --    0.02559   0.04026   0.04916   0.05077   0.05638
 Alpha virt. eigenvalues --    0.05827   0.07226   0.07510   0.07708   0.08641
 Alpha virt. eigenvalues --    0.10603   0.11801   0.12637   0.13909   0.14731

 Mulliken charges:
               1
     1  O   -3.072698
     2  H    1.763765
     3  C   -2.715370
     4  H    1.378066
     5  H    1.361171
     6  H    1.323168
     7  O   -2.610778
     8  H    1.568394
     9  C   -2.717902
    10  H    1.401583
    11  H    1.240057
    12  H    1.363148
    13  O   -2.600631
    14  H    0.879930
    15  C   -2.623929
    16  H    1.248182
    17  H    1.525205
    18  H    1.288641
 Sum of Mulliken charges =  -0.00000

 Dipole moment (field-independent basis, Debye):
    X=              3.8308    Y=             -0.2428    Z=              0.2203  Tot=              3.8448

 Test job not archived.
 1\1\GINC-SE402\SP\RHF\Aug-CC-pVDZ\C3H12O3\OHZDE\08-Apr-2025\0\\#t hf a
 ug-cc-pvdz iop(5/13=1,5/36=2,99/5=2) pseudo=read geom=check guess=(rea
 d,tcheck) scf=(maxcycle=1)\\title\\0,1\O,0,3.211523,12.095308,13.09219
 8\H,0,4.065726,12.592587,13.07324\C,0,3.425896,10.840226,13.751501\H,0
 ,4.053811,10.192498,13.135247\H,0,2.456381,10.363499,13.883414\H,0,3.8
 94402,10.968294,14.729265\O,0,0.929023,13.503692,13.237802\H,0,1.78322
 6,13.006413,13.25676\C,0,1.143396,14.758774,12.578499\H,0,1.771311,15.
 406502,13.194753\H,0,0.173881,15.235501,12.446586\H,0,1.611902,14.6307

 Normal termination of Gaussian 16 at Tue Apr  8 19:01:12 2025.
