 Gaussian 16, Revision C.01,

 ----------------------------------------------------------------------
 #t hf aug-cc-pvdz symm=none int=(grid=ultrafine) guess=(read,tcheck) s
 table=(opt,rrhf)
 ----------------------------------------------------------------------
 -----
 title
 -----
 Symbolic Z-matrix:
 Charge =  0 Multiplicity = 1

 SCF Done:  E(RHF) =  -395.834350743     A.U. after   13 cycles
 Normal termination of Gaussian 16 at Tue Apr  8 19:01:49 2025.
 Gaussian 16:  ES64L-G16RevC.01  3-Jul-2019

 ----------------------------------------------------------------------
 #t hf aug-cc-pvdz iop(5/13=1,5/36=2,99/5=2) pseudo=read geom=check gue
 ss=(read,tcheck) scf=(maxcycle=1)
 ----------------------------------------------------------------------
 -----
 title
 -----
 Structure from the checkpoint file:  "3B-69_04c_acetonitrile_trimer_mol1.chk"
 Charge =  0 Multiplicity = 1

                         Standard orientation:
 ---------------------------------------------------------------------
 Center     Atomic      Atomic             Coordinates (Angstroms)
 Number     Number       Type             X           Y           Z
 ---------------------------------------------------------------------
      1          7           0        1.345657   -0.228267    0.000000
      2          6           0       -1.237761    0.097252    0.000000
      3          6           0        0.203055   -0.079082    0.000000
      4          1           0       -1.724382   -0.878108    0.000000
      5          1           0       -1.540978    0.649395    0.889258
      6          1           0       -1.540978    0.649395   -0.889258
      7          7           0       -0.337503   -6.101660    0.000000
      8          6           0        0.345073   -3.588873    0.000000
      9          6           0       -0.040432   -4.988312    0.000000
     10          1           0        1.432246   -3.510247    0.000000
     11          1           0       -0.050042   -3.098276   -0.889258
     12          1           0       -0.050042   -3.098276    0.889258
     13          7           0       -0.337503    3.390668    0.000000
     14          6           0        0.345073    5.903455    0.000000
     15          6           0       -0.040432    4.504016    0.000000
     16          1           0        1.432246    5.982081    0.000000
     17          1           0       -0.050042    6.394052   -0.889258
     18          1           0       -0.050042    6.394052    0.889258
 ---------------------------------------------------------------------

 SCF Done:  E(RHF) =  -397.677625940     A.U. after    2 cycles

 The electronic state is 1-A'.
 Alpha  occ. eigenvalues --  -15.76984 -15.75292 -15.74811 -11.48601 -11.45418
 Alpha  occ. eigenvalues --  -11.44887 -11.43589 -11.41792 -11.41046  -1.32922
 Alpha  occ. eigenvalues --   -1.31361  -1.30452  -1.13161  -1.11355  -1.10828
 Alpha  occ. eigenvalues --   -0.70769  -0.68931  -0.68402  -0.63734  -0.63646
 Alpha  occ. eigenvalues --   -0.62144  -0.61913  -0.61602  -0.61288  -0.53187
 Alpha  occ. eigenvalues --   -0.51336  -0.50674  -0.44721  -0.44680  -0.43055
 Alpha  occ. eigenvalues --   -0.42948  -0.42372  -0.42354
 Alpha virt. eigenvalues --    0.01511   0.03186   0.05145   0.05437   0.05568
 Alpha virt. eigenvalues --    0.06101   0.06617   0.07544   0.07595   0.07983
 Alpha virt. eigenvalues --    0.09955   0.11370   0.11609   0.11913   0.12352

 Mulliken charges:
               1
     1  N   -2.300158
     2  C   -4.026878
     3  C    2.056043
     4  H    1.422932
     5  H    1.421361
     6  H    1.421361
     7  N   -2.156200
     8  C   -3.793595
     9  C    1.649622
    10  H    1.411678
    11  H    1.480471
    12  H    1.480471
    13  N   -3.435065
    14  C   -3.673735
    15  C    3.356814
    16  H    1.224367
    17  H    1.230255
    18  H    1.230255
 Sum of Mulliken charges =  -0.00000

 Dipole moment (field-independent basis, Debye):
    X=             -1.4220    Y=              8.2836    Z=              0.0000  Tot=              8.4048

 Test job not archived.
 1\1\GINC-SE096\SP\RHF\Aug-CC-pVDZ\C6H9N3\OHZDE\08-Apr-2025\0\\#t hf au
 g-cc-pvdz iop(5/13=1,5/36=2,99/5=2) pseudo=read geom=check guess=(read
 ,tcheck) scf=(maxcycle=1)\\title\\0,1\N,0,0.,7.615376,7.171412\C,0,0.,
 5.649997,8.879421\C,0,0.,6.749023,7.931167\H,0,0.,4.702934,8.339793\H,
 0,0.889258,5.705299,9.506911\H,0,-0.889258,5.705299,9.506911\N,0,0.,2.
 948624,3.227912\C,0,0.,4.914003,4.935921\C,0,0.,3.814977,3.987667\H,0,
 0.,5.861066,4.396293\H,0,-0.889258,4.858701,5.563411\H,0,0.889258,4.85
 8701,5.563411\N,0,0.,8.230624,11.114912\C,0,0.,10.196003,12.822921\C,0

 Normal termination of Gaussian 16 at Tue Apr  8 19:01:54 2025.
