 Gaussian 16, Revision C.01,

 ----------------------------------------------------------------------
 #t hf aug-cc-pvdz symm=none int=(grid=ultrafine) guess=(read,tcheck) s
 table=(opt,rrhf)
 ----------------------------------------------------------------------
 -----
 title
 -----
 Symbolic Z-matrix:
 Charge =  0 Multiplicity = 1

 SCF Done:  E(RHF) =  -1137.85957397     A.U. after   16 cycles
 Normal termination of Gaussian 16 at Tue Apr  8 19:45:58 2025.
 Gaussian 16:  ES64L-G16RevC.01  3-Jul-2019

 ----------------------------------------------------------------------
 #t hf aug-cc-pvdz iop(5/13=1,5/36=2,99/5=2) pseudo=read geom=check gue
 ss=(read,tcheck) scf=(maxcycle=1)
 ----------------------------------------------------------------------
 -----
 title
 -----
 Structure from the checkpoint file:  "3B-69_21b_p-benzoquinone_trimer_mol1.chk"
 Charge =  0 Multiplicity = 1

                         Standard orientation:
 ---------------------------------------------------------------------
 Center     Atomic      Atomic             Coordinates (Angstroms)
 Number     Number       Type             X           Y           Z
 ---------------------------------------------------------------------
      1          8           0       -1.102408   -0.738524    0.013025
      2          6           0       -2.252877   -1.161377    0.000351
      3          6           0       -2.532426   -2.613998   -0.070048
      4          1           0       -1.677241   -3.277359   -0.106267
      5          6           0       -3.404964   -0.231035    0.067507
      6          1           0       -3.165031    0.825208    0.111667
      7          8           0       -6.091188   -2.564655   -0.019229
      8          6           0       -4.940718   -2.141803   -0.006554
      9          6           0       -3.788630   -3.072145   -0.073711
     10          1           0       -4.028563   -4.128388   -0.117870
     11          6           0       -4.661169   -0.689182    0.063845
     12          1           0       -5.516354   -0.025821    0.100064
     13          8           0        2.697468    4.865694    0.002229
     14          6           0        1.546998    4.442842   -0.010446
     15          6           0        1.267450    2.990221   -0.080844
     16          1           0        2.122635    2.326860   -0.117063
     17          6           0        0.394911    5.373184    0.056711
     18          1           0        0.634845    6.429427    0.100871
     19          8           0       -2.291312    3.039564   -0.030026
     20          6           0       -1.140842    3.462416   -0.017350
     21          6           0        0.011246    2.532074   -0.084507
     22          1           0       -0.228687    1.475830   -0.128667
     23          6           0       -0.861293    4.915037    0.053049
     24          1           0       -1.716478    5.578398    0.089267
     25          8           0        3.468728   -4.956181    0.040001
     26          6           0        3.435726   -3.730943    0.024151
     27          6           0        4.681599   -2.933807   -0.050582
     28          1           0        5.614301   -3.482842   -0.087021
     29          6           0        2.145170   -3.004820    0.091701
     30          1           0        1.252817   -3.618521    0.139079
     31          8           0        3.318710    0.354102   -0.006002
     32          6           0        3.351713   -0.871135    0.009849
     33          6           0        4.642268   -1.597258   -0.057701
     34          1           0        5.534621   -0.983557   -0.105079
     35          6           0        2.105839   -1.668271    0.084581
     36          1           0        1.173137   -1.119236    0.121021
 ---------------------------------------------------------------------

 SCF Done:  E(RHF) =  -1142.80998766     A.U. after    2 cycles

 The electronic state is 1-A.
 Alpha  occ. eigenvalues --  -21.09158 -21.08696 -21.08483 -21.08294 -21.07726
 Alpha  occ. eigenvalues --  -21.07388 -11.58629 -11.57766 -11.56585 -11.53112
 Alpha  occ. eigenvalues --  -11.52254 -11.51090 -11.49468 -11.49177 -11.48410
 Alpha  occ. eigenvalues --  -11.48142 -11.47832 -11.47106 -11.45453 -11.44527
 Alpha  occ. eigenvalues --  -11.43704 -11.42528 -11.42209 -11.41226  -1.75090
 Alpha  occ. eigenvalues --   -1.74157  -1.73358  -1.72767  -1.72241  -1.71350
 Alpha  occ. eigenvalues --   -1.31002  -1.30524  -1.29505  -1.15973  -1.15564
 Alpha  occ. eigenvalues --   -1.14503  -1.02580  -1.01948  -1.01028  -0.91935
 Alpha  occ. eigenvalues --   -0.91462  -0.90442  -0.85711  -0.85159  -0.84153
 Alpha  occ. eigenvalues --   -0.69033  -0.68497  -0.68247  -0.67727  -0.67251
 Alpha  occ. eigenvalues --   -0.66895  -0.66757  -0.66668  -0.65782  -0.63997
 Alpha  occ. eigenvalues --   -0.63660  -0.62552  -0.57700  -0.57210  -0.56309
 Alpha  occ. eigenvalues --   -0.54212  -0.53186  -0.52842  -0.51973  -0.51887
 Alpha  occ. eigenvalues --   -0.50890  -0.49946  -0.49644  -0.49086  -0.49070
 Alpha  occ. eigenvalues --   -0.48277  -0.48253  -0.40675  -0.40315  -0.39317
 Alpha  occ. eigenvalues --   -0.34791  -0.34225  -0.33364  -0.33250  -0.31977
 Alpha  occ. eigenvalues --   -0.31713  -0.31349  -0.30888  -0.30309
 Alpha virt. eigenvalues --    0.02503   0.03943   0.04007   0.04228   0.04684
 Alpha virt. eigenvalues --    0.04962   0.05475   0.05648   0.05880   0.06009
 Alpha virt. eigenvalues --    0.06309   0.06427   0.06832   0.08472   0.08907

 Mulliken charges:
               1
     1  O   -5.674779
     2  C    5.704391
     3  C   -1.679403
     4  H    1.727136
     5  C   -0.970800
     6  H    2.072908
     7  O   -3.807971
     8  C    2.758999
     9  C   -1.875873
    10  H    1.650062
    11  C   -1.724897
    12  H    1.642404
    13  O   -4.078338
    14  C    3.116587
    15  C   -1.251949
    16  H    2.216844
    17  C   -2.309671
    18  H    1.678797
    19  O   -4.629812
    20  C    2.902614
    21  C    0.878531
    22  H    1.671293
    23  C   -1.801350
    24  H    1.781581
    25  O   -3.882288
    26  C    3.237272
    27  C   -1.983186
    28  H    1.702650
    29  C   -1.361232
    30  H    1.790869
    31  O   -5.164353
    32  C    4.335778
    33  C   -2.319547
    34  H    1.801809
    35  C   -0.229909
    36  H    2.074836
 Sum of Mulliken charges =  -0.00000

 Dipole moment (field-independent basis, Debye):
    X=             -0.1691    Y=             -0.2717    Z=             -0.0048  Tot=              0.3201

 Test job not archived.
 1\1\GINC-SE096\SP\RHF\Aug-CC-pVDZ\C18H12O6\OHZDE\08-Apr-2025\0\\#t hf
 aug-cc-pvdz iop(5/13=1,5/36=2,99/5=2) pseudo=read geom=check guess=(re
 ad,tcheck) scf=(maxcycle=1)\\title\\0,1\O,0,5.823654,5.541048,7.623703
 \C,0,5.232525,4.54544,7.221364\C,0,5.761253,3.186365,7.479383\H,0,6.68
 5935,3.117301,8.038752\C,0,3.959516,4.668808,6.471979\H,0,3.604306,5.6
 77619,6.295076\O,0,3.24442,1.229952,5.895778\C,0,3.835549,2.22556,6.29
 8118\C,0,5.108559,2.102192,7.047503\H,0,5.463769,1.093381,7.224406\C,0
 ,3.306821,3.584635,6.040099\H,0,2.382139,3.653699,5.48073\O,0,5.823654

 Normal termination of Gaussian 16 at Tue Apr  8 19:47:07 2025.
