 Gaussian 16, Revision C.01,

 ----------------------------------------------------------------------
 #t hf aug-cc-pvdz symm=none int=(grid=ultrafine) guess=(read,tcheck) s
 table=(opt,rrhf)
 ----------------------------------------------------------------------
 -----
 title
 -----
 Symbolic Z-matrix:
 Charge =  0 Multiplicity = 1

 SCF Done:  E(RHF) =  -461.456202090     A.U. after   14 cycles
 Normal termination of Gaussian 16 at Tue Apr  8 19:13:58 2025.
 Gaussian 16:  ES64L-G16RevC.01  3-Jul-2019

 ----------------------------------------------------------------------
 #t hf aug-cc-pvdz iop(5/13=1,5/36=2,99/5=2) pseudo=read geom=check gue
 ss=(read,tcheck) scf=(maxcycle=1)
 ----------------------------------------------------------------------
 -----
 title
 -----
 Structure from the checkpoint file:  "3B-69_19a_benzene_dimerAB_mol1.chk"
 Charge =  0 Multiplicity = 1

                         Standard orientation:
 ---------------------------------------------------------------------
 Center     Atomic      Atomic             Coordinates (Angstroms)
 Number     Number       Type             X           Y           Z
 ---------------------------------------------------------------------
      1          6           0        3.685863    0.889117    0.679403
      2          6           0        2.638925    0.232541    1.320610
      3          6           0        4.021804    0.554661   -0.629704
      4          1           0        4.231648    1.665940    1.198669
      5          1           0        2.366773    0.487546    2.336315
      6          1           0        4.822397    1.081696   -1.127833
      7          6           0        2.266996   -1.094894   -0.660882
      8          6           0        3.313934   -0.438319   -1.302089
      9          6           0        1.931056   -0.760439    0.648224
     10          1           0        1.721211   -1.871718   -1.180149
     11          1           0        3.586086   -0.693323   -2.317795
     12          1           0        1.130462   -1.287474    1.146354
     13          6           0       -4.327665   -0.166409   -0.204460
     14          6           0       -3.836266    1.115737   -0.434560
     15          6           0       -3.469334   -1.176775    0.220868
     16          1           0       -5.380071   -0.372747   -0.348820
     17          1           0       -4.495301    1.909303   -0.761174
     18          1           0       -3.860965   -2.164326    0.416360
     19          6           0       -1.625194    0.372187    0.185940
     20          6           0       -2.116593   -0.909959    0.416040
     21          6           0       -2.483526    1.382553   -0.239388
     22          1           0       -0.572788    0.578525    0.330299
     23          1           0       -1.457558   -1.703526    0.742654
     24          1           0       -2.091894    2.370104   -0.434880
 ---------------------------------------------------------------------

 SCF Done:  E(RHF) =  -463.702883273     A.U. after    2 cycles

 The electronic state is 1-A.
 Alpha  occ. eigenvalues --  -11.52071 -11.51621 -11.42782 -11.42643 -11.42272
 Alpha  occ. eigenvalues --  -11.42156 -11.40179 -11.40025 -11.39863 -11.39766
 Alpha  occ. eigenvalues --  -11.36089 -11.35698  -1.33864  -1.33210  -1.09013
 Alpha  occ. eigenvalues --   -1.08936  -1.08616  -1.08473  -0.85829  -0.85815
 Alpha  occ. eigenvalues --   -0.85443  -0.85332  -0.72339  -0.71689  -0.65651
 Alpha  occ. eigenvalues --   -0.65255  -0.58480  -0.58247  -0.57879  -0.57599
 Alpha  occ. eigenvalues --   -0.55915  -0.55490  -0.50096  -0.49577  -0.44809
 Alpha  occ. eigenvalues --   -0.44674  -0.44416  -0.44247  -0.32968  -0.32911
 Alpha  occ. eigenvalues --   -0.32515  -0.32379
 Alpha virt. eigenvalues --    0.03251   0.04447   0.05026   0.05108   0.05430
 Alpha virt. eigenvalues --    0.05658   0.06241   0.06341   0.07052   0.07144
 Alpha virt. eigenvalues --    0.08510   0.08860   0.11220   0.11427   0.11814

 Mulliken charges:
               1
     1  C   -1.856794
     2  C   -1.985268
     3  C   -1.502151
     4  H    1.554245
     5  H    1.549118
     6  H    1.521155
     7  C   -1.638343
     8  C   -1.946647
     9  C   -0.700661
    10  H    1.565186
    11  H    1.541206
    12  H    1.835457
    13  C   -1.972919
    14  C   -1.595096
    15  C   -2.172497
    16  H    1.510771
    17  H    1.523220
    18  H    1.536219
    19  C    1.040879
    20  C   -1.482145
    21  C   -3.571710
    22  H    2.063882
    23  H    1.680882
    24  H    1.502008
 Sum of Mulliken charges =  -0.00000

 Dipole moment (field-independent basis, Debye):
    X=              0.1840    Y=              0.1099    Z=             -0.1168  Tot=              0.2441

 Test job not archived.
 1\1\GINC-SE144\SP\RHF\Aug-CC-pVDZ\C12H12\OHZDE\08-Apr-2025\0\\#t hf au
 g-cc-pvdz iop(5/13=1,5/36=2,99/5=2) pseudo=read geom=check guess=(read
 ,tcheck) scf=(maxcycle=1)\\title\\0,1\C,0,14.171733,20.025411,6.67944\
 C,0,13.70564,19.092508,7.60181\C,0,15.173718,19.675303,5.77837\H,0,13.
 746682,21.020351,6.65947\H,0,12.924382,19.352746,8.30371\H,0,15.516834
 ,20.39801,5.05255\C,0,15.248667,17.459389,6.71936\C,0,15.71476,18.3922
 92,5.79699\C,0,14.246682,17.809497,7.62043\H,0,15.673718,16.464449,6.7
 3933\H,0,16.496018,18.132054,5.09509\H,0,13.903566,17.08679,8.34625\C,

 Normal termination of Gaussian 16 at Tue Apr  8 19:14:15 2025.
