 Gaussian 16, Revision C.01,

 ----------------------------------------------------------------------
 #t hf aug-cc-pvdz symm=none int=(grid=ultrafine) guess=(read,tcheck) s
 table=(opt,rrhf)
 ----------------------------------------------------------------------
 -----
 title
 -----
 Symbolic Z-matrix:
 Charge =  0 Multiplicity = 1

 SCF Done:  E(RHF) =  -887.762886801     A.U. after   15 cycles
 Normal termination of Gaussian 16 at Tue Apr  8 19:19:42 2025.
 Gaussian 16:  ES64L-G16RevC.01  3-Jul-2019

 ----------------------------------------------------------------------
 #t hf aug-cc-pvdz iop(5/13=1,5/36=2,99/5=2) pseudo=read geom=check gue
 ss=(read,tcheck) scf=(maxcycle=1)
 ----------------------------------------------------------------------
 -----
 title
 -----
 Structure from the checkpoint file:  "3B-69_15a_cyanoguanidine_trimer_mol1.chk"
 Charge =  0 Multiplicity = 1

                         Standard orientation:
 ---------------------------------------------------------------------
 Center     Atomic      Atomic             Coordinates (Angstroms)
 Number     Number       Type             X           Y           Z
 ---------------------------------------------------------------------
      1          7           0       -5.708468   -1.790213   -0.867811
      2          6           0       -4.817632   -1.680903   -0.118894
      3          7           0       -3.899361   -1.576887    0.786335
      4          6           0       -2.613644   -1.398246    0.442038
      5          7           0       -2.193883   -1.275123   -0.822089
      6          7           0       -1.720945   -1.314530    1.427201
      7          1           0       -1.198214   -1.254196   -1.008494
      8          1           0       -2.824197   -1.344752   -1.611894
      9          1           0       -0.744144   -1.177505    1.191893
     10          1           0       -2.025927   -1.451914    2.390593
     11          7           0        2.571446    2.413476    0.074558
     12          6           0        1.533935    2.951977    0.075022
     13          7           0        0.436901    3.637493    0.083112
     14          6           0       -0.752022    3.031345   -0.067123
     15          7           0       -0.899971    1.707728   -0.191712
     16          7           0       -1.838259    3.802413   -0.063485
     17          1           0       -1.816017    1.335135   -0.412111
     18          1           0       -0.110359    1.073796   -0.215778
     19          1           0       -2.747527    3.367123   -0.173205
     20          1           0       -1.731531    4.815413   -0.013975
     21          7           0        0.747616   -0.927100   -0.223794
     22          6           0        1.785128   -1.465601   -0.224259
     23          7           0        2.882161   -2.151117   -0.232349
     24          6           0        4.071084   -1.544970   -0.082114
     25          7           0        4.219034   -0.221353    0.042476
     26          7           0        5.157321   -2.316037   -0.085752
     27          1           0        5.135080    0.151241    0.262875
     28          1           0        3.429422    0.412579    0.066542
     29          1           0        6.066590   -1.880747    0.023969
     30          1           0        5.050593   -3.329038   -0.135262
 ---------------------------------------------------------------------

 SCF Done:  E(RHF) =  -891.763571187     A.U. after    2 cycles

 The electronic state is 1-A.
 Alpha  occ. eigenvalues --  -15.83108 -15.81507 -15.81382 -15.80178 -15.79077
 Alpha  occ. eigenvalues --  -15.78383 -15.75826 -15.74426 -15.73485 -15.72010
 Alpha  occ. eigenvalues --  -15.71359 -15.69481 -11.56737 -11.54716 -11.53107
 Alpha  occ. eigenvalues --  -11.50848 -11.45911 -11.41773  -1.56694  -1.54943
 Alpha  occ. eigenvalues --   -1.52968  -1.38659  -1.36095  -1.33593  -1.33169
 Alpha  occ. eigenvalues --   -1.31857  -1.30432  -1.26249  -1.22981  -1.20102
 Alpha  occ. eigenvalues --   -0.94168  -0.92173  -0.90101  -0.81695  -0.79922
 Alpha  occ. eigenvalues --   -0.78214  -0.76108  -0.74777  -0.73374  -0.68487
 Alpha  occ. eigenvalues --   -0.66527  -0.66301  -0.64643  -0.64437  -0.63838
 Alpha  occ. eigenvalues --   -0.62781  -0.62475  -0.60893  -0.55764  -0.53469
 Alpha  occ. eigenvalues --   -0.52950  -0.52083  -0.50590  -0.49881  -0.49345
 Alpha  occ. eigenvalues --   -0.46892  -0.46491  -0.41835  -0.40868  -0.39034
 Alpha  occ. eigenvalues --   -0.38773  -0.35621  -0.34389  -0.33069  -0.31452
 Alpha  occ. eigenvalues --   -0.28956
 Alpha virt. eigenvalues --    0.01591   0.03452   0.03901   0.04775   0.05547
 Alpha virt. eigenvalues --    0.05720   0.06175   0.07044   0.07159   0.08453
 Alpha virt. eigenvalues --    0.09118   0.09507   0.09669   0.10181   0.10574

 Mulliken charges:
               1
     1  N   -2.784035
     2  C    3.146208
     3  N   -2.750150
     4  C    4.780347
     5  N   -2.588841
     6  N   -2.860272
     7  H    1.018126
     8  H    0.679649
     9  H    0.820339
    10  H    0.736286
    11  N   -3.032521
    12  C    3.916559
    13  N   -2.929015
    14  C    4.212757
    15  N   -2.258465
    16  N   -3.131274
    17  H    0.781539
    18  H    0.997188
    19  H    0.698701
    20  H    0.721912
    21  N   -2.780413
    22  C    3.235756
    23  N   -2.995648
    24  C    5.126980
    25  N   -2.641895
    26  N   -3.182573
    27  H    0.791512
    28  H    0.872415
    29  H    0.654225
    30  H    0.744603
 Sum of Mulliken charges =  -0.00000

 Dipole moment (field-independent basis, Debye):
    X=             10.8103    Y=              0.8509    Z=              1.0120  Tot=             10.8908

 Test job not archived.
 1\1\GINC-SE230\SP\RHF\Aug-CC-pVDZ\C6H12N12\OHZDE\08-Apr-2025\0\\#t hf
 aug-cc-pvdz iop(5/13=1,5/36=2,99/5=2) pseudo=read geom=check guess=(re
 ad,tcheck) scf=(maxcycle=1)\\title\\0,1\N,0,3.187601,4.376465,-1.49664
 1\C,0,2.374574,4.877151,-0.822315\N,0,1.447054,5.48737,-0.158373\C,0,1
 .185537,5.156956,1.116757\N,0,1.867065,4.229109,1.797929\N,0,0.206646,
 5.817607,1.733021\H,0,1.540497,3.95731,2.717722\H,0,2.611069,3.685335,
 1.377566\H,0,-0.007785,5.587082,2.696952\H,0,-0.346843,6.49436,1.20798
 1\N,0,1.420831,6.588365,7.397293\C,0,2.233857,7.089051,6.722967\N,0,3.

 Normal termination of Gaussian 16 at Tue Apr  8 19:20:17 2025.
