 Gaussian 16, Revision C.01,

 ----------------------------------------------------------------------
 #t hf aug-cc-pvdz symm=none int=(grid=ultrafine) guess=(read,tcheck) s
 table=(opt,rrhf)
 ----------------------------------------------------------------------
 -----
 title
 -----
 Symbolic Z-matrix:
 Charge =  0 Multiplicity = 1

 SCF Done:  E(RHF) =  -487.405797001     A.U. after   15 cycles
 Normal termination of Gaussian 16 at Tue Apr  8 19:02:01 2025.
 Gaussian 16:  ES64L-G16RevC.01  3-Jul-2019

 ----------------------------------------------------------------------
 #t hf aug-cc-pvdz iop(5/13=1,5/36=2,99/5=2) pseudo=read geom=check gue
 ss=(read,tcheck) scf=(maxcycle=1)
 ----------------------------------------------------------------------
 -----
 title
 -----
 Structure from the checkpoint file:  "3B-69_05c_nitromethane_dimerAC_mol1.chk"
 Charge =  0 Multiplicity = 1

                         Standard orientation:
 ---------------------------------------------------------------------
 Center     Atomic      Atomic             Coordinates (Angstroms)
 Number     Number       Type             X           Y           Z
 ---------------------------------------------------------------------
      1          6           0       -5.142702   -0.682125    0.119131
      2          7           0       -3.902770    0.129747   -0.047722
      3          8           0       -4.006705    1.273852   -0.479833
      4          8           0       -2.840934   -0.376048    0.281082
      5          1           0       -4.881210   -1.712569   -0.083156
      6          1           0       -5.450091   -0.568457    1.156988
      7          1           0       -5.900691   -0.293789   -0.547808
      8          6           0        5.153172    0.665227   -0.122681
      9          7           0        3.905830   -0.134685    0.046685
     10          8           0        3.039800    0.286630    0.807594
     11          8           0        3.793934   -1.161991   -0.604130
     12          1           0        5.963361   -0.033907   -0.283671
     13          1           0        5.007469    1.282800   -1.006948
     14          1           0        5.288161    1.282347    0.755443
 ---------------------------------------------------------------------

 SCF Done:  E(RHF) =  -489.500876921     A.U. after    2 cycles

 The electronic state is 1-A.
 Alpha  occ. eigenvalues --  -21.09276 -21.09239 -21.09029 -21.09018 -15.99172
 Alpha  occ. eigenvalues --  -15.99163 -11.45024 -11.45017  -1.99071  -1.99056
 Alpha  occ. eigenvalues --   -1.68086  -1.68072  -1.19950  -1.19940  -0.86976
 Alpha  occ. eigenvalues --   -0.86968  -0.70499  -0.70483  -0.68491  -0.68481
 Alpha  occ. eigenvalues --   -0.66952  -0.66946  -0.56452  -0.56437  -0.56156
 Alpha  occ. eigenvalues --   -0.56152  -0.35986  -0.35969  -0.30875  -0.30860
 Alpha  occ. eigenvalues --   -0.30318  -0.30308
 Alpha virt. eigenvalues --    0.02993   0.03290   0.05680   0.05817   0.06032
 Alpha virt. eigenvalues --    0.06087   0.09585   0.09655   0.13567   0.13751
 Alpha virt. eigenvalues --    0.13829   0.14224   0.14510   0.14621   0.14888

 Mulliken charges:
               1
     1  C   -3.087926
     2  N    4.346256
     3  O   -2.624905
     4  O   -2.653465
     5  H    1.341721
     6  H    1.341373
     7  H    1.336964
     8  C   -3.083165
     9  N    4.329304
    10  O   -2.626054
    11  O   -2.644770
    12  H    1.334236
    13  H    1.344614
    14  H    1.345816
 Sum of Mulliken charges =   0.00000

 Dipole moment (field-independent basis, Debye):
    X=              0.0266    Y=             -0.0431    Z=              0.0337  Tot=              0.0609

 Test job not archived.
 1\1\GINC-SE028\SP\RHF\Aug-CC-pVDZ\C2H6N2O4\OHZDE\08-Apr-2025\0\\#t hf
 aug-cc-pvdz iop(5/13=1,5/36=2,99/5=2) pseudo=read geom=check guess=(re
 ad,tcheck) scf=(maxcycle=1)\\title\\0,1\C,0,0.691316,6.61465,11.679005
 \N,0,1.868622,5.699059,11.686151\O,0,2.660061,5.771533,12.621496\O,0,1
 .974396,4.898353,10.770117\H,0,0.477227,6.854026,10.645575\H,0,-0.1361
 06,6.058747,12.115925\H,0,0.926871,7.482841,12.279769\C,0,7.086184,-0.
 37765,7.425505\N,0,5.908878,0.537941,7.432651\O,0,5.117439,0.465467,8.
 367996\O,0,5.803104,1.338647,6.516617\H,0,7.300273,-0.617026,6.392075\

 Normal termination of Gaussian 16 at Tue Apr  8 19:02:04 2025.
