 Gaussian 16, Revision C.01,

 ----------------------------------------------------------------------
 #t hf aug-cc-pvdz symm=none int=(grid=ultrafine) guess=(read,tcheck) s
 table=(opt,rrhf)
 ----------------------------------------------------------------------
 -----
 title
 -----
 Symbolic Z-matrix:
 Charge =  0 Multiplicity = 1

 SCF Done:  E(RHF) =  -781.262211965     A.U. after   13 cycles
 Normal termination of Gaussian 16 at Tue Apr  8 19:12:38 2025.
 Gaussian 16:  ES64L-G16RevC.01  3-Jul-2019

 ----------------------------------------------------------------------
 #t hf aug-cc-pvdz iop(5/13=1,5/36=2,99/5=2) pseudo=read geom=check gue
 ss=(read,tcheck) scf=(maxcycle=1)
 ----------------------------------------------------------------------
 -----
 title
 -----
 Structure from the checkpoint file:  "3B-69_16b_triazolidinedione_dimerBC_mol1.chk"
 Charge =  0 Multiplicity = 1

                         Standard orientation:
 ---------------------------------------------------------------------
 Center     Atomic      Atomic             Coordinates (Angstroms)
 Number     Number       Type             X           Y           Z
 ---------------------------------------------------------------------
      1          7           0       -2.233563   -0.935528   -0.406323
      2          7           0       -2.050773    0.399733   -0.808107
      3          6           0       -3.004824    1.160913   -0.191717
      4          7           0       -3.867066    0.268206    0.409222
      5          6           0       -3.404617   -1.023871    0.274589
      6          8           0       -3.110375    2.383688   -0.182060
      7          8           0       -3.950208   -2.046615    0.693859
      8          1           0       -1.965945   -1.684030   -1.057757
      9          1           0       -1.091316    0.738473   -0.877525
     10          1           0       -4.685831    0.540990    0.974763
     11          7           0        2.367888    1.042504    0.393164
     12          7           0        3.749173    0.952871    0.641727
     13          6           0        4.206547   -0.203862    0.073993
     14          7           0        3.083128   -0.892533   -0.332425
     15          6           0        1.947416   -0.136643   -0.131837
     16          8           0        5.367329   -0.586251   -0.039039
     17          8           0        0.788256   -0.471562   -0.384106
     18          1           0        1.778255    1.534554    1.076143
     19          1           0        4.293540    1.811776    0.563827
     20          1           0        3.102644   -1.801839   -0.819669
 ---------------------------------------------------------------------

 SCF Done:  E(RHF) =  -784.553453318     A.U. after    2 cycles

 The electronic state is 1-A.
 Alpha  occ. eigenvalues --  -21.07137 -21.06360 -21.03766 -21.03274 -15.84336
 Alpha  occ. eigenvalues --  -15.83720 -15.83186 -15.80534 -15.80070 -15.79968
 Alpha  occ. eigenvalues --  -11.57066 -11.54531 -11.53413 -11.51207  -1.79234
 Alpha  occ. eigenvalues --   -1.75759  -1.73855  -1.70501  -1.61935  -1.58370
 Alpha  occ. eigenvalues --   -1.40298  -1.36942  -1.24840  -1.21245  -0.94668
 Alpha  occ. eigenvalues --   -0.91529  -0.90788  -0.87736  -0.75971  -0.74790
 Alpha  occ. eigenvalues --   -0.72304  -0.71361  -0.68157  -0.67411  -0.64935
 Alpha  occ. eigenvalues --   -0.63977  -0.56779  -0.54340  -0.53676  -0.53169
 Alpha  occ. eigenvalues --   -0.51602  -0.51049  -0.50301  -0.48059  -0.36763
 Alpha  occ. eigenvalues --   -0.35917  -0.33131  -0.32704  -0.32470  -0.32447
 Alpha  occ. eigenvalues --   -0.29116  -0.28803
 Alpha virt. eigenvalues --    0.02305   0.04355   0.04724   0.05320   0.06127
 Alpha virt. eigenvalues --    0.06642   0.08333   0.09337   0.09881   0.10614
 Alpha virt. eigenvalues --    0.11090   0.11398   0.11465   0.12648   0.12728

 Mulliken charges:
               1
     1  N   -1.393610
     2  N   -2.292904
     3  C    5.005243
     4  N   -2.320657
     5  C    4.919960
     6  O   -3.035673
     7  O   -3.057689
     8  H    0.729646
     9  H    0.889509
    10  H    0.700993
    11  N   -1.774450
    12  N   -2.140225
    13  C    5.347728
    14  N   -2.254050
    15  C    4.840452
    16  O   -3.115876
    17  O   -3.288239
    18  H    0.758140
    19  H    0.742039
    20  H    0.739664
 Sum of Mulliken charges =  -0.00000

 Dipole moment (field-independent basis, Debye):
    X=              3.1104    Y=              1.0797    Z=             -0.0623  Tot=              3.2931

 Test job not archived.
 1\1\GINC-SE096\SP\RHF\Aug-CC-pVDZ\C4H6N6O4\OHZDE\08-Apr-2025\0\\#t hf
 aug-cc-pvdz iop(5/13=1,5/36=2,99/5=2) pseudo=read geom=check guess=(re
 ad,tcheck) scf=(maxcycle=1)\\title\\0,1\N,0,1.196054,2.12235,8.781654\
 N,0,0.737684,3.125021,9.654759\C,0,1.151603,2.80662,10.918419\N,0,1.67
 4861,1.533686,10.832663\C,0,1.697988,1.102081,9.523224\O,0,1.063373,3.
 48309,11.938721\O,0,2.098252,0.009228,9.117118\H,0,0.643759,1.915918,7
 .939872\H,0,0.790422,4.089068,9.326195\H,0,2.091636,1.021316,11.62538\
 N,0,2.542325,6.87885,7.646573\N,0,3.000696,7.881521,6.773467\C,0,2.586

 Normal termination of Gaussian 16 at Tue Apr  8 19:12:51 2025.
