 Gaussian 16, Revision C.01,

 ----------------------------------------------------------------------
 #t hf aug-cc-pvdz symm=none int=(grid=ultrafine) guess=(read,tcheck) s
 table=(opt,rrhf)
 ----------------------------------------------------------------------
 -----
 title
 -----
 Symbolic Z-matrix:
 Charge =  0 Multiplicity = 1

 SCF Done:  E(RHF) =  -305.495687714     A.U. after   13 cycles
 Normal termination of Gaussian 16 at Tue Apr  8 19:11:05 2025.
 Gaussian 16:  ES64L-G16RevC.01  3-Jul-2019

 ----------------------------------------------------------------------
 #t hf aug-cc-pvdz iop(5/13=1,5/36=2,99/5=2) pseudo=read geom=check gue
 ss=(read,tcheck) scf=(maxcycle=1)
 ----------------------------------------------------------------------
 -----
 title
 -----
 Structure from the checkpoint file:  "3B-69_23a_cyclobutylfuran_dimerAB_mol2.chk"
 Charge =  0 Multiplicity = 1

                         Standard orientation:
 ---------------------------------------------------------------------
 Center     Atomic      Atomic             Coordinates (Angstroms)
 Number     Number       Type             X           Y           Z
 ---------------------------------------------------------------------
      1          8           0       -1.898647    0.002312    0.002418
      2          6           0       -1.093110   -1.125507   -0.006850
      3          1           0       -1.615590   -2.064148   -0.011558
      4          6           0        0.192434   -0.712753   -0.005676
      5          6           0        1.715332   -0.793386    0.010151
      6          1           0        2.145004   -1.227655    0.911806
      7          1           0        2.171744   -1.268290   -0.857217
      8          6           0        1.710707    0.793505   -0.008614
      9          1           0        2.155164    1.266086    0.864788
     10          1           0        2.132679    1.241760   -0.905885
     11          6           0        0.194544    0.706303   -0.001604
     12          6           0       -1.086480    1.125904    0.008556
     13          1           0       -1.600386    2.069355    0.002939
 ---------------------------------------------------------------------

 SCF Done:  E(RHF) =  -306.929132681     A.U. after    2 cycles

 The electronic state is 1-A.
 Alpha  occ. eigenvalues --  -21.09604 -11.49045 -11.46412 -11.43997 -11.39971
 Alpha  occ. eigenvalues --  -11.39315 -11.35399  -1.81601  -1.33065  -1.04818
 Alpha  occ. eigenvalues --   -1.04265  -0.91997  -0.81284  -0.71649  -0.69881
 Alpha  occ. eigenvalues --   -0.64634  -0.54982  -0.54099  -0.52181  -0.52013
 Alpha  occ. eigenvalues --   -0.46439  -0.41030  -0.39579  -0.31050  -0.30885
 Alpha virt. eigenvalues --    0.03553   0.04845   0.05377   0.06015   0.06130
 Alpha virt. eigenvalues --    0.06345   0.08923   0.10743   0.11143   0.11761
 Alpha virt. eigenvalues --    0.12765   0.13269   0.14540   0.14618   0.14823

 Mulliken charges:
               1
     1  O   -3.723354
     2  C   -0.203475
     3  H    1.354936
     4  C    1.797499
     5  C   -3.568916
     6  H    1.222058
     7  H    1.229075
     8  C   -3.565845
     9  H    1.215950
    10  H    1.214836
    11  C    1.925117
    12  C   -0.250590
    13  H    1.352708
 Sum of Mulliken charges =  -0.00000

 Dipole moment (field-independent basis, Debye):
    X=              0.5786    Y=              0.0127    Z=             -0.0004  Tot=              0.5787

 Test job not archived.
 1\1\GINC-SE332\SP\RHF\Aug-CC-pVDZ\C6H6O1\OHZDE\08-Apr-2025\0\\#t hf au
 g-cc-pvdz iop(5/13=1,5/36=2,99/5=2) pseudo=read geom=check guess=(read
 ,tcheck) scf=(maxcycle=1)\\title\\0,1\O,0,-0.126301,16.441388,12.92452
 6\C,0,-0.701266,17.4636,12.185981\H,0,-1.568703,17.187494,11.615566\C,
 0,0.02543,18.581936,12.396288\C,0,0.473934,20.034432,12.273536\H,0,0.8
 24753,20.32698,11.284835\H,0,-0.238268,20.779526,12.625356\C,0,1.63389
 8,19.669284,13.293216\H,0,2.642979,19.773757,12.900092\H,0,1.574915,20
 .176469,14.254138\C,0,1.077037,18.256376,13.291762\C,0,0.973511,16.948

 Normal termination of Gaussian 16 at Tue Apr  8 19:11:08 2025.
