 Gaussian 16, Revision C.01,

 ----------------------------------------------------------------------
 #t hf aug-cc-pvdz symm=none int=(grid=ultrafine) guess=(read,tcheck) s
 table=(opt,rrhf)
 ----------------------------------------------------------------------
 -----
 title
 -----
 Symbolic Z-matrix:
 Charge =  0 Multiplicity = 1

 SCF Done:  E(RHF) =  -227.772752568     A.U. after   14 cycles
 Normal termination of Gaussian 16 at Tue Apr  8 19:00:39 2025.
 Gaussian 16:  ES64L-G16RevC.01  3-Jul-2019

 ----------------------------------------------------------------------
 #t hf aug-cc-pvdz iop(5/13=1,5/36=2,99/5=2) pseudo=read geom=check gue
 ss=(read,tcheck) scf=(maxcycle=1)
 ----------------------------------------------------------------------
 -----
 title
 -----
 Structure from the checkpoint file:  "3B-69_02a_formaldehyde_dimerAB_mol1.chk"
 Charge =  0 Multiplicity = 1

                         Standard orientation:
 ---------------------------------------------------------------------
 Center     Atomic      Atomic             Coordinates (Angstroms)
 Number     Number       Type             X           Y           Z
 ---------------------------------------------------------------------
      1          8           0        2.888445   -0.121483   -0.061604
      2          6           0        1.723126    0.166225    0.103411
      3          1           0        1.374396    1.206496    0.026792
      4          1           0        0.962286   -0.591915    0.330000
      5          8           0       -1.584429   -0.201491   -0.122157
      6          6           0       -2.749749    0.086217    0.042858
      7          1           0       -3.098479    1.126487   -0.033761
      8          1           0       -3.510588   -0.671924    0.269446
 ---------------------------------------------------------------------

 SCF Done:  E(RHF) =  -228.734145491     A.U. after    2 cycles

 The electronic state is 1-A.
 Alpha  occ. eigenvalues --  -21.09759 -21.06347 -11.49577 -11.45856  -1.72765
 Alpha  occ. eigenvalues --   -1.69245  -0.92213  -0.88405  -0.68714  -0.65285
 Alpha  occ. eigenvalues --   -0.55449  -0.51337  -0.46829  -0.43453  -0.32771
 Alpha  occ. eigenvalues --   -0.29236
 Alpha virt. eigenvalues --    0.02461   0.04776   0.05657   0.07091   0.08296
 Alpha virt. eigenvalues --    0.10516   0.10913   0.13885   0.14393   0.15919
 Alpha virt. eigenvalues --    0.16586   0.17213   0.17802   0.19045   0.23882

 Mulliken charges:
               1
     1  O   -2.124703
     2  C   -0.529435
     3  H    1.288953
     4  H    1.359015
     5  O   -2.202013
     6  C   -0.497189
     7  H    1.323063
     8  H    1.382309
 Sum of Mulliken charges =   0.00000

 Dipole moment (field-independent basis, Debye):
    X=             -2.8458    Y=              0.5075    Z=              0.3130  Tot=              2.9076

 Test job not archived.
 1\1\GINC-SE096\SP\RHF\Aug-CC-pVDZ\C2H4O2\OHZDE\08-Apr-2025\0\\#t hf au
 g-cc-pvdz iop(5/13=1,5/36=2,99/5=2) pseudo=read geom=check guess=(read
 ,tcheck) scf=(maxcycle=1)\\title\\0,1\O,0,2.074088,0.498855,1.635515\C
 ,0,2.169454,0.15428,2.793163\H,0,2.970226,-0.523067,3.124239\H,0,1.470
 34,0.502963,3.564302\O,0,2.074088,0.498855,6.109515\C,0,2.169454,0.154
 28,7.267163\H,0,2.970226,-0.523067,7.598239\H,0,1.47034,0.502963,8.038
 302\\Version=ES64L-G16RevC.01\State=1-A\HF=-228.7341455\RMSD=4.884e-02
 \Dipole=0.0612205,-0.2521916,1.1141163\Quadrupole=0.0544883,0.1380955,

 Normal termination of Gaussian 16 at Tue Apr  8 19:00:41 2025.
