 Gaussian 16, Revision C.01,

 ----------------------------------------------------------------------
 #t hf aug-cc-pvdz symm=none int=(grid=ultrafine) guess=(read,tcheck) s
 table=(opt,rrhf)
 ----------------------------------------------------------------------
 -----
 title
 -----
 Symbolic Z-matrix:
 Charge =  0 Multiplicity = 1

 SCF Done:  E(RHF) =  -836.199941360     A.U. after   13 cycles
 Normal termination of Gaussian 16 at Tue Apr  8 19:19:58 2025.
 Gaussian 16:  ES64L-G16RevC.01  3-Jul-2019

 ----------------------------------------------------------------------
 #t hf aug-cc-pvdz iop(5/13=1,5/36=2,99/5=2) pseudo=read geom=check gue
 ss=(read,tcheck) scf=(maxcycle=1)
 ----------------------------------------------------------------------
 -----
 title
 -----
 Structure from the checkpoint file:  "3B-69_13b_triazine_trimer_mol1.chk"
 Charge =  0 Multiplicity = 1

                         Standard orientation:
 ---------------------------------------------------------------------
 Center     Atomic      Atomic             Coordinates (Angstroms)
 Number     Number       Type             X           Y           Z
 ---------------------------------------------------------------------
      1          6           0       -1.977909   -0.957818    0.559201
      2          7           0       -1.922938   -2.291709    0.579642
      3          1           0       -1.099540   -0.416766    0.885819
      4          6           0       -4.088438   -0.957818   -0.225593
      5          7           0       -3.033174   -0.240081    0.166804
      6          1           0       -4.966807   -0.416766   -0.552211
      7          6           0       -3.033174   -2.907863    0.166804
      8          7           0       -4.143410   -2.291709   -0.246034
      9          1           0       -3.033174   -3.989967    0.166804
     10          6           0        4.088438   -0.957819    0.225593
     11          7           0        4.143410   -2.291710    0.246034
     12          1           0        4.966807   -0.416767    0.552211
     13          6           0        1.977909   -0.957819   -0.559201
     14          7           0        3.033174   -0.240082   -0.166804
     15          1           0        1.099540   -0.416767   -0.885819
     16          6           0        3.033173   -2.907864   -0.166804
     17          7           0        1.922937   -2.291709   -0.579642
     18          1           0        3.033173   -3.989967   -0.166804
     19          6           0        1.055265    2.565652    0.392397
     20          7           0        1.110236    3.899543    0.412838
     21          1           0        1.933633    2.024600    0.719015
     22          6           0       -1.055264    2.565652   -0.392397
     23          7           0        0.000000    1.847915    0.000000
     24          1           0       -1.933633    2.024600   -0.719015
     25          6           0        0.000000    4.515697    0.000000
     26          7           0       -1.110236    3.899543   -0.412838
     27          1           0        0.000001    5.597800    0.000000
 ---------------------------------------------------------------------

 SCF Done:  E(RHF) =  -839.925525083     A.U. after    2 cycles

 The electronic state is 1-A.
 Alpha  occ. eigenvalues --  -15.75947 -15.75941 -15.75864 -15.75854 -15.75751
 Alpha  occ. eigenvalues --  -15.75677 -15.75670 -15.75598 -15.75575 -11.47476
 Alpha  occ. eigenvalues --  -11.47262 -11.47152 -11.47056 -11.46935 -11.46872
 Alpha  occ. eigenvalues --  -11.46023 -11.45874 -11.45701  -1.57153  -1.57085
 Alpha  occ. eigenvalues --   -1.56824  -1.32820  -1.32817  -1.32641  -1.32582
 Alpha  occ. eigenvalues --   -1.32426  -1.32255  -0.96332  -0.96303  -0.96223
 Alpha  occ. eigenvalues --   -0.96119  -0.95878  -0.95872  -0.78012  -0.77588
 Alpha  occ. eigenvalues --   -0.77159  -0.67583  -0.67547  -0.67273  -0.61535
 Alpha  occ. eigenvalues --   -0.61518  -0.61461  -0.60450  -0.60085  -0.59945
 Alpha  occ. eigenvalues --   -0.59527  -0.59128  -0.59076  -0.56183  -0.55345
 Alpha  occ. eigenvalues --   -0.54951  -0.42228  -0.42159  -0.42081  -0.41969
 Alpha  occ. eigenvalues --   -0.41888  -0.41755  -0.38301  -0.37714  -0.37432
 Alpha  occ. eigenvalues --   -0.36917  -0.36728  -0.36713
 Alpha virt. eigenvalues --    0.03358   0.04779   0.04810   0.05233   0.05623
 Alpha virt. eigenvalues --    0.06404   0.07066   0.07366   0.07844   0.08974
 Alpha virt. eigenvalues --    0.09007   0.09083   0.09239   0.09443   0.09692

 Mulliken charges:
               1
     1  C    1.704570
     2  N   -3.337712
     3  H    1.956051
     4  C    1.307629
     5  N   -3.057053
     6  H    1.695950
     7  C    1.232323
     8  N   -3.174130
     9  H    1.665072
    10  C    1.307629
    11  N   -3.174131
    12  H    1.695949
    13  C    1.704571
    14  N   -3.057053
    15  H    1.956052
    16  C    1.232323
    17  N   -3.337712
    18  H    1.665072
    19  C    1.583343
    20  N   -3.468068
    21  H    1.861333
    22  C    1.583343
    23  N   -2.921573
    24  H    1.861332
    25  C    1.335001
    26  N   -3.468068
    27  H    1.647956
 Sum of Mulliken charges =  -0.00000

 Dipole moment (field-independent basis, Debye):
    X=             -0.0000    Y=             -0.2174    Z=             -0.0000  Tot=              0.2174

 Test job not archived.
 1\1\GINC-SE185\SP\RHF\Aug-CC-pVDZ\C9H9N9\OHZDE\08-Apr-2025\0\\#t hf au
 g-cc-pvdz iop(5/13=1,5/36=2,99/5=2) pseudo=read geom=check guess=(read
 ,tcheck) scf=(maxcycle=1)\\title\\0,1\C,0,-3.52347,8.354547,9.10125\N,
 0,-4.139624,7.170039,9.10125\H,0,-2.441366,8.354547,9.10125\C,0,-5.473
 515,9.480406,9.10125\N,0,-4.139624,9.539055,9.10125\H,0,-6.014567,10.4
 17535,9.10125\C,0,-5.473515,7.228688,9.10125\N,0,-6.191252,8.354547,9.
 10125\H,0,-6.014567,6.291559,9.10125\C,0,1.30003,5.569698,6.67425\N,0,
 0.683876,4.38519,6.67425\H,0,2.382134,5.569698,6.67425\C,0,-0.650015,6

 Normal termination of Gaussian 16 at Tue Apr  8 19:20:29 2025.
