 Gaussian 16, Revision C.01,

 ----------------------------------------------------------------------
 #t hf aug-cc-pvdz symm=none int=(grid=ultrafine) guess=(read,tcheck) s
 table=(opt,rrhf)
 ----------------------------------------------------------------------
 -----
 title
 -----
 Symbolic Z-matrix:
 Charge =  0 Multiplicity = 1

 SCF Done:  E(RHF) =  -781.258266901     A.U. after   13 cycles
 Normal termination of Gaussian 16 at Tue Apr  8 19:12:40 2025.
 Gaussian 16:  ES64L-G16RevC.01  3-Jul-2019

 ----------------------------------------------------------------------
 #t hf aug-cc-pvdz iop(5/13=1,5/36=2,99/5=2) pseudo=read geom=check gue
 ss=(read,tcheck) scf=(maxcycle=1)
 ----------------------------------------------------------------------
 -----
 title
 -----
 Structure from the checkpoint file:  "3B-69_16b_triazolidinedione_dimerAB_mol1.chk"
 Charge =  0 Multiplicity = 1

                         Standard orientation:
 ---------------------------------------------------------------------
 Center     Atomic      Atomic             Coordinates (Angstroms)
 Number     Number       Type             X           Y           Z
 ---------------------------------------------------------------------
      1          7           0       -4.127250    0.258922   -0.024057
      2          7           0       -3.237689    1.139769   -0.664805
      3          6           0       -1.968449    0.664809   -0.483186
      4          7           0       -2.112293   -0.584207    0.083190
      5          6           0       -3.437535   -0.845134    0.360862
      6          8           0       -0.906677    1.205161   -0.778267
      7          8           0       -3.894167   -1.875281    0.860607
      8          1           0       -5.076639    0.158850   -0.404699
      9          1           0       -3.428033    2.138100   -0.579784
     10          1           0       -1.325522   -1.191461    0.360419
     11          7           0        1.505692    0.074111    0.170843
     12          7           0        2.145805   -1.033977   -0.412389
     13          6           0        3.494259   -0.877346   -0.249035
     14          7           0        3.667098    0.398678    0.244324
     15          6           0        2.449233    0.993898    0.497239
     16          8           0        4.387736   -1.678864   -0.505313
     17          8           0        2.264482    2.131576    0.934296
     18          1           0        0.607660    0.383525   -0.221640
     19          1           0        1.715624   -1.947967   -0.272069
     20          1           0        4.581339    0.807780    0.492163
 ---------------------------------------------------------------------

 SCF Done:  E(RHF) =  -784.551116835     A.U. after    2 cycles

 The electronic state is 1-A.
 Alpha  occ. eigenvalues --  -21.08112 -21.06486 -21.03898 -21.03056 -15.84787
 Alpha  occ. eigenvalues --  -15.84061 -15.83889 -15.81132 -15.80083 -15.79403
 Alpha  occ. eigenvalues --  -11.57657 -11.55022 -11.53535 -11.51494  -1.80094
 Alpha  occ. eigenvalues --   -1.75817  -1.74509  -1.70394  -1.62488  -1.58525
 Alpha  occ. eigenvalues --   -1.40955  -1.37111  -1.25286  -1.21403  -0.95363
 Alpha  occ. eigenvalues --   -0.92010  -0.91393  -0.87891  -0.76585  -0.75267
 Alpha  occ. eigenvalues --   -0.72512  -0.71614  -0.68927  -0.67968  -0.65339
 Alpha  occ. eigenvalues --   -0.64341  -0.57338  -0.54929  -0.54118  -0.52914
 Alpha  occ. eigenvalues --   -0.52036  -0.51071  -0.50264  -0.48436  -0.37589
 Alpha  occ. eigenvalues --   -0.36589  -0.33192  -0.32899  -0.32732  -0.32544
 Alpha  occ. eigenvalues --   -0.29086  -0.28719
 Alpha virt. eigenvalues --    0.02106   0.04238   0.04377   0.05777   0.06239
 Alpha virt. eigenvalues --    0.07524   0.08591   0.09371   0.10264   0.10732
 Alpha virt. eigenvalues --    0.10889   0.11749   0.12027   0.12314   0.12741

 Mulliken charges:
               1
     1  N   -2.220270
     2  N   -2.007724
     3  C    5.162887
     4  N   -2.156600
     5  C    5.125436
     6  O   -3.176413
     7  O   -3.054263
     8  H    0.741429
     9  H    0.726410
    10  H    0.757190
    11  N   -1.868862
    12  N   -1.969354
    13  C    5.095565
    14  N   -2.474935
    15  C    4.994593
    16  O   -3.083821
    17  O   -3.086744
    18  H    1.033401
    19  H    0.732205
    20  H    0.729873
 Sum of Mulliken charges =  -0.00000

 Dipole moment (field-independent basis, Debye):
    X=             -4.7692    Y=              0.9305    Z=             -0.8641  Tot=              4.9354

 Test job not archived.
 1\1\GINC-SE163\SP\RHF\Aug-CC-pVDZ\C4H6N6O4\OHZDE\08-Apr-2025\0\\#t hf
 aug-cc-pvdz iop(5/13=1,5/36=2,99/5=2) pseudo=read geom=check guess=(re
 ad,tcheck) scf=(maxcycle=1)\\title\\0,1\N,0,-0.050072,2.63415,3.305578
 \N,0,-0.508443,1.631479,4.178684\C,0,-0.094523,1.94988,5.442343\N,0,0.
 428735,3.222814,5.356588\C,0,0.451861,3.654419,4.047148\O,0,-0.182753,
 1.27341,6.462645\O,0,0.852126,4.747272,3.641043\H,0,-0.602367,2.840582
 ,2.463796\H,0,-0.455705,0.667432,3.850119\H,0,0.845509,3.735184,6.1493
 04\N,0,1.196054,2.12235,8.781654\N,0,0.737684,3.125021,9.654759\C,0,1.

 Normal termination of Gaussian 16 at Tue Apr  8 19:12:53 2025.
