 Gaussian 16, Revision C.01,

 ----------------------------------------------------------------------
 #t hf aug-cc-pvdz symm=none int=(grid=ultrafine) guess=(read,tcheck) s
 table=(opt,rrhf)
 ----------------------------------------------------------------------
 -----
 title
 -----
 Symbolic Z-matrix:
 Charge =  0 Multiplicity = 1

 SCF Done:  E(RHF) =  -230.728221026     A.U. after   11 cycles
 Normal termination of Gaussian 16 at Tue Apr  8 19:09:54 2025.
 Gaussian 16:  ES64L-G16RevC.01  3-Jul-2019

 ----------------------------------------------------------------------
 #t hf aug-cc-pvdz iop(5/13=1,5/36=2,99/5=2) pseudo=read geom=check gue
 ss=(read,tcheck) scf=(maxcycle=1)
 ----------------------------------------------------------------------
 -----
 title
 -----
 Structure from the checkpoint file:  "3B-69_19a_benzene_dimerAC_mol3.chk"
 Charge =  0 Multiplicity = 1

                         Standard orientation:
 ---------------------------------------------------------------------
 Center     Atomic      Atomic             Coordinates (Angstroms)
 Number     Number       Type             X           Y           Z
 ---------------------------------------------------------------------
      1          6           0       -0.717288   -1.192456   -0.002827
      2          6           0       -1.394810    0.023796    0.000543
      3          6           0        0.674809   -1.215763   -0.002460
      4          1           0       -1.276040   -2.119135    0.003107
      5          1           0       -2.476405    0.053351    0.004570
      6          1           0        1.193958   -2.162883    0.014751
      7          6           0        0.717288    1.192457    0.002826
      8          6           0        1.394809   -0.023796   -0.000543
      9          6           0       -0.674809    1.215763    0.002460
     10          1           0        1.276039    2.119136   -0.003107
     11          1           0        2.476411   -0.053355   -0.004564
     12          1           0       -1.193958    2.162883   -0.014751
 ---------------------------------------------------------------------

 SCF Done:  E(RHF) =  -231.848176693     A.U. after    2 cycles

 The electronic state is 1-A.
 Alpha  occ. eigenvalues --  -11.51458 -11.42189 -11.42149 -11.39658 -11.39627
 Alpha  occ. eigenvalues --  -11.35763  -1.33521  -1.08763  -1.08709  -0.85604
 Alpha  occ. eigenvalues --   -0.85551  -0.71972  -0.65423  -0.58081  -0.57980
 Alpha  occ. eigenvalues --   -0.55697  -0.49735  -0.44584  -0.44463  -0.32682
 Alpha  occ. eigenvalues --   -0.32645
 Alpha virt. eigenvalues --    0.03387   0.04950   0.04955   0.06203   0.06210
 Alpha virt. eigenvalues --    0.07362   0.11611   0.11630   0.13786   0.14241
 Alpha virt. eigenvalues --    0.14271   0.14473   0.14492   0.14742   0.15200

 Mulliken charges:
               1
     1  C   -1.426883
     2  C   -1.548982
     3  C   -1.515739
     4  H    1.496954
     5  H    1.498287
     6  H    1.496311
     7  C   -1.426870
     8  C   -1.548960
     9  C   -1.515665
    10  H    1.496957
    11  H    1.498281
    12  H    1.496309
 Sum of Mulliken charges =   0.00000

 Dipole moment (field-independent basis, Debye):
    X=             -0.0000    Y=             -0.0000    Z=              0.0000  Tot=              0.0000

 Test job not archived.
 1\1\GINC-SE219\SP\RHF\Aug-CC-pVDZ\C6H6\OHZDE\08-Apr-2025\0\\#t hf aug-
 cc-pvdz iop(5/13=1,5/36=2,99/5=2) pseudo=read geom=check guess=(read,t
 check) scf=(maxcycle=1)\\title\\0,1\C,0,11.571117,17.459389,10.02914\C
 ,0,12.03721,18.392292,10.95151\C,0,10.569132,17.809497,9.12807\H,0,11.
 996168,16.464449,10.00917\H,0,12.818468,18.132054,11.6534\H,0,10.22601
 6,17.08679,8.40225\C,0,10.494183,20.025411,10.06906\C,0,10.02809,19.09
 2508,9.14669\C,0,11.496168,19.675303,10.97013\H,0,10.069132,21.020351,
 10.08903\H,0,9.246832,19.352746,8.44479\H,0,11.839284,20.39801,11.6959

 Normal termination of Gaussian 16 at Tue Apr  8 19:09:58 2025.
