 Gaussian 16, Revision C.01,

 ----------------------------------------------------------------------
 #t hf aug-cc-pvdz symm=none int=(grid=ultrafine) guess=(read,tcheck) s
 table=(opt,rrhf)
 ----------------------------------------------------------------------
 -----
 title
 -----
 Symbolic Z-matrix:
 Charge =  0 Multiplicity = 1

 SCF Done:  E(RHF) =  -152.080148282     A.U. after   11 cycles
 Normal termination of Gaussian 16 at Tue Apr  8 19:00:37 2025.
 Gaussian 16:  ES64L-G16RevC.01  3-Jul-2019

 ----------------------------------------------------------------------
 #t hf aug-cc-pvdz iop(5/13=1,5/36=2,99/5=2) pseudo=read geom=check gue
 ss=(read,tcheck) scf=(maxcycle=1)
 ----------------------------------------------------------------------
 -----
 title
 -----
 Structure from the checkpoint file:  "3B-69_01a_water_dimerAC_mol1.chk"
 Charge =  0 Multiplicity = 1

                         Standard orientation:
 ---------------------------------------------------------------------
 Center     Atomic      Atomic             Coordinates (Angstroms)
 Number     Number       Type             X           Y           Z
 ---------------------------------------------------------------------
      1          8           0       -1.443282   -0.108998    0.042833
      2          1           0       -0.461950   -0.017441   -0.004230
      3          1           0       -1.850482    0.751616   -0.216748
      4          8           0        1.311237    0.032755   -0.100069
      5          1           0        1.690878   -0.837537    0.166249
      6          1           0        1.677913    0.713299    0.512617
 ---------------------------------------------------------------------

 SCF Done:  E(RHF) =  -152.737692743     A.U. after    2 cycles

 The electronic state is 1-A.
 Alpha  occ. eigenvalues --  -21.12188 -21.05201  -1.68682  -1.61051  -0.65977
 Alpha  occ. eigenvalues --   -0.61828  -0.49403  -0.42597  -0.36617  -0.31872
 Alpha virt. eigenvalues --    0.02999   0.05715   0.06260   0.09505   0.17769
 Alpha virt. eigenvalues --    0.20155   0.21454   0.22419   0.23833   0.24442
 Alpha virt. eigenvalues --    0.25568   0.27114   0.27896   0.31214   0.33113

 Mulliken charges:
               1
     1  O   -1.996464
     2  H    1.421786
     3  H    0.798911
     4  O   -1.947842
     5  H    0.870270
     6  H    0.853339
 Sum of Mulliken charges =  -0.00000

 Dipole moment (field-independent basis, Debye):
    X=              2.0042    Y=              0.6127    Z=              0.4171  Tot=              2.1369

 Test job not archived.
 1\1\GINC-SE127\SP\RHF\Aug-CC-pVDZ\H4O2\OHZDE\08-Apr-2025\0\\#t hf aug-
 cc-pvdz iop(5/13=1,5/36=2,99/5=2) pseudo=read geom=check guess=(read,t
 check) scf=(maxcycle=1)\\title\\0,1\O,0,-0.084889,0.056804,0.055205\H,
 0,0.710375,0.517729,0.413971\H,0,-0.890958,0.498588,0.414274\O,0,2.201
 771,1.306708,0.969979\H,0,2.989729,0.844404,0.598684\H,0,2.274831,1.26
 8852,1.952936\\Version=ES64L-G16RevC.01\State=1-A\HF=-152.7376927\RMSD
 =3.342e-02\Dipole=0.5864332,0.2850462,0.5307139\Quadrupole=2.3614425,-
 2.5131081,0.1516656,-1.6419398,-0.6179055,0.3759127\PG=C01 [X(H4O2)]\\

 Normal termination of Gaussian 16 at Tue Apr  8 19:00:38 2025.
