 Gaussian 16, Revision C.01,

 ----------------------------------------------------------------------
 #t hf aug-cc-pvdz symm=none int=(grid=ultrafine) guess=(read,tcheck) s
 table=(opt,rrhf)
 ----------------------------------------------------------------------
 -----
 title
 -----
 Symbolic Z-matrix:
 Charge =  0 Multiplicity = 1

 SCF Done:  E(RHF) =  -781.253760092     A.U. after   13 cycles
 Normal termination of Gaussian 16 at Tue Apr  8 19:11:54 2025.
 Gaussian 16:  ES64L-G16RevC.01  3-Jul-2019

 ----------------------------------------------------------------------
 #t hf aug-cc-pvdz iop(5/13=1,5/36=2,99/5=2) pseudo=read geom=check gue
 ss=(read,tcheck) scf=(maxcycle=1)
 ----------------------------------------------------------------------
 -----
 title
 -----
 Structure from the checkpoint file:  "3B-69_16a_triazolidinedione_dimerAC_mol1.chk"
 Charge =  0 Multiplicity = 1

                         Standard orientation:
 ---------------------------------------------------------------------
 Center     Atomic      Atomic             Coordinates (Angstroms)
 Number     Number       Type             X           Y           Z
 ---------------------------------------------------------------------
      1          7           0        3.294806   -0.679029    1.109653
      2          7           0        2.781014    0.630017    1.123013
      3          6           0        3.196522    1.258761   -0.017853
      4          7           0        3.779789    0.280191   -0.794844
      5          6           0        3.836486   -0.916577   -0.112217
      6          8           0        3.066251    2.440309   -0.323449
      7          8           0        4.291714   -1.981695   -0.533824
      8          1           0        2.761414   -1.419388    1.582521
      9          1           0        2.791796    1.125960    2.014106
     10          1           0        4.212051    0.449592   -1.716297
     11          7           0       -3.621205   -0.967354    0.944019
     12          7           0       -4.134997    0.341692    0.957379
     13          6           0       -3.719489    0.970437   -0.183487
     14          7           0       -3.136223   -0.008133   -0.960477
     15          6           0       -3.079525   -1.204902   -0.277851
     16          8           0       -3.849761    2.151984   -0.489083
     17          8           0       -2.624297   -2.270019   -0.699458
     18          1           0       -4.154597   -1.707712    1.416887
     19          1           0       -4.124215    0.837636    1.848473
     20          1           0       -2.703960    0.161268   -1.881931
 ---------------------------------------------------------------------

 SCF Done:  E(RHF) =  -784.544623482     A.U. after    2 cycles

 The electronic state is 1-A.
 Alpha  occ. eigenvalues --  -21.05179 -21.05010 -21.04999 -21.04576 -15.82894
 Alpha  occ. eigenvalues --  -15.82591 -15.82367 -15.82024 -15.81610 -15.81340
 Alpha  occ. eigenvalues --  -11.54846 -11.54586 -11.53001 -11.52602  -1.77455
 Alpha  occ. eigenvalues --   -1.77154  -1.71996  -1.71694  -1.60307  -1.59998
 Alpha  occ. eigenvalues --   -1.38762  -1.38475  -1.23375  -1.23060  -0.93263
 Alpha  occ. eigenvalues --   -0.92973  -0.89506  -0.89214  -0.74450  -0.74135
 Alpha  occ. eigenvalues --   -0.73335  -0.73016  -0.66762  -0.66500  -0.65933
 Alpha  occ. eigenvalues --   -0.65613  -0.54704  -0.54417  -0.52743  -0.52435
 Alpha  occ. eigenvalues --   -0.51887  -0.51588  -0.50162  -0.49856  -0.34623
 Alpha  occ. eigenvalues --   -0.34340  -0.34040  -0.33755  -0.30988  -0.30667
 Alpha  occ. eigenvalues --   -0.30578  -0.30277
 Alpha virt. eigenvalues --    0.02402   0.03322   0.04557   0.05217   0.05483
 Alpha virt. eigenvalues --    0.06029   0.08260   0.09206   0.09734   0.10170
 Alpha virt. eigenvalues --    0.11008   0.11296   0.11604   0.12203   0.12488

 Mulliken charges:
               1
     1  N   -2.006202
     2  N   -1.934992
     3  C    4.999728
     4  N   -2.318865
     5  C    4.996032
     6  O   -2.995526
     7  O   -2.966481
     8  H    0.753656
     9  H    0.750088
    10  H    0.722999
    11  N   -1.967812
    12  N   -2.052902
    13  C    4.986242
    14  N   -2.383830
    15  C    5.148358
    16  O   -2.986730
    17  O   -3.000364
    18  H    0.746123
    19  H    0.767106
    20  H    0.743370
 Sum of Mulliken charges =  -0.00000

 Dipole moment (field-independent basis, Debye):
    X=             -1.3362    Y=             -0.4060    Z=              3.4016  Tot=              3.6771

 Test job not archived.
 1\1\GINC-SE041\SP\RHF\Aug-CC-pVDZ\C4H6N6O4\OHZDE\08-Apr-2025\0\\#t hf
 aug-cc-pvdz iop(5/13=1,5/36=2,99/5=2) pseudo=read geom=check guess=(re
 ad,tcheck) scf=(maxcycle=1)\\title\\0,1\N,0,1.296199,16.90365,2.170497
 \N,0,1.754569,15.90098,1.297392\C,0,1.34065,16.21938,0.033733\N,0,0.81
 7392,17.492314,0.119488\C,0,0.794265,17.923919,1.428927\O,0,1.42888,15
 .54291,-0.98657\O,0,0.394001,19.016772,1.835033\H,0,1.848494,17.110082
 ,3.01228\H,0,1.701831,14.936932,1.625956\H,0,0.400617,18.004684,-0.673
 229\N,0,8.220199,16.90365,2.170497\N,0,8.678569,15.90098,1.297392\C,0,

 Normal termination of Gaussian 16 at Tue Apr  8 19:12:05 2025.
