 Gaussian 16, Revision C.01,

 ----------------------------------------------------------------------
 #t hf aug-cc-pvdz symm=none int=(grid=ultrafine) guess=(read,tcheck) s
 table=(opt,rrhf)
 ----------------------------------------------------------------------
 -----
 title
 -----
 Symbolic Z-matrix:
 Charge =  0 Multiplicity = 1

 SCF Done:  E(RHF) =  -455.702709062     A.U. after   13 cycles
 Normal termination of Gaussian 16 at Tue Apr  8 19:02:16 2025.
 Gaussian 16:  ES64L-G16RevC.01  3-Jul-2019

 ----------------------------------------------------------------------
 #t hf aug-cc-pvdz iop(5/13=1,5/36=2,99/5=2) pseudo=read geom=check gue
 ss=(read,tcheck) scf=(maxcycle=1)
 ----------------------------------------------------------------------
 -----
 title
 -----
 Structure from the checkpoint file:  "3B-69_06b_acetic_acid_dimerBC_mol1.chk"
 Charge =  0 Multiplicity = 1

                         Standard orientation:
 ---------------------------------------------------------------------
 Center     Atomic      Atomic             Coordinates (Angstroms)
 Number     Number       Type             X           Y           Z
 ---------------------------------------------------------------------
      1          8           0        3.381492   -0.371156    0.104334
      2          6           0        2.095604   -0.082235    0.001175
      3          8           0        1.262133   -0.937023   -0.282104
      4          6           0        1.787683    1.365584    0.220183
      5          1           0        3.561109   -1.345537   -0.056360
      6          1           0        2.035688    1.906367   -0.695112
      7          1           0        2.407832    1.773748    1.014516
      8          1           0        0.732533    1.505529    0.430147
      9          8           0       -1.341490   -1.019766    0.092100
     10          6           0       -2.078827    0.068794   -0.045736
     11          8           0       -1.594540    1.134940   -0.412318
     12          6           0       -3.530105   -0.150087    0.245549
     13          1           0       -0.375283   -0.847512   -0.118319
     14          1           0       -3.981486   -0.628821   -0.625535
     15          1           0       -3.654564   -0.827360    1.086953
     16          1           0       -4.032726    0.795293    0.420584
 ---------------------------------------------------------------------

 SCF Done:  E(RHF) =  -457.662344017     A.U. after    2 cycles

 The electronic state is 1-A.
 Alpha  occ. eigenvalues --  -21.14388 -21.07816 -21.06730 -21.02229 -11.54739
 Alpha  occ. eigenvalues --  -11.50052 -11.40087 -11.38210  -1.85382  -1.80058
 Alpha  occ. eigenvalues --   -1.67398  -1.61560  -1.12359  -1.09902  -0.82862
 Alpha  occ. eigenvalues --   -0.78354  -0.66298  -0.64233  -0.63090  -0.60751
 Alpha  occ. eigenvalues --   -0.60405  -0.58154  -0.55483  -0.52798  -0.51271
 Alpha  occ. eigenvalues --   -0.47911  -0.46725  -0.42347  -0.35933  -0.31517
 Alpha  occ. eigenvalues --   -0.30593  -0.27476
 Alpha virt. eigenvalues --    0.03206   0.04813   0.05282   0.05588   0.06976
 Alpha virt. eigenvalues --    0.07204   0.07926   0.08653   0.10638   0.11031
 Alpha virt. eigenvalues --    0.11340   0.13490   0.13913   0.14354   0.14424

 Mulliken charges:
               1
     1  O   -3.132812
     2  C    5.131271
     3  O   -3.178677
     4  C   -3.969864
     5  H    0.887658
     6  H    1.330155
     7  H    1.241436
     8  H    1.278805
     9  O   -3.337460
    10  C    5.354545
    11  O   -3.038070
    12  C   -4.237948
    13  H    1.930402
    14  H    1.212316
    15  H    1.264972
    16  H    1.263273
 Sum of Mulliken charges =  -0.00000

 Dipole moment (field-independent basis, Debye):
    X=              2.2862    Y=             -0.4198    Z=              0.5742  Tot=              2.3943

 Test job not archived.
 1\1\GINC-SE144\SP\RHF\Aug-CC-pVDZ\C4H8O4\OHZDE\08-Apr-2025\0\\#t hf au
 g-cc-pvdz iop(5/13=1,5/36=2,99/5=2) pseudo=read geom=check guess=(read
 ,tcheck) scf=(maxcycle=1)\\title\\0,1\O,0,5.327155,17.887053,2.402174\
 C,0,4.525997,17.40189,3.33512\O,0,4.142801,16.236406,3.315351\C,0,4.11
 924,18.413124,4.360262\H,0,5.576489,17.191358,1.722951\H,0,3.329155,19
 .031693,3.930313\H,0,4.950397,19.071689,4.600299\H,0,3.732132,17.92444
 4,5.248152\O,0,3.1985,14.682947,5.218189\C,0,2.397341,15.16811,6.15113
 5\O,0,2.014145,16.333594,6.131367\C,0,1.990584,14.156876,7.176277\H,0,

 Normal termination of Gaussian 16 at Tue Apr  8 19:02:22 2025.
