 Gaussian 16, Revision C.01,

 ----------------------------------------------------------------------
 #t hf aug-cc-pvdz symm=none int=(grid=ultrafine) guess=(read,tcheck) s
 table=(opt,rrhf)
 ----------------------------------------------------------------------
 -----
 title
 -----
 Symbolic Z-matrix:
 Charge =  0 Multiplicity = 1

 SCF Done:  E(RHF) =  -416.016824856     A.U. after   13 cycles
 Normal termination of Gaussian 16 at Tue Apr  8 19:05:34 2025.
 Gaussian 16:  ES64L-G16RevC.01  3-Jul-2019

 ----------------------------------------------------------------------
 #t hf aug-cc-pvdz iop(5/13=1,5/36=2,99/5=2) pseudo=read geom=check gue
 ss=(read,tcheck) scf=(maxcycle=1)
 ----------------------------------------------------------------------
 -----
 title
 -----
 Structure from the checkpoint file:  "3B-69_09c_acetamide_dimerAB_mol1.chk"
 Charge =  0 Multiplicity = 1

                         Standard orientation:
 ---------------------------------------------------------------------
 Center     Atomic      Atomic             Coordinates (Angstroms)
 Number     Number       Type             X           Y           Z
 ---------------------------------------------------------------------
      1          6           0        4.928019   -0.944485    0.179359
      2          6           0        3.802551    0.030658   -0.074023
      3          8           0        2.673228   -0.375773   -0.420183
      4          7           0        4.087023    1.326680    0.047480
      5          1           0        3.431543    2.039065   -0.280185
      6          1           0        5.021577    1.621907    0.338381
      7          1           0        5.478950   -1.069657   -0.754948
      8          1           0        5.625917   -0.590112    0.935074
      9          1           0        4.529341   -1.910428    0.474921
     10          6           0       -2.976090   -1.000010    0.284599
     11          6           0       -4.101557   -0.024866    0.031218
     12          8           0       -5.230881   -0.431298   -0.314943
     13          7           0       -3.817085    1.271156    0.152721
     14          1           0       -4.472566    1.983541   -0.174945
     15          1           0       -2.882532    1.566382    0.443622
     16          1           0       -2.425159   -1.125182   -0.649707
     17          1           0       -2.278191   -0.645636    1.040314
     18          1           0       -3.374768   -1.965953    0.580162
 ---------------------------------------------------------------------

 SCF Done:  E(RHF) =  -417.896919505     A.U. after    2 cycles

 The electronic state is 1-A.
 Alpha  occ. eigenvalues --  -21.01645 -21.00162 -15.79149 -15.77727 -11.49941
 Alpha  occ. eigenvalues --  -11.48405 -11.39270 -11.37696  -1.68531  -1.67036
 Alpha  occ. eigenvalues --   -1.36056  -1.34614  -1.09696  -1.08115  -0.81976
 Alpha  occ. eigenvalues --   -0.80506  -0.71888  -0.70448  -0.63345  -0.61777
 Alpha  occ. eigenvalues --   -0.61439  -0.59863  -0.55318  -0.53777  -0.49810
 Alpha  occ. eigenvalues --   -0.48305  -0.46964  -0.45455  -0.32045  -0.30599
 Alpha  occ. eigenvalues --   -0.28425  -0.26926
 Alpha virt. eigenvalues --    0.02333   0.03774   0.04353   0.04992   0.05555
 Alpha virt. eigenvalues --    0.05978   0.06363   0.06914   0.08068   0.08457
 Alpha virt. eigenvalues --    0.10351   0.11549   0.12270   0.12919   0.13382

 Mulliken charges:
               1
     1  C   -3.754065
     2  C    4.519645
     3  O   -3.114724
     4  N   -2.815906
     5  H    0.723076
     6  H    0.762777
     7  H    1.232350
     8  H    1.210946
     9  H    1.234508
    10  C   -3.894724
    11  C    4.510907
    12  O   -3.032777
    13  N   -2.809510
    14  H    0.723216
    15  H    0.753157
    16  H    1.253306
    17  H    1.249454
    18  H    1.248364
 Sum of Mulliken charges =  -0.00000

 Dipole moment (field-independent basis, Debye):
    X=              4.8594    Y=              3.2078    Z=              1.0056  Tot=              5.9089

 Test job not archived.
 1\1\GINC-SE230\SP\RHF\Aug-CC-pVDZ\C4H10N2O2\OHZDE\08-Apr-2025\0\\#t hf
  aug-cc-pvdz iop(5/13=1,5/36=2,99/5=2) pseudo=read geom=check guess=(r
 ead,tcheck) scf=(maxcycle=1)\\title\\0,1\C,0,7.996134,3.456191,13.3638
 9\C,0,9.504286,3.375543,13.391436\O,0,10.101066,2.418723,12.854098\N,0
 ,10.149217,4.340524,14.045834\H,0,11.145574,4.254138,14.25636\H,0,9.62
 7308,5.111269,14.468606\H,0,7.618679,2.972605,14.267104\H,0,7.632469,4
 .481583,13.355768\H,0,7.606727,2.923905,12.501115\C,0,13.742134,0.1387
 36,9.066557\C,0,15.250286,0.058089,9.094103\O,0,15.847066,-0.898732,8.

 Normal termination of Gaussian 16 at Tue Apr  8 19:05:39 2025.
