 Gaussian 16, Revision C.01,

 ----------------------------------------------------------------------
 #t hf aug-cc-pvdz symm=none int=(grid=ultrafine) guess=(read,tcheck) s
 table=(opt,rrhf)
 ----------------------------------------------------------------------
 -----
 title
 -----
 Symbolic Z-matrix:
 Charge =  0 Multiplicity = 1

 SCF Done:  E(RHF) =  -449.657244225     A.U. after   14 cycles
 Normal termination of Gaussian 16 at Tue Apr  8 19:07:10 2025.
 Gaussian 16:  ES64L-G16RevC.01  3-Jul-2019

 ----------------------------------------------------------------------
 #t hf aug-cc-pvdz iop(5/13=1,5/36=2,99/5=2) pseudo=read geom=check gue
 ss=(read,tcheck) scf=(maxcycle=1)
 ----------------------------------------------------------------------
 -----
 title
 -----
 Structure from the checkpoint file:  "3B-69_12a_pyrazole_dimerAC_mol1.chk"
 Charge =  0 Multiplicity = 1

                         Standard orientation:
 ---------------------------------------------------------------------
 Center     Atomic      Atomic             Coordinates (Angstroms)
 Number     Number       Type             X           Y           Z
 ---------------------------------------------------------------------
      1          6           0        2.416458    0.955485   -0.607817
      2          6           0        3.604958    0.240427   -0.390889
      3          6           0        3.240005   -0.805625    0.434459
      4          1           0        1.287490   -1.308399    1.198295
      5          1           0        3.820618   -1.606473    0.854173
      6          1           0        4.582615    0.455813   -0.780391
      7          1           0        2.252307    1.840655   -1.198048
      8          7           0        1.918630   -0.679459    0.672594
      9          7           0        1.393898    0.390645    0.037484
     10          6           0       -3.180679   -0.789570   -0.584216
     11          6           0       -3.640547    0.160011    0.340996
     12          6           0       -2.515740    0.876259    0.698076
     13          1           0       -0.473824    0.566241    0.073766
     14          1           0       -2.375669    1.689200    1.387407
     15          1           0       -4.642749    0.301807    0.700081
     16          1           0       -3.744618   -1.546879   -1.099859
     17          7           0       -1.481498    0.355468    0.005425
     18          7           0       -1.867159   -0.668638   -0.783943
 ---------------------------------------------------------------------

 SCF Done:  E(RHF) =  -451.756397715     A.U. after    2 cycles

 The electronic state is 1-A.
 Alpha  occ. eigenvalues --  -15.82313 -15.77411 -15.76052 -15.72468 -11.46449
 Alpha  occ. eigenvalues --  -11.44514 -11.43091 -11.40555 -11.38277 -11.35076
 Alpha  occ. eigenvalues --   -1.61499  -1.57531  -1.19483  -1.15964  -1.14516
 Alpha  occ. eigenvalues --   -1.11419  -0.85595  -0.83155  -0.82073  -0.79310
 Alpha  occ. eigenvalues --   -0.76400  -0.72660  -0.61663  -0.59691  -0.58134
 Alpha  occ. eigenvalues --   -0.57104  -0.56100  -0.53826  -0.52916  -0.50898
 Alpha  occ. eigenvalues --   -0.42321  -0.38227  -0.35536  -0.34017  -0.32011
 Alpha  occ. eigenvalues --   -0.30577
 Alpha virt. eigenvalues --    0.03235   0.04657   0.04896   0.05698   0.05883
 Alpha virt. eigenvalues --    0.06126   0.06378   0.09790   0.10562   0.10653
 Alpha virt. eigenvalues --    0.10892   0.12207   0.12648   0.12975   0.13373

 Mulliken charges:
               1
     1  C   -0.031792
     2  C   -0.875039
     3  C    0.570111
     4  H    0.884978
     5  H    1.327531
     6  H    1.170924
     7  H    1.523616
     8  N   -2.850201
     9  N   -1.863197
    10  C    0.413850
    11  C   -1.178101
    12  C    0.017614
    13  H    1.330675
    14  H    1.345661
    15  H    1.162061
    16  H    1.410775
    17  N   -2.132752
    18  N   -2.226716
 Sum of Mulliken charges =   0.00000

 Dipole moment (field-independent basis, Debye):
    X=              3.0674    Y=             -0.1989    Z=              2.0799  Tot=              3.7114

 Test job not archived.
 1\1\GINC-SE344\SP\RHF\Aug-CC-pVDZ\C6H8N4\OHZDE\08-Apr-2025\0\\#t hf au
 g-cc-pvdz iop(5/13=1,5/36=2,99/5=2) pseudo=read geom=check guess=(read
 ,tcheck) scf=(maxcycle=1)\\title\\0,1\C,0,10.627016,5.579002,5.969045\
 C,0,11.476074,4.843862,6.811403\C,0,10.688278,3.817185,7.295063\H,0,8.
 629312,3.364017,6.843575\H,0,10.917516,3.011175,7.967689\H,0,12.510061
 ,5.034319,7.031661\H,0,10.840612,6.458651,5.386431\N,0,9.461334,3.9727
 73,6.757422\N,0,9.404905,5.04376,5.93667\C,0,5.922353,3.945079,2.87547
 7\C,0,5.048807,4.916747,3.387313\C,0,5.801878,5.615759,4.309254\H,0,7.

 Normal termination of Gaussian 16 at Tue Apr  8 19:07:18 2025.
