 Gaussian 16, Revision C.01,

 ----------------------------------------------------------------------
 #t hf aug-cc-pvdz symm=none int=(grid=ultrafine) guess=(read,tcheck) s
 table=(opt,rrhf)
 ----------------------------------------------------------------------
 -----
 title
 -----
 Symbolic Z-matrix:
 Charge =  0 Multiplicity = 1

 SCF Done:  E(RHF) =  -557.466827418     A.U. after   13 cycles
 Normal termination of Gaussian 16 at Tue Apr  8 19:08:19 2025.
 Gaussian 16:  ES64L-G16RevC.01  3-Jul-2019

 ----------------------------------------------------------------------
 #t hf aug-cc-pvdz iop(5/13=1,5/36=2,99/5=2) pseudo=read geom=check gue
 ss=(read,tcheck) scf=(maxcycle=1)
 ----------------------------------------------------------------------
 -----
 title
 -----
 Structure from the checkpoint file:  "3B-69_13c_triazine_dimerAC_mol1.chk"
 Charge =  0 Multiplicity = 1

                         Standard orientation:
 ---------------------------------------------------------------------
 Center     Atomic      Atomic             Coordinates (Angstroms)
 Number     Number       Type             X           Y           Z
 ---------------------------------------------------------------------
      1          6           0       -1.111720    1.392425   -0.606750
      2          7           0       -1.727874    0.207916   -0.606750
      3          1           0       -0.029616    1.392425   -0.606750
      4          6           0       -3.061765    2.518283   -0.606750
      5          7           0       -1.727874    2.576933   -0.606750
      6          1           0       -3.602817    3.455412   -0.606750
      7          6           0       -3.061765    0.266566   -0.606750
      8          7           0       -3.779502    1.392425   -0.606750
      9          1           0       -3.602817   -0.670563   -0.606750
     10          6           0        3.061765   -2.518283    0.606750
     11          7           0        3.779502   -1.392425    0.606750
     12          1           0        3.602817   -3.455412    0.606750
     13          6           0        1.111720   -1.392425    0.606750
     14          7           0        1.727874   -2.576933    0.606750
     15          1           0        0.029616   -1.392425    0.606750
     16          6           0        3.061765   -0.266566    0.606750
     17          7           0        1.727874   -0.207916    0.606750
     18          1           0        3.602817    0.670563    0.606750
 ---------------------------------------------------------------------

 SCF Done:  E(RHF) =  -559.949643572     A.U. after    2 cycles

 The electronic state is 1-AG.
 Alpha  occ. eigenvalues --  -15.75891 -15.75873 -15.75847 -15.75846 -15.75722
 Alpha  occ. eigenvalues --  -15.75719 -11.47249 -11.47127 -11.46992 -11.46944
 Alpha  occ. eigenvalues --  -11.45788 -11.45701  -1.57231  -1.56871  -1.32824
 Alpha  occ. eigenvalues --   -1.32737  -1.32477  -1.32432  -0.96347  -0.96215
 Alpha  occ. eigenvalues --   -0.96057  -0.95972  -0.77937  -0.77327  -0.67618
 Alpha  occ. eigenvalues --   -0.67415  -0.61524  -0.61493  -0.60174  -0.60008
 Alpha  occ. eigenvalues --   -0.59667  -0.59109  -0.55939  -0.55105  -0.42196
 Alpha  occ. eigenvalues --   -0.42105  -0.41940  -0.41924  -0.38070  -0.37391
 Alpha  occ. eigenvalues --   -0.37083  -0.36795
 Alpha virt. eigenvalues --    0.03338   0.04627   0.05289   0.05576   0.07127
 Alpha virt. eigenvalues --    0.07274   0.09034   0.09142   0.09290   0.09407
 Alpha virt. eigenvalues --    0.09573   0.09923   0.10477   0.10764   0.10930

 Mulliken charges:
               1
     1  C    1.584331
     2  N   -2.936927
     3  H    1.784107
     4  C    1.327895
     5  N   -3.266233
     6  H    1.622591
     7  C    1.331092
     8  N   -3.128691
     9  H    1.681833
    10  C    1.327895
    11  N   -3.128691
    12  H    1.622591
    13  C    1.584331
    14  N   -3.266233
    15  H    1.784107
    16  C    1.331092
    17  N   -2.936927
    18  H    1.681833
 Sum of Mulliken charges =   0.00000

 Dipole moment (field-independent basis, Debye):
    X=              0.0000    Y=             -0.0000    Z=              0.0000  Tot=              0.0000

 Test job not archived.
 1\1\GINC-SE342\SP\RHF\Aug-CC-pVDZ\C6H6N6\OHZDE\08-Apr-2025\0\\#t hf au
 g-cc-pvdz iop(5/13=1,5/36=2,99/5=2) pseudo=read geom=check guess=(read
 ,tcheck) scf=(maxcycle=1)\\title\\0,1\C,0,-3.52347,13.924245,6.67425\N
 ,0,-4.139624,12.739737,6.67425\H,0,-2.441366,13.924245,6.67425\C,0,-5.
 473515,15.050104,6.67425\N,0,-4.139624,15.108753,6.67425\H,0,-6.014567
 ,15.987233,6.67425\C,0,-5.473515,12.798386,6.67425\N,0,-6.191252,13.92
 4245,6.67425\H,0,-6.014567,11.861257,6.67425\C,0,0.650015,10.013537,7.
 88775\N,0,1.367752,11.139396,7.88775\H,0,1.191067,9.076408,7.88775\C,0

 Normal termination of Gaussian 16 at Tue Apr  8 19:08:24 2025.
