 Gaussian 16, Revision C.01,

 ----------------------------------------------------------------------
 #t hf aug-cc-pvdz symm=none int=(grid=ultrafine) guess=(read,tcheck) s
 table=(opt,rrhf)
 ----------------------------------------------------------------------
 -----
 title
 -----
 Symbolic Z-matrix:
 Charge =  0 Multiplicity = 1

 SCF Done:  E(RHF) =  -610.989652003     A.U. after   15 cycles
 Normal termination of Gaussian 16 at Tue Apr  8 19:16:37 2025.
 Gaussian 16:  ES64L-G16RevC.01  3-Jul-2019

 ----------------------------------------------------------------------
 #t hf aug-cc-pvdz iop(5/13=1,5/36=2,99/5=2) pseudo=read geom=check gue
 ss=(read,tcheck) scf=(maxcycle=1)
 ----------------------------------------------------------------------
 -----
 title
 -----
 Structure from the checkpoint file:  "3B-69_23a_cyclobutylfuran_dimerAC_mol1.chk"
 Charge =  0 Multiplicity = 1

                         Standard orientation:
 ---------------------------------------------------------------------
 Center     Atomic      Atomic             Coordinates (Angstroms)
 Number     Number       Type             X           Y           Z
 ---------------------------------------------------------------------
      1          8           0       -2.890980   -1.645141    0.073967
      2          6           0       -2.566808   -0.926479   -1.065940
      3          1           0       -2.637683   -1.471301   -1.989087
      4          6           0       -2.232447    0.324170   -0.682442
      5          6           0       -1.771565    1.773744   -0.793315
      6          1           0       -0.749256    1.907263   -1.144377
      7          1           0       -2.424567    2.434308   -1.362012
      8          6           0       -1.932937    1.852322    0.783512
      9          1           0       -1.014540    2.052420    1.331428
     10          1           0       -2.707060    2.533605    1.130894
     11          6           0       -2.355072    0.394482    0.729564
     12          6           0       -2.751884   -0.814327    1.175109
     13          1           0       -2.989747   -1.258567    2.123952
     14          8           0        1.920290   -2.023033   -0.070119
     15          6           0        1.055558   -0.988900   -0.392236
     16          1           0        0.066435   -1.290068   -0.683763
     17          6           0        1.728470    0.171916   -0.241610
     18          6           0        1.991746    1.673924   -0.216560
     19          1           0        1.422453    2.229769    0.527166
     20          1           0        1.905101    2.184208   -1.174828
     21          6           0        3.471846    1.316943    0.231175
     22          1           0        3.757396    1.684965    1.214397
     23          1           0        4.244607    1.587766   -0.485472
     24          6           0        3.047371   -0.140275    0.178837
     25          6           0        3.146207   -1.480603    0.283449
     26          1           0        3.909476   -2.190491    0.543660
 ---------------------------------------------------------------------

 SCF Done:  E(RHF) =  -613.864678790     A.U. after    2 cycles

 The electronic state is 1-A.
 Alpha  occ. eigenvalues --  -21.09939 -21.09255 -11.50269 -11.49616 -11.46973
 Alpha  occ. eigenvalues --  -11.46855 -11.44681 -11.44492 -11.40831 -11.40212
 Alpha  occ. eigenvalues --  -11.39766 -11.39639 -11.36076 -11.35518  -1.81908
 Alpha  occ. eigenvalues --   -1.81164  -1.33360  -1.32846  -1.05198  -1.04703
 Alpha  occ. eigenvalues --   -1.04374  -1.04050  -0.92343  -0.91990  -0.81539
 Alpha  occ. eigenvalues --   -0.80922  -0.71946  -0.71390  -0.70153  -0.69693
 Alpha  occ. eigenvalues --   -0.64940  -0.64619  -0.55515  -0.55222  -0.53799
 Alpha  occ. eigenvalues --   -0.53782  -0.52746  -0.52427  -0.51967  -0.51628
 Alpha  occ. eigenvalues --   -0.46701  -0.46281  -0.41297  -0.40784  -0.39833
 Alpha  occ. eigenvalues --   -0.39359  -0.31674  -0.31364  -0.30766  -0.30254
 Alpha virt. eigenvalues --    0.03625   0.04207   0.04681   0.05272   0.05318
 Alpha virt. eigenvalues --    0.05823   0.06167   0.06798   0.06887   0.07442
 Alpha virt. eigenvalues --    0.08183   0.09128   0.09844   0.10573   0.11154

 Mulliken charges:
               1
     1  O   -3.692794
     2  C   -1.445615
     3  H    1.450863
     4  C    2.519973
     5  C   -3.919413
     6  H    1.734594
     7  H    1.162562
     8  C   -3.468016
     9  H    1.521624
    10  H    1.205919
    11  C    1.946060
    12  C   -0.587214
    13  H    1.410216
    14  O   -4.056469
    15  C    0.548145
    16  H    1.928344
    17  C    2.189851
    18  C   -4.249188
    19  H    1.481270
    20  H    1.455770
    21  C   -4.192103
    22  H    1.205661
    23  H    1.221365
    24  C    1.521680
    25  C   -0.263745
    26  H    1.370661
 Sum of Mulliken charges =  -0.00000

 Dipole moment (field-independent basis, Debye):
    X=              0.0313    Y=              0.8595    Z=              0.1560  Tot=              0.8741

 Test job not archived.
 1\1\GINC-SE423\SP\RHF\Aug-CC-pVDZ\C12H12O2\OHZDE\08-Apr-2025\0\\#t hf
 aug-cc-pvdz iop(5/13=1,5/36=2,99/5=2) pseudo=read geom=check guess=(re
 ad,tcheck) scf=(maxcycle=1)\\title\\0,1\O,0,-0.126301,16.441388,12.924
 526\C,0,-0.701266,17.4636,12.185981\H,0,-1.568703,17.187494,11.615566\
 C,0,0.02543,18.581936,12.396288\C,0,0.473934,20.034432,12.273536\H,0,0
 .824753,20.32698,11.284835\H,0,-0.238268,20.779526,12.625356\C,0,1.633
 898,19.669284,13.293216\H,0,2.642979,19.773757,12.900092\H,0,1.574915,
 20.176469,14.254138\C,0,1.077037,18.256376,13.291762\C,0,0.973511,16.9

 Normal termination of Gaussian 16 at Tue Apr  8 19:17:00 2025.
