 Gaussian 16, Revision C.01,

 ----------------------------------------------------------------------
 #t hf aug-cc-pvdz symm=none int=(grid=ultrafine) guess=(read,tcheck) s
 table=(opt,rrhf)
 ----------------------------------------------------------------------
 -----
 title
 -----
 Symbolic Z-matrix:
 Charge =  0 Multiplicity = 1

 SCF Done:  E(RHF) =  -299.743681657     A.U. after   14 cycles
 Normal termination of Gaussian 16 at Tue Apr  8 19:06:59 2025.
 Gaussian 16:  ES64L-G16RevC.01  3-Jul-2019

 ----------------------------------------------------------------------
 #t hf aug-cc-pvdz iop(5/13=1,5/36=2,99/5=2) pseudo=read geom=check gue
 ss=(read,tcheck) scf=(maxcycle=1)
 ----------------------------------------------------------------------
 -----
 title
 -----
 Structure from the checkpoint file:  "3B-69_14a_cyanoacetamide_dimerAC_mol3.chk"
 Charge =  0 Multiplicity = 1

                         Standard orientation:
 ---------------------------------------------------------------------
 Center     Atomic      Atomic             Coordinates (Angstroms)
 Number     Number       Type             X           Y           Z
 ---------------------------------------------------------------------
      1          6           0       -1.582478   -0.251012   -0.012987
      2          6           0       -0.279952   -0.866846    0.141214
      3          6           0        0.859133    0.153142    0.019186
      4          1           0       -0.184762   -1.675056   -0.582871
      5          1           0       -0.232632   -1.321462    1.134225
      6          1           0        2.881135    0.245901   -0.104343
      7          1           0        2.212777   -1.384224   -0.099706
      8          7           0       -2.615951    0.238652   -0.128840
      9          7           0        2.074360   -0.380695   -0.145108
     10          8           0        0.641800    1.364679    0.085731
 ---------------------------------------------------------------------

 SCF Done:  E(RHF) =  -301.064988622     A.U. after    2 cycles

 The electronic state is 1-A.
 Alpha  occ. eigenvalues --  -21.04445 -15.81053 -15.76081 -11.53655 -11.47670
 Alpha  occ. eigenvalues --  -11.42971  -1.71813  -1.38695  -1.31467  -1.15639
 Alpha  occ. eigenvalues --   -0.86218  -0.75357  -0.70711  -0.67996  -0.64326
 Alpha  occ. eigenvalues --   -0.53937  -0.51638  -0.50810  -0.43599  -0.43233
 Alpha  occ. eigenvalues --   -0.34566  -0.31142
 Alpha virt. eigenvalues --    0.01890   0.04074   0.04941   0.05462   0.09320
 Alpha virt. eigenvalues --    0.09985   0.11199   0.11554   0.12004   0.12761
 Alpha virt. eigenvalues --    0.14255   0.14652   0.15394   0.16735   0.17914

 Mulliken charges:
               1
     1  C    2.653839
     2  C   -3.597519
     3  C    4.959621
     4  H    1.477377
     5  H    1.479048
     6  H    0.732574
     7  H    0.777766
     8  N   -2.502732
     9  N   -3.047888
    10  O   -2.932087
 Sum of Mulliken charges =  -0.00000

 Dipole moment (field-independent basis, Debye):
    X=              4.6119    Y=             -3.3008    Z=              0.3937  Tot=              5.6851

 Test job not archived.
 1\1\GINC-SE047\SP\RHF\Aug-CC-pVDZ\C3H4N2O1\OHZDE\08-Apr-2025\0\\#t hf
 aug-cc-pvdz iop(5/13=1,5/36=2,99/5=2) pseudo=read geom=check guess=(re
 ad,tcheck) scf=(maxcycle=1)\\title\\0,1\C,0,5.578016,24.531209,4.18029
 6\C,0,5.959025,25.683875,4.971369\C,0,5.523547,27.00179,4.318499\H,0,7
 .033398,25.650121,5.14786\H,0,5.473121,25.603895,5.947323\H,0,5.745653
 ,29.007129,4.522561\H,0,6.694405,28.03801,5.647154\N,0,5.270009,23.616
 585,3.555913\N,0,6.093512,28.097115,4.83246\O,0,4.699107,27.019141,3.4
 02268\\Version=ES64L-G16RevC.01\State=1-A\HF=-301.0649886\RMSD=3.112e-

 Normal termination of Gaussian 16 at Tue Apr  8 19:07:03 2025.
