 Gaussian 16, Revision C.01,

 ----------------------------------------------------------------------
 #t hf aug-cc-pvdz symm=none int=(grid=ultrafine) guess=(read,tcheck) s
 table=(opt,rrhf)
 ----------------------------------------------------------------------
 -----
 title
 -----
 Symbolic Z-matrix:
 Charge =  0 Multiplicity = 1

 SCF Done:  E(RHF) =  -390.627011433     A.U. after   13 cycles
 Normal termination of Gaussian 16 at Tue Apr  8 19:08:01 2025.
 Gaussian 16:  ES64L-G16RevC.01  3-Jul-2019

 ----------------------------------------------------------------------
 #t hf aug-cc-pvdz iop(5/13=1,5/36=2,99/5=2) pseudo=read geom=check gue
 ss=(read,tcheck) scf=(maxcycle=1)
 ----------------------------------------------------------------------
 -----
 title
 -----
 Structure from the checkpoint file:  "3B-69_16a_triazolidinedione_dimerAB_mol3.chk"
 Charge =  0 Multiplicity = 1

                         Standard orientation:
 ---------------------------------------------------------------------
 Center     Atomic      Atomic             Coordinates (Angstroms)
 Number     Number       Type             X           Y           Z
 ---------------------------------------------------------------------
      1          7           0       -0.703068    1.122029    0.073607
      2          7           0        0.694843    1.134570   -0.079528
      3          6           0        1.138306   -0.157375   -0.018206
      4          7           0        0.005884   -0.944133   -0.030228
      5          6           0       -1.130884   -0.165075    0.017486
      6          8           0        2.296901   -0.561116    0.014440
      7          8           0       -2.296585   -0.565797    0.012534
      8          1           0       -1.252395    1.861246   -0.382507
      9          1           0        1.209254    1.875777    0.395990
     10          1           0        0.012464   -1.974269    0.028090
 ---------------------------------------------------------------------

 SCF Done:  E(RHF) =  -392.273225954     A.U. after    2 cycles

 The electronic state is 1-A.
 Alpha  occ. eigenvalues --  -21.05033 -21.04702 -15.82629 -15.82083 -15.81401
 Alpha  occ. eigenvalues --  -11.54567 -11.52639  -1.77223  -1.71777  -1.60066
 Alpha  occ. eigenvalues --   -1.38542  -1.23117  -0.93026  -0.89280  -0.74195
 Alpha  occ. eigenvalues --   -0.73079  -0.66553  -0.65684  -0.54500  -0.52504
 Alpha  occ. eigenvalues --   -0.51674  -0.49915  -0.34419  -0.33843  -0.30731
 Alpha  occ. eigenvalues --   -0.30366
 Alpha virt. eigenvalues --    0.02858   0.05097   0.05554   0.09507   0.09817
 Alpha virt. eigenvalues --    0.10866   0.12096   0.12466   0.12799   0.14251
 Alpha virt. eigenvalues --    0.14676   0.15449   0.16517   0.16839   0.18408

 Mulliken charges:
               1
     1  N   -1.943526
     2  N   -1.878037
     3  C    4.870157
     4  N   -2.232651
     5  C    4.918082
     6  O   -2.947018
     7  O   -2.942435
     8  H    0.726102
     9  H    0.729426
    10  H    0.699900
 Sum of Mulliken charges =   0.00000

 Dipole moment (field-independent basis, Debye):
    X=              0.0477    Y=              1.8844    Z=              0.0628  Tot=              1.8861

 Test job not archived.
 1\1\GINC-SE247\SP\RHF\Aug-CC-pVDZ\C2H3N3O2\OHZDE\08-Apr-2025\0\\#t hf
 aug-cc-pvdz iop(5/13=1,5/36=2,99/5=2) pseudo=read geom=check guess=(re
 ad,tcheck) scf=(maxcycle=1)\\title\\0,1\N,0,4.758199,16.90365,2.170497
 \N,0,5.216569,15.90098,1.297392\C,0,4.80265,16.21938,0.033733\N,0,4.27
 9392,17.492314,0.119488\C,0,4.256265,17.923919,1.428927\O,0,4.89088,15
 .54291,-0.98657\O,0,3.856001,19.016772,1.835033\H,0,5.310494,17.110082
 ,3.01228\H,0,5.163831,14.936932,1.625956\H,0,3.862617,18.004684,-0.673
 229\\Version=ES64L-G16RevC.01\State=1-A\HF=-392.273226\RMSD=7.367e-02\

 Normal termination of Gaussian 16 at Tue Apr  8 19:08:04 2025.
