 Gaussian 16, Revision C.01,

 ----------------------------------------------------------------------
 #t hf aug-cc-pvdz symm=none int=(grid=ultrafine) guess=(read,tcheck) s
 table=(opt,rrhf)
 ----------------------------------------------------------------------
 -----
 title
 -----
 Symbolic Z-matrix:
 Charge =  0 Multiplicity = 1

 SCF Done:  E(RHF) =  -678.773949728     A.U. after   14 cycles
 Normal termination of Gaussian 16 at Tue Apr  8 19:04:22 2025.
 Gaussian 16:  ES64L-G16RevC.01  3-Jul-2019

 ----------------------------------------------------------------------
 #t hf aug-cc-pvdz iop(5/13=1,5/36=2,99/5=2) pseudo=read geom=check gue
 ss=(read,tcheck) scf=(maxcycle=1)
 ----------------------------------------------------------------------
 -----
 title
 -----
 Structure from the checkpoint file:  "3B-69_08a_vinylene_carbonate_dimerAB_mol1.chk"
 Charge =  0 Multiplicity = 1

                         Standard orientation:
 ---------------------------------------------------------------------
 Center     Atomic      Atomic             Coordinates (Angstroms)
 Number     Number       Type             X           Y           Z
 ---------------------------------------------------------------------
      1          6           0        4.169557    0.422391   -0.291456
      2          6           0        3.274517    1.363131   -0.039649
      3          6           0        2.256208   -0.595047    0.167347
      4          1           0        5.211809    0.428384   -0.545913
      5          1           0        3.294693    2.434702   -0.023820
      6          8           0        3.550898   -0.821200   -0.157167
      7          8           0        2.062969    0.742163    0.269468
      8          8           0        1.414072   -1.432392    0.328312
      9          6           0       -1.359037    0.452470    0.012553
     10          6           0       -1.597401   -0.841077   -0.126780
     11          6           0       -3.557910    0.189852   -0.038172
     12          1           0       -0.468829    1.048015    0.075241
     13          1           0       -0.981178   -1.714549   -0.205762
     14          8           0       -2.581982    1.122805    0.061016
     15          8           0       -2.979984   -1.027612   -0.178467
     16          8           0       -4.737487    0.397876    0.001489
 ---------------------------------------------------------------------

 SCF Done:  E(RHF) =  -681.571945172     A.U. after    2 cycles

 The electronic state is 1-A.
 Alpha  occ. eigenvalues --  -21.16805 -21.16612 -21.12865 -21.12679 -21.08670
 Alpha  occ. eigenvalues --  -21.04799 -11.58556 -11.54445 -11.53651 -11.50236
 Alpha  occ. eigenvalues --  -11.47311 -11.43350  -2.00696  -1.96724  -1.77433
 Alpha  occ. eigenvalues --   -1.73492  -1.72445  -1.68309  -1.15550  -1.11399
 Alpha  occ. eigenvalues --   -0.90496  -0.86551  -0.86261  -0.82315  -0.77414
 Alpha  occ. eigenvalues --   -0.73187  -0.69306  -0.65597  -0.65467  -0.61745
 Alpha  occ. eigenvalues --   -0.55699  -0.54045  -0.51524  -0.50046  -0.49754
 Alpha  occ. eigenvalues --   -0.47331  -0.46472  -0.45911  -0.43346  -0.42579
 Alpha  occ. eigenvalues --   -0.35052  -0.31004  -0.29931  -0.25912
 Alpha virt. eigenvalues --    0.01756   0.03339   0.05387   0.06085   0.07528
 Alpha virt. eigenvalues --    0.08053   0.08642   0.09534   0.10433   0.10855
 Alpha virt. eigenvalues --    0.11435   0.11621   0.11936   0.12233   0.12712

 Mulliken charges:
               1
     1  C    0.465242
     2  C    0.456284
     3  C    6.341748
     4  H    1.290933
     5  H    1.352489
     6  O   -3.372797
     7  O   -3.311578
     8  O   -3.208945
     9  C    0.168069
    10  C    0.243622
    11  C    6.604897
    12  H    1.415136
    13  H    1.463874
    14  O   -3.306194
    15  O   -3.285318
    16  O   -3.317462
 Sum of Mulliken charges =  -0.00000

 Dipole moment (field-independent basis, Debye):
    X=              7.2339    Y=              1.6514    Z=             -0.5069  Tot=              7.4373

 Test job not archived.
 1\1\GINC-SE185\SP\RHF\Aug-CC-pVDZ\C6H4O6\OHZDE\08-Apr-2025\0\\#t hf au
 g-cc-pvdz iop(5/13=1,5/36=2,99/5=2) pseudo=read geom=check guess=(read
 ,tcheck) scf=(maxcycle=1)\\title\\0,1\C,0,0.845927,15.309211,1.553806\
 C,0,1.46459,14.71303,2.55945\C,0,0.932131,13.146144,1.084452\H,0,0.584
 258,16.325703,1.331665\H,0,1.890128,15.047782,3.484534\O,0,0.509604,14
 .34051,0.607341\O,0,1.545281,13.348493,2.275671\O,0,0.782676,12.082704
 ,0.552468\C,0,1.292572,10.034211,3.17663\C,0,0.673909,9.43803,2.170986
 \C,0,1.206368,7.871144,3.645984\H,0,1.554241,11.050703,3.398771\H,0,0.

 Normal termination of Gaussian 16 at Tue Apr  8 19:04:34 2025.
