 Gaussian 16, Revision C.01,

 ----------------------------------------------------------------------
 #t hf aug-cc-pvdz symm=none int=(grid=ultrafine) guess=(read,tcheck) s
 table=(opt,rrhf)
 ----------------------------------------------------------------------
 -----
 title
 -----
 Symbolic Z-matrix:
 Charge =  0 Multiplicity = 1

 SCF Done:  E(RHF) =  -674.549592043     A.U. after   14 cycles

 1\1\GINC-SE081\Stability\RHF\Aug-CC-pVDZ\C9H12N6\OHZDE\08-Apr-2025\0\\
 #t hf aug-cc-pvdz symm=none int=(grid=ultrafine) guess=(read,tcheck) s
 table=(opt,rrhf)\\title\\0,1\N,0,1.225156,1.790098,0.793667\C,0,0.3145
 68,1.191681,1.590327\N,0,0.098973,1.892803,2.692789\C,0,0.918281,2.995
 57,2.592821\C,0,1.622758,2.943251,1.422717\H,0,1.619151,1.410346,-0.09
 3212\H,0,-0.165462,0.258212,1.353791\H,0,0.967252,3.744556,3.360834\H,
 0,2.357781,3.610084,1.012244\N,0,1.588037,3.575902,7.757855\C,0,2.4986
 25,4.174319,6.961195\N,0,2.71422,3.473197,5.858733\C,0,1.894912,2.3704

 Normal termination of Gaussian 16 at Tue Apr  8 19:13:15 2025.
 Gaussian 16:  ES64L-G16RevC.01  3-Jul-2019

 ----------------------------------------------------------------------
 #t hf aug-cc-pvdz iop(5/13=1,5/36=2,99/5=2) pseudo=read geom=check gue
 ss=(read,tcheck) scf=(maxcycle=1)
 ----------------------------------------------------------------------
 -----
 title
 -----
 Structure from the checkpoint file:  "3B-69_10a_imidazole_trimer_mol1.chk"
 Charge =  0 Multiplicity = 1

                         Standard orientation:
 ---------------------------------------------------------------------
 Center     Atomic      Atomic             Coordinates (Angstroms)
 Number     Number       Type             X           Y           Z
 ---------------------------------------------------------------------
      1          7           0       -4.130794   -0.274913   -0.310035
      2          6           0       -3.140647   -1.189700   -0.241379
      3          7           0       -2.059767   -0.692223    0.339732
      4          6           0       -2.379053    0.609900    0.655779
      5          6           0       -3.657746    0.881958    0.256910
      6          1           0       -5.053383   -0.392661   -0.780102
      7          1           0       -3.226042   -2.193056   -0.620492
      8          1           0       -1.679448    1.272574    1.129740
      9          1           0       -4.239776    1.782194    0.321943
     10          7           0        2.518431    2.427922    0.240585
     11          6           0        1.528283    3.342709    0.171929
     12          7           0        0.447403    2.845232   -0.409183
     13          6           0        0.766688    1.543109   -0.725229
     14          6           0        2.045382    1.271051   -0.326360
     15          1           0        3.441018    2.545669    0.710652
     16          1           0        1.613677    4.346065    0.551042
     17          1           0        0.067084    0.880435   -1.199190
     18          1           0        2.627412    0.370815   -0.391393
     19          7           0        0.567009   -1.829760    0.194554
     20          6           0        1.487882   -1.968428    1.171644
     21          7           0        2.649926   -2.380274    0.688409
     22          6           0        2.458297   -2.508390   -0.669610
     23          6           0        1.173548   -2.168477   -0.989057
     24          1           0       -0.399541   -1.454987    0.300973
     25          1           0        1.294428   -1.761117    2.209593
     26          1           0        3.244604   -2.817118   -1.332656
     27          1           0        0.668711   -2.133093   -1.936316
 ---------------------------------------------------------------------

 SCF Done:  E(RHF) =  -677.682437167     A.U. after    2 cycles

 The electronic state is 1-A.
 Alpha  occ. eigenvalues --  -15.82031 -15.79141 -15.75676 -15.73706 -15.70640
 Alpha  occ. eigenvalues --  -15.69232 -11.46423 -11.44578 -11.44103 -11.42096
 Alpha  occ. eigenvalues --  -11.41168 -11.39856 -11.38881 -11.36283 -11.35408
 Alpha  occ. eigenvalues --   -1.58076  -1.54983  -1.53214  -1.28738  -1.25188
 Alpha  occ. eigenvalues --   -1.23386  -1.09664  -1.06698  -1.05709  -0.86497
 Alpha  occ. eigenvalues --   -0.83352  -0.83137  -0.81248  -0.79724  -0.78437
 Alpha  occ. eigenvalues --   -0.78135  -0.75208  -0.73756  -0.61694  -0.59154
 Alpha  occ. eigenvalues --   -0.58787  -0.58339  -0.57782  -0.55560  -0.55188
 Alpha  occ. eigenvalues --   -0.55037  -0.55020  -0.54048  -0.52312  -0.51151
 Alpha  occ. eigenvalues --   -0.41013  -0.39033  -0.37458  -0.35943  -0.35729
 Alpha  occ. eigenvalues --   -0.34117  -0.32219  -0.30006  -0.28198
 Alpha virt. eigenvalues --    0.02697   0.04151   0.04568   0.05190   0.05725
 Alpha virt. eigenvalues --    0.05835   0.06271   0.06517   0.07411   0.07822
 Alpha virt. eigenvalues --    0.08678   0.09257   0.10241   0.10836   0.11316

 Mulliken charges:
               1
     1  N   -3.708375
     2  C    1.242227
     3  N   -3.053111
     4  C    0.067834
     5  C   -0.006131
     6  H    0.878931
     7  H    1.662480
     8  H    1.608326
     9  H    1.184016
    10  N   -3.340189
    11  C    0.943245
    12  N   -3.227148
    13  C    0.259961
    14  C   -0.411231
    15  H    0.876551
    16  H    1.596860
    17  H    1.676124
    18  H    1.518141
    19  N   -2.871024
    20  C    0.913435
    21  N   -3.315924
    22  C   -0.283032
    23  C   -0.463731
    24  H    1.717176
    25  H    1.743253
    26  H    1.337923
    27  H    1.453412
 Sum of Mulliken charges =  -0.00000

 Dipole moment (field-independent basis, Debye):
    X=             -5.1256    Y=              1.6371    Z=             -0.4286  Tot=              5.3978

 Test job not archived.
 1\1\GINC-SE081\SP\RHF\Aug-CC-pVDZ\C9H12N6\OHZDE\08-Apr-2025\0\\#t hf a
 ug-cc-pvdz iop(5/13=1,5/36=2,99/5=2) pseudo=read geom=check guess=(rea
 d,tcheck) scf=(maxcycle=1)\\title\\0,1\N,0,1.225156,1.790098,0.793667\
 C,0,0.314568,1.191681,1.590327\N,0,0.098973,1.892803,2.692789\C,0,0.91
 8281,2.99557,2.592821\C,0,1.622758,2.943251,1.422717\H,0,1.619151,1.41
 0346,-0.093212\H,0,-0.165462,0.258212,1.353791\H,0,0.967252,3.744556,3
 .360834\H,0,2.357781,3.610084,1.012244\N,0,1.588037,3.575902,7.757855\
 C,0,2.498625,4.174319,6.961195\N,0,2.71422,3.473197,5.858733\C,0,1.894

 Normal termination of Gaussian 16 at Tue Apr  8 19:13:41 2025.
