 Gaussian 16, Revision C.01,

 ----------------------------------------------------------------------
 #t hf aug-cc-pvdz symm=none int=(grid=ultrafine) guess=(read,tcheck) s
 table=(opt,rrhf)
 ----------------------------------------------------------------------
 -----
 title
 -----
 Symbolic Z-matrix:
 Charge =  0 Multiplicity = 1

 SCF Done:  E(RHF) =  -378.471232544     A.U. after   13 cycles
 Normal termination of Gaussian 16 at Tue Apr  8 19:09:57 2025.
 Gaussian 16:  ES64L-G16RevC.01  3-Jul-2019

 ----------------------------------------------------------------------
 #t hf aug-cc-pvdz iop(5/13=1,5/36=2,99/5=2) pseudo=read geom=check gue
 ss=(read,tcheck) scf=(maxcycle=1)
 ----------------------------------------------------------------------
 -----
 title
 -----
 Structure from the checkpoint file:  "3B-69_18a_succinic_anhydride_dimerBC_mol3.chk"
 Charge =  0 Multiplicity = 1

                         Standard orientation:
 ---------------------------------------------------------------------
 Center     Atomic      Atomic             Coordinates (Angstroms)
 Number     Number       Type             X           Y           Z
 ---------------------------------------------------------------------
      1          8           0       -0.001720   -0.990953   -0.023203
      2          8           0        2.224252   -0.720638    0.013409
      3          8           0       -2.223681   -0.721965    0.016766
      4          6           0        1.144903   -0.206704   -0.002537
      5          6           0        0.763701    1.248900    0.001025
      6          6           0       -0.763504    1.253525   -0.005349
      7          6           0       -1.145193   -0.203176   -0.004110
      8          1           0        1.185844    1.721876    0.886243
      9          1           0        1.217106    1.731640   -0.861703
     10          1           0       -1.196507    1.726531   -0.885663
     11          1           0       -1.196697    1.733130    0.871180
 ---------------------------------------------------------------------

 SCF Done:  E(RHF) =  -380.076507950     A.U. after    2 cycles

 The electronic state is 1-A.
 Alpha  occ. eigenvalues --  -21.13397 -21.08191 -21.08140 -11.57091 -11.54493
 Alpha  occ. eigenvalues --  -11.48791 -11.42461  -1.90538  -1.74291  -1.66421
 Alpha  occ. eigenvalues --   -1.26006  -1.03874  -0.85596  -0.81026  -0.71509
 Alpha  occ. eigenvalues --   -0.64827  -0.61724  -0.59284  -0.57103  -0.54772
 Alpha  occ. eigenvalues --   -0.51161  -0.47658  -0.45564  -0.34622  -0.34100
 Alpha  occ. eigenvalues --   -0.29614
 Alpha virt. eigenvalues --    0.02182   0.04850   0.04997   0.05479   0.07943
 Alpha virt. eigenvalues --    0.10032   0.10241   0.10755   0.11323   0.12330
 Alpha virt. eigenvalues --    0.13989   0.14521   0.14685   0.14965   0.15355

 Mulliken charges:
               1
     1  O   -2.829442
     2  O   -3.331474
     3  O   -3.322400
     4  C    5.235925
     5  C   -3.213851
     6  C   -3.238913
     7  C    5.226200
     8  H    1.368026
     9  H    1.367770
    10  H    1.375193
    11  H    1.362966
 Sum of Mulliken charges =   0.00000

 Dipole moment (field-independent basis, Debye):
    X=              0.0010    Y=              2.6252    Z=             -0.0246  Tot=              2.6253

 Test job not archived.
 1\1\GINC-SE028\SP\RHF\Aug-CC-pVDZ\C4H4O3\OHZDE\08-Apr-2025\0\\#t hf au
 g-cc-pvdz iop(5/13=1,5/36=2,99/5=2) pseudo=read geom=check guess=(read
 ,tcheck) scf=(maxcycle=1)\\title\\0,1\O,0,8.046799,4.76221,7.411095\O,
 0,8.910411,5.314924,9.405598\O,0,7.664829,3.962487,5.355468\C,0,9.0215
 67,4.681444,8.397767\C,0,10.110376,3.74008,7.959089\C,0,9.683116,3.267
 078,6.571236\C,0,8.382065,3.980201,6.313577\H,0,11.058144,4.275993,7.9
 51684\H,0,10.20297,2.944644,8.695039\H,0,9.510611,2.193563,6.508114\H,
 0,10.392349,3.531872,5.788386\\Version=ES64L-G16RevC.01\State=1-A\HF=-

 Normal termination of Gaussian 16 at Tue Apr  8 19:10:00 2025.
