 Gaussian 16, Revision C.01,

 ----------------------------------------------------------------------
 #t hf aug-cc-pvdz symm=none int=(grid=ultrafine) guess=(read,tcheck) s
 table=(opt,rrhf)
 ----------------------------------------------------------------------
 -----
 title
 -----
 Symbolic Z-matrix:
 Charge =  0 Multiplicity = 1

 SCF Done:  E(RHF) =  -295.905575109     A.U. after   15 cycles
 Normal termination of Gaussian 16 at Tue Apr  8 19:07:52 2025.
 Gaussian 16:  ES64L-G16RevC.01  3-Jul-2019

 ----------------------------------------------------------------------
 #t hf aug-cc-pvdz iop(5/13=1,5/36=2,99/5=2) pseudo=read geom=check gue
 ss=(read,tcheck) scf=(maxcycle=1)
 ----------------------------------------------------------------------
 -----
 title
 -----
 Structure from the checkpoint file:  "3B-69_15a_cyanoguanidine_dimerAB_mol2.chk"
 Charge =  0 Multiplicity = 1

                         Standard orientation:
 ---------------------------------------------------------------------
 Center     Atomic      Atomic             Coordinates (Angstroms)
 Number     Number       Type             X           Y           Z
 ---------------------------------------------------------------------
      1          7           0        2.612949    0.091052    0.013013
      2          6           0        1.507408   -0.288383   -0.001872
      3          7           0        0.321304   -0.804618   -0.013674
      4          6           0       -0.768575   -0.020049   -0.002005
      5          7           0       -0.721198    1.316681   -0.018850
      6          7           0       -1.957146   -0.621519   -0.000220
      7          1           0       -1.580392    1.839542    0.103388
      8          1           0        0.152811    1.828426   -0.006139
      9          1           0       -2.794675   -0.049867    0.006361
     10          1           0       -2.002109   -1.638685    0.057766
 ---------------------------------------------------------------------

 SCF Done:  E(RHF) =  -297.236440002     A.U. after    2 cycles

 The electronic state is 1-A.
 Alpha  occ. eigenvalues --  -15.81935 -15.81782 -15.73027 -15.70661 -11.54543
 Alpha  occ. eigenvalues --  -11.42706  -1.55230  -1.35343  -1.32671  -1.21385
 Alpha  occ. eigenvalues --   -0.92327  -0.80380  -0.75547  -0.66762  -0.64591
 Alpha  occ. eigenvalues --   -0.62781  -0.52028  -0.48273  -0.47639  -0.41643
 Alpha  occ. eigenvalues --   -0.34349  -0.30367
 Alpha virt. eigenvalues --    0.01555   0.03724   0.04951   0.07316   0.09504
 Alpha virt. eigenvalues --    0.10455   0.11204   0.13437   0.13742   0.13951
 Alpha virt. eigenvalues --    0.14766   0.15855   0.16025   0.16406   0.16635

 Mulliken charges:
               1
     1  N   -2.739204
     2  C    3.272642
     3  N   -2.522839
     4  C    4.464362
     5  N   -2.441697
     6  N   -2.719907
     7  H    0.719523
     8  H    0.661491
     9  H    0.609835
    10  H    0.695793
 Sum of Mulliken charges =  -0.00000

 Dipole moment (field-independent basis, Debye):
    X=             -8.1171    Y=              1.9396    Z=              0.2420  Tot=              8.3491

 Test job not archived.
 1\1\GINC-SE220\SP\RHF\Aug-CC-pVDZ\C2H4N4\OHZDE\08-Apr-2025\0\\#t hf au
 g-cc-pvdz iop(5/13=1,5/36=2,99/5=2) pseudo=read geom=check guess=(read
 ,tcheck) scf=(maxcycle=1)\\title\\0,1\N,0,3.187601,4.376465,-1.496641\
 C,0,2.374574,4.877151,-0.822315\N,0,1.447054,5.48737,-0.158373\C,0,1.1
 85537,5.156956,1.116757\N,0,1.867065,4.229109,1.797929\N,0,0.206646,5.
 817607,1.733021\H,0,1.540497,3.95731,2.717722\H,0,2.611069,3.685335,1.
 377566\H,0,-0.007785,5.587082,2.696952\H,0,-0.346843,6.49436,1.207981\
 \Version=ES64L-G16RevC.01\State=1-A\HF=-297.23644\RMSD=9.711e-02\Dipol

 Normal termination of Gaussian 16 at Tue Apr  8 19:07:55 2025.
