 Gaussian 16, Revision C.01,

 ----------------------------------------------------------------------
 #t hf aug-cc-pvdz symm=none int=(grid=ultrafine) guess=(read,tcheck) s
 table=(opt,rrhf)
 ----------------------------------------------------------------------
 -----
 title
 -----
 Symbolic Z-matrix:
 Charge =  0 Multiplicity = 1

 SCF Done:  E(RHF) =  -610.990085459     A.U. after   14 cycles
 Normal termination of Gaussian 16 at Tue Apr  8 19:18:12 2025.
 Gaussian 16:  ES64L-G16RevC.01  3-Jul-2019

 ----------------------------------------------------------------------
 #t hf aug-cc-pvdz iop(5/13=1,5/36=2,99/5=2) pseudo=read geom=check gue
 ss=(read,tcheck) scf=(maxcycle=1)
 ----------------------------------------------------------------------
 -----
 title
 -----
 Structure from the checkpoint file:  "3B-69_23b_cyclobutylfuran_dimerBC_mol1.chk"
 Charge =  0 Multiplicity = 1

                         Standard orientation:
 ---------------------------------------------------------------------
 Center     Atomic      Atomic             Coordinates (Angstroms)
 Number     Number       Type             X           Y           Z
 ---------------------------------------------------------------------
      1          6           0        3.628976    1.358381    0.005881
      2          6           0        2.591250    0.494908    0.016889
      3          6           0        1.148588    0.005705    0.027042
      4          6           0        1.739594   -1.465922    0.033352
      5          6           0        3.118825   -0.822303    0.001406
      6          6           0        4.465552   -0.728967   -0.022048
      7          8           0        4.794139    0.617683   -0.019631
      8          1           0        3.762361    2.423502    0.014711
      9          1           0        0.580595    0.252149   -0.869497
     10          1           0        0.571317    0.273093    0.910815
     11          1           0        1.476640   -2.060203   -0.837529
     12          1           0        1.515673   -2.032097    0.934781
     13          1           0        5.307278   -1.395930   -0.028627
     14          6           0       -4.281584   -0.856954    0.006621
     15          6           0       -3.714707    0.368292    0.004633
     16          6           0       -3.613553    1.888234    0.020179
     17          6           0       -2.040003    1.696738   -0.027597
     18          6           0       -2.306123    0.197869   -0.016975
     19          6           0       -2.049219   -1.127606   -0.024242
     20          8           0       -3.265641   -1.792093   -0.009651
     21          1           0       -5.276420   -1.260186    0.014294
     22          1           0       -3.976173    2.356820    0.934547
     23          1           0       -4.041673    2.393332   -0.844333
     24          1           0       -1.512589    2.087822    0.838218
     25          1           0       -1.572385    2.075671   -0.933695
     26          1           0       -1.188181   -1.768949   -0.050283
 ---------------------------------------------------------------------

 SCF Done:  E(RHF) =  -613.864917368     A.U. after    2 cycles

 The electronic state is 1-A.
 Alpha  occ. eigenvalues --  -21.10085 -21.09789 -11.50388 -11.50129 -11.47832
 Alpha  occ. eigenvalues --  -11.46893 -11.45354 -11.44681 -11.41316 -11.40699
 Alpha  occ. eigenvalues --  -11.40248 -11.39802 -11.36603 -11.35801  -1.82313
 Alpha  occ. eigenvalues --   -1.81951  -1.33724  -1.32986  -1.05267  -1.04997
 Alpha  occ. eigenvalues --   -1.04749  -1.04513  -0.92397  -0.92208  -0.82067
 Alpha  occ. eigenvalues --   -0.81008  -0.72212  -0.71874  -0.70555  -0.69948
 Alpha  occ. eigenvalues --   -0.65345  -0.64925  -0.55419  -0.55094  -0.54643
 Alpha  occ. eigenvalues --   -0.54393  -0.52999  -0.52771  -0.52108  -0.51887
 Alpha  occ. eigenvalues --   -0.46824  -0.46555  -0.41521  -0.41186  -0.40018
 Alpha  occ. eigenvalues --   -0.39628  -0.31632  -0.31382  -0.31165  -0.30969
 Alpha virt. eigenvalues --    0.03356   0.04327   0.05012   0.05044   0.05096
 Alpha virt. eigenvalues --    0.05448   0.06077   0.06320   0.06982   0.07192
 Alpha virt. eigenvalues --    0.07598   0.09313   0.09858   0.10231   0.11298

 Mulliken charges:
               1
     1  C   -0.638522
     2  C    2.094040
     3  C   -3.528191
     4  C   -4.122345
     5  C    1.530185
     6  C   -0.227265
     7  O   -3.947425
     8  H    1.313340
     9  H    1.763167
    10  H    1.713287
    11  H    1.432684
    12  H    1.402414
    13  H    1.345293
    14  C   -0.310129
    15  C    0.728898
    16  C   -4.330827
    17  C   -3.924617
    18  C    3.303697
    19  C    0.224405
    20  O   -4.153391
    21  H    1.393069
    22  H    1.207753
    23  H    1.228984
    24  H    1.395083
    25  H    1.375431
    26  H    1.730982
 Sum of Mulliken charges =  -0.00000

 Dipole moment (field-independent basis, Debye):
    X=             -0.5543    Y=              0.4046    Z=              0.0150  Tot=              0.6864

 Test job not archived.
 1\1\GINC-SE462\SP\RHF\Aug-CC-pVDZ\C12H12O2\OHZDE\08-Apr-2025\0\\#t hf
 aug-cc-pvdz iop(5/13=1,5/36=2,99/5=2) pseudo=read geom=check guess=(re
 ad,tcheck) scf=(maxcycle=1)\\title\\0,1\C,0,9.633653,11.628619,4.88436
 2\C,0,8.707305,11.331693,5.820469\C,0,7.822565,10.485713,6.72725\C,0,7
 .238541,11.850722,7.284636\C,0,8.19906,12.55267,6.334786\C,0,8.830902,
 13.563949,5.70152\O,0,9.722723,13.004064,4.800063\H,0,10.281234,11.085
 372,4.222642\H,0,8.363944,9.898852,7.468624\H,0,7.100363,9.851695,6.21
 5159\H,0,7.416903,12.017496,8.343466\H,0,6.183244,12.004402,7.07016\H,

 Normal termination of Gaussian 16 at Tue Apr  8 19:18:34 2025.
