 Gaussian 16, Revision C.01,

 ----------------------------------------------------------------------
 #t hf aug-cc-pvdz symm=none int=(grid=ultrafine) guess=(read,tcheck) s
 table=(opt,rrhf)
 ----------------------------------------------------------------------
 -----
 title
 -----
 Symbolic Z-matrix:
 Charge =  0 Multiplicity = 1

 SCF Done:  E(RHF) =  -115.059316510     A.U. after   11 cycles
 Normal termination of Gaussian 16 at Tue Apr  8 19:00:38 2025.
 Gaussian 16:  ES64L-G16RevC.01  3-Jul-2019

 ----------------------------------------------------------------------
 #t hf aug-cc-pvdz iop(5/13=1,5/36=2,99/5=2) pseudo=read geom=check gue
 ss=(read,tcheck) scf=(maxcycle=1)
 ----------------------------------------------------------------------
 -----
 title
 -----
 Structure from the checkpoint file:  "3B-69_03a_methanol_ethyne_dimerAC_mol2.chk"
 Charge =  0 Multiplicity = 1

                         Standard orientation:
 ---------------------------------------------------------------------
 Center     Atomic      Atomic             Coordinates (Angstroms)
 Number     Number       Type             X           Y           Z
 ---------------------------------------------------------------------
      1          8           0       -0.752173    0.128444   -0.001817
      2          1           0       -1.164199   -0.770170    0.004242
      3          6           0        0.673874   -0.020736   -0.000750
      4          1           0        1.010917   -0.420247    0.958620
      5          1           0        1.111981    0.965635   -0.141332
      6          1           0        1.015444   -0.678351   -0.802495
 ---------------------------------------------------------------------

 SCF Done:  E(RHF) =  -115.582920774     A.U. after    2 cycles

 The electronic state is 1-A.
 Alpha  occ. eigenvalues --  -21.06380 -11.39887  -1.68630  -0.97374  -0.63109
 Alpha  occ. eigenvalues --   -0.59613  -0.53817  -0.41017  -0.31610
 Alpha virt. eigenvalues --    0.03426   0.05894   0.06130   0.06633   0.11796
 Alpha virt. eigenvalues --    0.14559   0.15946   0.16138   0.21198   0.22165
 Alpha virt. eigenvalues --    0.24909   0.27782   0.28904   0.30826   0.34569

 Mulliken charges:
               1
     1  O   -2.206535
     2  H    0.831176
     3  C   -2.273514
     4  H    1.187150
     5  H    1.263947
     6  H    1.197775
 Sum of Mulliken charges =  -0.00000

 Dipole moment (field-independent basis, Debye):
    X=              0.4546    Y=             -0.6806    Z=             -0.0187  Tot=              0.8187

 Test job not archived.
 1\1\GINC-SE364\SP\RHF\Aug-CC-pVDZ\C1H4O1\OHZDE\08-Apr-2025\0\\#t hf au
 g-cc-pvdz iop(5/13=1,5/36=2,99/5=2) pseudo=read geom=check guess=(read
 ,tcheck) scf=(maxcycle=1)\\title\\0,1\O,0,3.211523,12.095308,13.092198
 \H,0,4.065726,12.592587,13.07324\C,0,3.425896,10.840226,13.751501\H,0,
 4.053811,10.192498,13.135247\H,0,2.456381,10.363499,13.883414\H,0,3.89
 4402,10.968294,14.729265\\Version=ES64L-G16RevC.01\State=1-A\HF=-115.5
 829208\RMSD=5.886e-02\Dipole=0.267031,-0.1179312,0.1361124\Quadrupole=
 0.5226289,0.1416326,-0.6642616,1.3737171,-0.352035,-0.0886827\PG=C01 [

 Normal termination of Gaussian 16 at Tue Apr  8 19:00:40 2025.
