 Gaussian 16, Revision C.01,

 ----------------------------------------------------------------------
 #t hf aug-cc-pvdz symm=none int=(grid=ultrafine) guess=(read,tcheck) s
 table=(opt,rrhf)
 ----------------------------------------------------------------------
 -----
 title
 -----
 Symbolic Z-matrix:
 Charge =  0 Multiplicity = 1

 SCF Done:  E(RHF) =  -376.427524582     A.U. after   13 cycles
 Normal termination of Gaussian 16 at Tue Apr  8 19:01:55 2025.
 Gaussian 16:  ES64L-G16RevC.01  3-Jul-2019

 ----------------------------------------------------------------------
 #t hf aug-cc-pvdz iop(5/13=1,5/36=2,99/5=2) pseudo=read geom=check gue
 ss=(read,tcheck) scf=(maxcycle=1)
 ----------------------------------------------------------------------
 -----
 title
 -----
 Structure from the checkpoint file:  "3B-69_07b_oxalic_acid_dimerAB_mol3.chk"
 Charge =  0 Multiplicity = 1

                         Standard orientation:
 ---------------------------------------------------------------------
 Center     Atomic      Atomic             Coordinates (Angstroms)
 Number     Number       Type             X           Y           Z
 ---------------------------------------------------------------------
      1          8           0       -1.061967   -1.393698   -0.060228
      2          8           0       -0.219281   -0.272646    1.702400
      3          6           0       -0.393630   -0.508179    0.430154
      4          1           0       -0.688540   -0.914709    2.294864
      5          8           0        1.061967    1.393698    0.060228
      6          8           0        0.219281    0.272646   -1.702400
      7          6           0        0.393630    0.508179   -0.430154
      8          1           0        0.688540    0.914709   -2.294864
 ---------------------------------------------------------------------

 SCF Done:  E(RHF) =  -377.947742517     A.U. after    2 cycles

 The electronic state is 1-AG.
 Alpha  occ. eigenvalues --  -21.15253 -21.15206 -21.08188 -21.08150 -11.56788
 Alpha  occ. eigenvalues --  -11.52616  -1.88570  -1.82808  -1.69230  -1.66715
 Alpha  occ. eigenvalues --   -1.00884  -0.80863  -0.67827  -0.63407  -0.62760
 Alpha  occ. eigenvalues --   -0.61270  -0.53751  -0.51666  -0.45508  -0.37414
 Alpha  occ. eigenvalues --   -0.36557  -0.35141  -0.28759
 Alpha virt. eigenvalues --    0.03228   0.05195   0.09786   0.10591   0.10628
 Alpha virt. eigenvalues --    0.10952   0.11839   0.11893   0.13315   0.14583
 Alpha virt. eigenvalues --    0.17523   0.18676   0.19507   0.20974   0.23319

 Mulliken charges:
               1
     1  O   -2.811456
     2  O   -2.883532
     3  C    4.767126
     4  H    0.927862
     5  O   -2.811456
     6  O   -2.883532
     7  C    4.767126
     8  H    0.927862
 Sum of Mulliken charges =   0.00000

 Dipole moment (field-independent basis, Debye):
    X=             -0.0000    Y=              0.0000    Z=              0.0000  Tot=              0.0000

 Test job not archived.
 1\1\GINC-SE009\SP\RHF\Aug-CC-pVDZ\C2H2O4\OHZDE\08-Apr-2025\0\\#t hf au
 g-cc-pvdz iop(5/13=1,5/36=2,99/5=2) pseudo=read geom=check guess=(read
 ,tcheck) scf=(maxcycle=1)\\title\\0,1\O,0,-1.061967,-1.393698,11.71837
 2\O,0,-0.219281,-0.272646,13.481\C,0,-0.39363,-0.508179,12.208754\H,0,
 -0.68854,-0.914709,14.073464\O,0,1.061967,1.393698,11.838828\O,0,0.219
 281,0.272646,10.0762\C,0,0.39363,0.508179,11.348446\H,0,0.68854,0.9147
 09,9.483736\\Version=ES64L-G16RevC.01\State=1-AG\HF=-377.9477425\RMSD=
 1.486e-01\Dipole=0.,0.,0.\Quadrupole=-1.7593405,-2.5968992,4.3562397,-

 Normal termination of Gaussian 16 at Tue Apr  8 19:01:57 2025.
