 Gaussian 16, Revision C.01,

 ----------------------------------------------------------------------
 #t hf aug-cc-pvdz symm=none int=(grid=ultrafine) guess=(read,tcheck) s
 table=(opt,rrhf)
 ----------------------------------------------------------------------
 -----
 title
 -----
 Symbolic Z-matrix:
 Charge =  0 Multiplicity = 1

 SCF Done:  E(RHF) =  -449.691868094     A.U. after   13 cycles
 Normal termination of Gaussian 16 at Tue Apr  8 19:05:41 2025.
 Gaussian 16:  ES64L-G16RevC.01  3-Jul-2019

 ----------------------------------------------------------------------
 #t hf aug-cc-pvdz iop(5/13=1,5/36=2,99/5=2) pseudo=read geom=check gue
 ss=(read,tcheck) scf=(maxcycle=1)
 ----------------------------------------------------------------------
 -----
 title
 -----
 Structure from the checkpoint file:  "3B-69_10c_imidazole_dimerAB_mol1.chk"
 Charge =  0 Multiplicity = 1

                         Standard orientation:
 ---------------------------------------------------------------------
 Center     Atomic      Atomic             Coordinates (Angstroms)
 Number     Number       Type             X           Y           Z
 ---------------------------------------------------------------------
      1          7           0        5.919562   -0.390777    0.033725
      2          6           0        4.781322   -1.114426   -0.018064
      3          7           0        3.712245   -0.334567   -0.066742
      4          6           0        4.196684    0.954651   -0.042448
      5          6           0        5.561821    0.934151    0.021972
      6          1           0        6.886681   -0.761996    0.147197
      7          1           0        4.755726   -2.190094   -0.012926
      8          1           0        3.548476    1.810720   -0.056433
      9          1           0        6.277149    1.733790    0.069895
     10          7           0       -3.865418   -0.399737    0.051204
     11          6           0       -5.003658   -1.123386   -0.000585
     12          7           0       -6.072735   -0.343526   -0.049263
     13          6           0       -5.588297    0.945692   -0.024968
     14          6           0       -4.223159    0.925192    0.039451
     15          1           0       -2.898300   -0.770955    0.164676
     16          1           0       -5.029255   -2.199053    0.004553
     17          1           0       -6.236503    1.801761   -0.038954
     18          1           0       -3.507831    1.724831    0.087374
 ---------------------------------------------------------------------

 SCF Done:  E(RHF) =  -451.768701727     A.U. after    2 cycles

 The electronic state is 1-A.
 Alpha  occ. eigenvalues --  -15.80611 -15.79612 -15.71917 -15.70925 -11.44053
 Alpha  occ. eigenvalues --  -11.43076 -11.42413 -11.41435 -11.37640 -11.36689
 Alpha  occ. eigenvalues --   -1.56426  -1.55444  -1.26574  -1.25579  -1.08276
 Alpha  occ. eigenvalues --   -1.07316  -0.84707  -0.83717  -0.81146  -0.80179
 Alpha  occ. eigenvalues --   -0.76863  -0.75890  -0.60118  -0.59144  -0.57883
 Alpha  occ. eigenvalues --   -0.56924  -0.56775  -0.55793  -0.53698  -0.52730
 Alpha  occ. eigenvalues --   -0.38682  -0.37668  -0.37032  -0.36041  -0.31035
 Alpha  occ. eigenvalues --   -0.30086
 Alpha virt. eigenvalues --    0.02667   0.03955   0.04724   0.04771   0.05127
 Alpha virt. eigenvalues --    0.06153   0.06390   0.07221   0.10446   0.10482
 Alpha virt. eigenvalues --    0.10566   0.11159   0.11267   0.11705   0.11925

 Mulliken charges:
               1
     1  N   -2.978135
     2  C    1.296242
     3  N   -3.158633
     4  C    0.237770
     5  C   -0.151771
     6  H    0.799972
     7  H    1.533973
     8  H    1.269843
     9  H    1.150131
    10  N   -2.956237
    11  C    1.280239
    12  N   -3.145938
    13  C    0.210587
    14  C   -0.129167
    15  H    0.818021
    16  H    1.516351
    17  H    1.232600
    18  H    1.174152
 Sum of Mulliken charges =   0.00000

 Dipole moment (field-independent basis, Debye):
    X=              7.2396    Y=             -0.6229    Z=              0.5695  Tot=              7.2886

 Test job not archived.
 1\1\GINC-SE459\SP\RHF\Aug-CC-pVDZ\C6H8N4\OHZDE\08-Apr-2025\0\\#t hf au
 g-cc-pvdz iop(5/13=1,5/36=2,99/5=2) pseudo=read geom=check guess=(read
 ,tcheck) scf=(maxcycle=1)\\title\\0,1\N,0,1.225156,1.790098,0.793667\C
 ,0,0.314568,1.191681,1.590327\N,0,0.098973,1.892803,2.692789\C,0,0.918
 281,2.99557,2.592821\C,0,1.622758,2.943251,1.422717\H,0,1.619151,1.410
 346,-0.093212\H,0,-0.165462,0.258212,1.353791\H,0,0.967252,3.744556,3.
 360834\H,0,2.357781,3.610084,1.012244\N,0,-3.530651,1.790098,9.345189\
 C,0,-4.441239,1.191681,10.141848\N,0,-4.656834,1.892803,11.244311\C,0,

 Normal termination of Gaussian 16 at Tue Apr  8 19:05:46 2025.
