 Gaussian 16, Revision C.01,

 ----------------------------------------------------------------------
 #t hf aug-cc-pvdz symm=none int=(grid=ultrafine) guess=(read,tcheck) s
 table=(opt,rrhf)
 ----------------------------------------------------------------------
 -----
 title
 -----
 Symbolic Z-matrix:
 Charge =  0 Multiplicity = 1

 SCF Done:  E(RHF) =  -449.701487603     A.U. after   14 cycles
 Normal termination of Gaussian 16 at Tue Apr  8 19:06:52 2025.
 Gaussian 16:  ES64L-G16RevC.01  3-Jul-2019

 ----------------------------------------------------------------------
 #t hf aug-cc-pvdz iop(5/13=1,5/36=2,99/5=2) pseudo=read geom=check gue
 ss=(read,tcheck) scf=(maxcycle=1)
 ----------------------------------------------------------------------
 -----
 title
 -----
 Structure from the checkpoint file:  "3B-69_10c_imidazole_dimerAC_mol1.chk"
 Charge =  0 Multiplicity = 1

                         Standard orientation:
 ---------------------------------------------------------------------
 Center     Atomic      Atomic             Coordinates (Angstroms)
 Number     Number       Type             X           Y           Z
 ---------------------------------------------------------------------
      1          7           0        3.441796   -0.638641   -0.184330
      2          6           0        2.172638   -0.850052   -0.592355
      3          7           0        1.373228    0.139160   -0.223736
      4          6           0        2.176998    1.026545    0.457334
      5          6           0        3.459812    0.555990    0.491011
      6          1           0        4.244278   -1.295655   -0.286085
      7          1           0        1.858152   -1.720032   -1.141877
      8          1           0        1.793012    1.930548    0.891563
      9          1           0        4.347836    0.961930    0.938269
     10          7           0       -1.489341    0.012912   -0.154599
     11          6           0       -2.390180    0.940082   -0.542910
     12          7           0       -3.621123    0.595301   -0.197388
     13          6           0       -3.496092   -0.615497    0.447350
     14          6           0       -2.181076   -0.986508    0.482751
     15          1           0       -0.453126    0.078435   -0.243843
     16          1           0       -2.130129    1.846169   -1.061678
     17          1           0       -4.341068   -1.136555    0.856903
     18          1           0       -1.703479   -1.849319    0.908040
 ---------------------------------------------------------------------

 SCF Done:  E(RHF) =  -451.787942103     A.U. after    2 cycles

 The electronic state is 1-A.
 Alpha  occ. eigenvalues --  -15.82823 -15.75324 -15.74458 -15.68603 -11.46514
 Alpha  occ. eigenvalues --  -11.45227 -11.41182 -11.39837 -11.39086 -11.34619
 Alpha  occ. eigenvalues --   -1.58913  -1.52700  -1.29493  -1.22782  -1.10585
 Alpha  occ. eigenvalues --   -1.05024  -0.87264  -0.83942  -0.81219  -0.78955
 Alpha  occ. eigenvalues --   -0.77792  -0.73416  -0.62472  -0.60004  -0.59187
 Alpha  occ. eigenvalues --   -0.56569  -0.56104  -0.54589  -0.53768  -0.50614
 Alpha  occ. eigenvalues --   -0.41548  -0.39802  -0.35347  -0.33395  -0.33165
 Alpha  occ. eigenvalues --   -0.27929
 Alpha virt. eigenvalues --    0.02108   0.03961   0.04487   0.05536   0.05969
 Alpha virt. eigenvalues --    0.06665   0.06890   0.08734   0.09742   0.10198
 Alpha virt. eigenvalues --    0.10828   0.11334   0.12372   0.13051   0.13383

 Mulliken charges:
               1
     1  N   -3.486496
     2  C    1.316626
     3  N   -3.085318
     4  C    0.308079
     5  C   -0.168715
     6  H    0.842511
     7  H    1.622393
     8  H    1.346569
     9  H    1.167533
    10  N   -3.197929
    11  C    1.353901
    12  N   -3.469678
    13  C    0.067844
    14  C   -0.102711
    15  H    1.360871
    16  H    1.620636
    17  H    1.235038
    18  H    1.268846
 Sum of Mulliken charges =  -0.00000

 Dipole moment (field-independent basis, Debye):
    X=              8.8891    Y=             -2.1046    Z=              0.0960  Tot=              9.1353

 Test job not archived.
 1\1\GINC-SE086\SP\RHF\Aug-CC-pVDZ\C6H8N4\OHZDE\08-Apr-2025\0\\#t hf au
 g-cc-pvdz iop(5/13=1,5/36=2,99/5=2) pseudo=read geom=check guess=(read
 ,tcheck) scf=(maxcycle=1)\\title\\0,1\N,0,1.225156,1.790098,0.793667\C
 ,0,0.314568,1.191681,1.590327\N,0,0.098973,1.892803,2.692789\C,0,0.918
 281,2.99557,2.592821\C,0,1.622758,2.943251,1.422717\H,0,1.619151,1.410
 346,-0.093212\H,0,-0.165462,0.258212,1.353791\H,0,0.967252,3.744556,3.
 360834\H,0,2.357781,3.610084,1.012244\N,0,-1.152747,0.892902,5.069428\
 C,0,-2.063336,1.491319,5.866087\N,0,-2.27893,0.790197,6.96855\C,0,-1.4

 Normal termination of Gaussian 16 at Tue Apr  8 19:07:01 2025.
