 Gaussian 16, Revision C.01,

 ----------------------------------------------------------------------
 #t hf aug-cc-pvdz symm=none int=(grid=ultrafine) guess=(read,tcheck) s
 table=(opt,rrhf)
 ----------------------------------------------------------------------
 -----
 title
 -----
 Symbolic Z-matrix:
 Charge =  0 Multiplicity = 1

 SCF Done:  E(RHF) =  -756.941987956     A.U. after   13 cycles
 Normal termination of Gaussian 16 at Tue Apr  8 19:13:07 2025.
 Gaussian 16:  ES64L-G16RevC.01  3-Jul-2019

 ----------------------------------------------------------------------
 #t hf aug-cc-pvdz iop(5/13=1,5/36=2,99/5=2) pseudo=read geom=check gue
 ss=(read,tcheck) scf=(maxcycle=1)
 ----------------------------------------------------------------------
 -----
 title
 -----
 Structure from the checkpoint file:  "3B-69_18b_succinic_anhydride_dimerBC_mol1.chk"
 Charge =  0 Multiplicity = 1

                         Standard orientation:
 ---------------------------------------------------------------------
 Center     Atomic      Atomic             Coordinates (Angstroms)
 Number     Number       Type             X           Y           Z
 ---------------------------------------------------------------------
      1          8           0       -5.808521   -0.968157    0.182015
      2          8           0       -3.794092   -0.501400    1.050102
      3          8           0       -7.881782   -0.894054   -0.658912
      4          6           0       -4.810601   -0.086036    0.577284
      5          6           0       -5.250294    1.328500    0.312960
      6          6           0       -6.651179    1.198337   -0.281174
      7          6           0       -6.914187   -0.284186   -0.306016
      8          1           0       -5.236504    1.883036    1.249881
      9          1           0       -4.526297    1.802881   -0.345604
     10          1           0       -6.734102    1.584081   -1.296311
     11          1           0       -7.420226    1.683719    0.317953
     12          8           0        5.943397   -1.006023   -0.061442
     13          8           0        7.957825   -0.539266    0.806645
     14          8           0        3.870136   -0.931920   -0.902369
     15          6           0        6.941316   -0.123902    0.333827
     16          6           0        6.501624    1.290634    0.069503
     17          6           0        5.100738    1.160471   -0.524631
     18          6           0        4.837731   -0.322052   -0.549473
     19          1           0        6.515413    1.845170    1.006424
     20          1           0        7.225621    1.765015   -0.589061
     21          1           0        5.017815    1.546215   -1.539768
     22          1           0        4.331692    1.645854    0.074496
 ---------------------------------------------------------------------

 SCF Done:  E(RHF) =  -760.154885411     A.U. after    2 cycles

 The electronic state is 1-A.
 Alpha  occ. eigenvalues --  -21.13340 -21.13287 -21.08131 -21.08102 -21.08094
 Alpha  occ. eigenvalues --  -21.08013 -11.57059 -11.56994 -11.54446 -11.54390
 Alpha  occ. eigenvalues --  -11.48777 -11.48722 -11.42450 -11.42394  -1.90477
 Alpha  occ. eigenvalues --   -1.90424  -1.74230  -1.74175  -1.66362  -1.66306
 Alpha  occ. eigenvalues --   -1.25987  -1.25931  -1.03848  -1.03792  -0.85550
 Alpha  occ. eigenvalues --   -0.85496  -0.81000  -0.80946  -0.71490  -0.71434
 Alpha  occ. eigenvalues --   -0.64790  -0.64733  -0.61690  -0.61635  -0.59265
 Alpha  occ. eigenvalues --   -0.59209  -0.57058  -0.57004  -0.54728  -0.54672
 Alpha  occ. eigenvalues --   -0.51106  -0.51049  -0.47608  -0.47556  -0.45521
 Alpha  occ. eigenvalues --   -0.45466  -0.34567  -0.34513  -0.34034  -0.33980
 Alpha  occ. eigenvalues --   -0.29559  -0.29503
 Alpha virt. eigenvalues --    0.02094   0.02272   0.04376   0.04779   0.04880
 Alpha virt. eigenvalues --    0.05150   0.05335   0.05926   0.07812   0.07998
 Alpha virt. eigenvalues --    0.09577   0.10116   0.10175   0.10743   0.10894

 Mulliken charges:
               1
     1  O   -2.832062
     2  O   -3.332081
     3  O   -3.326719
     4  C    5.236343
     5  C   -3.214742
     6  C   -3.245315
     7  C    5.234079
     8  H    1.368919
     9  H    1.372010
    10  H    1.375932
    11  H    1.363633
    12  O   -2.832663
    13  O   -3.334644
    14  O   -3.322185
    15  C    5.240288
    16  C   -3.218918
    17  C   -3.244448
    18  C    5.229212
    19  H    1.369831
    20  H    1.368192
    21  H    1.376415
    22  H    1.368923
 Sum of Mulliken charges =   0.00000

 Dipole moment (field-independent basis, Debye):
    X=             -0.3090    Y=              5.1469    Z=             -0.4757  Tot=              5.1781

 Test job not archived.
 1\1\GINC-SE048\SP\RHF\Aug-CC-pVDZ\C8H8O6\OHZDE\08-Apr-2025\0\\#t hf au
 g-cc-pvdz iop(5/13=1,5/36=2,99/5=2) pseudo=read geom=check guess=(read
 ,tcheck) scf=(maxcycle=1)\\title\\0,1\O,0,8.046799,11.79151,7.411095\O
 ,0,8.910411,12.344224,9.405598\O,0,7.664829,10.991787,5.355468\C,0,9.0
 21567,11.710744,8.397767\C,0,10.110376,10.76938,7.959089\C,0,9.683116,
 10.296378,6.571236\C,0,8.382065,11.009501,6.313577\H,0,11.058144,11.30
 5293,7.951684\H,0,10.20297,9.973944,8.695039\H,0,9.510611,9.222863,6.5
 08114\H,0,10.392349,10.561172,5.788386\O,0,8.046799,11.79151,19.165595

 Normal termination of Gaussian 16 at Tue Apr  8 19:13:17 2025.
