 Gaussian 16, Revision C.01,

 ----------------------------------------------------------------------
 #t hf aug-cc-pvdz symm=none int=(grid=ultrafine) guess=(read,tcheck) s
 table=(opt,rrhf)
 ----------------------------------------------------------------------
 -----
 title
 -----
 Symbolic Z-matrix:
 Charge =  0 Multiplicity = 1

 SCF Done:  E(RHF) =  -836.196533539     A.U. after   12 cycles
 Normal termination of Gaussian 16 at Tue Apr  8 19:16:29 2025.
 Gaussian 16:  ES64L-G16RevC.01  3-Jul-2019

 ----------------------------------------------------------------------
 #t hf aug-cc-pvdz iop(5/13=1,5/36=2,99/5=2) pseudo=read geom=check gue
 ss=(read,tcheck) scf=(maxcycle=1)
 ----------------------------------------------------------------------
 -----
 title
 -----
 Structure from the checkpoint file:  "3B-69_13a_triazine_trimer_mol1.chk"
 Charge =  0 Multiplicity = 1

                         Standard orientation:
 ---------------------------------------------------------------------
 Center     Atomic      Atomic             Coordinates (Angstroms)
 Number     Number       Type             X           Y           Z
 ---------------------------------------------------------------------
      1          6           0       -0.000000   -1.300030    0.000000
      2          7           0        0.000000   -0.683876    1.184508
      3          1           0       -0.000000   -2.382134    0.000000
      4          6           0        0.000000    0.650015   -1.125859
      5          7           0        0.000000   -0.683876   -1.184508
      6          1           0        0.000000    1.191067   -2.062988
      7          6           0        0.000000    0.650015    1.125859
      8          7           0        0.000000    1.367752   -0.000000
      9          1           0        0.000000    1.191067    2.062988
     10          6           0       -3.640500   -0.650015    1.125859
     11          7           0       -3.640500   -1.367752    0.000000
     12          1           0       -3.640500   -1.191067    2.062988
     13          6           0       -3.640500    1.300030   -0.000000
     14          7           0       -3.640500    0.683876    1.184508
     15          1           0       -3.640500    2.382134   -0.000000
     16          6           0       -3.640500   -0.650015   -1.125859
     17          7           0       -3.640500    0.683876   -1.184508
     18          1           0       -3.640500   -1.191067   -2.062988
     19          6           0        3.640500   -0.650015    1.125859
     20          7           0        3.640500   -1.367752    0.000000
     21          1           0        3.640500   -1.191067    2.062988
     22          6           0        3.640500    1.300030   -0.000000
     23          7           0        3.640500    0.683876    1.184508
     24          1           0        3.640500    2.382134   -0.000000
     25          6           0        3.640500   -0.650015   -1.125859
     26          7           0        3.640500    0.683876   -1.184508
     27          1           0        3.640500   -1.191067   -2.062988
 ---------------------------------------------------------------------

 SCF Done:  E(RHF) =  -839.923461277     A.U. after    2 cycles

 The electronic state is 1-A.
 Alpha  occ. eigenvalues --  -15.75922 -15.75871 -15.75850 -15.75837 -15.75837
 Alpha  occ. eigenvalues --  -15.75826 -15.75826 -15.75760 -15.75760 -11.47861
 Alpha  occ. eigenvalues --  -11.47861 -11.47440 -11.47440 -11.47284 -11.47284
 Alpha  occ. eigenvalues --  -11.46271 -11.45856 -11.45835  -1.57525  -1.56880
 Alpha  occ. eigenvalues --   -1.56657  -1.32994  -1.32994  -1.32793  -1.32793
 Alpha  occ. eigenvalues --   -1.32664  -1.32664  -0.96533  -0.96533  -0.96291
 Alpha  occ. eigenvalues --   -0.96291  -0.96002  -0.96002  -0.77873  -0.77523
 Alpha  occ. eigenvalues --   -0.77480  -0.67584  -0.67528  -0.67458  -0.62276
 Alpha  occ. eigenvalues --   -0.61741  -0.60412  -0.59829  -0.59829  -0.59819
 Alpha  occ. eigenvalues --   -0.59819  -0.59722  -0.59722  -0.55701  -0.55581
 Alpha  occ. eigenvalues --   -0.55475  -0.45001  -0.45001  -0.42333  -0.42333
 Alpha  occ. eigenvalues --   -0.39615  -0.39615  -0.37444  -0.37444  -0.37269
 Alpha  occ. eigenvalues --   -0.37269  -0.37206  -0.37206
 Alpha virt. eigenvalues --    0.03508   0.05134   0.05134   0.05274   0.05577
 Alpha virt. eigenvalues --    0.05577   0.06229   0.06229   0.06894   0.07339
 Alpha virt. eigenvalues --    0.07339   0.09236   0.09236   0.09864   0.09983

 Mulliken charges:
               1
     1  C    0.328365
     2  N   -2.523639
     3  H    2.196298
     4  C    0.328366
     5  N   -2.523639
     6  H    2.196298
     7  C    0.328366
     8  N   -2.523639
     9  H    2.196298
    10  C    1.115005
    11  N   -2.905027
    12  H    1.789510
    13  C    1.115005
    14  N   -2.905027
    15  H    1.789510
    16  C    1.115005
    17  N   -2.905027
    18  H    1.789510
    19  C    1.115005
    20  N   -2.905027
    21  H    1.789510
    22  C    1.115005
    23  N   -2.905027
    24  H    1.789510
    25  C    1.115005
    26  N   -2.905027
    27  H    1.789510
 Sum of Mulliken charges =   0.00000

 Dipole moment (field-independent basis, Debye):
    X=             -0.0000    Y=             -0.0000    Z=             -0.0000  Tot=              0.0000

 Test job not archived.
 1\1\GINC-SE127\SP\RHF\Aug-CC-pVDZ\C9H9N9\OHZDE\08-Apr-2025\0\\#t hf au
 g-cc-pvdz iop(5/13=1,5/36=2,99/5=2) pseudo=read geom=check guess=(read
 ,tcheck) scf=(maxcycle=1)\\title\\0,1\C,0,-3.52347,8.354547,9.10125\N,
 0,-4.139624,7.170039,9.10125\H,0,-2.441366,8.354547,9.10125\C,0,-5.473
 515,9.480406,9.10125\N,0,-4.139624,9.539055,9.10125\H,0,-6.014567,10.4
 17535,9.10125\C,0,-5.473515,7.228688,9.10125\N,0,-6.191252,8.354547,9.
 10125\H,0,-6.014567,6.291559,9.10125\C,0,-4.173485,7.228688,5.46075\N,
 0,-3.455748,8.354547,5.46075\H,0,-3.632433,6.291559,5.46075\C,0,-6.123

 Normal termination of Gaussian 16 at Tue Apr  8 19:17:03 2025.
