 Gaussian 16, Revision C.01,

 ----------------------------------------------------------------------
 #t hf aug-cc-pvdz symm=none int=(grid=ultrafine) guess=(read,tcheck) s
 table=(opt,rrhf)
 ----------------------------------------------------------------------
 -----
 title
 -----
 Symbolic Z-matrix:
 Charge =  0 Multiplicity = 1

 SCF Done:  E(RHF) =  -227.768350392     A.U. after   14 cycles
 Normal termination of Gaussian 16 at Tue Apr  8 19:00:39 2025.
 Gaussian 16:  ES64L-G16RevC.01  3-Jul-2019

 ----------------------------------------------------------------------
 #t hf aug-cc-pvdz iop(5/13=1,5/36=2,99/5=2) pseudo=read geom=check gue
 ss=(read,tcheck) scf=(maxcycle=1)
 ----------------------------------------------------------------------
 -----
 title
 -----
 Structure from the checkpoint file:  "3B-69_02b_formaldehyde_dimerAC_mol1.chk"
 Charge =  0 Multiplicity = 1

                         Standard orientation:
 ---------------------------------------------------------------------
 Center     Atomic      Atomic             Coordinates (Angstroms)
 Number     Number       Type             X           Y           Z
 ---------------------------------------------------------------------
      1          8           0       -1.243954   -0.565405   -0.026527
      2          6           0       -2.172530    0.212653   -0.007834
      3          1           0       -2.357692    0.902486   -0.844190
      4          1           0       -2.866365    0.271450    0.840772
      5          8           0        2.139617   -0.430967   -0.044486
      6          6           0        1.467423    0.571059    0.065400
      7          1           0        1.155284    1.149968   -0.816121
      8          1           0        1.134107    0.944796    1.042241
 ---------------------------------------------------------------------

 SCF Done:  E(RHF) =  -228.730669091     A.U. after    2 cycles

 The electronic state is 1-A.
 Alpha  occ. eigenvalues --  -21.09324 -21.06397 -11.49086 -11.46545  -1.72313
 Alpha  occ. eigenvalues --   -1.69259  -0.91829  -0.89230  -0.68424  -0.65789
 Alpha  occ. eigenvalues --   -0.54715  -0.51787  -0.46824  -0.42923  -0.32230
 Alpha  occ. eigenvalues --   -0.29433
 Alpha virt. eigenvalues --    0.02559   0.04720   0.04988   0.06375   0.08580
 Alpha virt. eigenvalues --    0.10887   0.11502   0.12817   0.13758   0.15613
 Alpha virt. eigenvalues --    0.15941   0.17457   0.18416   0.20480   0.22013

 Mulliken charges:
               1
     1  O   -2.004076
     2  C   -0.632824
     3  H    1.332604
     4  H    1.347429
     5  O   -1.971432
     6  C   -0.738826
     7  H    1.332621
     8  H    1.334504
 Sum of Mulliken charges =   0.00000

 Dipole moment (field-independent basis, Debye):
    X=             -1.9230    Y=              1.4558    Z=              0.1011  Tot=              2.4140

 Test job not archived.
 1\1\GINC-SE247\SP\RHF\Aug-CC-pVDZ\C2H4O2\OHZDE\08-Apr-2025\0\\#t hf au
 g-cc-pvdz iop(5/13=1,5/36=2,99/5=2) pseudo=read geom=check guess=(read
 ,tcheck) scf=(maxcycle=1)\\title\\0,1\O,0,9.239955,15.408112,2.838485\
 C,0,8.89538,15.312746,1.680837\H,0,8.218033,14.511974,1.349761\H,0,9.2
 44063,16.01186,0.909698\O,0,11.037562,13.610505,5.075485\C,0,10.942196
 ,13.26593,3.917837\H,0,10.141424,12.588583,3.586761\H,0,11.64131,13.61
 4613,3.146698\\Version=ES64L-G16RevC.01\State=1-A\HF=-228.7306691\RMSD
 =5.039e-02\Dipole=-0.2706495,-0.0215987,-0.910095\Quadrupole=0.1741914

 Normal termination of Gaussian 16 at Tue Apr  8 19:00:41 2025.
