 Gaussian 16, Revision C.01,

 ----------------------------------------------------------------------
 #t hf aug-cc-pvdz symm=none int=(grid=ultrafine) guess=(read,tcheck) s
 table=(opt,rrhf)
 ----------------------------------------------------------------------
 -----
 title
 -----
 Symbolic Z-matrix:
 Charge =  0 Multiplicity = 1

 SCF Done:  E(RHF) =  -756.948793472     A.U. after   14 cycles
 Normal termination of Gaussian 16 at Tue Apr  8 19:14:09 2025.
 Gaussian 16:  ES64L-G16RevC.01  3-Jul-2019

 ----------------------------------------------------------------------
 #t hf aug-cc-pvdz iop(5/13=1,5/36=2,99/5=2) pseudo=read geom=check gue
 ss=(read,tcheck) scf=(maxcycle=1)
 ----------------------------------------------------------------------
 -----
 title
 -----
 Structure from the checkpoint file:  "3B-69_18a_succinic_anhydride_dimerAC_mol1.chk"
 Charge =  0 Multiplicity = 1

                         Standard orientation:
 ---------------------------------------------------------------------
 Center     Atomic      Atomic             Coordinates (Angstroms)
 Number     Number       Type             X           Y           Z
 ---------------------------------------------------------------------
      1          8           0       -1.773103    0.445304    0.337774
      2          8           0       -0.215572   -1.136158    0.017718
      3          8           0       -3.653549    1.656870    0.421970
      4          6           0       -1.371793   -0.834781   -0.023541
      5          6           0       -2.571536   -1.646134   -0.431503
      6          6           0       -3.756060   -0.692999   -0.287094
      7          6           0       -3.144922    0.599257    0.186456
      8          1           0       -2.430151   -1.995691   -1.452944
      9          1           0       -2.627644   -2.529908    0.199931
     10          1           0       -4.493667   -1.018623    0.445083
     11          1           0       -4.281231   -0.513141   -1.224019
     12          8           0        2.518830    0.036205   -0.971603
     13          8           0        1.717073    2.105665   -1.293914
     14          8           0        3.305746   -1.881444   -0.126355
     15          6           0        2.007081    1.244982   -0.516421
     16          6           0        1.919616    1.225195    0.985600
     17          6           0        2.457364   -0.145558    1.390917
     18          6           0        2.821340   -0.808191    0.088571
     19          1           0        2.511031    2.047915    1.384200
     20          1           0        0.888055    1.406671    1.278627
     21          1           0        1.727060   -0.767752    1.906386
     22          1           0        3.344610   -0.091627    2.020097
 ---------------------------------------------------------------------

 SCF Done:  E(RHF) =  -760.162917666     A.U. after    2 cycles

 The electronic state is 1-A.
 Alpha  occ. eigenvalues --  -21.14910 -21.11320 -21.09905 -21.09206 -21.06373
 Alpha  occ. eigenvalues --  -21.06149 -11.59944 -11.56232 -11.55663 -11.52877
 Alpha  occ. eigenvalues --  -11.50081 -11.46878 -11.43672 -11.40491  -1.92064
 Alpha  occ. eigenvalues --   -1.88434  -1.75928  -1.72478  -1.67994  -1.64506
 Alpha  occ. eigenvalues --   -1.27040  -1.23776  -1.05008  -1.01760  -0.86999
 Alpha  occ. eigenvalues --   -0.83578  -0.82212  -0.78929  -0.72533  -0.69199
 Alpha  occ. eigenvalues --   -0.66109  -0.62999  -0.62850  -0.60353  -0.59707
 Alpha  occ. eigenvalues --   -0.58437  -0.57398  -0.56148  -0.54927  -0.52882
 Alpha  occ. eigenvalues --   -0.52463  -0.49335  -0.49124  -0.46850  -0.45637
 Alpha  occ. eigenvalues --   -0.43651  -0.36347  -0.35685  -0.32770  -0.32328
 Alpha  occ. eigenvalues --   -0.30992  -0.27776
 Alpha virt. eigenvalues --    0.01770   0.03746   0.04491   0.04643   0.05010
 Alpha virt. eigenvalues --    0.05845   0.06165   0.07113   0.08118   0.08981
 Alpha virt. eigenvalues --    0.09514   0.10543   0.11005   0.11200   0.11801

 Mulliken charges:
               1
     1  O   -2.893248
     2  O   -3.759879
     3  O   -3.475039
     4  C    5.645089
     5  C   -3.238926
     6  C   -3.508277
     7  C    5.733555
     8  H    1.408785
     9  H    1.418386
    10  H    1.362038
    11  H    1.351013
    12  O   -2.880191
    13  O   -3.420532
    14  O   -3.479473
    15  C    5.335450
    16  C   -3.600115
    17  C   -3.419694
    18  C    5.465626
    19  H    1.339577
    20  H    1.687005
    21  H    1.600395
    22  H    1.328454
 Sum of Mulliken charges =   0.00000

 Dipole moment (field-independent basis, Debye):
    X=             -3.2083    Y=             -1.6025    Z=              1.4596  Tot=              3.8719

 Test job not archived.
 1\1\GINC-SE322\SP\RHF\Aug-CC-pVDZ\C8H8O6\OHZDE\08-Apr-2025\0\\#t hf au
 g-cc-pvdz iop(5/13=1,5/36=2,99/5=2) pseudo=read geom=check guess=(read
 ,tcheck) scf=(maxcycle=1)\\title\\0,1\O,0,8.283701,1.24756,10.220655\O
 ,0,7.420089,1.800274,8.226152\O,0,8.665671,0.447837,12.276282\C,0,7.30
 8933,1.166794,9.233983\C,0,6.220124,0.22543,9.672661\C,0,6.647384,-0.2
 47572,11.060514\C,0,7.948435,0.465551,11.318173\H,0,5.272356,0.761343,
 9.680066\H,0,6.12753,-0.570006,8.936711\H,0,6.819889,-1.321087,11.1236
 36\H,0,5.938151,0.017222,11.843364\O,0,8.046799,4.76221,7.411095\O,0,8

 Normal termination of Gaussian 16 at Tue Apr  8 19:14:25 2025.
