 Gaussian 16, Revision C.01,

 ----------------------------------------------------------------------
 #t hf aug-cc-pvdz symm=none int=(grid=ultrafine) guess=(read,tcheck) s
 table=(opt,rrhf)
 ----------------------------------------------------------------------
 -----
 title
 -----
 Symbolic Z-matrix:
 Charge =  0 Multiplicity = 1

 SCF Done:  E(RHF) =  -781.273004604     A.U. after   13 cycles
 Normal termination of Gaussian 16 at Tue Apr  8 19:12:53 2025.
 Gaussian 16:  ES64L-G16RevC.01  3-Jul-2019

 ----------------------------------------------------------------------
 #t hf aug-cc-pvdz iop(5/13=1,5/36=2,99/5=2) pseudo=read geom=check gue
 ss=(read,tcheck) scf=(maxcycle=1)
 ----------------------------------------------------------------------
 -----
 title
 -----
 Structure from the checkpoint file:  "3B-69_16b_triazolidinedione_dimerAC_mol1.chk"
 Charge =  0 Multiplicity = 1

                         Standard orientation:
 ---------------------------------------------------------------------
 Center     Atomic      Atomic             Coordinates (Angstroms)
 Number     Number       Type             X           Y           Z
 ---------------------------------------------------------------------
      1          7           0       -2.942915    1.491987   -0.093756
      2          7           0       -3.792176    0.380149    0.048861
      3          6           0       -3.019276   -0.747548    0.027163
      4          7           0       -1.712914   -0.308458    0.073336
      5          6           0       -1.657408    1.067805    0.008006
      6          8           0       -3.386221   -1.918446   -0.000399
      7          8           0       -0.640441    1.763890    0.034571
      8          1           0       -3.221675    2.380261    0.341562
      9          1           0       -4.678806    0.403175   -0.454606
     10          1           0       -0.889200   -0.929370    0.049105
     11          7           0        2.942914   -1.491986    0.093756
     12          7           0        3.792175   -0.380148   -0.048861
     13          6           0        3.019277    0.747548   -0.027164
     14          7           0        1.712914    0.308458   -0.073335
     15          6           0        1.657408   -1.067805   -0.008006
     16          8           0        3.386221    1.918447    0.000399
     17          8           0        0.640441   -1.763890   -0.034571
     18          1           0        3.221675   -2.380261   -0.341562
     19          1           0        4.678806   -0.403175    0.454606
     20          1           0        0.889200    0.929370   -0.049105
 ---------------------------------------------------------------------

 SCF Done:  E(RHF) =  -784.569851991     A.U. after    2 cycles

 The electronic state is 1-A.
 Alpha  occ. eigenvalues --  -21.05927 -21.05925 -21.04085 -21.04083 -15.82667
 Alpha  occ. eigenvalues --  -15.82630 -15.81899 -15.81887 -15.79300 -15.79294
 Alpha  occ. eigenvalues --  -11.55878 -11.55297 -11.52471 -11.52418  -1.78312
 Alpha  occ. eigenvalues --   -1.77185  -1.72538  -1.72140  -1.60260  -1.60160
 Alpha  occ. eigenvalues --   -1.37972  -1.37389  -1.23092  -1.23046  -0.93222
 Alpha  occ. eigenvalues --   -0.91823  -0.88946  -0.88823  -0.75309  -0.73711
 Alpha  occ. eigenvalues --   -0.72772  -0.72759  -0.66767  -0.66537  -0.64924
 Alpha  occ. eigenvalues --   -0.64821  -0.55522  -0.54937  -0.52687  -0.52441
 Alpha  occ. eigenvalues --   -0.51628  -0.51483  -0.49422  -0.49412  -0.36606
 Alpha  occ. eigenvalues --   -0.34855  -0.34187  -0.33122  -0.30904  -0.30637
 Alpha  occ. eigenvalues --   -0.30525  -0.30235
 Alpha virt. eigenvalues --    0.02955   0.03744   0.04976   0.05314   0.06053
 Alpha virt. eigenvalues --    0.08906   0.09515   0.09944   0.10298   0.11378
 Alpha virt. eigenvalues --    0.11440   0.12837   0.12868   0.12931   0.14120

 Mulliken charges:
               1
     1  N   -2.087957
     2  N   -2.312414
     3  C    5.180561
     4  N   -2.007171
     5  C    5.115062
     6  O   -3.089861
     7  O   -3.302995
     8  H    0.707389
     9  H    0.757825
    10  H    1.039560
    11  N   -2.087957
    12  N   -2.312415
    13  C    5.180560
    14  N   -2.007169
    15  C    5.115062
    16  O   -3.089861
    17  O   -3.302994
    18  H    0.707388
    19  H    0.757825
    20  H    1.039562
 Sum of Mulliken charges =  -0.00000

 Dipole moment (field-independent basis, Debye):
    X=              0.0000    Y=              0.0000    Z=             -0.0000  Tot=              0.0000

 Test job not archived.
 1\1\GINC-SE214\SP\RHF\Aug-CC-pVDZ\C4H6N6O4\OHZDE\08-Apr-2025\0\\#t hf
 aug-cc-pvdz iop(5/13=1,5/36=2,99/5=2) pseudo=read geom=check guess=(re
 ad,tcheck) scf=(maxcycle=1)\\title\\0,1\N,0,-0.050072,2.63415,3.305578
 \N,0,-0.508443,1.631479,4.178684\C,0,-0.094523,1.94988,5.442343\N,0,0.
 428735,3.222814,5.356588\C,0,0.451861,3.654419,4.047148\O,0,-0.182753,
 1.27341,6.462645\O,0,0.852126,4.747272,3.641043\H,0,-0.602367,2.840582
 ,2.463796\H,0,-0.455705,0.667432,3.850119\H,0,0.845509,3.735184,6.1493
 04\N,0,2.542325,6.87885,7.646573\N,0,3.000696,7.881521,6.773467\C,0,2.

 Normal termination of Gaussian 16 at Tue Apr  8 19:13:09 2025.
