 Gaussian 16, Revision C.01,

 ----------------------------------------------------------------------
 #t hf aug-cc-pvdz symm=none int=(grid=ultrafine) guess=(read,tcheck) s
 table=(opt,rrhf)
 ----------------------------------------------------------------------
 -----
 title
 -----
 Symbolic Z-matrix:
 Charge =  0 Multiplicity = 1

 SCF Done:  E(RHF) =  -228.139379561     A.U. after   11 cycles
 Normal termination of Gaussian 16 at Tue Apr  8 19:00:39 2025.
 Gaussian 16:  ES64L-G16RevC.01  3-Jul-2019

 ----------------------------------------------------------------------
 #t hf aug-cc-pvdz iop(5/13=1,5/36=2,99/5=2) pseudo=read geom=check gue
 ss=(read,tcheck) scf=(maxcycle=1)
 ----------------------------------------------------------------------
 -----
 title
 -----
 Structure from the checkpoint file:  "3B-69_01c_water_trimer_mol1.chk"
 Charge =  0 Multiplicity = 1

                         Standard orientation:
 ---------------------------------------------------------------------
 Center     Atomic      Atomic             Coordinates (Angstroms)
 Number     Number       Type             X           Y           Z
 ---------------------------------------------------------------------
      1          8           0       -1.041725   -1.220825   -0.091337
      2          1           0       -1.595905   -1.677861    0.548393
      3          1           0       -1.165374   -0.260001    0.053463
      4          8           0       -0.558529    1.506893    0.113950
      5          1           0       -0.725366    2.015148   -0.686235
      6          1           0        0.375818    1.223314    0.087365
      7          8           0        1.608181   -0.266521   -0.086951
      8          1           0        2.179315   -0.553667    0.632462
      9          1           0        0.868096   -0.903313   -0.120738
 ---------------------------------------------------------------------

 SCF Done:  E(RHF) =  -229.118690674     A.U. after    2 cycles

 The electronic state is 1-A.
 Alpha  occ. eigenvalues --  -21.09088 -21.08956 -21.08554  -1.67939  -1.65251
 Alpha  occ. eigenvalues --   -1.64855  -0.66339  -0.63306  -0.62549  -0.48536
 Alpha  occ. eigenvalues --   -0.48093  -0.43140  -0.36559  -0.34864  -0.33913
 Alpha virt. eigenvalues --    0.03844   0.05487   0.05615   0.08198   0.08468
 Alpha virt. eigenvalues --    0.10013   0.18579   0.19377   0.20259   0.22065
 Alpha virt. eigenvalues --    0.22602   0.22800   0.23998   0.25980   0.27483

 Mulliken charges:
               1
     1  O   -2.058983
     2  H    0.874800
     3  H    1.211556
     4  O   -2.047382
     5  H    0.833232
     6  H    1.166940
     7  O   -2.049717
     8  H    0.876410
     9  H    1.193144
 Sum of Mulliken charges =  -0.00000

 Dipole moment (field-independent basis, Debye):
    X=             -0.0575    Y=             -0.0863    Z=              0.5510  Tot=              0.5607

 Test job not archived.
 1\1\GINC-SE219\SP\RHF\Aug-CC-pVDZ\H6O3\OHZDE\08-Apr-2025\0\\#t hf aug-
 cc-pvdz iop(5/13=1,5/36=2,99/5=2) pseudo=read geom=check guess=(read,t
 check) scf=(maxcycle=1)\\title\\0,1\O,0,-1.206108,0.893312,0.066093\H,
 0,-1.872043,1.147949,-0.579618\H,0,-1.070581,-0.072576,-0.024084\O,0,-
 0.014443,-1.614719,-0.009938\H,0,-0.027039,-2.101017,0.820609\H,0,0.81
 037,-1.091722,-0.026818\O,0,1.602083,0.679871,0.031168\H,0,2.064562,1.
 065746,-0.719443\H,0,0.719298,1.097655,0.05393\\Version=ES64L-G16RevC.
 01\State=1-A\HF=-229.1186907\RMSD=2.862e-02\Dipole=-0.0341814,0.013871

 Normal termination of Gaussian 16 at Tue Apr  8 19:00:41 2025.
