 Gaussian 16, Revision C.01,

 ----------------------------------------------------------------------
 #t hf aug-cc-pvdz symm=none int=(grid=ultrafine) guess=(read,tcheck) s
 table=(opt,rrhf)
 ----------------------------------------------------------------------
 -----
 title
 -----
 Symbolic Z-matrix:
 Charge =  0 Multiplicity = 1

 SCF Done:  E(RHF) =  -412.441682340     A.U. after   15 cycles
 Normal termination of Gaussian 16 at Tue Apr  8 19:11:01 2025.
 Gaussian 16:  ES64L-G16RevC.01  3-Jul-2019

 ----------------------------------------------------------------------
 #t hf aug-cc-pvdz iop(5/13=1,5/36=2,99/5=2) pseudo=read geom=check gue
 ss=(read,tcheck) scf=(maxcycle=1)
 ----------------------------------------------------------------------
 -----
 title
 -----
 Structure from the checkpoint file:  "3B-69_22a_uracil_dimerAB_mol2.chk"
 Charge =  0 Multiplicity = 1

                         Standard orientation:
 ---------------------------------------------------------------------
 Center     Atomic      Atomic             Coordinates (Angstroms)
 Number     Number       Type             X           Y           Z
 ---------------------------------------------------------------------
      1          6           0        1.201441   -0.390547   -0.000926
      2          6           0       -1.253179   -0.322328   -0.003186
      3          6           0       -1.182967    1.105508   -0.007655
      4          6           0        0.021025    1.693991   -0.005422
      5          1           0        0.140991    2.643624    0.015638
      6          1           0        1.926311    1.348552    0.052937
      7          1           0       -0.089327   -1.847687    0.017959
      8          1           0       -1.981859    1.583582    0.012078
      9          7           0        1.177160    0.980543    0.000295
     10          7           0       -0.046157   -0.972137   -0.007638
     11          8           0        2.224329   -1.047036   -0.000709
     12          8           0       -2.303212   -0.991297    0.007698
 ---------------------------------------------------------------------

 SCF Done:  E(RHF) =  -414.306655722     A.U. after    2 cycles

 The electronic state is 1-A.
 Alpha  occ. eigenvalues --  -21.05244 -21.03624 -15.85369 -15.82384 -11.54464
 Alpha  occ. eigenvalues --  -11.52573 -11.51063 -11.42384  -1.76250  -1.70819
 Alpha  occ. eigenvalues --   -1.52871  -1.41111  -1.20202  -1.00290  -0.94530
 Alpha  occ. eigenvalues --   -0.86373  -0.74096  -0.73038  -0.66963  -0.64756
 Alpha  occ. eigenvalues --   -0.61185  -0.53273  -0.53011  -0.49179  -0.49099
 Alpha  occ. eigenvalues --   -0.34131  -0.32894  -0.30644  -0.29506
 Alpha virt. eigenvalues --    0.02102   0.04836   0.05245   0.07075   0.08303
 Alpha virt. eigenvalues --    0.09158   0.10389   0.10521   0.11211   0.12305
 Alpha virt. eigenvalues --    0.12482   0.13587   0.13875   0.14301   0.15204

 Mulliken charges:
               1
     1  C    4.889531
     2  C    4.299596
     3  C   -0.567701
     4  C   -0.003108
     5  H    1.458461
     6  H    0.558407
     7  H    0.596175
     8  H    1.246595
     9  N   -3.049239
    10  N   -2.695884
    11  O   -3.226404
    12  O   -3.506428
 Sum of Mulliken charges =   0.00000

 Dipole moment (field-independent basis, Debye):
    X=              1.4376    Y=              3.4114    Z=              0.1267  Tot=              3.7042

 Test job not archived.
 1\1\GINC-SE166\SP\RHF\Aug-CC-pVDZ\C4H4N2O2\OHZDE\08-Apr-2025\0\\#t hf
 aug-cc-pvdz iop(5/13=1,5/36=2,99/5=2) pseudo=read geom=check guess=(re
 ad,tcheck) scf=(maxcycle=1)\\title\\0,1\C,0,-1.957828,2.590668,6.30143
 3\C,0,-1.67237,0.153091,6.382383\C,0,-0.264624,0.353582,6.529763\C,0,0
 .211588,1.606034,6.552094\H,0,1.143843,1.811846,6.624074\H,0,-0.293856
 ,3.47023,6.403272\H,0,-3.284651,1.172007,6.172433\H,0,0.282003,-0.3985
 07,6.582047\N,0,-0.597309,2.69178,6.440156\N,0,-2.423802,1.29552,6.285
 531\O,0,-2.699031,3.549066,6.204644\O,0,-2.240633,-0.953695,6.334334\\

 Normal termination of Gaussian 16 at Tue Apr  8 19:11:06 2025.
