 Gaussian 16, Revision C.01,

 ----------------------------------------------------------------------
 #t hf aug-cc-pvdz symm=none int=(grid=ultrafine) guess=(read,tcheck) s
 table=(opt,rrhf)
 ----------------------------------------------------------------------
 -----
 title
 -----
 Symbolic Z-matrix:
 Charge =  0 Multiplicity = 1

 SCF Done:  E(RHF) =  -455.691802801     A.U. after   13 cycles
 Normal termination of Gaussian 16 at Tue Apr  8 19:02:23 2025.
 Gaussian 16:  ES64L-G16RevC.01  3-Jul-2019

 ----------------------------------------------------------------------
 #t hf aug-cc-pvdz iop(5/13=1,5/36=2,99/5=2) pseudo=read geom=check gue
 ss=(read,tcheck) scf=(maxcycle=1)
 ----------------------------------------------------------------------
 -----
 title
 -----
 Structure from the checkpoint file:  "3B-69_06c_acetic_acid_dimerAC_mol1.chk"
 Charge =  0 Multiplicity = 1

                         Standard orientation:
 ---------------------------------------------------------------------
 Center     Atomic      Atomic             Coordinates (Angstroms)
 Number     Number       Type             X           Y           Z
 ---------------------------------------------------------------------
      1          8           0       -2.664331   -0.921687   -0.462706
      2          6           0       -2.017341   -0.023455    0.259933
      3          8           0       -1.424585   -0.328421    1.290088
      4          6           0       -2.122058    1.367985   -0.280337
      5          1           0       -2.585885   -1.843514   -0.073366
      6          1           0       -3.097863    1.767859    0.001841
      7          1           0       -2.077374    1.362037   -1.366668
      8          1           0       -1.351558    2.002945    0.144120
      9          8           0        1.953832   -1.311224   -0.339887
     10          6           0        1.979349    0.006207   -0.233345
     11          8           0        1.079169    0.708260   -0.683213
     12          6           0        3.169979    0.523905    0.510529
     13          1           0        1.141122   -1.631946   -0.833995
     14          1           0        2.986536    0.389313    1.578214
     15          1           0        4.058258   -0.051067    0.260494
     16          1           0        3.314502    1.581101    0.314422
 ---------------------------------------------------------------------

 SCF Done:  E(RHF) =  -457.649851290     A.U. after    2 cycles

 The electronic state is 1-A.
 Alpha  occ. eigenvalues --  -21.12233 -21.11998 -21.03997 -21.03347 -11.52129
 Alpha  occ. eigenvalues --  -11.51158 -11.39490 -11.38319  -1.82742  -1.82375
 Alpha  occ. eigenvalues --   -1.63737  -1.63087  -1.11327  -1.10183  -0.80617
 Alpha  occ. eigenvalues --   -0.79931  -0.63719  -0.62700  -0.61863  -0.60800
 Alpha  occ. eigenvalues --   -0.60279  -0.59728  -0.54593  -0.53493  -0.49894
 Alpha  occ. eigenvalues --   -0.49069  -0.44446  -0.43819  -0.33614  -0.32246
 Alpha  occ. eigenvalues --   -0.29262  -0.28527
 Alpha virt. eigenvalues --    0.03276   0.04799   0.05412   0.05996   0.06390
 Alpha virt. eigenvalues --    0.06657   0.07109   0.07965   0.09736   0.11547
 Alpha virt. eigenvalues --    0.12346   0.13142   0.13387   0.14156   0.15144

 Mulliken charges:
               1
     1  O   -2.986314
     2  C    5.266073
     3  O   -2.938413
     4  C   -4.166959
     5  H    0.892425
     6  H    1.241704
     7  H    1.348741
     8  H    1.347235
     9  O   -3.045453
    10  C    5.508611
    11  O   -3.077041
    12  C   -4.144639
    13  H    0.957901
    14  H    1.242545
    15  H    1.261541
    16  H    1.292043
 Sum of Mulliken charges =  -0.00000

 Dipole moment (field-independent basis, Debye):
    X=              0.4782    Y=             -0.5751    Z=             -0.6088  Tot=              0.9644

 Test job not archived.
 1\1\GINC-SE185\SP\RHF\Aug-CC-pVDZ\C4H8O4\OHZDE\08-Apr-2025\0\\#t hf au
 g-cc-pvdz iop(5/13=1,5/36=2,99/5=2) pseudo=read geom=check guess=(read
 ,tcheck) scf=(maxcycle=1)\\title\\0,1\O,0,5.327155,17.887053,2.402174\
 C,0,4.525997,17.40189,3.33512\O,0,4.142801,16.236406,3.315351\C,0,4.11
 924,18.413124,4.360262\H,0,5.576489,17.191358,1.722951\H,0,3.329155,19
 .031693,3.930313\H,0,4.950397,19.071689,4.600299\H,0,3.732132,17.92444
 4,5.248152\O,0,7.1432,14.682947,5.218189\C,0,6.342041,15.16811,6.15113
 5\O,0,5.958845,16.333594,6.131367\C,0,5.935284,14.156876,7.176277\H,0,

 Normal termination of Gaussian 16 at Tue Apr  8 19:02:31 2025.
