 Gaussian 16, Revision C.01,

 ----------------------------------------------------------------------
 #t hf aug-cc-pvdz symm=none int=(grid=ultrafine) guess=(read,tcheck) s
 table=(opt,rrhf)
 ----------------------------------------------------------------------
 -----
 title
 -----
 Symbolic Z-matrix:
 Charge =  0 Multiplicity = 1

 SCF Done:  E(RHF) =  -752.855107236     A.U. after   14 cycles
 Normal termination of Gaussian 16 at Tue Apr  8 19:03:06 2025.
 Gaussian 16:  ES64L-G16RevC.01  3-Jul-2019

 ----------------------------------------------------------------------
 #t hf aug-cc-pvdz iop(5/13=1,5/36=2,99/5=2) pseudo=read geom=check gue
 ss=(read,tcheck) scf=(maxcycle=1)
 ----------------------------------------------------------------------
 -----
 title
 -----
 Structure from the checkpoint file:  "3B-69_07a_oxalic_acid_dimerAB_mol1.chk"
 Charge =  0 Multiplicity = 1

                         Standard orientation:
 ---------------------------------------------------------------------
 Center     Atomic      Atomic             Coordinates (Angstroms)
 Number     Number       Type             X           Y           Z
 ---------------------------------------------------------------------
      1          6           0       -1.743220   -0.873457    0.170322
      2          1           0       -1.307127   -2.451442   -0.777149
      3          8           0       -1.438614   -1.292724    1.271901
      4          8           0       -1.674608   -1.537049   -0.950468
      5          6           0       -2.294757    0.548999   -0.021821
      6          8           0       -2.599363    0.968266   -1.123399
      7          8           0       -2.363368    1.212591    1.098970
      8          1           0       -2.730849    2.126984    0.925651
      9          6           0        1.728991    0.869516   -0.156521
     10          1           0        2.203108    2.699533   -0.091940
     11          8           0        0.552034    1.047236   -0.411931
     12          8           0        2.623947    1.799913    0.029624
     13          6           0        2.308986   -0.545059    0.008019
     14          8           0        3.485942   -0.722778    0.263429
     15          8           0        1.414030   -1.475456   -0.178125
     16          1           0        1.834868   -2.375075   -0.056562
 ---------------------------------------------------------------------

 SCF Done:  E(RHF) =  -755.901582140     A.U. after    2 cycles

 The electronic state is 1-A.
 Alpha  occ. eigenvalues --  -21.16185 -21.16076 -21.14110 -21.14044 -21.08963
 Alpha  occ. eigenvalues --  -21.08752 -21.06636 -21.06388 -11.58574 -11.56242
 Alpha  occ. eigenvalues --  -11.53429 -11.51199  -1.89536  -1.87232  -1.83870
 Alpha  occ. eigenvalues --   -1.81717  -1.69846  -1.67567  -1.67406  -1.65066
 Alpha  occ. eigenvalues --   -1.01817  -0.99579  -0.80907  -0.78795  -0.68363
 Alpha  occ. eigenvalues --   -0.66072  -0.64895  -0.63593  -0.62600  -0.62305
 Alpha  occ. eigenvalues --   -0.60399  -0.60091  -0.54555  -0.53210  -0.52481
 Alpha  occ. eigenvalues --   -0.51018  -0.46440  -0.44369  -0.38202  -0.37544
 Alpha  occ. eigenvalues --   -0.36171  -0.35714  -0.34763  -0.33761  -0.29878
 Alpha  occ. eigenvalues --   -0.27492
 Alpha virt. eigenvalues --    0.02872   0.04579   0.05188   0.05684   0.08920
 Alpha virt. eigenvalues --    0.09297   0.09844   0.10362   0.10780   0.11019
 Alpha virt. eigenvalues --    0.11540   0.11979   0.12740   0.13516   0.14014

 Mulliken charges:
               1
     1  C    5.147336
     2  H    0.932103
     3  O   -3.010926
     4  O   -3.179198
     5  C    5.436873
     6  O   -3.018709
     7  O   -3.192118
     8  H    0.922703
     9  C    4.727363
    10  H    0.882843
    11  O   -2.685004
    12  O   -3.121645
    13  C    5.280146
    14  O   -3.050047
    15  O   -3.066554
    16  H    0.994834
 Sum of Mulliken charges =   0.00000

 Dipole moment (field-independent basis, Debye):
    X=              0.7965    Y=              0.3140    Z=             -0.1163  Tot=              0.8640

 Test job not archived.
 1\1\GINC-SE249\SP\RHF\Aug-CC-pVDZ\C4H4O8\OHZDE\08-Apr-2025\0\\#t hf au
 g-cc-pvdz iop(5/13=1,5/36=2,99/5=2) pseudo=read geom=check guess=(read
 ,tcheck) scf=(maxcycle=1)\\title\\0,1\C,0,-1.599714,6.025105,4.897591\
 H,0,-0.099127,5.378673,5.850628\O,0,-0.967931,6.64465,4.061493\O,0,-1.
 098297,5.340779,5.888304\C,0,-3.137243,6.004895,4.888196\O,0,-3.769026
 ,5.38535,5.724294\O,0,-3.63866,6.689221,3.897483\H,0,-4.63783,6.651327
 ,3.935158\C,0,-1.953003,3.017605,2.44175\H,0,-3.453591,2.371173,1.4887
 12\O,0,-2.584787,3.63715,3.277847\O,0,-2.45442,2.333279,1.451036\C,0,-

 Normal termination of Gaussian 16 at Tue Apr  8 19:03:17 2025.
