 Gaussian 16, Revision C.01,

 ----------------------------------------------------------------------
 #t hf aug-cc-pvdz symm=none int=(grid=ultrafine) guess=(read,tcheck) s
 table=(opt,rrhf)
 ----------------------------------------------------------------------
 -----
 title
 -----
 Symbolic Z-matrix:
 Charge =  0 Multiplicity = 1

 SCF Done:  E(RHF) =  -641.513118683     A.U. after   13 cycles
 Normal termination of Gaussian 16 at Tue Apr  8 19:12:50 2025.
 Gaussian 16:  ES64L-G16RevC.01  3-Jul-2019

 ----------------------------------------------------------------------
 #t hf aug-cc-pvdz iop(5/13=1,5/36=2,99/5=2) pseudo=read geom=check gue
 ss=(read,tcheck) scf=(maxcycle=1)
 ----------------------------------------------------------------------
 -----
 title
 -----
 Structure from the checkpoint file:  "3B-69_17c_oxazolidinone_dimerAC_mol1.chk"
 Charge =  0 Multiplicity = 1

                         Standard orientation:
 ---------------------------------------------------------------------
 Center     Atomic      Atomic             Coordinates (Angstroms)
 Number     Number       Type             X           Y           Z
 ---------------------------------------------------------------------
      1          7           0        1.306452   -0.052687    1.103965
      2          8           0        2.305474   -0.429070   -0.835255
      3          8           0        1.347557   -2.183168    0.196584
      4          6           0        1.899274    1.242646    0.797006
      5          6           0        2.336673    1.015984   -0.660215
      6          6           0        1.609687   -0.985946    0.189771
      7          1           0        0.848570   -0.292397    1.986650
      8          1           0        2.732903    1.463314    1.461920
      9          1           0        1.167209    2.044066    0.879201
     10          1           0        1.642006    1.447405   -1.379295
     11          1           0        3.343991    1.356189   -0.870643
     12          7           0       -1.306452    0.052687   -1.103965
     13          8           0       -2.305473    0.429070    0.835255
     14          8           0       -1.347558    2.183169   -0.196584
     15          6           0       -1.899275   -1.242645   -0.797006
     16          6           0       -2.336673   -1.015984    0.660215
     17          6           0       -1.609686    0.985946   -0.189770
     18          1           0       -0.848569    0.292397   -1.986651
     19          1           0       -2.732902   -1.463315   -1.461920
     20          1           0       -1.167208   -2.044066   -0.879201
     21          1           0       -1.642005   -1.447406    1.379295
     22          1           0       -3.343991   -1.356189    0.870643
 ---------------------------------------------------------------------

 SCF Done:  E(RHF) =  -644.304208925     A.U. after    2 cycles

 The electronic state is 1-A.
 Alpha  occ. eigenvalues --  -21.09160 -21.09156 -21.02451 -21.02427 -15.77701
 Alpha  occ. eigenvalues --  -15.77676 -11.52180 -11.52067 -11.49245 -11.49054
 Alpha  occ. eigenvalues --  -11.41758 -11.41744  -1.85659  -1.85432  -1.65459
 Alpha  occ. eigenvalues --   -1.65218  -1.40866  -1.40742  -1.11513  -1.11444
 Alpha  occ. eigenvalues --   -0.91719  -0.91586  -0.84010  -0.83744  -0.71072
 Alpha  occ. eigenvalues --   -0.71040  -0.69967  -0.69559  -0.60675  -0.60641
 Alpha  occ. eigenvalues --   -0.58596  -0.57714  -0.55967  -0.55538  -0.54990
 Alpha  occ. eigenvalues --   -0.54794  -0.48916  -0.48585  -0.42866  -0.42845
 Alpha  occ. eigenvalues --   -0.35021  -0.34445  -0.31838  -0.30749  -0.29685
 Alpha  occ. eigenvalues --   -0.29683
 Alpha virt. eigenvalues --    0.03308   0.04146   0.04705   0.04745   0.05791
 Alpha virt. eigenvalues --    0.06303   0.07146   0.07201   0.07970   0.08535
 Alpha virt. eigenvalues --    0.09367   0.10282   0.11548   0.11610   0.12084

 Mulliken charges:
               1
     1  N   -2.632824
     2  O   -3.187578
     3  O   -3.464010
     4  C   -3.166825
     5  C   -1.620933
     6  C    7.176477
     7  H    0.870581
     8  H    1.342236
     9  H    1.711138
    10  H    1.557073
    11  H    1.414665
    12  N   -2.632825
    13  O   -3.187579
    14  O   -3.464009
    15  C   -3.166822
    16  C   -1.620934
    17  C    7.176477
    18  H    0.870580
    19  H    1.342236
    20  H    1.711138
    21  H    1.557072
    22  H    1.414666
 Sum of Mulliken charges =  -0.00000

 Dipole moment (field-independent basis, Debye):
    X=             -0.0000    Y=             -0.0000    Z=             -0.0000  Tot=              0.0000

 Test job not archived.
 1\1\GINC-SE344\SP\RHF\Aug-CC-pVDZ\C6H10N2O4\OHZDE\08-Apr-2025\0\\#t hf
  aug-cc-pvdz iop(5/13=1,5/36=2,99/5=2) pseudo=read geom=check guess=(r
 ead,tcheck) scf=(maxcycle=1)\\title\\0,1\N,0,7.885048,4.838445,5.37043
 8\O,0,6.875708,6.333394,4.087222\O,0,7.551157,7.002241,6.125743\C,0,7.
 491717,4.046721,4.211985\C,0,7.051351,5.158913,3.244881\C,0,7.465555,6
 .109764,5.290126\H,0,8.287993,4.45773,6.230055\H,0,6.687519,3.35575,4.
 460112\H,0,8.33072,3.476585,3.817056\H,0,7.813568,5.39837,2.504984\H,0
 ,6.107802,4.958202,2.750776\N,0,10.523419,6.507555,3.968155\O,0,11.532

 Normal termination of Gaussian 16 at Tue Apr  8 19:13:05 2025.
