 Gaussian 16, Revision C.01,

 ----------------------------------------------------------------------
 #t hf aug-cc-pvdz symm=none int=(grid=ultrafine) guess=(read,tcheck) s
 table=(opt,rrhf)
 ----------------------------------------------------------------------
 -----
 title
 -----
 Symbolic Z-matrix:
 Charge =  0 Multiplicity = 1

 SCF Done:  E(RHF) =  -449.655408448     A.U. after   14 cycles
 Normal termination of Gaussian 16 at Tue Apr  8 19:07:16 2025.
 Gaussian 16:  ES64L-G16RevC.01  3-Jul-2019

 ----------------------------------------------------------------------
 #t hf aug-cc-pvdz iop(5/13=1,5/36=2,99/5=2) pseudo=read geom=check gue
 ss=(read,tcheck) scf=(maxcycle=1)
 ----------------------------------------------------------------------
 -----
 title
 -----
 Structure from the checkpoint file:  "3B-69_12a_pyrazole_dimerAB_mol1.chk"
 Charge =  0 Multiplicity = 1

                         Standard orientation:
 ---------------------------------------------------------------------
 Center     Atomic      Atomic             Coordinates (Angstroms)
 Number     Number       Type             X           Y           Z
 ---------------------------------------------------------------------
      1          6           0        3.453485   -0.780752   -0.017945
      2          6           0        3.612833    0.612388    0.050365
      3          6           0        2.326333    1.115055    0.021044
      4          1           0        0.456687    0.043768   -0.051818
      5          1           0        1.965007    2.126447    0.055076
      6          1           0        4.530530    1.167190    0.113163
      7          1           0        4.203613   -1.552861   -0.017281
      8          7           0        1.491004    0.059904   -0.065775
      9          7           0        2.162337   -1.111755   -0.084729
     10          6           0       -2.249853   -1.119131    0.084615
     11          6           0       -3.575522   -0.672276   -0.025477
     12          6           0       -3.480002    0.704203   -0.068973
     13          1           0       -1.701614    1.925925   -0.074445
     14          1           0       -4.228869    1.469417   -0.165490
     15          1           0       -4.470922   -1.263598   -0.070787
     16          1           0       -1.888996   -2.131018    0.142058
     17          7           0       -2.168608    1.010342    0.015712
     18          7           0       -1.397458   -0.093091    0.107327
 ---------------------------------------------------------------------

 SCF Done:  E(RHF) =  -451.753966618     A.U. after    2 cycles

 The electronic state is 1-A.
 Alpha  occ. eigenvalues --  -15.82803 -15.77243 -15.76371 -15.72284 -11.46933
 Alpha  occ. eigenvalues --  -11.44842 -11.43168 -11.40478 -11.38602 -11.35039
 Alpha  occ. eigenvalues --   -1.62029  -1.57244  -1.19849  -1.16063  -1.14742
 Alpha  occ. eigenvalues --   -1.11187  -0.86088  -0.83270  -0.82058  -0.79231
 Alpha  occ. eigenvalues --   -0.76735  -0.72630  -0.62218  -0.59990  -0.57811
 Alpha  occ. eigenvalues --   -0.57153  -0.56409  -0.54044  -0.52780  -0.50816
 Alpha  occ. eigenvalues --   -0.42620  -0.37977  -0.35878  -0.34472  -0.31757
 Alpha  occ. eigenvalues --   -0.30344
 Alpha virt. eigenvalues --    0.02813   0.04263   0.04691   0.05287   0.06203
 Alpha virt. eigenvalues --    0.06483   0.07301   0.09123   0.10197   0.10872
 Alpha virt. eigenvalues --    0.11740   0.12089   0.12277   0.12606   0.13146

 Mulliken charges:
               1
     1  C    0.538744
     2  C   -1.324484
     3  C    0.194054
     4  H    1.261705
     5  H    1.468671
     6  H    1.179769
     7  H    1.424116
     8  N   -2.197860
     9  N   -2.455898
    10  C    0.223077
    11  C   -1.001454
    12  C    0.616251
    13  H    0.884641
    14  H    1.322319
    15  H    1.180050
    16  H    1.605085
    17  N   -3.159756
    18  N   -1.759029
 Sum of Mulliken charges =  -0.00000

 Dipole moment (field-independent basis, Debye):
    X=             -4.0724    Y=              3.1546    Z=             -0.1134  Tot=              5.1526

 Test job not archived.
 1\1\GINC-SE230\SP\RHF\Aug-CC-pVDZ\C6H8N4\OHZDE\08-Apr-2025\0\\#t hf au
 g-cc-pvdz iop(5/13=1,5/36=2,99/5=2) pseudo=read geom=check guess=(read
 ,tcheck) scf=(maxcycle=1)\\title\\0,1\C,0,10.627016,5.579002,5.969045\
 C,0,11.476074,4.843862,6.811403\C,0,10.688278,3.817185,7.295063\H,0,8.
 629312,3.364017,6.843575\H,0,10.917516,3.011175,7.967689\H,0,12.510061
 ,5.034319,7.031661\H,0,10.840612,6.458651,5.386431\N,0,9.461334,3.9727
 73,6.757422\N,0,9.404905,5.04376,5.93667\C,0,5.922353,2.348921,6.26197
 7\C,0,5.048807,1.377253,6.773813\C,0,5.801878,0.678241,7.695754\H,0,7.

 Normal termination of Gaussian 16 at Tue Apr  8 19:07:24 2025.
