 Gaussian 16, Revision C.01,

 ----------------------------------------------------------------------
 #t hf aug-cc-pvdz symm=none int=(grid=ultrafine) guess=(read,tcheck) s
 table=(opt,rrhf)
 ----------------------------------------------------------------------
 -----
 title
 -----
 Symbolic Z-matrix:
 Charge =  0 Multiplicity = 1

 SCF Done:  E(RHF) =  -208.007811184     A.U. after   13 cycles
 Normal termination of Gaussian 16 at Tue Apr  8 19:04:52 2025.
 Gaussian 16:  ES64L-G16RevC.01  3-Jul-2019

 ----------------------------------------------------------------------
 #t hf aug-cc-pvdz iop(5/13=1,5/36=2,99/5=2) pseudo=read geom=check gue
 ss=(read,tcheck) scf=(maxcycle=1)
 ----------------------------------------------------------------------
 -----
 title
 -----
 Structure from the checkpoint file:  "3B-69_09a_acetamide_dimerAC_mol2.chk"
 Charge =  0 Multiplicity = 1

                         Standard orientation:
 ---------------------------------------------------------------------
 Center     Atomic      Atomic             Coordinates (Angstroms)
 Number     Number       Type             X           Y           Z
 ---------------------------------------------------------------------
      1          6           0        1.362276   -0.309459    0.005165
      2          6           0       -0.084671    0.123591   -0.019339
      3          8           0       -0.387412    1.335382   -0.002264
      4          7           0       -1.004199   -0.840681   -0.016305
      5          1           0       -1.989322   -0.623565    0.147716
      6          1           0       -0.718706   -1.822146   -0.036101
      7          1           0        1.649762   -0.456892    1.048112
      8          1           0        1.527317   -1.245912   -0.523573
      9          1           0        1.994005    0.465431   -0.418874
 ---------------------------------------------------------------------

 SCF Done:  E(RHF) =  -208.947586938     A.U. after    2 cycles

 The electronic state is 1-A.
 Alpha  occ. eigenvalues --  -21.00957 -15.78508 -11.49205 -11.38739  -1.67816
 Alpha  occ. eigenvalues --   -1.35410  -1.09144  -0.81356  -0.71255  -0.62758
 Alpha  occ. eigenvalues --   -0.60886  -0.54770  -0.49204  -0.46269  -0.31359
 Alpha  occ. eigenvalues --   -0.27722
 Alpha virt. eigenvalues --    0.02867   0.04867   0.05473   0.06111   0.07470
 Alpha virt. eigenvalues --    0.10604   0.12479   0.12790   0.13965   0.15136
 Alpha virt. eigenvalues --    0.16363   0.16933   0.17830   0.19301   0.20008

 Mulliken charges:
               1
     1  C   -3.774020
     2  C    4.467596
     3  O   -3.022595
     4  N   -2.798018
     5  H    0.714746
     6  H    0.751883
     7  H    1.226393
     8  H    1.215746
     9  H    1.218268
 Sum of Mulliken charges =  -0.00000

 Dipole moment (field-independent basis, Debye):
    X=             -0.0783    Y=             -2.8595    Z=              0.1787  Tot=              2.8661

 Test job not archived.
 1\1\GINC-SE150\SP\RHF\Aug-CC-pVDZ\C2H5N1O1\OHZDE\08-Apr-2025\0\\#t hf
 aug-cc-pvdz iop(5/13=1,5/36=2,99/5=2) pseudo=read geom=check guess=(re
 ad,tcheck) scf=(maxcycle=1)\\title\\0,1\C,0,-1.004918,11.251778,13.363
 89\C,0,-1.828837,9.986003,13.391436\O,0,-2.955857,9.947587,12.854098\N
 ,0,-1.315604,8.944986,14.045834\H,0,-1.888595,8.125309,14.25636\H,0,-0
 .387165,9.0116,14.468606\H,0,-1.234988,11.820456,14.267104\H,0,0.06493
 ,11.054024,13.355768\H,0,-1.271188,11.855156,12.501115\\Version=ES64L-
 G16RevC.01\State=1-A\HF=-208.9475869\RMSD=1.660e-01\Dipole=0.9081523,-

 Normal termination of Gaussian 16 at Tue Apr  8 19:04:58 2025.
