 Gaussian 16, Revision C.01,

 ----------------------------------------------------------------------
 #t hf aug-cc-pvdz symm=none int=(grid=ultrafine) guess=(read,tcheck) s
 table=(opt,rrhf)
 ----------------------------------------------------------------------
 -----
 title
 -----
 Symbolic Z-matrix:
 Charge =  0 Multiplicity = 1

 SCF Done:  E(RHF) =  -319.497358662     A.U. after   15 cycles
 Normal termination of Gaussian 16 at Tue Apr  8 19:05:51 2025.
 Gaussian 16:  ES64L-G16RevC.01  3-Jul-2019

 ----------------------------------------------------------------------
 #t hf aug-cc-pvdz iop(5/13=1,5/36=2,99/5=2) pseudo=read geom=check gue
 ss=(read,tcheck) scf=(maxcycle=1)
 ----------------------------------------------------------------------
 -----
 title
 -----
 Structure from the checkpoint file:  "3B-69_11a_isoxazole_dimerAB_mol2.chk"
 Charge =  0 Multiplicity = 1

                         Standard orientation:
 ---------------------------------------------------------------------
 Center     Atomic      Atomic             Coordinates (Angstroms)
 Number     Number       Type             X           Y           Z
 ---------------------------------------------------------------------
      1          8           0       -1.317652   -0.785294    0.008999
      2          7           0        0.047024   -1.104179   -0.022249
      3          6           0        0.683464    0.050348   -0.013694
      4          8           0        2.006365    0.141008   -0.005101
      5          6           0       -0.221216    1.148355   -0.006982
      6          6           0       -1.433478    0.554978    0.009593
      7          1           0        2.418690   -0.763688    0.159324
      8          1           0        0.010646    2.197983    0.002264
      9          1           0       -2.440831    0.927158    0.029464
 ---------------------------------------------------------------------

 SCF Done:  E(RHF) =  -320.875930690     A.U. after    2 cycles

 The electronic state is 1-A.
 Alpha  occ. eigenvalues --  -21.12956 -21.12531 -15.76081 -11.50186 -11.48232
 Alpha  occ. eigenvalues --  -11.40488  -1.89605  -1.77880  -1.24674  -1.16277
 Alpha  occ. eigenvalues --   -0.86282  -0.80335  -0.74003  -0.62863  -0.61145
 Alpha  occ. eigenvalues --   -0.55928  -0.49982  -0.47455  -0.43071  -0.41785
 Alpha  occ. eigenvalues --   -0.35906  -0.29491
 Alpha virt. eigenvalues --    0.03251   0.05175   0.05456   0.10099   0.10777
 Alpha virt. eigenvalues --    0.11530   0.11732   0.12203   0.12727   0.13569
 Alpha virt. eigenvalues --    0.14452   0.15593   0.16073   0.18173   0.18501

 Mulliken charges:
               1
     1  O   -2.818227
     2  N   -1.047454
     3  C    4.850136
     4  O   -3.474765
     5  C   -2.073352
     6  C    0.979260
     7  H    0.935806
     8  H    1.238893
     9  H    1.409702
 Sum of Mulliken charges =  -0.00000

 Dipole moment (field-independent basis, Debye):
    X=             -0.1649    Y=              1.4843    Z=              0.1914  Tot=              1.5057

 Test job not archived.
 1\1\GINC-SE125\SP\RHF\Aug-CC-pVDZ\C3H3N1O2\OHZDE\08-Apr-2025\0\\#t hf
 aug-cc-pvdz iop(5/13=1,5/36=2,99/5=2) pseudo=read geom=check guess=(re
 ad,tcheck) scf=(maxcycle=1)\\title\\0,1\O,0,0.492354,17.073364,2.53743
 8\N,0,1.798473,16.694123,2.876901\C,0,2.4714,17.819028,3.017689\O,0,3.
 748782,17.852113,3.372032\C,0,1.656726,18.954747,2.752056\C,0,0.452423
 ,18.416167,2.466513\H,0,4.054562,16.938298,3.666928\H,0,1.933991,19.99
 2652,2.790034\H,0,-0.503537,18.832499,2.208674\\Version=ES64L-G16RevC.
 01\State=1-A\HF=-320.8759307\RMSD=8.512e-01\Dipole=-0.0509343,0.58898,

 Normal termination of Gaussian 16 at Tue Apr  8 19:05:55 2025.
