 Gaussian 16, Revision C.01,

 ----------------------------------------------------------------------
 #t hf aug-cc-pvdz symm=none int=(grid=ultrafine) guess=(read,tcheck) s
 table=(opt,rrhf)
 ----------------------------------------------------------------------
 -----
 title
 -----
 Symbolic Z-matrix:
 Charge =  0 Multiplicity = 1

 SCF Done:  E(RHF) =  -638.992257152     A.U. after   15 cycles
 Normal termination of Gaussian 16 at Tue Apr  8 19:07:35 2025.
 Gaussian 16:  ES64L-G16RevC.01  3-Jul-2019

 ----------------------------------------------------------------------
 #t hf aug-cc-pvdz iop(5/13=1,5/36=2,99/5=2) pseudo=read geom=check gue
 ss=(read,tcheck) scf=(maxcycle=1)
 ----------------------------------------------------------------------
 -----
 title
 -----
 Structure from the checkpoint file:  "3B-69_11b_isoxazole_dimerAC_mol1.chk"
 Charge =  0 Multiplicity = 1

                         Standard orientation:
 ---------------------------------------------------------------------
 Center     Atomic      Atomic             Coordinates (Angstroms)
 Number     Number       Type             X           Y           Z
 ---------------------------------------------------------------------
      1          8           0       -0.536875    1.051364    1.005283
      2          7           0       -1.842995    0.672123    0.665819
      3          6           0       -2.515922    1.797028    0.525032
      4          8           0       -3.793304    1.830113    0.170689
      5          6           0       -1.701247    2.932747    0.790665
      6          6           0       -0.496944    2.394167    1.076208
      7          1           0       -4.099084    0.916298   -0.124207
      8          1           0       -1.978512    3.970652    0.752687
      9          1           0        0.459016    2.810499    1.334047
     10          8           0        0.536875   -1.051364   -1.005283
     11          7           0        1.842995   -0.672123   -0.665819
     12          6           0        2.515922   -1.797028   -0.525032
     13          8           0        3.793304   -1.830113   -0.170689
     14          6           0        1.701247   -2.932747   -0.790665
     15          6           0        0.496944   -2.394167   -1.076208
     16          1           0        4.099084   -0.916298    0.124207
     17          1           0        1.978512   -3.970652   -0.752687
     18          1           0       -0.459016   -2.810499   -1.334047
 ---------------------------------------------------------------------

 SCF Done:  E(RHF) =  -641.750326763     A.U. after    2 cycles

 The electronic state is 1-AG.
 Alpha  occ. eigenvalues --  -21.12291 -21.12287 -21.11365 -21.11362 -15.75172
 Alpha  occ. eigenvalues --  -15.75164 -11.49501 -11.49438 -11.47460 -11.47410
 Alpha  occ. eigenvalues --  -11.39593 -11.39552  -1.88536  -1.88447  -1.77214
 Alpha  occ. eigenvalues --   -1.77125  -1.23746  -1.23692  -1.15362  -1.15291
 Alpha  occ. eigenvalues --   -0.85443  -0.85265  -0.79506  -0.79448  -0.73204
 Alpha  occ. eigenvalues --   -0.72982  -0.62167  -0.61675  -0.60376  -0.60178
 Alpha  occ. eigenvalues --   -0.55071  -0.55067  -0.49204  -0.49091  -0.46785
 Alpha  occ. eigenvalues --   -0.46274  -0.42370  -0.41872  -0.41028  -0.40629
 Alpha  occ. eigenvalues --   -0.34936  -0.34867  -0.28627  -0.28514
 Alpha virt. eigenvalues --    0.03259   0.04764   0.04857   0.05516   0.05972
 Alpha virt. eigenvalues --    0.06120   0.10122   0.10672   0.11005   0.11372
 Alpha virt. eigenvalues --    0.11746   0.12352   0.12772   0.12995   0.13230

 Mulliken charges:
               1
     1  O   -2.789149
     2  N   -1.132412
     3  C    4.879371
     4  O   -3.550655
     5  C   -2.211394
     6  C    1.025640
     7  H    0.938795
     8  H    1.297882
     9  H    1.541923
    10  O   -2.789149
    11  N   -1.132412
    12  C    4.879371
    13  O   -3.550655
    14  C   -2.211394
    15  C    1.025640
    16  H    0.938795
    17  H    1.297882
    18  H    1.541923
 Sum of Mulliken charges =  -0.00000

 Dipole moment (field-independent basis, Debye):
    X=             -0.0000    Y=              0.0000    Z=             -0.0000  Tot=              0.0000

 Test job not archived.
 1\1\GINC-SE143\SP\RHF\Aug-CC-pVDZ\C6H6N2O4\OHZDE\08-Apr-2025\0\\#t hf
 aug-cc-pvdz iop(5/13=1,5/36=2,99/5=2) pseudo=read geom=check guess=(re
 ad,tcheck) scf=(maxcycle=1)\\title\\0,1\O,0,5.635182,5.056864,8.090723
 \N,0,4.329062,4.677623,7.751259\C,0,3.656135,5.802528,7.610472\O,0,2.3
 78753,5.835613,7.256129\C,0,4.47081,6.938247,7.876105\C,0,5.675113,6.3
 99667,8.161648\H,0,2.072973,4.921798,6.961233\H,0,4.193545,7.976152,7.
 838127\H,0,6.631073,6.815999,8.419487\O,0,6.708932,2.954136,6.080158\N
 ,0,8.015052,3.333377,6.419622\C,0,8.687979,2.208472,6.560409\O,0,9.965

 Normal termination of Gaussian 16 at Tue Apr  8 19:07:41 2025.
