 Gaussian 16, Revision C.01,

 ----------------------------------------------------------------------
 #t hf aug-cc-pvdz symm=none int=(grid=ultrafine) guess=(read,tcheck) s
 table=(opt,rrhf)
 ----------------------------------------------------------------------
 -----
 title
 -----
 Symbolic Z-matrix:
 Charge =  0 Multiplicity = 1

 SCF Done:  E(RHF) =  -224.824644740     A.U. after   15 cycles
 Normal termination of Gaussian 16 at Tue Apr  8 19:05:51 2025.
 Gaussian 16:  ES64L-G16RevC.01  3-Jul-2019

 ----------------------------------------------------------------------
 #t hf aug-cc-pvdz iop(5/13=1,5/36=2,99/5=2) pseudo=read geom=check gue
 ss=(read,tcheck) scf=(maxcycle=1)
 ----------------------------------------------------------------------
 -----
 title
 -----
 Structure from the checkpoint file:  "3B-69_12a_pyrazole_dimerAB_mol3.chk"
 Charge =  0 Multiplicity = 1

                         Standard orientation:
 ---------------------------------------------------------------------
 Center     Atomic      Atomic             Coordinates (Angstroms)
 Number     Number       Type             X           Y           Z
 ---------------------------------------------------------------------
      1          6           0        1.079445   -0.445211    0.002329
      2          6           0        0.761797    0.921646    0.001896
      3          6           0       -0.618076    0.961834   -0.004692
      4          1           0       -2.008443   -0.686203    0.073721
      5          1           0       -1.308681    1.785587    0.008208
      6          1           0        1.436519    1.757201    0.009348
      7          1           0        2.052251   -0.904553    0.011640
      8          7           0       -1.048785   -0.316876   -0.010864
      9          7           0       -0.024165   -1.194787   -0.003438
 ---------------------------------------------------------------------

 SCF Done:  E(RHF) =  -225.870478395     A.U. after    2 cycles

 The electronic state is 1-A.
 Alpha  occ. eigenvalues --  -15.80825 -15.74414 -11.44653 -11.42241 -11.36757
 Alpha  occ. eigenvalues --   -1.59796  -1.17616  -1.13369  -0.84190  -0.81190
 Alpha  occ. eigenvalues --   -0.74662  -0.60123  -0.58131  -0.54861  -0.52639
 Alpha  occ. eigenvalues --   -0.40225  -0.34067  -0.32328
 Alpha virt. eigenvalues --    0.03392   0.05257   0.05602   0.05987   0.10390
 Alpha virt. eigenvalues --    0.11244   0.11990   0.12689   0.13626   0.14155
 Alpha virt. eigenvalues --    0.14629   0.15496   0.16569   0.17249   0.18801

 Mulliken charges:
               1
     1  C    0.171771
     2  C   -0.842727
     3  C    0.163713
     4  H    0.857723
     5  H    1.263249
     6  H    1.131544
     7  H    1.389582
     8  N   -1.990540
     9  N   -2.144314
 Sum of Mulliken charges =  -0.00000

 Dipole moment (field-independent basis, Debye):
    X=             -1.5191    Y=              1.4527    Z=              0.1267  Tot=              2.1057

 Test job not archived.
 1\1\GINC-SE330\SP\RHF\Aug-CC-pVDZ\C3H4N2\OHZDE\08-Apr-2025\0\\#t hf au
 g-cc-pvdz iop(5/13=1,5/36=2,99/5=2) pseudo=read geom=check guess=(read
 ,tcheck) scf=(maxcycle=1)\\title\\0,1\C,0,5.922353,2.348921,6.261977\C
 ,0,5.048807,1.377253,6.773813\C,0,5.801878,0.678241,7.695754\H,0,7.837
 666,1.037377,8.313722\H,0,5.55454,-0.141615,8.345623\H,0,4.020061,1.21
 0588,6.514271\H,0,5.722353,3.102313,5.520469\N,0,7.033572,1.229218,7.6
 96363\N,0,7.127429,2.256777,6.826913\\Version=ES64L-G16RevC.01\State=1
 -A\HF=-225.8704784\RMSD=7.724e-01\Dipole=-0.1163435,-0.6003615,0.55890

 Normal termination of Gaussian 16 at Tue Apr  8 19:05:55 2025.
