 Gaussian 16, Revision C.01,

 ----------------------------------------------------------------------
 #t hf aug-cc-pvdz symm=none int=(grid=ultrafine) guess=(read,tcheck) s
 table=(opt,rrhf)
 ----------------------------------------------------------------------
 -----
 title
 -----
 Symbolic Z-matrix:
 Charge =  0 Multiplicity = 1

 SCF Done:  E(RHF) =  -641.508301789     A.U. after   13 cycles
 Normal termination of Gaussian 16 at Tue Apr  8 19:11:09 2025.
 Gaussian 16:  ES64L-G16RevC.01  3-Jul-2019

 ----------------------------------------------------------------------
 #t hf aug-cc-pvdz iop(5/13=1,5/36=2,99/5=2) pseudo=read geom=check gue
 ss=(read,tcheck) scf=(maxcycle=1)
 ----------------------------------------------------------------------
 -----
 title
 -----
 Structure from the checkpoint file:  "3B-69_17b_oxazolidinone_dimerAB_mol1.chk"
 Charge =  0 Multiplicity = 1

                         Standard orientation:
 ---------------------------------------------------------------------
 Center     Atomic      Atomic             Coordinates (Angstroms)
 Number     Number       Type             X           Y           Z
 ---------------------------------------------------------------------
      1          7           0       -1.822875   -0.200577   -0.172460
      2          8           0       -3.917419    0.355932    0.278612
      3          8           0       -2.381190    1.998794    0.291260
      4          6           0       -2.495850   -1.492940   -0.151180
      5          6           0       -3.967128   -1.045728   -0.112122
      6          6           0       -2.646187    0.812385    0.135342
      7          1           0       -0.811293   -0.068615   -0.246875
      8          1           0       -2.205070   -2.075630    0.721553
      9          1           0       -2.272994   -2.071651   -1.045819
     10          1           0       -4.447591   -1.096159   -1.088018
     11          1           0       -4.564251   -1.575755    0.620835
     12          7           0        2.498824   -0.990019    0.237511
     13          8           0        3.118862    1.050622   -0.355463
     14          8           0        0.922933    0.569737   -0.431600
     15          6           0        3.952696   -1.073105    0.291384
     16          6           0        4.326991    0.411876    0.146754
     17          6           0        2.068202    0.205660   -0.190965
     18          1           0        1.862751   -1.783391    0.348065
     19          1           0        4.343438   -1.690828   -0.515760
     20          1           0        4.292180   -1.484882    1.240142
     21          1           0        4.571272    0.878312    1.099921
     22          1           0        5.122081    0.593210   -0.567151
 ---------------------------------------------------------------------

 SCF Done:  E(RHF) =  -644.298644895     A.U. after    2 cycles

 The electronic state is 1-A.
 Alpha  occ. eigenvalues --  -21.10406 -21.06491 -21.03801 -20.98730 -15.79440
 Alpha  occ. eigenvalues --  -15.73508 -11.53599 -11.50695 -11.48469 -11.47279
 Alpha  occ. eigenvalues --  -11.43600 -11.40318  -1.86912  -1.82737  -1.67206
 Alpha  occ. eigenvalues --   -1.61574  -1.42482  -1.37549  -1.13244  -1.09466
 Alpha  occ. eigenvalues --   -0.93333  -0.89728  -0.85559  -0.80772  -0.72759
 Alpha  occ. eigenvalues --   -0.71801  -0.69223  -0.67558  -0.62372  -0.59466
 Alpha  occ. eigenvalues --   -0.58054  -0.57373  -0.56607  -0.56120  -0.53936
 Alpha  occ. eigenvalues --   -0.53121  -0.49204  -0.45340  -0.44181  -0.40619
 Alpha  occ. eigenvalues --   -0.36072  -0.32836  -0.31649  -0.31414  -0.27663
 Alpha  occ. eigenvalues --   -0.25915
 Alpha virt. eigenvalues --    0.02127   0.03542   0.03935   0.04031   0.04733
 Alpha virt. eigenvalues --    0.05029   0.06156   0.06441   0.07039   0.07939
 Alpha virt. eigenvalues --    0.08973   0.10626   0.11592   0.11683   0.12109

 Mulliken charges:
               1
     1  N   -2.348267
     2  O   -2.981281
     3  O   -3.105956
     4  C   -2.424531
     5  C   -1.784623
     6  C    5.967632
     7  H    1.073681
     8  H    1.521675
     9  H    1.518029
    10  H    1.421090
    11  H    1.401094
    12  N   -2.370304
    13  O   -2.947689
    14  O   -3.513323
    15  C   -2.348690
    16  C   -1.660886
    17  C    6.287619
    18  H    0.693967
    19  H    1.397548
    20  H    1.388682
    21  H    1.383299
    22  H    1.431235
 Sum of Mulliken charges =  -0.00000

 Dipole moment (field-independent basis, Debye):
    X=              5.4438    Y=             -5.6739    Z=              0.2612  Tot=              7.8675

 Test job not archived.
 1\1\GINC-SE049\SP\RHF\Aug-CC-pVDZ\C6H10N2O4\OHZDE\08-Apr-2025\0\\#t hf
  aug-cc-pvdz iop(5/13=1,5/36=2,99/5=2) pseudo=read geom=check guess=(r
 ead,tcheck) scf=(maxcycle=1)\\title\\0,1\N,0,7.885048,10.511445,5.3704
 38\O,0,6.875708,12.006394,4.087222\O,0,7.551157,12.675241,6.125743\C,0
 ,7.491717,9.719721,4.211985\C,0,7.051351,10.831913,3.244881\C,0,7.4655
 55,11.782764,5.290126\H,0,8.287993,10.13073,6.230055\H,0,6.687519,9.02
 875,4.460112\H,0,8.33072,9.149585,3.817056\H,0,7.813568,11.07137,2.504
 984\H,0,6.107802,10.631202,2.750776\N,0,8.750652,7.674945,8.637451\O,0

 Normal termination of Gaussian 16 at Tue Apr  8 19:11:22 2025.
