 Gaussian 16, Revision C.01,

 ----------------------------------------------------------------------
 #t hf aug-cc-pvdz symm=none int=(grid=ultrafine) guess=(read,tcheck) s
 table=(opt,rrhf)
 ----------------------------------------------------------------------
 -----
 title
 -----
 Symbolic Z-matrix:
 Charge =  0 Multiplicity = 1

 SCF Done:  E(RHF) =  -76.0377272418     A.U. after   10 cycles
 Normal termination of Gaussian 16 at Tue Apr  8 19:00:36 2025.
 Gaussian 16:  ES64L-G16RevC.01  3-Jul-2019

 ----------------------------------------------------------------------
 #t hf aug-cc-pvdz iop(5/13=1,5/36=2,99/5=2) pseudo=read geom=check gue
 ss=(read,tcheck) scf=(maxcycle=1)
 ----------------------------------------------------------------------
 -----
 title
 -----
 Structure from the checkpoint file:  "3B-69_01a_water_dimerAC_mol2.chk"
 Charge =  0 Multiplicity = 1

                         Standard orientation:
 ---------------------------------------------------------------------
 Center     Atomic      Atomic             Coordinates (Angstroms)
 Number     Number       Type             X           Y           Z
 ---------------------------------------------------------------------
      1          8           0        0.000000    0.115338    0.000000
      2          1           0        0.800724   -0.461248   -0.000000
      3          1           0       -0.800724   -0.461457    0.000000
 ---------------------------------------------------------------------

 SCF Done:  E(RHF) =  -76.3652780416     A.U. after    2 cycles

 The electronic state is 1-A'.
 Alpha  occ. eigenvalues --  -21.09340  -1.64512  -0.63222  -0.45382  -0.35116
 Alpha virt. eigenvalues --    0.03849   0.06287   0.18984   0.22019   0.23139
 Alpha virt. eigenvalues --    0.23327   0.28723   0.30085   0.35267   0.40436
 Alpha virt. eigenvalues --    0.42409   0.52197   0.65065   0.68197   0.79358

 Mulliken charges:
               1
     1  O   -1.733737
     2  H    0.866928
     3  H    0.866810
 Sum of Mulliken charges =  -0.00000

 Dipole moment (field-independent basis, Debye):
    X=              0.0002    Y=             -0.9795    Z=             -0.0000  Tot=              0.9795

 Test job not archived.
 1\1\GINC-SE179\SP\RHF\Aug-CC-pVDZ\H2O1\OHZDE\08-Apr-2025\0\\#t hf aug-
 cc-pvdz iop(5/13=1,5/36=2,99/5=2) pseudo=read geom=check guess=(read,t
 check) scf=(maxcycle=1)\\title\\0,1\O,0,-0.084889,0.056804,0.055205\H,
 0,0.710375,0.517729,0.413971\H,0,-0.890958,0.498588,0.414274\\Version=
 ES64L-G16RevC.01\State=1-A'\HF=-76.365278\RMSD=3.840e-02\Dipole=-0.003
 5274,0.3016013,0.2398328\Quadrupole=1.4980891,-0.627668,-0.8704211,0.0
 255267,-0.0067024,0.5241778\PG=CS [SG(H2O1)]\\@

 Normal termination of Gaussian 16 at Tue Apr  8 19:00:37 2025.
