 Gaussian 16, Revision C.01,

 ----------------------------------------------------------------------
 #t hf aug-cc-pvdz symm=none int=(grid=ultrafine) guess=(read,tcheck) s
 table=(opt,rrhf)
 ----------------------------------------------------------------------
 -----
 title
 -----
 Symbolic Z-matrix:
 Charge =  0 Multiplicity = 1

 SCF Done:  E(RHF) =  -599.481993546     A.U. after   14 cycles
 Normal termination of Gaussian 16 at Tue Apr  8 19:10:23 2025.
 Gaussian 16:  ES64L-G16RevC.01  3-Jul-2019

 ----------------------------------------------------------------------
 #t hf aug-cc-pvdz iop(5/13=1,5/36=2,99/5=2) pseudo=read geom=check gue
 ss=(read,tcheck) scf=(maxcycle=1)
 ----------------------------------------------------------------------
 -----
 title
 -----
 Structure from the checkpoint file:  "3B-69_14b_cyanoacetamide_dimerAB_mol1.chk"
 Charge =  0 Multiplicity = 1

                         Standard orientation:
 ---------------------------------------------------------------------
 Center     Atomic      Atomic             Coordinates (Angstroms)
 Number     Number       Type             X           Y           Z
 ---------------------------------------------------------------------
      1          6           0       -1.443343   -1.192787    0.280044
      2          6           0       -3.105017    0.611807   -0.055500
      3          6           0       -2.046449    0.118204    0.803403
      4          1           0       -1.291383    0.898386    0.904715
      5          1           0       -2.458306   -0.034721    1.803627
      6          1           0        0.034654   -2.525632    0.684888
      7          1           0       -0.040922   -1.140564    1.777819
      8          7           0       -0.419948   -1.665064    0.997395
      9          7           0       -3.945311    1.006138   -0.733789
     10          8           0       -1.914325   -1.761783   -0.707900
     11          6           0        1.444612    1.202372   -0.202716
     12          6           0        3.086314   -0.649948   -0.139203
     13          6           0        2.619272    0.545335    0.535402
     14          1           0        3.460382    1.230262    0.647109
     15          1           0        2.316102    0.272089    1.548755
     16          1           0        0.242014    2.837011   -0.121695
     17          1           0        1.484998    2.762401    1.130521
     18          7           0        1.010145    2.343982    0.338521
     19          7           0        3.459153   -1.598585   -0.670943
     20          8           0        0.938307    0.672479   -1.194927
 ---------------------------------------------------------------------

 SCF Done:  E(RHF) =  -602.129402540     A.U. after    2 cycles

 The electronic state is 1-A.
 Alpha  occ. eigenvalues --  -21.06148 -21.03468 -15.83001 -15.80310 -15.77684
 Alpha  occ. eigenvalues --  -15.75728 -11.56437 -11.53337 -11.49851 -11.47601
 Alpha  occ. eigenvalues --  -11.44736 -11.42806  -1.73548  -1.70720  -1.40639
 Alpha  occ. eigenvalues --   -1.37984  -1.33110  -1.31117  -1.17469  -1.15208
 Alpha  occ. eigenvalues --   -0.88156  -0.85655  -0.77293  -0.74901  -0.72602
 Alpha  occ. eigenvalues --   -0.70436  -0.69451  -0.67127  -0.66556  -0.64084
 Alpha  occ. eigenvalues --   -0.55806  -0.53318  -0.53119  -0.52325  -0.51308
 Alpha  occ. eigenvalues --   -0.50003  -0.45246  -0.44768  -0.43218  -0.42804
 Alpha  occ. eigenvalues --   -0.36435  -0.33704  -0.32715  -0.30172
 Alpha virt. eigenvalues --    0.00723   0.02564   0.03230   0.04019   0.04608
 Alpha virt. eigenvalues --    0.05769   0.06936   0.06958   0.08393   0.08866
 Alpha virt. eigenvalues --    0.10183   0.10257   0.10959   0.11537   0.12019

 Mulliken charges:
               1
     1  C    5.812461
     2  C    2.945871
     3  C   -4.313866
     4  H    1.759786
     5  H    1.444890
     6  H    0.837863
     7  H    0.844372
     8  N   -3.506934
     9  N   -2.617676
    10  O   -3.259774
    11  C    5.762565
    12  C    2.695348
    13  C   -3.697525
    14  H    1.496056
    15  H    1.600392
    16  H    0.851315
    17  H    0.830854
    18  N   -3.708086
    19  N   -2.557634
    20  O   -3.220278
 Sum of Mulliken charges =  -0.00000

 Dipole moment (field-independent basis, Debye):
    X=              3.5653    Y=              3.4667    Z=              5.9509  Tot=              7.7552

 Test job not archived.
 1\1\GINC-SE098\SP\RHF\Aug-CC-pVDZ\C6H8N4O2\OHZDE\08-Apr-2025\0\\#t hf
 aug-cc-pvdz iop(5/13=1,5/36=2,99/5=2) pseudo=read geom=check guess=(re
 ad,tcheck) scf=(maxcycle=1)\\title\\0,1\C,0,2.712508,16.885489,6.36813
 8\C,0,2.839569,14.413417,6.423138\C,0,2.199576,15.555103,5.799531\H,0,
 2.351814,15.490712,4.721686\H,0,1.121642,15.473767,5.957336\H,0,2.5237
 51,18.891506,6.112956\H,0,1.586888,17.904765,4.987234\N,0,2.203727,17.
 976476,5.788601\N,0,3.344448,13.505572,6.915663\O,0,3.504903,16.911923
 ,7.313138\C,0,4.07858,17.004511,2.842545\C,0,4.205641,19.476583,2.8975

 Normal termination of Gaussian 16 at Tue Apr  8 19:10:35 2025.
