 Gaussian 16, Revision C.01,

 ----------------------------------------------------------------------
 #t hf aug-cc-pvdz symm=none int=(grid=ultrafine) guess=(read,tcheck) s
 table=(opt,rrhf)
 ----------------------------------------------------------------------
 -----
 title
 -----
 Symbolic Z-matrix:
 Charge =  0 Multiplicity = 1

 SCF Done:  E(RHF) =  -731.115515815     A.U. after   15 cycles
 Normal termination of Gaussian 16 at Tue Apr  8 19:04:55 2025.
 Gaussian 16:  ES64L-G16RevC.01  3-Jul-2019

 ----------------------------------------------------------------------
 #t hf aug-cc-pvdz iop(5/13=1,5/36=2,99/5=2) pseudo=read geom=check gue
 ss=(read,tcheck) scf=(maxcycle=1)
 ----------------------------------------------------------------------
 -----
 title
 -----
 Structure from the checkpoint file:  "3B-69_05a_nitromethane_trimer_mol1.chk"
 Charge =  0 Multiplicity = 1

                         Standard orientation:
 ---------------------------------------------------------------------
 Center     Atomic      Atomic             Coordinates (Angstroms)
 Number     Number       Type             X           Y           Z
 ---------------------------------------------------------------------
      1          6           0       -2.101345   -1.221284    1.354025
      2          7           0       -2.345154   -1.408190   -0.105438
      3          8           0       -3.374065   -0.946821   -0.590184
      4          8           0       -1.491787   -1.990626   -0.756568
      5          1           0       -1.572794   -2.097606    1.705886
      6          1           0       -1.473233   -0.337924    1.452542
      7          1           0       -3.053051   -1.069209    1.845236
      8          6           0        0.674315    2.890482    0.014250
      9          7           0       -0.603213    2.123488   -0.049378
     10          8           0       -0.597014    1.020862   -0.588524
     11          8           0       -1.593263    2.620221    0.464911
     12          1           0        0.422414    3.940268   -0.060642
     13          1           0        1.115414    2.677533    0.986175
     14          1           0        1.321632    2.547551   -0.781701
     15          6           0        1.629464   -1.492197   -0.065347
     16          7           0        2.914271   -0.737494   -0.001290
     17          8           0        3.860781   -1.243808    0.593910
     18          8           0        2.971281    0.341493   -0.570476
     19          1           0        0.828750   -0.764322   -0.052387
     20          1           0        1.633397   -2.030818   -1.011088
     21          1           0        1.594064   -2.182673    0.766608
 ---------------------------------------------------------------------

 SCF Done:  E(RHF) =  -734.254578566     A.U. after    2 cycles

 The electronic state is 1-A.
 Alpha  occ. eigenvalues --  -21.11525 -21.10924 -21.09961 -21.09791 -21.09544
 Alpha  occ. eigenvalues --  -21.09351 -16.01194 -15.99778 -15.99523 -11.46090
 Alpha  occ. eigenvalues --  -11.45628 -11.44731  -2.01356  -1.99943  -1.99327
 Alpha  occ. eigenvalues --   -1.70445  -1.68908  -1.68485  -1.21375  -1.20311
 Alpha  occ. eigenvalues --   -1.19917  -0.88577  -0.87489  -0.86819  -0.72360
 Alpha  occ. eigenvalues --   -0.71055  -0.70771  -0.70228  -0.69311  -0.68678
 Alpha  occ. eigenvalues --   -0.68175  -0.67375  -0.66697  -0.58211  -0.58095
 Alpha  occ. eigenvalues --   -0.56610  -0.56508  -0.56436  -0.56131  -0.38184
 Alpha  occ. eigenvalues --   -0.36982  -0.36051  -0.33447  -0.32521  -0.31859
 Alpha  occ. eigenvalues --   -0.31477  -0.30919  -0.30688
 Alpha virt. eigenvalues --    0.02696   0.03764   0.04701   0.05013   0.05482
 Alpha virt. eigenvalues --    0.06792   0.06947   0.07443   0.09292   0.10268
 Alpha virt. eigenvalues --    0.10773   0.12300   0.13006   0.13452   0.13601

 Mulliken charges:
               1
     1  C   -3.859582
     2  N    4.578520
     3  O   -2.690906
     4  O   -2.707034
     5  H    1.495020
     6  H    1.703322
     7  H    1.413485
     8  C   -3.551087
     9  N    4.457461
    10  O   -2.725079
    11  O   -2.753568
    12  H    1.422610
    13  H    1.495130
    14  H    1.534636
    15  C   -3.874459
    16  N    4.299337
    17  O   -2.669554
    18  O   -2.630182
    19  H    2.332531
    20  H    1.358213
    21  H    1.371186
 Sum of Mulliken charges =  -0.00000

 Dipole moment (field-independent basis, Debye):
    X=             -0.1443    Y=              0.9668    Z=              1.8433  Tot=              2.0864

 Test job not archived.
 1\1\GINC-SE127\SP\RHF\Aug-CC-pVDZ\C3H9N3O6\OHZDE\08-Apr-2025\0\\#t hf
 aug-cc-pvdz iop(5/13=1,5/36=2,99/5=2) pseudo=read geom=check guess=(re
 ad,tcheck) scf=(maxcycle=1)\\title\\0,1\C,0,5.876316,12.85165,11.67900
 5\N,0,7.053622,11.936059,11.686151\O,0,7.845061,12.008533,12.621496\O,
 0,7.159396,11.135353,10.770117\H,0,5.662227,13.091026,10.645575\H,0,5.
 048894,12.295747,12.115925\H,0,6.111871,13.719841,12.279769\C,0,3.2838
 16,8.97785,13.841995\N,0,4.461122,9.893441,13.834849\O,0,5.252561,9.82
 0967,12.899504\O,0,4.566896,10.694147,14.750883\H,0,3.069727,8.738474,

 Normal termination of Gaussian 16 at Tue Apr  8 19:05:13 2025.
