 Gaussian 16, Revision C.01,

 ----------------------------------------------------------------------
 #t hf aug-cc-pvdz symm=none int=(grid=ultrafine) guess=(read,tcheck) s
 table=(opt,rrhf)
 ----------------------------------------------------------------------
 -----
 title
 -----
 Symbolic Z-matrix:
 Charge =  0 Multiplicity = 1

 SCF Done:  E(RHF) =  -641.505142984     A.U. after   13 cycles
 Normal termination of Gaussian 16 at Tue Apr  8 19:11:31 2025.
 Gaussian 16:  ES64L-G16RevC.01  3-Jul-2019

 ----------------------------------------------------------------------
 #t hf aug-cc-pvdz iop(5/13=1,5/36=2,99/5=2) pseudo=read geom=check gue
 ss=(read,tcheck) scf=(maxcycle=1)
 ----------------------------------------------------------------------
 -----
 title
 -----
 Structure from the checkpoint file:  "3B-69_17c_oxazolidinone_dimerBC_mol1.chk"
 Charge =  0 Multiplicity = 1

                         Standard orientation:
 ---------------------------------------------------------------------
 Center     Atomic      Atomic             Coordinates (Angstroms)
 Number     Number       Type             X           Y           Z
 ---------------------------------------------------------------------
      1          7           0       -4.980029   -0.239623   -0.136263
      2          8           0       -2.905702    0.380027    0.325776
      3          8           0       -4.340908    1.976652   -0.345138
      4          6           0       -4.323972   -1.511400    0.138912
      5          6           0       -2.984831   -1.020658    0.715157
      6          6           0       -4.132338    0.798180   -0.080941
      7          1           0       -5.933039   -0.137923   -0.493588
      8          1           0       -4.205952   -2.099952   -0.769614
      9          1           0       -4.884693   -2.099025    0.863647
     10          1           0       -2.956099   -1.059618    1.803007
     11          1           0       -2.120964   -1.530646    0.304847
     12          7           0        3.467558    0.977009   -0.033579
     13          8           0        4.336070   -1.042646   -0.292351
     14          8           0        2.361376   -0.626857   -1.285760
     15          6           0        4.762214    1.103006    0.623336
     16          6           0        5.204269   -0.369805    0.663322
     17          6           0        3.289811   -0.229678   -0.591241
     18          1           0        2.821630    1.750855   -0.207337
     19          1           0        5.437566    1.734351    0.047973
     20          1           0        4.661361    1.521947    1.622971
     21          1           0        5.039856   -0.831523    1.635715
     22          1           0        6.230028   -0.525443    0.349789
 ---------------------------------------------------------------------

 SCF Done:  E(RHF) =  -644.293093314     A.U. after    2 cycles

 The electronic state is 1-A.
 Alpha  occ. eigenvalues --  -21.08881 -21.08218 -21.01596 -21.01096 -15.77511
 Alpha  occ. eigenvalues --  -15.77074 -11.51008 -11.50472 -11.49238 -11.48637
 Alpha  occ. eigenvalues --  -11.42229 -11.41581  -1.85202  -1.84565  -1.64359
 Alpha  occ. eigenvalues --   -1.63834  -1.40668  -1.40192  -1.11746  -1.11117
 Alpha  occ. eigenvalues --   -0.91926  -0.91293  -0.83666  -0.83187  -0.71394
 Alpha  occ. eigenvalues --   -0.70738  -0.69971  -0.69401  -0.60590  -0.60016
 Alpha  occ. eigenvalues --   -0.58190  -0.57521  -0.55661  -0.55103  -0.55099
 Alpha  occ. eigenvalues --   -0.54500  -0.48058  -0.47527  -0.42822  -0.42163
 Alpha  occ. eigenvalues --   -0.34532  -0.33975  -0.30387  -0.29834  -0.28799
 Alpha  occ. eigenvalues --   -0.28306
 Alpha virt. eigenvalues --    0.02824   0.03519   0.04757   0.04865   0.05158
 Alpha virt. eigenvalues --    0.05311   0.05575   0.05797   0.06391   0.07657
 Alpha virt. eigenvalues --    0.09052   0.09883   0.10879   0.11570   0.12057

 Mulliken charges:
               1
     1  N   -2.374794
     2  O   -2.786197
     3  O   -3.083117
     4  C   -2.485444
     5  C   -1.564124
     6  C    5.909070
     7  H    0.707164
     8  H    1.393457
     9  H    1.391385
    10  H    1.392432
    11  H    1.502980
    12  N   -2.420762
    13  O   -2.820616
    14  O   -3.092018
    15  C   -2.399530
    16  C   -1.581576
    17  C    5.992443
    18  H    0.722484
    19  H    1.384751
    20  H    1.376389
    21  H    1.414454
    22  H    1.421170
 Sum of Mulliken charges =   0.00000

 Dipole moment (field-independent basis, Debye):
    X=              2.1776    Y=             -1.6660    Z=              2.6208  Tot=              3.7929

 Test job not archived.
 1\1\GINC-SE132\SP\RHF\Aug-CC-pVDZ\C6H10N2O4\OHZDE\08-Apr-2025\0\\#t hf
  aug-cc-pvdz iop(5/13=1,5/36=2,99/5=2) pseudo=read geom=check guess=(r
 ead,tcheck) scf=(maxcycle=1)\\title\\0,1\N,0,4.978186,2.001945,-0.7011
 42\O,0,5.987525,3.496894,0.582074\O,0,5.312076,4.165741,-1.456447\C,0,
 5.371517,1.210221,0.457311\C,0,5.811882,2.322413,1.424416\C,0,5.397678
 ,3.273264,-0.62083\H,0,4.57524,1.62123,-1.560759\H,0,6.175714,0.51925,
 0.209184\H,0,4.532513,0.640085,0.85224\H,0,5.049665,2.56187,2.164312\H
 ,0,6.755431,2.121702,1.91852\N,0,10.523419,6.507555,3.968155\O,0,11.53

 Normal termination of Gaussian 16 at Tue Apr  8 19:11:41 2025.
