 Gaussian 16, Revision C.01,

 ----------------------------------------------------------------------
 #t hf aug-cc-pvdz symm=none int=(grid=ultrafine) guess=(read,tcheck) s
 table=(opt,rrhf)
 ----------------------------------------------------------------------
 -----
 title
 -----
 Symbolic Z-matrix:
 Charge =  0 Multiplicity = 1

 SCF Done:  E(RHF) =  -591.800114347     A.U. after   15 cycles
 Normal termination of Gaussian 16 at Tue Apr  8 19:09:39 2025.
 Gaussian 16:  ES64L-G16RevC.01  3-Jul-2019

 ----------------------------------------------------------------------
 #t hf aug-cc-pvdz iop(5/13=1,5/36=2,99/5=2) pseudo=read geom=check gue
 ss=(read,tcheck) scf=(maxcycle=1)
 ----------------------------------------------------------------------
 -----
 title
 -----
 Structure from the checkpoint file:  "3B-69_15b_cyanoguanidine_dimerBC_mol1.chk"
 Charge =  0 Multiplicity = 1

                         Standard orientation:
 ---------------------------------------------------------------------
 Center     Atomic      Atomic             Coordinates (Angstroms)
 Number     Number       Type             X           Y           Z
 ---------------------------------------------------------------------
      1          7           0        1.217971    2.734355    0.282908
      2          6           0        1.874783    1.805433    0.014364
      3          7           0        2.654341    0.838570   -0.347498
      4          6           0        2.463485   -0.407041    0.116775
      5          7           0        1.509129   -0.733697    0.995339
      6          7           0        3.295999   -1.355048   -0.310627
      7          1           0        1.356915   -1.711372    1.213343
      8          1           0        0.839021   -0.058839    1.343845
      9          1           0        3.172984   -2.303018    0.027757
     10          1           0        3.997434   -1.123846   -1.013867
     11          7           0       -3.151940    2.116967   -0.021581
     12          6           0       -2.495128    1.188045   -0.290126
     13          7           0       -1.715570    0.221182   -0.651988
     14          6           0       -1.906427   -1.024430   -0.187715
     15          7           0       -2.860782   -1.351085    0.690850
     16          7           0       -1.073912   -1.972436   -0.615116
     17          1           0       -3.012996   -2.328760    0.908853
     18          1           0       -3.530890   -0.676227    1.039355
     19          1           0       -1.196927   -2.920406   -0.276732
     20          1           0       -0.372477   -1.741234   -1.318356
 ---------------------------------------------------------------------

 SCF Done:  E(RHF) =  -594.463675694     A.U. after    2 cycles

 The electronic state is 1-A.
 Alpha  occ. eigenvalues --  -15.82717 -15.82491 -15.82071 -15.81703 -15.73291
 Alpha  occ. eigenvalues --  -15.72731 -15.70420 -15.69823 -11.55237 -11.54599
 Alpha  occ. eigenvalues --  -11.42590 -11.41807  -1.55869  -1.55204  -1.35710
 Alpha  occ. eigenvalues --   -1.35037  -1.33372  -1.32751  -1.21200  -1.20606
 Alpha  occ. eigenvalues --   -0.92933  -0.92263  -0.81073  -0.80389  -0.76223
 Alpha  occ. eigenvalues --   -0.75601  -0.67569  -0.66820  -0.65174  -0.64553
 Alpha  occ. eigenvalues --   -0.63617  -0.62670  -0.51872  -0.51386  -0.48440
 Alpha  occ. eigenvalues --   -0.47617  -0.47315  -0.46639  -0.43304  -0.40994
 Alpha  occ. eigenvalues --   -0.34149  -0.33654  -0.30435  -0.29735
 Alpha virt. eigenvalues --    0.00157   0.01732   0.03119   0.03457   0.04684
 Alpha virt. eigenvalues --    0.05461   0.07198   0.07704   0.09083   0.09518
 Alpha virt. eigenvalues --    0.10106   0.11429   0.11953   0.12778   0.13404

 Mulliken charges:
               1
     1  N   -2.785942
     2  C    3.356429
     3  N   -2.794682
     4  C    4.929327
     5  N   -2.557398
     6  N   -3.032718
     7  H    0.746155
     8  H    0.767294
     9  H    0.637705
    10  H    0.719432
    11  N   -2.885656
    12  C    3.434492
    13  N   -2.686871
    14  C    5.122684
    15  N   -2.880422
    16  N   -3.036513
    17  H    0.762894
    18  H    0.721847
    19  H    0.670139
    20  H    0.791803
 Sum of Mulliken charges =   0.00000

 Dipole moment (field-independent basis, Debye):
    X=              1.9965    Y=            -15.2007    Z=              1.4653  Tot=             15.4011

 Test job not archived.
 1\1\GINC-SE365\SP\RHF\Aug-CC-pVDZ\C4H8N8\OHZDE\08-Apr-2025\0\\#t hf au
 g-cc-pvdz iop(5/13=1,5/36=2,99/5=2) pseudo=read geom=check guess=(read
 ,tcheck) scf=(maxcycle=1)\\title\\0,1\N,0,-1.410087,2.259235,13.297945
 \C,0,-0.597061,1.758549,12.623618\N,0,0.330459,1.14833,11.959677\C,0,0
 .591976,1.478744,10.684546\N,0,-0.089552,2.406591,10.003375\N,0,1.5708
 67,0.818093,10.068282\H,0,0.237017,2.67839,9.083581\H,0,-0.833555,2.95
 0365,10.423737\H,0,1.785298,1.048618,9.104352\H,0,2.124356,0.14134,10.
 593322\N,0,-1.410087,6.683035,13.297945\C,0,-0.597061,6.182349,12.6236

 Normal termination of Gaussian 16 at Tue Apr  8 19:09:48 2025.
