 Gaussian 16, Revision C.01,

 ----------------------------------------------------------------------
 #t hf aug-cc-pvdz symm=none int=(grid=ultrafine) guess=(read,tcheck) s
 table=(opt,rrhf)
 ----------------------------------------------------------------------
 -----
 title
 -----
 Symbolic Z-matrix:
 Charge =  0 Multiplicity = 1

 SCF Done:  E(RHF) =  -339.384555971     A.U. after   13 cycles
 Normal termination of Gaussian 16 at Tue Apr  8 19:04:05 2025.
 Gaussian 16:  ES64L-G16RevC.01  3-Jul-2019

 ----------------------------------------------------------------------
 #t hf aug-cc-pvdz iop(5/13=1,5/36=2,99/5=2) pseudo=read geom=check gue
 ss=(read,tcheck) scf=(maxcycle=1)
 ----------------------------------------------------------------------
 -----
 title
 -----
 Structure from the checkpoint file:  "3B-69_08a_vinylene_carbonate_dimerAB_mol2.chk"
 Charge =  0 Multiplicity = 1

                         Standard orientation:
 ---------------------------------------------------------------------
 Center     Atomic      Atomic             Coordinates (Angstroms)
 Number     Number       Type             X           Y           Z
 ---------------------------------------------------------------------
      1          6           0       -1.338334   -0.659551    0.008366
      2          6           0       -1.337111    0.663132    0.010433
      3          6           0        0.777173   -0.003044   -0.006154
      4          1           0       -2.106735   -1.408288    0.003289
      5          1           0       -2.100623    1.415317    0.024180
      6          8           0       -0.014708   -1.101028   -0.011694
      7          8           0       -0.011087    1.098976   -0.016061
      8          8           0        1.975419    0.000770    0.014838
 ---------------------------------------------------------------------

 SCF Done:  E(RHF) =  -340.782944647     A.U. after    2 cycles

 The electronic state is 1-A.
 Alpha  occ. eigenvalues --  -21.14582 -21.14458 -21.06223 -11.55845 -11.51554
 Alpha  occ. eigenvalues --  -11.45466  -1.98472  -1.75225  -1.69708  -1.13651
 Alpha  occ. eigenvalues --   -0.88573  -0.84098  -0.75432  -0.67178  -0.63566
 Alpha  occ. eigenvalues --   -0.53286  -0.51726  -0.47682  -0.45060  -0.44316
 Alpha  occ. eigenvalues --   -0.32429  -0.27618
 Alpha virt. eigenvalues --    0.02590   0.04072   0.08433   0.09229   0.10256
 Alpha virt. eigenvalues --    0.11374   0.11555   0.12071   0.12306   0.13278
 Alpha virt. eigenvalues --    0.13339   0.14622   0.17608   0.18296   0.20541

 Mulliken charges:
               1
     1  C    0.365479
     2  C    0.349093
     3  C    6.155760
     4  H    1.270420
     5  H    1.266504
     6  O   -3.174187
     7  O   -3.169060
     8  O   -3.064009
 Sum of Mulliken charges =   0.00000

 Dipole moment (field-independent basis, Debye):
    X=             -3.6081    Y=              0.0041    Z=             -0.0202  Tot=              3.6081

 Test job not archived.
 1\1\GINC-SE009\SP\RHF\Aug-CC-pVDZ\C3H2O3\OHZDE\08-Apr-2025\0\\#t hf au
 g-cc-pvdz iop(5/13=1,5/36=2,99/5=2) pseudo=read geom=check guess=(read
 ,tcheck) scf=(maxcycle=1)\\title\\0,1\C,0,0.845927,15.309211,1.553806\
 C,0,1.46459,14.71303,2.55945\C,0,0.932131,13.146144,1.084452\H,0,0.584
 258,16.325703,1.331665\H,0,1.890128,15.047782,3.484534\O,0,0.509604,14
 .34051,0.607341\O,0,1.545281,13.348493,2.275671\O,0,0.782676,12.082704
 ,0.552468\\Version=ES64L-G16RevC.01\State=1-A\HF=-340.7829446\RMSD=6.2
 13e-01\Dipole=0.1651064,1.2548794,0.6427483\Quadrupole=-0.2279732,-0.2

 Normal termination of Gaussian 16 at Tue Apr  8 19:04:09 2025.
