 Gaussian 16, Revision C.01,

 ----------------------------------------------------------------------
 #t hf aug-cc-pvdz symm=none int=(grid=ultrafine) guess=(read,tcheck) s
 table=(opt,rrhf)
 ----------------------------------------------------------------------
 -----
 title
 -----
 Symbolic Z-matrix:
 Charge =  0 Multiplicity = 1

 SCF Done:  E(RHF) =  -76.0380099697     A.U. after   10 cycles
 Normal termination of Gaussian 16 at Tue Apr  8 19:00:38 2025.
 Gaussian 16:  ES64L-G16RevC.01  3-Jul-2019

 ----------------------------------------------------------------------
 #t hf aug-cc-pvdz iop(5/13=1,5/36=2,99/5=2) pseudo=read geom=check gue
 ss=(read,tcheck) scf=(maxcycle=1)
 ----------------------------------------------------------------------
 -----
 title
 -----
 Structure from the checkpoint file:  "3B-69_01a_water_dimerBC_mol3.chk"
 Charge =  0 Multiplicity = 1

                         Standard orientation:
 ---------------------------------------------------------------------
 Center     Atomic      Atomic             Coordinates (Angstroms)
 Number     Number       Type             X           Y           Z
 ---------------------------------------------------------------------
      1          8           0        0.000000    0.116861   -0.000000
      2          1           0        0.794549   -0.467224    0.000000
      3          1           0       -0.794549   -0.467662    0.000000
 ---------------------------------------------------------------------

 SCF Done:  E(RHF) =  -76.3656467971     A.U. after    2 cycles

 The electronic state is 1-A'.
 Alpha  occ. eigenvalues --  -21.09408  -1.64590  -0.63026  -0.45666  -0.35146
 Alpha virt. eigenvalues --    0.03841   0.06300   0.18954   0.22026   0.23199
 Alpha virt. eigenvalues --    0.23327   0.28713   0.30218   0.35334   0.40233
 Alpha virt. eigenvalues --    0.42223   0.52348   0.65089   0.68181   0.79058

 Mulliken charges:
               1
     1  O   -1.728411
     2  H    0.864334
     3  H    0.864077
 Sum of Mulliken charges =  -0.00000

 Dipole moment (field-independent basis, Debye):
    X=              0.0004    Y=             -0.9824    Z=              0.0000  Tot=              0.9824

 Test job not archived.
 1\1\GINC-SE214\SP\RHF\Aug-CC-pVDZ\H2O1\OHZDE\08-Apr-2025\0\\#t hf aug-
 cc-pvdz iop(5/13=1,5/36=2,99/5=2) pseudo=read geom=check guess=(read,t
 check) scf=(maxcycle=1)\\title\\0,1\O,0,2.201771,1.306708,0.969979\H,0
 ,2.989729,0.844404,0.598684\H,0,2.274831,1.268852,1.952936\\Version=ES
 64L-G16RevC.01\State=1-A'\HF=-76.3656468\RMSD=3.843e-02\Dipole=0.28484
 91,-0.1654681,0.2021479\Quadrupole=-0.1288251,-0.8849263,1.0137514,-0.
 6773786,-0.6287885,0.378765\PG=CS [SG(H2O1)]\\@

 Normal termination of Gaussian 16 at Tue Apr  8 19:00:40 2025.
