 Gaussian 16, Revision C.01,

 ----------------------------------------------------------------------
 #t hf aug-cc-pvdz symm=none int=(grid=ultrafine) guess=(read,tcheck) s
 table=(opt,rrhf)
 ----------------------------------------------------------------------
 -----
 title
 -----
 Symbolic Z-matrix:
 Charge =  0 Multiplicity = 1

 SCF Done:  E(RHF) =  -641.509334388     A.U. after   13 cycles
 Normal termination of Gaussian 16 at Tue Apr  8 19:12:07 2025.
 Gaussian 16:  ES64L-G16RevC.01  3-Jul-2019

 ----------------------------------------------------------------------
 #t hf aug-cc-pvdz iop(5/13=1,5/36=2,99/5=2) pseudo=read geom=check gue
 ss=(read,tcheck) scf=(maxcycle=1)
 ----------------------------------------------------------------------
 -----
 title
 -----
 Structure from the checkpoint file:  "3B-69_17a_oxazolidinone_dimerBC_mol1.chk"
 Charge =  0 Multiplicity = 1

                         Standard orientation:
 ---------------------------------------------------------------------
 Center     Atomic      Atomic             Coordinates (Angstroms)
 Number     Number       Type             X           Y           Z
 ---------------------------------------------------------------------
      1          7           0        3.481538   -0.975728    0.212379
      2          8           0        2.052928    0.606771   -0.383482
      3          8           0        1.275452   -1.500163   -0.258929
      4          6           0        4.334229    0.202585    0.122684
      5          6           0        3.274866    1.308990   -0.018039
      6          6           0        2.213141   -0.719924   -0.140336
      7          1           0        3.816403   -1.930417    0.362995
      8          1           0        5.002795    0.142285   -0.734710
      9          1           0        4.933332    0.328843    1.022732
     10          1           0        3.084619    1.830088    0.918992
     11          1           0        3.494889    2.025798   -0.800653
     12          7           0       -2.182082   -0.678740    0.347049
     13          8           0       -3.610692    0.903759   -0.248811
     14          8           0       -4.388168   -1.203175   -0.124259
     15          6           0       -1.329391    0.499574    0.257355
     16          6           0       -2.388753    1.605978    0.116632
     17          6           0       -3.450479   -0.422936   -0.005665
     18          1           0       -1.847217   -1.633428    0.497666
     19          1           0       -0.660825    0.439273   -0.600039
     20          1           0       -0.730288    0.625831    1.157403
     21          1           0       -2.579001    2.127076    1.053663
     22          1           0       -2.168731    2.322787   -0.665982
 ---------------------------------------------------------------------

 SCF Done:  E(RHF) =  -644.296028296     A.U. after    2 cycles

 The electronic state is 1-A.
 Alpha  occ. eigenvalues --  -21.10929 -21.06871 -21.03785 -20.99590 -15.79429
 Alpha  occ. eigenvalues --  -15.75017 -11.53377 -11.51158 -11.48977 -11.47441
 Alpha  occ. eigenvalues --  -11.43970 -11.40018  -1.87389  -1.83150  -1.66746
 Alpha  occ. eigenvalues --   -1.62400  -1.42575  -1.38120  -1.13536  -1.09412
 Alpha  occ. eigenvalues --   -0.93701  -0.89534  -0.85605  -0.81173  -0.73150
 Alpha  occ. eigenvalues --   -0.71875  -0.69036  -0.67640  -0.62562  -0.59905
 Alpha  occ. eigenvalues --   -0.58367  -0.57625  -0.56897  -0.55852  -0.53394
 Alpha  occ. eigenvalues --   -0.52725  -0.50298  -0.46100  -0.44908  -0.40679
 Alpha  occ. eigenvalues --   -0.36436  -0.32658  -0.32338  -0.30927  -0.28402
 Alpha  occ. eigenvalues --   -0.26834
 Alpha virt. eigenvalues --    0.01874   0.03731   0.03882   0.03933   0.04114
 Alpha virt. eigenvalues --    0.05320   0.06271   0.06876   0.07416   0.07993
 Alpha virt. eigenvalues --    0.09049   0.10058   0.10798   0.11779   0.12245

 Mulliken charges:
               1
     1  N   -2.541305
     2  O   -2.828965
     3  O   -3.240598
     4  C   -2.672973
     5  C   -1.441544
     6  C    6.232223
     7  H    0.747612
     8  H    1.453998
     9  H    1.407790
    10  H    1.504633
    11  H    1.485444
    12  N   -2.190813
    13  O   -2.848659
    14  O   -3.210864
    15  C   -3.077766
    16  C   -1.508103
    17  C    5.959391
    18  H    0.747320
    19  H    1.630760
    20  H    1.602469
    21  H    1.381176
    22  H    1.408775
 Sum of Mulliken charges =  -0.00000

 Dipole moment (field-independent basis, Debye):
    X=              8.6138    Y=              2.8526    Z=              1.0109  Tot=              9.1300

 Test job not archived.
 1\1\GINC-SE220\SP\RHF\Aug-CC-pVDZ\C6H10N2O4\OHZDE\08-Apr-2025\0\\#t hf
  aug-cc-pvdz iop(5/13=1,5/36=2,99/5=2) pseudo=read geom=check guess=(r
 ead,tcheck) scf=(maxcycle=1)\\title\\0,1\N,0,1.432652,2.001945,8.63745
 1\O,0,2.441991,3.496894,9.920667\O,0,1.766543,4.165741,7.882146\C,0,1.
 825983,1.210221,9.795904\C,0,2.266349,2.322413,10.763008\C,0,1.852144,
 3.273264,8.717763\H,0,1.029707,1.62123,7.777834\H,0,2.63018,0.51925,9.
 547777\H,0,0.986979,0.640085,10.190833\H,0,1.504131,2.56187,11.502905\
 H,0,3.209898,2.121702,11.257113\N,0,1.432652,7.674945,8.637451\O,0,2.4

 Normal termination of Gaussian 16 at Tue Apr  8 19:12:20 2025.
