 Gaussian 16, Revision C.01,

 ----------------------------------------------------------------------
 #t hf aug-cc-pvdz symm=none int=(grid=ultrafine) guess=(read,tcheck) s
 table=(opt,rrhf)
 ----------------------------------------------------------------------
 -----
 title
 -----
 Symbolic Z-matrix:
 Charge =  0 Multiplicity = 1

 SCF Done:  E(RHF) =  -455.689572165     A.U. after   13 cycles
 Normal termination of Gaussian 16 at Tue Apr  8 19:02:12 2025.
 Gaussian 16:  ES64L-G16RevC.01  3-Jul-2019

 ----------------------------------------------------------------------
 #t hf aug-cc-pvdz iop(5/13=1,5/36=2,99/5=2) pseudo=read geom=check gue
 ss=(read,tcheck) scf=(maxcycle=1)
 ----------------------------------------------------------------------
 -----
 title
 -----
 Structure from the checkpoint file:  "3B-69_06a_acetic_acid_dimerAB_mol1.chk"
 Charge =  0 Multiplicity = 1

                         Standard orientation:
 ---------------------------------------------------------------------
 Center     Atomic      Atomic             Coordinates (Angstroms)
 Number     Number       Type             X           Y           Z
 ---------------------------------------------------------------------
      1          8           0       -3.892235   -0.595942   -0.452684
      2          1           0       -4.609822    0.015855   -0.798339
      3          8           0       -2.950817    1.301573    0.237623
      4          6           0       -2.910846    0.080436    0.119677
      5          6           0       -1.786361   -0.781117    0.600582
      6          1           0       -0.990336   -0.163396    1.002838
      7          1           0       -2.152577   -1.459290    1.371528
      8          1           0       -1.413268   -1.395324   -0.216803
      9          8           0        1.863619   -0.498367   -0.700202
     10          1           0        1.146032    0.113430   -1.045857
     11          8           0        2.805037    1.399147   -0.009895
     12          6           0        2.845008    0.178011   -0.127841
     13          6           0        3.969493   -0.683542    0.353064
     14          1           0        4.765518   -0.065821    0.755320
     15          1           0        3.603277   -1.361716    1.124010
     16          1           0        4.342586   -1.297750   -0.464321
 ---------------------------------------------------------------------

 SCF Done:  E(RHF) =  -457.647440535     A.U. after    2 cycles

 The electronic state is 1-A.
 Alpha  occ. eigenvalues --  -21.12842 -21.12818 -21.04656 -21.04520 -11.52304
 Alpha  occ. eigenvalues --  -11.52110 -11.40366 -11.39974  -1.83366  -1.83255
 Alpha  occ. eigenvalues --   -1.64157  -1.64074  -1.12075  -1.11881  -0.81251
 Alpha  occ. eigenvalues --   -0.81051  -0.64210  -0.64077  -0.62705  -0.62526
 Alpha  occ. eigenvalues --   -0.60859  -0.60804  -0.55268  -0.55014  -0.50611
 Alpha  occ. eigenvalues --   -0.50391  -0.44845  -0.44787  -0.33720  -0.33599
 Alpha  occ. eigenvalues --   -0.29732  -0.29558
 Alpha virt. eigenvalues --    0.02896   0.04191   0.05297   0.05460   0.06102
 Alpha virt. eigenvalues --    0.06763   0.06912   0.08338   0.09728   0.11627
 Alpha virt. eigenvalues --    0.11819   0.12486   0.12665   0.13752   0.14161

 Mulliken charges:
               1
     1  O   -2.901265
     2  H    0.887992
     3  O   -2.821153
     4  C    5.101137
     5  C   -4.162702
     6  H    1.335040
     7  H    1.274517
     8  H    1.294288
     9  O   -3.010542
    10  H    0.954719
    11  O   -2.846621
    12  C    5.194833
    13  C   -4.044574
    14  H    1.262399
    15  H    1.246315
    16  H    1.235618
 Sum of Mulliken charges =  -0.00000

 Dipole moment (field-independent basis, Debye):
    X=             -0.1446    Y=             -2.7161    Z=             -0.3799  Tot=              2.7463

 Test job not archived.
 1\1\GINC-SE092\SP\RHF\Aug-CC-pVDZ\C4H8O4\OHZDE\08-Apr-2025\0\\#t hf au
 g-cc-pvdz iop(5/13=1,5/36=2,99/5=2) pseudo=read geom=check guess=(read
 ,tcheck) scf=(maxcycle=1)\\title\\0,1\O,0,4.919921,3.501003,0.030827\H
 ,0,4.228836,3.730734,-0.660786\O,0,3.244878,2.37471,0.97372\C,0,4.4111
 08,2.75681,0.998036\C,0,5.385992,2.434653,2.086074\H,0,4.892304,1.8762
 53,2.874431\H,0,6.206877,1.84636,1.675647\H,0,5.815635,3.352282,2.4834
 8\O,0,4.919921,3.501003,5.792827\H,0,4.228836,3.730734,5.101214\O,0,3.
 244878,2.37471,6.73572\C,0,4.411108,2.75681,6.760036\C,0,5.385992,2.43

 Normal termination of Gaussian 16 at Tue Apr  8 19:02:17 2025.
