 Gaussian 16, Revision C.01,

 ----------------------------------------------------------------------
 #t hf aug-cc-pvdz symm=none int=(grid=ultrafine) guess=(read,tcheck) s
 table=(opt,rrhf)
 ----------------------------------------------------------------------
 -----
 title
 -----
 Symbolic Z-matrix:
 Charge =  0 Multiplicity = 1

 SCF Done:  E(RHF) =  -916.483616847     A.U. after   15 cycles
 Normal termination of Gaussian 16 at Tue Apr  8 19:45:33 2025.
 Gaussian 16:  ES64L-G16RevC.01  3-Jul-2019

 ----------------------------------------------------------------------
 #t hf aug-cc-pvdz iop(5/13=1,5/36=2,99/5=2) pseudo=read geom=check gue
 ss=(read,tcheck) scf=(maxcycle=1)
 ----------------------------------------------------------------------
 -----
 title
 -----
 Structure from the checkpoint file:  "3B-69_23a_cyclobutylfuran_trimer_mol1.chk"
 Charge =  0 Multiplicity = 1

                         Standard orientation:
 ---------------------------------------------------------------------
 Center     Atomic      Atomic             Coordinates (Angstroms)
 Number     Number       Type             X           Y           Z
 ---------------------------------------------------------------------
      1          8           0       -3.386266   -1.636641   -1.288022
      2          6           0       -3.868858   -0.883052   -0.229646
      3          1           0       -4.798568   -0.376519   -0.411628
      4          6           0       -2.991768   -0.997611    0.790443
      5          6           0       -2.367443   -0.779537    2.164717
      6          1           0       -2.043939    0.240387    2.367910
      7          1           0       -2.953846   -1.134460    3.011084
      8          6           0       -1.203320   -1.748657    1.691197
      9          1           0       -0.215660   -1.294643    1.645319
     10          1           0       -1.136170   -2.685676    2.240353
     11          6           0       -1.937484   -1.847062    0.365405
     12          6           0       -2.190209   -2.223325   -0.904141
     13          1           0       -1.722239   -2.847822   -1.642543
     14          8           0        1.867630   -1.337189   -1.989726
     15          6           0        1.385038   -0.583599   -0.931351
     16          1           0        0.455327   -0.077066   -1.113332
     17          6           0        2.262127   -0.698159    0.088739
     18          6           0        2.886452   -0.480085    1.463013
     19          1           0        3.209957    0.539839    1.666206
     20          1           0        2.300050   -0.835008    2.309379
     21          6           0        4.050576   -1.449204    0.989493
     22          1           0        5.038236   -0.995190    0.943615
     23          1           0        4.117725   -2.386223    1.538649
     24          6           0        3.316412   -1.547610   -0.336299
     25          6           0        3.063686   -1.923872   -1.605845
     26          1           0        3.531657   -2.548369   -2.344247
     27          8           0       -1.010439    2.534974   -1.802759
     28          6           0       -1.401059    1.815562   -0.684361
     29          1           0       -2.259735    1.184423   -0.819984
     30          6           0       -0.550159    2.120452    0.318636
     31          6           0        0.089452    2.093701    1.702887
     32          1           0        0.536081    1.141697    1.986432
     33          1           0       -0.540763    2.440471    2.520660
     34          6           0        1.126593    3.158297    1.146496
     35          1           0        2.163210    2.828239    1.132567
     36          1           0        1.074078    4.137802    1.617557
     37          6           0        0.392610    3.056992   -0.179178
     38          6           0        0.101542    3.294817   -1.473747
     39          1           0        0.492066    3.910681   -2.262691
 ---------------------------------------------------------------------

 SCF Done:  E(RHF) =  -920.805684014     A.U. after    2 cycles

 The electronic state is 1-A.
 Alpha  occ. eigenvalues --  -21.09807 -21.09615 -21.09405 -11.51054 -11.50825
 Alpha  occ. eigenvalues --  -11.50062 -11.47641 -11.47494 -11.46951 -11.45261
 Alpha  occ. eigenvalues --  -11.45131 -11.44725 -11.41123 -11.41006 -11.40596
 Alpha  occ. eigenvalues --  -11.40295 -11.40150 -11.39900 -11.36488 -11.36105
 Alpha  occ. eigenvalues --  -11.36001  -1.81761  -1.81506  -1.81236  -1.33211
 Alpha  occ. eigenvalues --   -1.33109  -1.33031  -1.05091  -1.04792  -1.04661
 Alpha  occ. eigenvalues --   -1.04499  -1.04405  -1.04126  -0.92408  -0.92239
 Alpha  occ. eigenvalues --   -0.92077  -0.81339  -0.81164  -0.81039  -0.71849
 Alpha  occ. eigenvalues --   -0.71673  -0.71498  -0.70064  -0.69916  -0.69808
 Alpha  occ. eigenvalues --   -0.65085  -0.64813  -0.64726  -0.55668  -0.55393
 Alpha  occ. eigenvalues --   -0.55040  -0.54030  -0.53844  -0.53824  -0.53041
 Alpha  occ. eigenvalues --   -0.52456  -0.52308  -0.52008  -0.51835  -0.51535
 Alpha  occ. eigenvalues --   -0.46553  -0.46530  -0.46442  -0.41157  -0.41067
 Alpha  occ. eigenvalues --   -0.40929  -0.39674  -0.39619  -0.39490  -0.31714
 Alpha  occ. eigenvalues --   -0.31576  -0.31263  -0.30935  -0.30586  -0.30199
 Alpha virt. eigenvalues --    0.03609   0.04028   0.04166   0.04818   0.05047
 Alpha virt. eigenvalues --    0.05391   0.05579   0.05880   0.06132   0.06378
 Alpha virt. eigenvalues --    0.06759   0.07172   0.07638   0.08055   0.08483

 Mulliken charges:
               1
     1  O   -3.788453
     2  C   -1.550147
     3  H    1.476212
     4  C    2.111712
     5  C   -3.999636
     6  H    1.815307
     7  H    1.230363
     8  C   -3.785903
     9  H    2.237621
    10  H    1.289681
    11  C    2.789127
    12  C   -1.338924
    13  H    1.514000
    14  O   -4.231069
    15  C    1.019000
    16  H    2.345940
    17  C    2.797080
    18  C   -5.029592
    19  H    1.473578
    20  H    1.756290
    21  C   -4.604138
    22  H    1.223146
    23  H    1.231093
    24  C    1.105402
    25  C   -0.265091
    26  H    1.474415
    27  O   -3.984118
    28  C   -1.262862
    29  H    1.873458
    30  C    3.882393
    31  C   -4.870064
    32  H    1.763453
    33  H    1.395076
    34  C   -4.074331
    35  H    1.461385
    36  H    1.219774
    37  C    1.414880
    38  C   -0.570266
    39  H    1.454209
 Sum of Mulliken charges =   0.00000

 Dipole moment (field-independent basis, Debye):
    X=              0.5404    Y=              0.0388    Z=              0.7956  Tot=              0.9626

 Test job not archived.
 1\1\GINC-SE364\SP\RHF\Aug-CC-pVDZ\C18H18O3\OHZDE\08-Apr-2025\0\\#t hf
 aug-cc-pvdz iop(5/13=1,5/36=2,99/5=2) pseudo=read geom=check guess=(re
 ad,tcheck) scf=(maxcycle=1)\\title\\0,1\O,0,-0.126301,16.441388,12.924
 526\C,0,-0.701266,17.4636,12.185981\H,0,-1.568703,17.187494,11.615566\
 C,0,0.02543,18.581936,12.396288\C,0,0.473934,20.034432,12.273536\H,0,0
 .824753,20.32698,11.284835\H,0,-0.238268,20.779526,12.625356\C,0,1.633
 898,19.669284,13.293216\H,0,2.642979,19.773757,12.900092\H,0,1.574915,
 20.176469,14.254138\C,0,1.077037,18.256376,13.291762\C,0,0.973511,16.9

 Normal termination of Gaussian 16 at Tue Apr  8 19:46:47 2025.
