 Gaussian 16, Revision C.01,

 ----------------------------------------------------------------------
 #t hf aug-cc-pvdz symm=none int=(grid=ultrafine) guess=(read,tcheck) s
 table=(opt,rrhf)
 ----------------------------------------------------------------------
 -----
 title
 -----
 Symbolic Z-matrix:
 Charge =  0 Multiplicity = 1

 SCF Done:  E(RHF) =  -152.079570858     A.U. after   11 cycles
 Normal termination of Gaussian 16 at Tue Apr  8 19:00:41 2025.
 Gaussian 16:  ES64L-G16RevC.01  3-Jul-2019

 ----------------------------------------------------------------------
 #t hf aug-cc-pvdz iop(5/13=1,5/36=2,99/5=2) pseudo=read geom=check gue
 ss=(read,tcheck) scf=(maxcycle=1)
 ----------------------------------------------------------------------
 -----
 title
 -----
 Structure from the checkpoint file:  "3B-69_01b_water_dimerAB_mol1.chk"
 Charge =  0 Multiplicity = 1

                         Standard orientation:
 ---------------------------------------------------------------------
 Center     Atomic      Atomic             Coordinates (Angstroms)
 Number     Number       Type             X           Y           Z
 ---------------------------------------------------------------------
      1          8           0       -1.321829   -0.035474   -0.086412
      2          1           0       -1.626564    0.892730    0.052094
      3          1           0       -1.650936   -0.587702    0.662310
      4          8           0        1.458520   -0.042666   -0.086711
      5          1           0        0.473517   -0.046101   -0.104409
      6          1           0        1.710451    0.366197    0.774995
 ---------------------------------------------------------------------

 SCF Done:  E(RHF) =  -152.737577211     A.U. after    2 cycles

 The electronic state is 1-A.
 Alpha  occ. eigenvalues --  -21.12250 -21.05588  -1.68676  -1.61429  -0.66267
 Alpha  occ. eigenvalues --   -0.61351  -0.48953  -0.44148  -0.36230  -0.32221
 Alpha virt. eigenvalues --    0.02815   0.05628   0.06144   0.09241   0.17711
 Alpha virt. eigenvalues --    0.21187   0.21280   0.22289   0.23919   0.24486
 Alpha virt. eigenvalues --    0.25276   0.27450   0.27699   0.31121   0.32624

 Mulliken charges:
               1
     1  O   -1.949694
     2  H    0.869468
     3  H    0.873293
     4  O   -2.015980
     5  H    1.407278
     6  H    0.815635
 Sum of Mulliken charges =  -0.00000

 Dipole moment (field-independent basis, Debye):
    X=             -2.0095    Y=              0.5964    Z=              1.3340  Tot=              2.4846

 Test job not archived.
 1\1\GINC-SE228\SP\RHF\Aug-CC-pVDZ\H4O2\OHZDE\08-Apr-2025\0\\#t hf aug-
 cc-pvdz iop(5/13=1,5/36=2,99/5=2) pseudo=read geom=check guess=(read,t
 check) scf=(maxcycle=1)\\title\\0,1\O,0,-0.084889,0.056804,0.055205\H,
 0,0.710375,0.517729,0.413971\H,0,-0.890958,0.498588,0.414274\O,0,-0.01
 7366,-2.585019,0.919269\H,0,-0.039968,-1.654902,0.595342\H,0,0.035574,
 -2.525985,1.902574\\Version=ES64L-G16RevC.01\State=1-A\HF=-152.7375772
 \RMSD=3.439e-02\Dipole=-0.0061524,0.9305028,0.2994031\Quadrupole=0.491
 5049,-0.6334448,0.1419399,-0.0378468,0.1161485,0.1096292\PG=C01 [X(H4O

 Normal termination of Gaussian 16 at Tue Apr  8 19:00:42 2025.
