 Gaussian 16, Revision C.01,

 ----------------------------------------------------------------------
 #t hf aug-cc-pvdz symm=none int=(grid=ultrafine) guess=(read,tcheck) s
 table=(opt,rrhf)
 ----------------------------------------------------------------------
 -----
 title
 -----
 Symbolic Z-matrix:
 Charge =  0 Multiplicity = 1

 SCF Done:  E(RHF) =  -591.816820970     A.U. after   15 cycles
 Normal termination of Gaussian 16 at Tue Apr  8 19:10:10 2025.
 Gaussian 16:  ES64L-G16RevC.01  3-Jul-2019

 ----------------------------------------------------------------------
 #t hf aug-cc-pvdz iop(5/13=1,5/36=2,99/5=2) pseudo=read geom=check gue
 ss=(read,tcheck) scf=(maxcycle=1)
 ----------------------------------------------------------------------
 -----
 title
 -----
 Structure from the checkpoint file:  "3B-69_15b_cyanoguanidine_dimerAC_mol1.chk"
 Charge =  0 Multiplicity = 1

                         Standard orientation:
 ---------------------------------------------------------------------
 Center     Atomic      Atomic             Coordinates (Angstroms)
 Number     Number       Type             X           Y           Z
 ---------------------------------------------------------------------
      1          7           0        0.038685   -1.877647    0.571007
      2          6           0       -0.925814   -1.430759    0.084748
      3          7           0       -1.976930   -0.999299   -0.533699
      4          6           0       -2.792105   -0.101351    0.043104
      5          7           0       -2.570772    0.435813    1.248029
      6          7           0       -3.863559    0.286334   -0.646936
      7          1           0       -3.286181    1.020979    1.663136
      8          1           0       -1.781403    0.168974    1.823901
      9          1           0       -4.492752    0.965267   -0.232872
     10          1           0       -4.063562   -0.150950   -1.546265
     11          7           0       -0.038684    1.877647   -0.571007
     12          6           0        0.925814    1.430758   -0.084748
     13          7           0        1.976930    0.999299    0.533699
     14          6           0        2.792104    0.101351   -0.043104
     15          7           0        2.570772   -0.435813   -1.248029
     16          7           0        3.863558   -0.286334    0.646936
     17          1           0        3.286181   -1.020978   -1.663136
     18          1           0        1.781403   -0.168974   -1.823901
     19          1           0        4.492752   -0.965267    0.232872
     20          1           0        4.063562    0.150950    1.546265
 ---------------------------------------------------------------------

 SCF Done:  E(RHF) =  -594.482102388     A.U. after    2 cycles

 The electronic state is 1-A.
 Alpha  occ. eigenvalues --  -15.79895 -15.79892 -15.79516 -15.79515 -15.71184
 Alpha  occ. eigenvalues --  -15.71157 -15.69330 -15.69321 -11.53017 -11.52990
 Alpha  occ. eigenvalues --  -11.42091 -11.42072  -1.53218  -1.52932  -1.33828
 Alpha  occ. eigenvalues --   -1.33770  -1.30623  -1.30464  -1.20507  -1.20055
 Alpha  occ. eigenvalues --   -0.90456  -0.90394  -0.78388  -0.78371  -0.73395
 Alpha  occ. eigenvalues --   -0.73377  -0.64812  -0.64787  -0.62625  -0.62580
 Alpha  occ. eigenvalues --   -0.60811  -0.60315  -0.51031  -0.50720  -0.47695
 Alpha  occ. eigenvalues --   -0.46693  -0.46643  -0.46140  -0.39420  -0.39228
 Alpha  occ. eigenvalues --   -0.33216  -0.33025  -0.29508  -0.28406
 Alpha virt. eigenvalues --    0.02737   0.03518   0.04684   0.05155   0.05686
 Alpha virt. eigenvalues --    0.06511   0.08508   0.08766   0.09613   0.10232
 Alpha virt. eigenvalues --    0.11773   0.11834   0.12648   0.13070   0.13395

 Mulliken charges:
               1
     1  N   -2.947527
     2  C    3.574605
     3  N   -2.802181
     4  C    5.159003
     5  N   -2.813572
     6  N   -3.055003
     7  H    0.761570
     8  H    0.744103
     9  H    0.651172
    10  H    0.727831
    11  N   -2.947531
    12  C    3.574611
    13  N   -2.802183
    14  C    5.159004
    15  N   -2.813573
    16  N   -3.055002
    17  H    0.761570
    18  H    0.744102
    19  H    0.651172
    20  H    0.727830
 Sum of Mulliken charges =   0.00000

 Dipole moment (field-independent basis, Debye):
    X=             -0.0000    Y=              0.0000    Z=             -0.0000  Tot=              0.0000

 Test job not archived.
 1\1\GINC-SE284\SP\RHF\Aug-CC-pVDZ\C4H8N8\OHZDE\08-Apr-2025\0\\#t hf au
 g-cc-pvdz iop(5/13=1,5/36=2,99/5=2) pseudo=read geom=check guess=(read
 ,tcheck) scf=(maxcycle=1)\\title\\0,1\N,0,-2.474236,4.376465,10.304662
 \C,0,-3.287263,4.877151,10.978989\N,0,-4.214783,5.48737,11.64293\C,0,-
 4.4763,5.156956,12.918061\N,0,-3.794771,4.229109,13.599232\N,0,-5.4551
 91,5.817607,13.534325\H,0,-4.12134,3.95731,14.519026\H,0,-3.050768,3.6
 85335,13.17887\H,0,-5.669621,5.587082,14.498255\H,0,-6.008679,6.49436,
 13.009285\N,0,-1.410087,6.683035,13.297945\C,0,-0.597061,6.182349,12.6

 Normal termination of Gaussian 16 at Tue Apr  8 19:10:20 2025.
