 Gaussian 16, Revision C.01,

 ----------------------------------------------------------------------
 #t hf aug-cc-pvdz symm=none int=(grid=ultrafine) guess=(read,tcheck) s
 table=(opt,rrhf)
 ----------------------------------------------------------------------
 -----
 title
 -----
 Symbolic Z-matrix:
 Charge =  0 Multiplicity = 1

 SCF Done:  E(RHF) =  -752.853125548     A.U. after   13 cycles
 Normal termination of Gaussian 16 at Tue Apr  8 19:02:47 2025.
 Gaussian 16:  ES64L-G16RevC.01  3-Jul-2019

 ----------------------------------------------------------------------
 #t hf aug-cc-pvdz iop(5/13=1,5/36=2,99/5=2) pseudo=read geom=check gue
 ss=(read,tcheck) scf=(maxcycle=1)
 ----------------------------------------------------------------------
 -----
 title
 -----
 Structure from the checkpoint file:  "3B-69_07a_oxalic_acid_dimerBC_mol1.chk"
 Charge =  0 Multiplicity = 1

                         Standard orientation:
 ---------------------------------------------------------------------
 Center     Atomic      Atomic             Coordinates (Angstroms)
 Number     Number       Type             X           Y           Z
 ---------------------------------------------------------------------
      1          6           0       -2.350396    0.762060   -0.275185
      2          1           0       -2.504197    2.626751    0.002654
      3          8           0       -1.286670    0.804107   -0.865746
      4          8           0       -3.014148    1.785656    0.186250
      5          6           0       -3.074154   -0.570618   -0.020956
      6          8           0       -4.137881   -0.612664    0.569605
      7          8           0       -2.410403   -1.594213   -0.482391
      8          1           0       -2.920352   -2.435308   -0.298795
      9          6           0        3.074154    0.570618    0.020956
     10          1           0        2.920353    2.435308    0.298795
     11          8           0        4.137881    0.612664   -0.569605
     12          8           0        2.410403    1.594213    0.482391
     13          6           0        2.350397   -0.762061    0.275185
     14          8           0        1.286670   -0.804107    0.865746
     15          8           0        3.014147   -1.785656   -0.186250
     16          1           0        2.504197   -2.626751   -0.002654
 ---------------------------------------------------------------------

 SCF Done:  E(RHF) =  -755.896849308     A.U. after    2 cycles

 The electronic state is 1-A.
 Alpha  occ. eigenvalues --  -21.15008 -21.15006 -21.14952 -21.14949 -21.07695
 Alpha  occ. eigenvalues --  -21.07693 -21.07581 -21.07575 -11.56769 -11.56585
 Alpha  occ. eigenvalues --  -11.52013 -11.52011  -1.88298  -1.88233  -1.82600
 Alpha  occ. eigenvalues --   -1.82569  -1.68471  -1.68450  -1.66018  -1.66014
 Alpha  occ. eigenvalues --   -1.00557  -1.00545  -0.79687  -0.79630  -0.66990
 Alpha  occ. eigenvalues --   -0.66938  -0.63245  -0.63197  -0.62389  -0.62292
 Alpha  occ. eigenvalues --   -0.61007  -0.60934  -0.53371  -0.53280  -0.51974
 Alpha  occ. eigenvalues --   -0.51884  -0.45309  -0.45276  -0.36875  -0.36871
 Alpha  occ. eigenvalues --   -0.36107  -0.35631  -0.34706  -0.34591  -0.28510
 Alpha  occ. eigenvalues --   -0.28406
 Alpha virt. eigenvalues --    0.02997   0.04701   0.04991   0.05324   0.09349
 Alpha virt. eigenvalues --    0.10353   0.10468   0.10887   0.10963   0.11078
 Alpha virt. eigenvalues --    0.11217   0.12170   0.12472   0.12858   0.13333

 Mulliken charges:
               1
     1  C    5.042342
     2  H    0.923187
     3  O   -2.884890
     4  O   -3.042391
     5  C    4.888150
     6  O   -2.863589
     7  O   -3.005507
     8  H    0.942697
     9  C    4.888149
    10  H    0.942697
    11  O   -2.863589
    12  O   -3.005507
    13  C    5.042345
    14  O   -2.884890
    15  O   -3.042393
    16  H    0.923188
 Sum of Mulliken charges =  -0.00000

 Dipole moment (field-independent basis, Debye):
    X=              0.0000    Y=             -0.0000    Z=             -0.0000  Tot=              0.0000

 Test job not archived.
 1\1\GINC-SE402\SP\RHF\Aug-CC-pVDZ\C4H4O8\OHZDE\08-Apr-2025\0\\#t hf au
 g-cc-pvdz iop(5/13=1,5/36=2,99/5=2) pseudo=read geom=check guess=(read
 ,tcheck) scf=(maxcycle=1)\\title\\0,1\C,0,-1.953003,3.017605,2.44175\H
 ,0,-3.453591,2.371173,1.488712\O,0,-2.584787,3.63715,3.277847\O,0,-2.4
 5442,2.333279,1.451036\C,0,-0.415475,2.997395,2.451144\O,0,0.216308,2.
 37785,1.615046\O,0,0.085942,3.681721,3.441857\H,0,1.085112,3.643827,3.
 404182\C,0,-4.321482,3.017605,7.334643\H,0,-5.822069,2.371173,6.381605
 \O,0,-4.953265,3.63715,8.170741\O,0,-4.822899,2.333279,6.34393\C,0,-2.

 Normal termination of Gaussian 16 at Tue Apr  8 19:02:58 2025.
