 Gaussian 16, Revision C.01,

 ----------------------------------------------------------------------
 #t hf aug-cc-pvdz symm=none int=(grid=ultrafine) guess=(read,tcheck) s
 table=(opt,rrhf)
 ----------------------------------------------------------------------
 -----
 title
 -----
 Symbolic Z-matrix:
 Charge =  0 Multiplicity = 1

 SCF Done:  E(RHF) =  -557.464105830     A.U. after   12 cycles
 Normal termination of Gaussian 16 at Tue Apr  8 19:07:51 2025.
 Gaussian 16:  ES64L-G16RevC.01  3-Jul-2019

 ----------------------------------------------------------------------
 #t hf aug-cc-pvdz iop(5/13=1,5/36=2,99/5=2) pseudo=read geom=check gue
 ss=(read,tcheck) scf=(maxcycle=1)
 ----------------------------------------------------------------------
 -----
 title
 -----
 Structure from the checkpoint file:  "3B-69_13a_triazine_dimerBC_mol1.chk"
 Charge =  0 Multiplicity = 1

                         Standard orientation:
 ---------------------------------------------------------------------
 Center     Atomic      Atomic             Coordinates (Angstroms)
 Number     Number       Type             X           Y           Z
 ---------------------------------------------------------------------
      1          6           0        0.650015    1.125859    3.640500
      2          7           0        1.367752    0.000000    3.640500
      3          1           0        1.191067    2.062988    3.640500
      4          6           0       -1.300030   -0.000000    3.640500
      5          7           0       -0.683876    1.184508    3.640500
      6          1           0       -2.382134   -0.000000    3.640500
      7          6           0        0.650015   -1.125859    3.640500
      8          7           0       -0.683876   -1.184508    3.640500
      9          1           0        1.191067   -2.062988    3.640500
     10          6           0        0.650015    1.125859   -3.640500
     11          7           0        1.367752    0.000000   -3.640500
     12          1           0        1.191067    2.062988   -3.640500
     13          6           0       -1.300030   -0.000000   -3.640500
     14          7           0       -0.683876    1.184508   -3.640500
     15          1           0       -2.382134   -0.000000   -3.640500
     16          6           0        0.650015   -1.125859   -3.640500
     17          7           0       -0.683876   -1.184508   -3.640500
     18          1           0        1.191067   -2.062988   -3.640500
 ---------------------------------------------------------------------

 SCF Done:  E(RHF) =  -559.945312282     A.U. after    2 cycles

 The electronic state is 1-A'.
 Alpha  occ. eigenvalues --  -15.75965 -15.75933 -15.75913 -15.75913 -15.75907
 Alpha  occ. eigenvalues --  -15.75907 -11.47204 -11.47204 -11.47070 -11.47070
 Alpha  occ. eigenvalues --  -11.45792 -11.45714  -1.57106  -1.57105  -1.32655
 Alpha  occ. eigenvalues --   -1.32655  -1.32654  -1.32654  -0.96227  -0.96227
 Alpha  occ. eigenvalues --   -0.96216  -0.96216  -0.77780  -0.77779  -0.67588
 Alpha  occ. eigenvalues --   -0.67587  -0.61481  -0.61481  -0.59859  -0.59859
 Alpha  occ. eigenvalues --   -0.59858  -0.59858  -0.55569  -0.55560  -0.42061
 Alpha  occ. eigenvalues --   -0.42061  -0.42052  -0.42052  -0.37324  -0.37324
 Alpha  occ. eigenvalues --   -0.37324  -0.37324
 Alpha virt. eigenvalues --    0.03112   0.04365   0.05112   0.05112   0.05890
 Alpha virt. eigenvalues --    0.05890   0.08828   0.08828   0.08917   0.09679
 Alpha virt. eigenvalues --    0.09679   0.09777   0.09777   0.10182   0.10499

 Mulliken charges:
               1
     1  C    1.400253
     2  N   -3.026104
     3  H    1.625852
     4  C    1.400252
     5  N   -3.026104
     6  H    1.625851
     7  C    1.400253
     8  N   -3.026104
     9  H    1.625852
    10  C    1.400253
    11  N   -3.026104
    12  H    1.625852
    13  C    1.400252
    14  N   -3.026104
    15  H    1.625851
    16  C    1.400253
    17  N   -3.026104
    18  H    1.625852
 Sum of Mulliken charges =  -0.00000

 Dipole moment (field-independent basis, Debye):
    X=              0.0000    Y=             -0.0000    Z=              0.0000  Tot=              0.0000

 Test job not archived.
 1\1\GINC-SE228\SP\RHF\Aug-CC-pVDZ\C6H6N6\OHZDE\08-Apr-2025\0\\#t hf au
 g-cc-pvdz iop(5/13=1,5/36=2,99/5=2) pseudo=read geom=check guess=(read
 ,tcheck) scf=(maxcycle=1)\\title\\0,1\C,0,-4.173485,7.228688,5.46075\N
 ,0,-3.455748,8.354547,5.46075\H,0,-3.632433,6.291559,5.46075\C,0,-6.12
 353,8.354547,5.46075\N,0,-5.507376,7.170039,5.46075\H,0,-7.205634,8.35
 4547,5.46075\C,0,-4.173485,9.480406,5.46075\N,0,-5.507376,9.539055,5.4
 6075\H,0,-3.632433,10.417535,5.46075\C,0,-4.173485,7.228688,12.74175\N
 ,0,-3.455748,8.354547,12.74175\H,0,-3.632433,6.291559,12.74175\C,0,-6.

 Normal termination of Gaussian 16 at Tue Apr  8 19:07:57 2025.
