 Gaussian 16, Revision C.01,

 ----------------------------------------------------------------------
 #t hf aug-cc-pvdz symm=none int=(grid=ultrafine) guess=(read,tcheck) s
 table=(opt,rrhf)
 ----------------------------------------------------------------------
 -----
 title
 -----
 Symbolic Z-matrix:
 Charge =  0 Multiplicity = 1

 SCF Done:  E(RHF) =  -227.845090243     A.U. after   13 cycles
 Normal termination of Gaussian 16 at Tue Apr  8 19:01:40 2025.
 Gaussian 16:  ES64L-G16RevC.01  3-Jul-2019

 ----------------------------------------------------------------------
 #t hf aug-cc-pvdz iop(5/13=1,5/36=2,99/5=2) pseudo=read geom=check gue
 ss=(read,tcheck) scf=(maxcycle=1)
 ----------------------------------------------------------------------
 -----
 title
 -----
 Structure from the checkpoint file:  "3B-69_06a_acetic_acid_dimerAC_mol3.chk"
 Charge =  0 Multiplicity = 1

                         Standard orientation:
 ---------------------------------------------------------------------
 Center     Atomic      Atomic             Coordinates (Angstroms)
 Number     Number       Type             X           Y           Z
 ---------------------------------------------------------------------
      1          8           0        0.800954   -1.009420    0.005321
      2          1           0        1.785555   -0.815196   -0.033941
      3          8           0        0.613481    1.210533    0.001419
      4          6           0        0.085460    0.102439   -0.001309
      5          6           0       -1.391998   -0.132348   -0.003079
      6          1           0       -1.918826    0.813699   -0.070103
      7          1           0       -1.678484   -0.650175    0.912438
      8          1           0       -1.664501   -0.777774   -0.835986
 ---------------------------------------------------------------------

 SCF Done:  E(RHF) =  -228.823531600     A.U. after    2 cycles

 The electronic state is 1-A.
 Alpha  occ. eigenvalues --  -21.12538 -21.04349 -11.51829 -11.39757  -1.83028
 Alpha  occ. eigenvalues --   -1.63877  -1.11671  -0.80859  -0.63865  -0.62296
 Alpha  occ. eigenvalues --   -0.60571  -0.54844  -0.50206  -0.44567  -0.33400
 Alpha  occ. eigenvalues --   -0.29435
 Alpha virt. eigenvalues --    0.03189   0.05439   0.06217   0.06690   0.10233
 Alpha virt. eigenvalues --    0.11986   0.12268   0.13342   0.15347   0.15813
 Alpha virt. eigenvalues --    0.16507   0.18209   0.18631   0.21329   0.22856

 Mulliken charges:
               1
     1  O   -2.853690
     2  H    0.868608
     3  O   -2.797948
     4  C    4.970471
     5  C   -3.876780
     6  H    1.241403
     7  H    1.218500
     8  H    1.229437
 Sum of Mulliken charges =  -0.00000

 Dipole moment (field-independent basis, Debye):
    X=             -0.4807    Y=             -1.3436    Z=             -0.0268  Tot=              1.4273

 Test job not archived.
 1\1\GINC-SE117\SP\RHF\Aug-CC-pVDZ\C2H4O2\OHZDE\08-Apr-2025\0\\#t hf au
 g-cc-pvdz iop(5/13=1,5/36=2,99/5=2) pseudo=read geom=check guess=(read
 ,tcheck) scf=(maxcycle=1)\\title\\0,1\O,0,1.655579,1.539503,2.911827\H
 ,0,2.346664,1.769234,2.220214\O,0,3.330622,0.41321,3.85472\C,0,2.16439
 2,0.79531,3.879036\C,0,1.189508,0.473153,4.967074\H,0,1.683196,-0.0852
 47,5.755431\H,0,0.368623,-0.11514,4.556647\H,0,0.759865,1.390782,5.364
 48\\Version=ES64L-G16RevC.01\State=1-A\HF=-228.8235316\RMSD=1.757e-01\
 Dipole=-0.5203198,0.2084571,-0.0335861\Quadrupole=-2.1224206,0.1415132

 Normal termination of Gaussian 16 at Tue Apr  8 19:01:42 2025.
