 Gaussian 16, Revision C.01,

 ----------------------------------------------------------------------
 #t hf aug-cc-pvdz symm=none int=(grid=ultrafine) guess=(read,tcheck) s
 table=(opt,rrhf)
 ----------------------------------------------------------------------
 -----
 title
 -----
 Symbolic Z-matrix:
 Charge =  0 Multiplicity = 1

 SCF Done:  E(RHF) =  -824.874373465     A.U. after   15 cycles
 Normal termination of Gaussian 16 at Tue Apr  8 19:18:06 2025.
 Gaussian 16:  ES64L-G16RevC.01  3-Jul-2019

 ----------------------------------------------------------------------
 #t hf aug-cc-pvdz iop(5/13=1,5/36=2,99/5=2) pseudo=read geom=check gue
 ss=(read,tcheck) scf=(maxcycle=1)
 ----------------------------------------------------------------------
 -----
 title
 -----
 Structure from the checkpoint file:  "3B-69_22c_uracil_dimerBC_mol1.chk"
 Charge =  0 Multiplicity = 1

                         Standard orientation:
 ---------------------------------------------------------------------
 Center     Atomic      Atomic             Coordinates (Angstroms)
 Number     Number       Type             X           Y           Z
 ---------------------------------------------------------------------
      1          6           0       -2.078640   -1.144696   -0.012164
      2          6           0       -1.928739    1.304965    0.068517
      3          6           0       -1.118060    1.186186    1.239994
      4          6           0       -0.834550   -0.036660    1.709229
      5          1           0       -0.279072   -0.189618    2.473878
      6          1           0       -1.072044   -1.929921    1.374555
      7          1           0       -2.838263    0.193834   -1.204226
      8          1           0       -0.791492    1.967231    1.627931
      9          7           0       -1.291459   -1.167329    1.110473
     10          7           0       -2.359869    0.121617   -0.472766
     11          8           0       -2.501320   -2.144034   -0.559834
     12          8           0       -2.254665    2.376350   -0.475645
     13          6           0        1.519565   -1.228794   -0.649602
     14          6           0        1.669468    1.220867   -0.568921
     15          6           0        2.480147    1.102089    0.602555
     16          6           0        2.763656   -0.120757    1.071791
     17          1           0        3.319134   -0.273716    1.836439
     18          1           0        2.526161   -2.014019    0.737118
     19          1           0        0.759942    0.109736   -1.841664
     20          1           0        2.806714    1.883133    0.990493
     21          7           0        2.306747   -1.251427    0.473035
     22          7           0        1.238337    0.037519   -1.110205
     23          8           0        1.096886   -2.228132   -1.197272
     24          8           0        1.343542    2.292253   -1.113084
 ---------------------------------------------------------------------

 SCF Done:  E(RHF) =  -828.613184625     A.U. after    2 cycles

 The electronic state is 1-A.
 Alpha  occ. eigenvalues --  -21.06213 -21.04682 -21.04374 -21.03102 -15.86570
 Alpha  occ. eigenvalues --  -15.85099 -15.83235 -15.82003 -11.56301 -11.54496
 Alpha  occ. eigenvalues --  -11.54039 -11.52886 -11.52430 -11.51492 -11.43759
 Alpha  occ. eigenvalues --  -11.42525  -1.77164  -1.75572  -1.71555  -1.70221
 Alpha  occ. eigenvalues --   -1.54053  -1.52605  -1.42214  -1.40825  -1.21370
 Alpha  occ. eigenvalues --   -1.20157  -1.01386  -1.00216  -0.95562  -0.94208
 Alpha  occ. eigenvalues --   -0.87405  -0.86108  -0.75143  -0.74049  -0.73978
 Alpha  occ. eigenvalues --   -0.72675  -0.68483  -0.66358  -0.65736  -0.64451
 Alpha  occ. eigenvalues --   -0.62129  -0.60836  -0.54910  -0.54087  -0.52715
 Alpha  occ. eigenvalues --   -0.52451  -0.50455  -0.49816  -0.48709  -0.48576
 Alpha  occ. eigenvalues --   -0.35028  -0.34475  -0.33505  -0.32098  -0.31786
 Alpha  occ. eigenvalues --   -0.30355  -0.29918  -0.28873
 Alpha virt. eigenvalues --    0.01219   0.03211   0.03749   0.04236   0.05273
 Alpha virt. eigenvalues --    0.06620   0.07114   0.07518   0.07979   0.08198
 Alpha virt. eigenvalues --    0.09074   0.09319   0.09906   0.10438   0.10712

 Mulliken charges:
               1
     1  C    5.292954
     2  C    4.725397
     3  C   -1.158373
     4  C   -0.236900
     5  H    1.725863
     6  H    0.801677
     7  H    0.825146
     8  H    1.550195
     9  N   -3.353311
    10  N   -3.263724
    11  O   -3.408264
    12  O   -3.684610
    13  C    5.769672
    14  C    4.895501
    15  C   -1.242230
    16  C   -0.224372
    17  H    1.555722
    18  H    0.775974
    19  H    0.846914
    20  H    1.404204
    21  N   -3.579551
    22  N   -2.772065
    23  O   -3.510175
    24  O   -3.735645
 Sum of Mulliken charges =   0.00000

 Dipole moment (field-independent basis, Debye):
    X=              3.8848    Y=             -2.6537    Z=              4.5185  Tot=              6.5231

 Test job not archived.
 1\1\GINC-SE184\SP\RHF\Aug-CC-pVDZ\C8H8N4O4\OHZDE\08-Apr-2025\0\\#t hf
 aug-cc-pvdz iop(5/13=1,5/36=2,99/5=2) pseudo=read geom=check guess=(re
 ad,tcheck) scf=(maxcycle=1)\\title\\0,1\C,0,8.26454,9.785332,3.107764\
 C,0,7.979082,12.222909,3.026813\C,0,6.571336,12.022418,2.879434\C,0,6.
 095124,10.769966,2.857103\H,0,5.162869,10.564154,2.785122\H,0,6.600568
 ,8.90577,3.005925\H,0,9.591364,11.203993,3.236764\H,0,6.024709,12.7745
 07,2.82715\N,0,6.904021,9.68422,2.969041\N,0,8.730514,11.08048,3.12366
 5\O,0,9.005743,8.826934,3.204553\O,0,8.547345,13.329695,3.074863\C,0,6

 Normal termination of Gaussian 16 at Tue Apr  8 19:18:33 2025.
