 Gaussian 16, Revision C.01,

 ----------------------------------------------------------------------
 #t hf aug-cc-pvdz symm=none int=(grid=ultrafine) guess=(read,tcheck) s
 table=(opt,rrhf)
 ----------------------------------------------------------------------
 -----
 title
 -----
 Symbolic Z-matrix:
 Charge =  0 Multiplicity = 1

 SCF Done:  E(RHF) =  -416.027289060     A.U. after   14 cycles
 Normal termination of Gaussian 16 at Tue Apr  8 19:05:54 2025.
 Gaussian 16:  ES64L-G16RevC.01  3-Jul-2019

 ----------------------------------------------------------------------
 #t hf aug-cc-pvdz iop(5/13=1,5/36=2,99/5=2) pseudo=read geom=check gue
 ss=(read,tcheck) scf=(maxcycle=1)
 ----------------------------------------------------------------------
 -----
 title
 -----
 Structure from the checkpoint file:  "3B-69_09a_acetamide_dimerBC_mol1.chk"
 Charge =  0 Multiplicity = 1

                         Standard orientation:
 ---------------------------------------------------------------------
 Center     Atomic      Atomic             Coordinates (Angstroms)
 Number     Number       Type             X           Y           Z
 ---------------------------------------------------------------------
      1          6           0        1.695263    1.274885    0.405489
      2          6           0        2.250488   -0.067880   -0.007418
      3          8           0        1.486236   -0.998644   -0.339053
      4          7           0        3.573738   -0.215855    0.042332
      5          1           0        4.000528   -1.140038   -0.048484
      6          1           0        4.168260    0.570480    0.313243
      7          1           0        1.563286    1.263419    1.489266
      8          1           0        2.363055    2.097368    0.157863
      9          1           0        0.726407    1.439478   -0.056654
     10          6           0       -3.578147   -0.053570    0.492449
     11          6           0       -2.216399    0.021025   -0.157062
     12          8           0       -1.877427    1.029038   -0.812343
     13          7           0       -1.395545   -1.009847    0.040073
     14          1           0       -0.407862   -0.948331   -0.215289
     15          1           0       -1.709858   -1.820674    0.577602
     16          1           0       -3.484911    0.330745    1.510156
     17          1           0       -3.957611   -1.071510    0.552050
     18          1           0       -4.286355    0.569079   -0.046159
 ---------------------------------------------------------------------

 SCF Done:  E(RHF) =  -417.908433372     A.U. after    2 cycles

 The electronic state is 1-A.
 Alpha  occ. eigenvalues --  -21.02341 -20.99021 -15.79518 -15.74785 -11.50888
 Alpha  occ. eigenvalues --  -11.47364 -11.38803 -11.37222  -1.70019  -1.66011
 Alpha  occ. eigenvalues --   -1.36581  -1.32409  -1.09355  -1.07375  -0.82371
 Alpha  occ. eigenvalues --   -0.78675  -0.72228  -0.68284  -0.63474  -0.61410
 Alpha  occ. eigenvalues --   -0.60770  -0.59223  -0.54691  -0.53203  -0.49779
 Alpha  occ. eigenvalues --   -0.47770  -0.46919  -0.44440  -0.32993  -0.29931
 Alpha  occ. eigenvalues --   -0.28831  -0.25955
 Alpha virt. eigenvalues --    0.02813   0.04412   0.04995   0.05270   0.05959
 Alpha virt. eigenvalues --    0.06427   0.07017   0.07619   0.09379   0.10233
 Alpha virt. eigenvalues --    0.10792   0.12471   0.13023   0.13032   0.14136

 Mulliken charges:
               1
     1  C   -3.952851
     2  C    4.862923
     3  O   -3.331908
     4  N   -3.181705
     5  H    0.771299
     6  H    0.709662
     7  H    1.331302
     8  H    1.208709
     9  H    1.327314
    10  C   -4.030913
    11  C    4.617928
    12  O   -3.125747
    13  N   -2.777633
    14  H    1.111256
    15  H    0.782185
    16  H    1.215721
    17  H    1.223956
    18  H    1.238503
 Sum of Mulliken charges =   0.00000

 Dipole moment (field-independent basis, Debye):
    X=              3.3761    Y=             -0.8406    Z=              2.1654  Tot=              4.0980

 Test job not archived.
 1\1\GINC-SE185\SP\RHF\Aug-CC-pVDZ\C4H10N2O2\OHZDE\08-Apr-2025\0\\#t hf
  aug-cc-pvdz iop(5/13=1,5/36=2,99/5=2) pseudo=read geom=check guess=(r
 ead,tcheck) scf=(maxcycle=1)\\title\\0,1\C,0,-1.245216,8.514214,17.661
 224\C,0,-1.929449,9.860636,17.688769\O,0,-1.399208,10.855873,17.151431
 \N,0,-3.087613,9.936672,18.343167\H,0,-3.510978,10.842736,18.553694\H,
 0,-3.494143,9.099314,18.765939\H,0,-0.637691,8.429121,18.564437\H,0,-1
 .951399,7.686576,17.653102\H,0,-0.58954,8.443121,16.798448\C,0,3.49586
 6,10.0911,15.512557\C,0,1.987714,10.010453,15.540103\O,0,1.390934,9.05

 Normal termination of Gaussian 16 at Tue Apr  8 19:06:01 2025.
