 Gaussian 16, Revision C.01,

 ----------------------------------------------------------------------
 #t hf aug-cc-pvdz symm=none int=(grid=ultrafine) guess=(read,tcheck) s
 table=(opt,rrhf)
 ----------------------------------------------------------------------
 -----
 title
 -----
 Symbolic Z-matrix:
 Charge =  0 Multiplicity = 1

 SCF Done:  E(RHF) =  -557.464225147     A.U. after   12 cycles
 Normal termination of Gaussian 16 at Tue Apr  8 19:08:21 2025.
 Gaussian 16:  ES64L-G16RevC.01  3-Jul-2019

 ----------------------------------------------------------------------
 #t hf aug-cc-pvdz iop(5/13=1,5/36=2,99/5=2) pseudo=read geom=check gue
 ss=(read,tcheck) scf=(maxcycle=1)
 ----------------------------------------------------------------------
 -----
 title
 -----
 Structure from the checkpoint file:  "3B-69_13a_triazine_dimerAB_mol1.chk"
 Charge =  0 Multiplicity = 1

                         Standard orientation:
 ---------------------------------------------------------------------
 Center     Atomic      Atomic             Coordinates (Angstroms)
 Number     Number       Type             X           Y           Z
 ---------------------------------------------------------------------
      1          6           0        1.300030    0.000000    1.820250
      2          7           0        0.683876   -1.184508    1.820250
      3          1           0        2.382134    0.000000    1.820250
      4          6           0       -0.650015    1.125859    1.820250
      5          7           0        0.683876    1.184508    1.820250
      6          1           0       -1.191067    2.062988    1.820250
      7          6           0       -0.650015   -1.125859    1.820250
      8          7           0       -1.367752    0.000000    1.820250
      9          1           0       -1.191067   -2.062988    1.820250
     10          6           0        0.650015   -1.125859   -1.820250
     11          7           0        1.367752    0.000000   -1.820250
     12          1           0        1.191067   -2.062988   -1.820250
     13          6           0       -1.300030    0.000000   -1.820250
     14          7           0       -0.683876   -1.184508   -1.820250
     15          1           0       -2.382134    0.000000   -1.820250
     16          6           0        0.650015    1.125859   -1.820250
     17          7           0       -0.683876    1.184508   -1.820250
     18          1           0        1.191067    2.062988   -1.820250
 ---------------------------------------------------------------------

 SCF Done:  E(RHF) =  -559.948658026     A.U. after    2 cycles

 The electronic state is 1-AG.
 Alpha  occ. eigenvalues --  -15.75909 -15.75860 -15.75846 -15.75846 -15.75818
 Alpha  occ. eigenvalues --  -15.75818 -11.47383 -11.47383 -11.47301 -11.47301
 Alpha  occ. eigenvalues --  -11.45905 -11.45752  -1.57207  -1.56865  -1.32876
 Alpha  occ. eigenvalues --   -1.32876  -1.32669  -1.32669  -0.96445  -0.96445
 Alpha  occ. eigenvalues --   -0.96069  -0.96069  -0.77776  -0.77553  -0.67584
 Alpha  occ. eigenvalues --   -0.67498  -0.62112  -0.60833  -0.59838  -0.59838
 Alpha  occ. eigenvalues --   -0.59773  -0.59773  -0.55652  -0.55498  -0.44156
 Alpha  occ. eigenvalues --   -0.44156  -0.40341  -0.40341  -0.37394  -0.37394
 Alpha  occ. eigenvalues --   -0.37230  -0.37230
 Alpha virt. eigenvalues --    0.03600   0.05263   0.05263   0.05917   0.06072
 Alpha virt. eigenvalues --    0.06072   0.07928   0.07928   0.08995   0.10101
 Alpha virt. eigenvalues --    0.10101   0.10699   0.10699   0.11071   0.11277

 Mulliken charges:
               1
     1  C    1.158570
     2  N   -2.923854
     3  H    1.765283
     4  C    1.158570
     5  N   -2.923854
     6  H    1.765284
     7  C    1.158570
     8  N   -2.923853
     9  H    1.765284
    10  C    1.158570
    11  N   -2.923853
    12  H    1.765284
    13  C    1.158570
    14  N   -2.923854
    15  H    1.765283
    16  C    1.158570
    17  N   -2.923854
    18  H    1.765284
 Sum of Mulliken charges =  -0.00000

 Dipole moment (field-independent basis, Debye):
    X=              0.0000    Y=             -0.0000    Z=             -0.0000  Tot=              0.0000

 Test job not archived.
 1\1\GINC-SE083\SP\RHF\Aug-CC-pVDZ\C6H6N6\OHZDE\08-Apr-2025\0\\#t hf au
 g-cc-pvdz iop(5/13=1,5/36=2,99/5=2) pseudo=read geom=check guess=(read
 ,tcheck) scf=(maxcycle=1)\\title\\0,1\C,0,-3.52347,8.354547,9.10125\N,
 0,-4.139624,7.170039,9.10125\H,0,-2.441366,8.354547,9.10125\C,0,-5.473
 515,9.480406,9.10125\N,0,-4.139624,9.539055,9.10125\H,0,-6.014567,10.4
 17535,9.10125\C,0,-5.473515,7.228688,9.10125\N,0,-6.191252,8.354547,9.
 10125\H,0,-6.014567,6.291559,9.10125\C,0,-4.173485,7.228688,5.46075\N,
 0,-3.455748,8.354547,5.46075\H,0,-3.632433,6.291559,5.46075\C,0,-6.123

 Normal termination of Gaussian 16 at Tue Apr  8 19:08:28 2025.
