 Gaussian 16, Revision C.01,

 ----------------------------------------------------------------------
 #t hf aug-cc-pvdz symm=none int=(grid=ultrafine) guess=(read,tcheck) s
 table=(opt,rrhf)
 ----------------------------------------------------------------------
 -----
 title
 -----
 Symbolic Z-matrix:
 Charge =  0 Multiplicity = 1

 SCF Done:  E(RHF) =  -752.864563357     A.U. after   13 cycles
 Normal termination of Gaussian 16 at Tue Apr  8 19:03:09 2025.
 Gaussian 16:  ES64L-G16RevC.01  3-Jul-2019

 ----------------------------------------------------------------------
 #t hf aug-cc-pvdz iop(5/13=1,5/36=2,99/5=2) pseudo=read geom=check gue
 ss=(read,tcheck) scf=(maxcycle=1)
 ----------------------------------------------------------------------
 -----
 title
 -----
 Structure from the checkpoint file:  "3B-69_07b_oxalic_acid_dimerBC_mol1.chk"
 Charge =  0 Multiplicity = 1

                         Standard orientation:
 ---------------------------------------------------------------------
 Center     Atomic      Atomic             Coordinates (Angstroms)
 Number     Number       Type             X           Y           Z
 ---------------------------------------------------------------------
      1          8           0       -3.273573   -1.001500   -1.240748
      2          8           0       -4.029601    0.685809    0.045776
      3          6           0       -3.138186   -0.176573   -0.361852
      4          1           0       -4.897313    0.617333   -0.429461
      5          8           0       -1.691056    0.790115    1.324586
      6          8           0       -0.935028   -0.897195    0.038062
      7          6           0       -1.826443   -0.034813    0.445690
      8          1           0       -0.067316   -0.828718    0.513299
      9          8           0        1.648959   -1.211910    0.760102
     10          8           0        3.711781   -1.118813   -0.139804
     11          6           0        2.545809   -0.630495    0.186596
     12          1           0        3.831049   -2.070033    0.114004
     13          8           0        3.315670    1.423295   -0.843940
     14          8           0        1.252848    1.330199    0.055966
     15          6           0        2.418820    0.841881   -0.270434
     16          1           0        1.133580    2.281419   -0.197842
 ---------------------------------------------------------------------

 SCF Done:  E(RHF) =  -755.907509769     A.U. after    2 cycles

 The electronic state is 1-A.
 Alpha  occ. eigenvalues --  -21.17588 -21.16474 -21.14270 -21.11521 -21.11048
 Alpha  occ. eigenvalues --  -21.09668 -21.07000 -21.06178 -11.59596 -11.55370
 Alpha  occ. eigenvalues --  -11.54933 -11.51000  -1.90701  -1.86875  -1.84773
 Alpha  occ. eigenvalues --   -1.80863  -1.72137  -1.68834  -1.67753  -1.64960
 Alpha  occ. eigenvalues --   -1.03094  -0.99226  -0.82867  -0.79332  -0.70201
 Alpha  occ. eigenvalues --   -0.67129  -0.65517  -0.64746  -0.63410  -0.61878
 Alpha  occ. eigenvalues --   -0.61164  -0.58960  -0.55654  -0.53792  -0.51981
 Alpha  occ. eigenvalues --   -0.49974  -0.47628  -0.44248  -0.39348  -0.39014
 Alpha  occ. eigenvalues --   -0.36848  -0.35882  -0.35235  -0.33144  -0.30983
 Alpha  occ. eigenvalues --   -0.27113
 Alpha virt. eigenvalues --    0.02925   0.04647   0.05033   0.07592   0.08745
 Alpha virt. eigenvalues --    0.09049   0.09477   0.09977   0.10735   0.10929
 Alpha virt. eigenvalues --    0.11408   0.11664   0.12563   0.12885   0.13822

 Mulliken charges:
               1
     1  O   -2.975180
     2  O   -2.993408
     3  C    4.952249
     4  H    0.972492
     5  O   -2.952741
     6  O   -3.353097
     7  C    4.853002
     8  H    1.780164
     9  O   -3.028086
    10  O   -3.087876
    11  C    4.619892
    12  H    0.938045
    13  O   -3.008181
    14  O   -2.886988
    15  C    5.190239
    16  H    0.979474
 Sum of Mulliken charges =   0.00000

 Dipole moment (field-independent basis, Debye):
    X=              1.8200    Y=             -0.0149    Z=             -0.0308  Tot=              1.8203

 Test job not archived.
 1\1\GINC-SE284\SP\RHF\Aug-CC-pVDZ\C4H4O8\OHZDE\08-Apr-2025\0\\#t hf au
 g-cc-pvdz iop(5/13=1,5/36=2,99/5=2) pseudo=read geom=check guess=(read
 ,tcheck) scf=(maxcycle=1)\\title\\0,1\O,0,-1.061967,-1.393698,11.71837
 2\O,0,-0.219281,-0.272646,13.481\C,0,-0.39363,-0.508179,12.208754\H,0,
 -0.68854,-0.914709,14.073464\O,0,1.061967,1.393698,11.838828\O,0,0.219
 281,0.272646,10.0762\C,0,0.39363,0.508179,11.348446\H,0,0.68854,0.9147
 09,9.483736\O,0,1.061967,1.653302,7.912628\O,0,0.219281,2.774354,6.15\
 C,0,0.39363,2.538821,7.422246\H,0,0.68854,2.132291,5.557536\O,0,-1.061

 Normal termination of Gaussian 16 at Tue Apr  8 19:03:18 2025.
