 Gaussian 16, Revision C.01,

 ----------------------------------------------------------------------
 #t hf aug-cc-pvdz symm=none int=(grid=ultrafine) guess=(read,tcheck) s
 table=(opt,rrhf)
 ----------------------------------------------------------------------
 -----
 title
 -----
 Symbolic Z-matrix:
 Charge =  0 Multiplicity = 1

 SCF Done:  E(RHF) =  -487.409148255     A.U. after   15 cycles
 Normal termination of Gaussian 16 at Tue Apr  8 19:01:23 2025.
 Gaussian 16:  ES64L-G16RevC.01  3-Jul-2019

 ----------------------------------------------------------------------
 #t hf aug-cc-pvdz iop(5/13=1,5/36=2,99/5=2) pseudo=read geom=check gue
 ss=(read,tcheck) scf=(maxcycle=1)
 ----------------------------------------------------------------------
 -----
 title
 -----
 Structure from the checkpoint file:  "3B-69_05c_nitromethane_dimerAB_mol1.chk"
 Charge =  0 Multiplicity = 1

                         Standard orientation:
 ---------------------------------------------------------------------
 Center     Atomic      Atomic             Coordinates (Angstroms)
 Number     Number       Type             X           Y           Z
 ---------------------------------------------------------------------
      1          6           0       -3.120737   -0.797252   -0.084179
      2          7           0       -1.941589    0.109609    0.023626
      3          8           0       -2.138310    1.300744    0.244979
      4          8           0       -0.830043   -0.384017   -0.086987
      5          1           0       -2.873144   -1.560640   -0.810160
      6          1           0       -3.259372   -1.243331    0.898851
      7          1           0       -3.984393   -0.207439   -0.360547
      8          6           0        1.869803    0.888811   -0.981389
      9          7           0        2.082495   -0.119922    0.096399
     10          8           0        2.169044   -1.302993   -0.218800
     11          8           0        2.188145    0.284614    1.243842
     12          1           0        1.258322    1.678833   -0.565374
     13          1           0        2.853496    1.273038   -1.244583
     14          1           0        1.413675    0.395597   -1.829237
 ---------------------------------------------------------------------

 SCF Done:  E(RHF) =  -489.503848772     A.U. after    2 cycles

 The electronic state is 1-A.
 Alpha  occ. eigenvalues --  -21.10704 -21.10520 -21.07923 -21.07651 -16.00650
 Alpha  occ. eigenvalues --  -15.97837 -11.46167 -11.43440  -2.00661  -1.97696
 Alpha  occ. eigenvalues --   -1.69706  -1.66794  -1.21222  -1.18395  -0.88304
 Alpha  occ. eigenvalues --   -0.85534  -0.71745  -0.70217  -0.69052  -0.67703
 Alpha  occ. eigenvalues --   -0.67102  -0.65471  -0.57633  -0.57610  -0.54985
 Alpha  occ. eigenvalues --   -0.54764  -0.37728  -0.34730  -0.32475  -0.32077
 Alpha  occ. eigenvalues --   -0.29477  -0.29000
 Alpha virt. eigenvalues --    0.02528   0.04431   0.05272   0.05459   0.06249
 Alpha virt. eigenvalues --    0.07284   0.09411   0.11454   0.12599   0.13273
 Alpha virt. eigenvalues --    0.14250   0.14300   0.15292   0.15444   0.15777

 Mulliken charges:
               1
     1  C   -3.106957
     2  N    4.460433
     3  O   -2.660285
     4  O   -2.790063
     5  H    1.371157
     6  H    1.382868
     7  H    1.364949
     8  C   -3.463845
     9  N    4.591852
    10  O   -2.731826
    11  O   -2.720416
    12  H    1.462542
    13  H    1.348086
    14  H    1.491505
 Sum of Mulliken charges =  -0.00000

 Dipole moment (field-independent basis, Debye):
    X=             -2.9335    Y=              0.0390    Z=             -1.7583  Tot=              3.4204

 Test job not archived.
 1\1\GINC-SE214\SP\RHF\Aug-CC-pVDZ\C2H6N2O4\OHZDE\08-Apr-2025\0\\#t hf
 aug-cc-pvdz iop(5/13=1,5/36=2,99/5=2) pseudo=read geom=check guess=(re
 ad,tcheck) scf=(maxcycle=1)\\title\\0,1\C,0,0.691316,6.61465,11.679005
 \N,0,1.868622,5.699059,11.686151\O,0,2.660061,5.771533,12.621496\O,0,1
 .974396,4.898353,10.770117\H,0,0.477227,6.854026,10.645575\H,0,-0.1361
 06,6.058747,12.115925\H,0,0.926871,7.482841,12.279769\C,0,4.493684,3.4
 9615,9.588495\N,0,3.316378,2.580559,9.581349\O,0,2.524939,2.653033,8.6
 46004\O,0,3.210604,1.779853,10.497383\H,0,4.707773,3.735526,10.621925\

 Normal termination of Gaussian 16 at Tue Apr  8 19:01:28 2025.
