 Gaussian 16, Revision C.01,

 ----------------------------------------------------------------------
 #t hf aug-cc-pvdz symm=none int=(grid=ultrafine) guess=(read,tcheck) s
 table=(opt,rrhf)
 ----------------------------------------------------------------------
 -----
 title
 -----
 Symbolic Z-matrix:
 Charge =  0 Multiplicity = 1

 SCF Done:  E(RHF) =  -906.647118800     A.U. after   15 cycles
 Normal termination of Gaussian 16 at Tue Apr  8 19:17:10 2025.
 Gaussian 16:  ES64L-G16RevC.01  3-Jul-2019

 ----------------------------------------------------------------------
 #t hf aug-cc-pvdz iop(5/13=1,5/36=2,99/5=2) pseudo=read geom=check gue
 ss=(read,tcheck) scf=(maxcycle=1)
 ----------------------------------------------------------------------
 -----
 title
 -----
 Structure from the checkpoint file:  "3B-69_20c_maleic_acid_dimerAB_mol1.chk"
 Charge =  0 Multiplicity = 1

                         Standard orientation:
 ---------------------------------------------------------------------
 Center     Atomic      Atomic             Coordinates (Angstroms)
 Number     Number       Type             X           Y           Z
 ---------------------------------------------------------------------
      1          6           0       -2.673080   -0.186078   -0.187101
      2          8           0       -2.912126    0.584323    0.849075
      3          1           0       -2.254573    1.356771    0.914476
      4          8           0       -3.424321   -1.131922   -0.406228
      5          6           0       -1.517712    0.058329   -1.098398
      6          1           0       -1.446284   -0.704058   -1.862986
      7          6           0       -0.592736    1.025202   -1.128011
      8          1           0        0.157415    0.972632   -1.907302
      9          6           0       -0.458186    2.192619   -0.223075
     10          8           0        0.564208    2.948974   -0.528848
     11          1           0        0.607493    3.763177    0.063160
     12          8           0       -1.220731    2.445685    0.712620
     13          6           0        0.337920   -2.276259    0.266206
     14          8           0        0.098874   -1.505858    1.302382
     15          1           0        0.756427   -0.733410    1.367783
     16          8           0       -0.413321   -3.222103    0.047079
     17          6           0        1.493288   -2.031852   -0.645091
     18          1           0        1.564716   -2.794239   -1.409679
     19          6           0        2.418263   -1.064979   -0.674704
     20          1           0        3.168415   -1.117549   -1.453995
     21          6           0        2.552814    0.102438    0.230232
     22          8           0        3.575208    0.858793   -0.075541
     23          1           0        3.618493    1.672996    0.516467
     24          8           0        1.790269    0.355504    1.165927
 ---------------------------------------------------------------------

 SCF Done:  E(RHF) =  -910.456529699     A.U. after    2 cycles

 The electronic state is 1-A.
 Alpha  occ. eigenvalues --  -21.18732 -21.17759 -21.10729 -21.09499 -21.09210
 Alpha  occ. eigenvalues --  -21.07656 -21.04557 -21.02660 -11.61625 -11.59841
 Alpha  occ. eigenvalues --  -11.54910 -11.53092 -11.51261 -11.49862 -11.45966
 Alpha  occ. eigenvalues --  -11.44543  -1.90274  -1.89073  -1.82128  -1.80231
 Alpha  occ. eigenvalues --   -1.72146  -1.70611  -1.63436  -1.61488  -1.24404
 Alpha  occ. eigenvalues --   -1.23025  -1.02319  -1.00924  -0.87990  -0.86585
 Alpha  occ. eigenvalues --   -0.76780  -0.75410  -0.75239  -0.73669  -0.71057
 Alpha  occ. eigenvalues --   -0.69755  -0.63651  -0.63035  -0.61883  -0.61331
 Alpha  occ. eigenvalues --   -0.60995  -0.59789  -0.56967  -0.53993  -0.52231
 Alpha  occ. eigenvalues --   -0.50743  -0.49578  -0.48174  -0.47505  -0.45839
 Alpha  occ. eigenvalues --   -0.42458  -0.41198  -0.39838  -0.38261  -0.33366
 Alpha  occ. eigenvalues --   -0.31960  -0.31713  -0.30288  -0.29269  -0.28455
 Alpha virt. eigenvalues --    0.01777   0.02604   0.03489   0.04257   0.04474
 Alpha virt. eigenvalues --    0.05125   0.05996   0.06939   0.07476   0.08069
 Alpha virt. eigenvalues --    0.08752   0.09188   0.09978   0.10367   0.10820

 Mulliken charges:
               1
     1  C    4.439218
     2  O   -3.508653
     3  H    1.869491
     4  O   -3.129143
     5  C   -1.084139
     6  H    1.482497
     7  C   -1.614200
     8  H    1.722670
     9  C    6.272202
    10  O   -3.828977
    11  H    1.089757
    12  O   -3.886376
    13  C    4.650900
    14  O   -3.398049
    15  H    2.012971
    16  O   -3.203973
    17  C   -1.010641
    18  H    1.347737
    19  C   -1.024874
    20  H    1.500039
    21  C    5.640724
    22  O   -3.870538
    23  H    1.072443
    24  O   -3.541086
 Sum of Mulliken charges =   0.00000

 Dipole moment (field-independent basis, Debye):
    X=              6.6807    Y=              4.5976    Z=             -1.3848  Tot=              8.2272

 Test job not archived.
 1\1\GINC-SE088\SP\RHF\Aug-CC-pVDZ\C8H8O8\OHZDE\08-Apr-2025\0\\#t hf au
 g-cc-pvdz iop(5/13=1,5/36=2,99/5=2) pseudo=read geom=check guess=(read
 ,tcheck) scf=(maxcycle=1)\\title\\0,1\C,0,-1.647553,10.845738,6.203201
 \O,0,-2.15126,10.135432,5.220314\H,0,-2.044314,9.136168,5.373168\O,0,-
 1.751616,12.068249,6.16272\C,0,-0.955798,10.207203,7.360275\H,0,-0.559
 945,10.946547,8.044089\C,0,-0.752528,8.923996,7.681774\H,0,-0.206856,8
 .720057,8.594701\C,0,-1.192451,7.714058,6.945301\O,0,-0.824514,6.60627
 6,7.53547\H,0,-1.177353,5.797481,7.049024\O,0,-1.842498,7.729101,5.897

 Normal termination of Gaussian 16 at Tue Apr  8 19:17:36 2025.
