 Gaussian 16, Revision C.01,

 ----------------------------------------------------------------------
 #t hf aug-cc-pvdz symm=none int=(grid=ultrafine) guess=(read,tcheck) s
 table=(opt,rrhf)
 ----------------------------------------------------------------------
 -----
 title
 -----
 Symbolic Z-matrix:
 Charge =  0 Multiplicity = 1

 SCF Done:  E(RHF) =  -76.0402986023     A.U. after   10 cycles
 Normal termination of Gaussian 16 at Tue Apr  8 19:00:37 2025.
 Gaussian 16:  ES64L-G16RevC.01  3-Jul-2019

 ----------------------------------------------------------------------
 #t hf aug-cc-pvdz iop(5/13=1,5/36=2,99/5=2) pseudo=read geom=check gue
 ss=(read,tcheck) scf=(maxcycle=1)
 ----------------------------------------------------------------------
 -----
 title
 -----
 Structure from the checkpoint file:  "3B-69_01c_water_dimerBC_mol3.chk"
 Charge =  0 Multiplicity = 1

                         Standard orientation:
 ---------------------------------------------------------------------
 Center     Atomic      Atomic             Coordinates (Angstroms)
 Number     Number       Type             X           Y           Z
 ---------------------------------------------------------------------
      1          8           0       -0.000000    0.116288    0.000000
      2          1           0        0.775930   -0.453041   -0.000000
      3          1           0       -0.775930   -0.477263   -0.000000
 ---------------------------------------------------------------------

 SCF Done:  E(RHF) =  -76.3661019676     A.U. after    2 cycles

 The electronic state is 1-A'.
 Alpha  occ. eigenvalues --  -21.09794  -1.65503  -0.63437  -0.46097  -0.35258
 Alpha virt. eigenvalues --    0.03844   0.06319   0.18848   0.21959   0.23312
 Alpha virt. eigenvalues --    0.23446   0.29022   0.30481   0.35493   0.40314
 Alpha virt. eigenvalues --    0.42336   0.52769   0.65384   0.67842   0.79998

 Mulliken charges:
               1
     1  O   -1.732180
     2  H    0.873379
     3  H    0.858802
 Sum of Mulliken charges =  -0.00000

 Dipole moment (field-independent basis, Debye):
    X=              0.0259    Y=             -1.0216    Z=             -0.0000  Tot=              1.0219

 Test job not archived.
 1\1\GINC-SE100\SP\RHF\Aug-CC-pVDZ\H2O1\OHZDE\08-Apr-2025\0\\#t hf aug-
 cc-pvdz iop(5/13=1,5/36=2,99/5=2) pseudo=read geom=check guess=(read,t
 check) scf=(maxcycle=1)\\title\\0,1\O,0,1.602083,0.679871,0.031168\H,0
 ,2.064562,1.065746,-0.719443\H,0,0.719298,1.097655,0.05393\\Version=ES
 64L-G16RevC.01\State=1-A'\HF=-76.366102\RMSD=3.925e-02\Dipole=-0.13647
 99,0.2776711,-0.2567555\Quadrupole=0.8850845,-0.7339014,-0.1511832,-0.
 3128825,-0.9154313,-0.4583021\PG=CS [SG(H2O1)]\\@

 Normal termination of Gaussian 16 at Tue Apr  8 19:00:38 2025.
