 Gaussian 16, Revision C.01,

 ----------------------------------------------------------------------
 #t hf aug-cc-pvdz symm=none int=(grid=ultrafine) guess=(read,tcheck) s
 table=(opt,rrhf)
 ----------------------------------------------------------------------
 -----
 title
 -----
 Symbolic Z-matrix:
 Charge =  0 Multiplicity = 1

 SCF Done:  E(RHF) =  -376.426729411     A.U. after   13 cycles
 Normal termination of Gaussian 16 at Tue Apr  8 19:01:42 2025.
 Gaussian 16:  ES64L-G16RevC.01  3-Jul-2019

 ----------------------------------------------------------------------
 #t hf aug-cc-pvdz iop(5/13=1,5/36=2,99/5=2) pseudo=read geom=check gue
 ss=(read,tcheck) scf=(maxcycle=1)
 ----------------------------------------------------------------------
 -----
 title
 -----
 Structure from the checkpoint file:  "3B-69_07a_oxalic_acid_dimerAC_mol2.chk"
 Charge =  0 Multiplicity = 1

                         Standard orientation:
 ---------------------------------------------------------------------
 Center     Atomic      Atomic             Coordinates (Angstroms)
 Number     Number       Type             X           Y           Z
 ---------------------------------------------------------------------
      1          6           0        0.754696   -0.146745    0.004825
      2          1           0        2.445421    0.701399    0.009054
      3          8           0        1.179563   -1.287574   -0.001592
      4          8           0        1.474059    0.941234   -0.002456
      5          6           0       -0.754696    0.146745   -0.004825
      6          8           0       -1.179563    1.287574    0.001592
      7          8           0       -1.474059   -0.941233    0.002456
      8          1           0       -2.445421   -0.701399   -0.009053
 ---------------------------------------------------------------------

 SCF Done:  E(RHF) =  -377.948321754     A.U. after    2 cycles

 The electronic state is 1-A.
 Alpha  occ. eigenvalues --  -21.15516 -21.15467 -21.08228 -21.08190 -11.57007
 Alpha  occ. eigenvalues --  -11.52560  -1.88835  -1.83142  -1.69045  -1.66588
 Alpha  occ. eigenvalues --   -1.01139  -0.80171  -0.67510  -0.63764  -0.62966
 Alpha  occ. eigenvalues --   -0.61506  -0.53909  -0.52464  -0.45811  -0.37395
 Alpha  occ. eigenvalues --   -0.36495  -0.35233  -0.29011
 Alpha virt. eigenvalues --    0.03256   0.05237   0.09770   0.10598   0.10655
 Alpha virt. eigenvalues --    0.10784   0.11806   0.11846   0.13556   0.14473
 Alpha virt. eigenvalues --    0.17604   0.18835   0.19480   0.20960   0.23173

 Mulliken charges:
               1
     1  C    4.852307
     2  H    0.908782
     3  O   -2.825479
     4  O   -2.935610
     5  C    4.852308
     6  O   -2.825479
     7  O   -2.935611
     8  H    0.908782
 Sum of Mulliken charges =  -0.00000

 Dipole moment (field-independent basis, Debye):
    X=             -0.0000    Y=             -0.0000    Z=              0.0000  Tot=              0.0000

 Test job not archived.
 1\1\GINC-SE338\SP\RHF\Aug-CC-pVDZ\C2H2O4\OHZDE\08-Apr-2025\0\\#t hf au
 g-cc-pvdz iop(5/13=1,5/36=2,99/5=2) pseudo=read geom=check guess=(read
 ,tcheck) scf=(maxcycle=1)\\title\\0,1\C,0,-1.599714,6.025105,4.897591\
 H,0,-0.099127,5.378673,5.850628\O,0,-0.967931,6.64465,4.061493\O,0,-1.
 098297,5.340779,5.888304\C,0,-3.137243,6.004895,4.888196\O,0,-3.769026
 ,5.38535,5.724294\O,0,-3.63866,6.689221,3.897483\H,0,-4.63783,6.651327
 ,3.935158\\Version=ES64L-G16RevC.01\State=1-A\HF=-377.9483218\RMSD=1.6
 85e-01\Dipole=-0.0000002,0.,-0.0000002\Quadrupole=3.5109605,-1.385527,

 Normal termination of Gaussian 16 at Tue Apr  8 19:01:44 2025.
