 Gaussian 16, Revision C.01,

 ----------------------------------------------------------------------
 #t hf aug-cc-pvdz symm=none int=(grid=ultrafine) guess=(read,tcheck) s
 table=(opt,rrhf)
 ----------------------------------------------------------------------
 -----
 title
 -----
 Symbolic Z-matrix:
 Charge =  0 Multiplicity = 1

 SCF Done:  E(RHF) =  -224.845449854     A.U. after   14 cycles
 Normal termination of Gaussian 16 at Tue Apr  8 19:04:53 2025.
 Gaussian 16:  ES64L-G16RevC.01  3-Jul-2019

 ----------------------------------------------------------------------
 #t hf aug-cc-pvdz iop(5/13=1,5/36=2,99/5=2) pseudo=read geom=check gue
 ss=(read,tcheck) scf=(maxcycle=1)
 ----------------------------------------------------------------------
 -----
 title
 -----
 Structure from the checkpoint file:  "3B-69_10a_imidazole_dimerAB_mol2.chk"
 Charge =  0 Multiplicity = 1

                         Standard orientation:
 ---------------------------------------------------------------------
 Center     Atomic      Atomic             Coordinates (Angstroms)
 Number     Number       Type             X           Y           Z
 ---------------------------------------------------------------------
      1          7           0        0.830379    0.723395   -0.008851
      2          6           0        0.936625   -0.622193   -0.002253
      3          7           0       -0.253411   -1.202944    0.002009
      4          6           0       -1.165715   -0.170930    0.000175
      5          6           0       -0.507989    1.027212   -0.004278
      6          1           0        1.613082    1.408335    0.056207
      7          1           0        1.875367   -1.147974    0.005568
      8          1           0       -2.225575   -0.343001    0.017771
      9          1           0       -0.879176    2.034941    0.006484
 ---------------------------------------------------------------------

 SCF Done:  E(RHF) =  -225.883901623     A.U. after    2 cycles

 The electronic state is 1-A.
 Alpha  occ. eigenvalues --  -15.80147 -15.71388 -11.43547 -11.41912 -11.37158
 Alpha  occ. eigenvalues --   -1.55940  -1.26074  -1.07797  -0.84227  -0.80657
 Alpha  occ. eigenvalues --   -0.76391  -0.59642  -0.57418  -0.56290  -0.53195
 Alpha  occ. eigenvalues --   -0.38121  -0.36529  -0.30562
 Alpha virt. eigenvalues --    0.03078   0.05042   0.05413   0.06076   0.10499
 Alpha virt. eigenvalues --    0.10893   0.11586   0.12224   0.13155   0.13728
 Alpha virt. eigenvalues --    0.15004   0.15423   0.16129   0.17028   0.18532

 Mulliken charges:
               1
     1  N   -2.971424
     2  C    1.286852
     3  N   -3.133551
     4  C    0.243589
     5  C   -0.115285
     6  H    0.795148
     7  H    1.525652
     8  H    1.229293
     9  H    1.139726
 Sum of Mulliken charges =  -0.00000

 Dipole moment (field-independent basis, Debye):
    X=              1.9362    Y=              2.9908    Z=              0.1082  Tot=              3.5644

 Test job not archived.
 1\1\GINC-SE343\SP\RHF\Aug-CC-pVDZ\C3H4N2\OHZDE\08-Apr-2025\0\\#t hf au
 g-cc-pvdz iop(5/13=1,5/36=2,99/5=2) pseudo=read geom=check guess=(read
 ,tcheck) scf=(maxcycle=1)\\title\\0,1\N,0,1.225156,1.790098,0.793667\C
 ,0,0.314568,1.191681,1.590327\N,0,0.098973,1.892803,2.692789\C,0,0.918
 281,2.99557,2.592821\C,0,1.622758,2.943251,1.422717\H,0,1.619151,1.410
 346,-0.093212\H,0,-0.165462,0.258212,1.353791\H,0,0.967252,3.744556,3.
 360834\H,0,2.357781,3.610084,1.012244\\Version=ES64L-G16RevC.01\State=
 1-A\HF=-225.8839016\RMSD=5.698e-01\Dipole=0.7095585,-0.1648868,-1.1983

 Normal termination of Gaussian 16 at Tue Apr  8 19:04:58 2025.
