 Gaussian 16, Revision C.01,

 ----------------------------------------------------------------------
 #t hf aug-cc-pvdz symm=none int=(grid=ultrafine) guess=(read,tcheck) s
 table=(opt,rrhf)
 ----------------------------------------------------------------------
 -----
 title
 -----
 Symbolic Z-matrix:
 Charge =  0 Multiplicity = 1

 SCF Done:  E(RHF) =  -1129.30492597     A.U. after   13 cycles

 1\1\GINC-SE338\Stability\RHF\Aug-CC-pVDZ\C6H6O12\OHZDE\08-Apr-2025\0\\
 #t hf aug-cc-pvdz symm=none int=(grid=ultrafine) guess=(read,tcheck) s
 table=(opt,rrhf)\\title\\0,1\O,0,-1.061967,-1.393698,3.865972\O,0,-0.2
 19281,-0.272646,5.6286\C,0,-0.39363,-0.508179,4.356354\H,0,-0.68854,-0
 .914709,6.221064\O,0,1.061967,1.393698,3.986428\O,0,0.219281,0.272646,
 2.2238\C,0,0.39363,0.508179,3.496046\H,0,0.68854,0.914709,1.631336\O,0
 ,-1.061967,-1.393698,11.718372\O,0,-0.219281,-0.272646,13.481\C,0,-0.3
 9363,-0.508179,12.208754\H,0,-0.68854,-0.914709,14.073464\O,0,1.061967

 Normal termination of Gaussian 16 at Tue Apr  8 19:06:37 2025.
 Gaussian 16:  ES64L-G16RevC.01  3-Jul-2019

 ----------------------------------------------------------------------
 #t hf aug-cc-pvdz iop(5/13=1,5/36=2,99/5=2) pseudo=read geom=check gue
 ss=(read,tcheck) scf=(maxcycle=1)
 ----------------------------------------------------------------------
 -----
 title
 -----
 Structure from the checkpoint file:  "3B-69_07b_oxalic_acid_trimer_mol1.chk"
 Charge =  0 Multiplicity = 1

                         Standard orientation:
 ---------------------------------------------------------------------
 Center     Atomic      Atomic             Coordinates (Angstroms)
 Number     Number       Type             X           Y           Z
 ---------------------------------------------------------------------
      1          8           0       -3.937036   -2.540638    0.932380
      2          8           0       -2.204359   -1.330602    0.153033
      3          6           0       -3.470128   -1.596200    0.331274
      4          1           0       -1.595433   -2.001917    0.555534
      5          8           0       -3.890501    0.415606   -0.952730
      6          8           0       -5.623177   -0.794430   -0.173384
      7          6           0       -4.357408   -0.528831   -0.351624
      8          1           0       -6.232104   -0.123114   -0.575884
      9          8           0        3.913289   -2.439685    0.782725
     10          8           0        5.645965   -1.229649    0.003378
     11          6           0        4.380196   -1.495247    0.181619
     12          1           0        6.254892   -1.900964    0.405879
     13          8           0        3.959824    0.516559   -1.102385
     14          8           0        2.227148   -0.693477   -0.323039
     15          6           0        3.492916   -0.427878   -0.501279
     16          1           0        1.618221   -0.022162   -0.725539
     17          8           0        0.031749    0.724760   -1.005831
     18          8           0       -1.726080    1.748820   -0.038839
     19          6           0       -0.455026    1.545035   -0.256504
     20          1           0       -2.320601    1.140596   -0.548810
     21          8           0       -0.077325    3.323398    1.345842
     22          8           0        1.680504    2.299337    0.378850
     23          6           0        0.409450    2.503122    0.596515
     24          1           0        2.275024    2.907562    0.888821
 ---------------------------------------------------------------------

 SCF Done:  E(RHF) =  -1133.87281633     A.U. after    2 cycles

 The electronic state is 1-A.
 Alpha  occ. eigenvalues --  -21.18088 -21.16960 -21.15513 -21.14316 -21.13817
 Alpha  occ. eigenvalues --  -21.11683 -21.11399 -21.10092 -21.09060 -21.08475
 Alpha  occ. eigenvalues --  -21.07088 -21.06073 -11.60181 -11.58050 -11.55448
 Alpha  occ. eigenvalues --  -11.55385 -11.53356 -11.51000  -1.91221  -1.88828
 Alpha  occ. eigenvalues --   -1.86867  -1.85269  -1.82984  -1.80771  -1.72759
 Alpha  occ. eigenvalues --   -1.70303  -1.69259  -1.67780  -1.67382  -1.64866
 Alpha  occ. eigenvalues --   -1.03618  -1.01384  -0.99184  -0.83422  -0.81212
 Alpha  occ. eigenvalues --   -0.79167  -0.70832  -0.68726  -0.67470  -0.66036
 Alpha  occ. eigenvalues --   -0.65387  -0.64375  -0.63631  -0.63149  -0.62015
 Alpha  occ. eigenvalues --   -0.61421  -0.61123  -0.58461  -0.56165  -0.54488
 Alpha  occ. eigenvalues --   -0.53800  -0.52286  -0.51557  -0.49902  -0.48208
 Alpha  occ. eigenvalues --   -0.46202  -0.44046  -0.40098  -0.39654  -0.37949
 Alpha  occ. eigenvalues --   -0.37460  -0.36969  -0.35912  -0.35309  -0.35260
 Alpha  occ. eigenvalues --   -0.33025  -0.31535  -0.29443  -0.27088
 Alpha virt. eigenvalues --    0.02794   0.04319   0.05124   0.05701   0.06994
 Alpha virt. eigenvalues --    0.07843   0.08198   0.08664   0.09178   0.09471
 Alpha virt. eigenvalues --    0.09699   0.10484   0.10621   0.10812   0.11352

 Mulliken charges:
               1
     1  O   -3.092903
     2  O   -2.856771
     3  C    5.161425
     4  H    1.011584
     5  O   -3.105405
     6  O   -3.117488
     7  C    4.752938
     8  H    0.959188
     9  O   -3.033562
    10  O   -3.097731
    11  C    5.283339
    12  H    1.013999
    13  O   -2.994457
    14  O   -3.365945
    15  C    4.681011
    16  H    1.798135
    17  O   -3.121345
    18  O   -3.630577
    19  C    4.817529
    20  H    1.674503
    21  O   -3.158710
    22  O   -2.976213
    23  C    5.381792
    24  H    1.015665
 Sum of Mulliken charges =   0.00000

 Dipole moment (field-independent basis, Debye):
    X=             -3.1423    Y=             -0.0533    Z=              0.0249  Tot=              3.1428

 Test job not archived.
 1\1\GINC-SE338\SP\RHF\Aug-CC-pVDZ\C6H6O12\OHZDE\08-Apr-2025\0\\#t hf a
 ug-cc-pvdz iop(5/13=1,5/36=2,99/5=2) pseudo=read geom=check guess=(rea
 d,tcheck) scf=(maxcycle=1)\\title\\0,1\O,0,-1.061967,-1.393698,3.86597
 2\O,0,-0.219281,-0.272646,5.6286\C,0,-0.39363,-0.508179,4.356354\H,0,-
 0.68854,-0.914709,6.221064\O,0,1.061967,1.393698,3.986428\O,0,0.219281
 ,0.272646,2.2238\C,0,0.39363,0.508179,3.496046\H,0,0.68854,0.914709,1.
 631336\O,0,-1.061967,-1.393698,11.718372\O,0,-0.219281,-0.272646,13.48
 1\C,0,-0.39363,-0.508179,12.208754\H,0,-0.68854,-0.914709,14.073464\O,

 Normal termination of Gaussian 16 at Tue Apr  8 19:06:54 2025.
