 Gaussian 16, Revision C.01,

 ----------------------------------------------------------------------
 #t hf aug-cc-pvdz symm=none int=(grid=ultrafine) guess=(read,tcheck) s
 table=(opt,rrhf)
 ----------------------------------------------------------------------
 -----
 title
 -----
 Symbolic Z-matrix:
 Charge =  0 Multiplicity = 1

 SCF Done:  E(RHF) =  -1129.30389239     A.U. after   13 cycles

 1\1\GINC-SE035\Stability\RHF\Aug-CC-pVDZ\C6H6O12\OHZDE\08-Apr-2025\0\\
 #t hf aug-cc-pvdz symm=none int=(grid=ultrafine) guess=(read,tcheck) s
 table=(opt,rrhf)\\title\\0,1\O,0,17.460467,7.487698,15.644572\O,0,16.6
 17781,6.366646,17.4072\C,0,16.79213,6.602179,16.134954\H,0,17.08704,7.
 008709,17.999664\O,0,15.336533,4.700302,15.765028\O,0,16.179219,5.8213
 54,14.0024\C,0,16.00487,5.585821,15.274646\H,0,15.70996,5.179291,13.40
 9936\O,0,15.336533,4.440698,11.838828\O,0,16.179219,3.319646,10.0762\C
 ,0,16.00487,3.555179,11.348446\H,0,15.70996,3.961709,9.483736\O,0,17.4

 Normal termination of Gaussian 16 at Tue Apr  8 19:09:54 2025.
 Gaussian 16:  ES64L-G16RevC.01  3-Jul-2019

 ----------------------------------------------------------------------
 #t hf aug-cc-pvdz iop(5/13=1,5/36=2,99/5=2) pseudo=read geom=check gue
 ss=(read,tcheck) scf=(maxcycle=1)
 ----------------------------------------------------------------------
 -----
 title
 -----
 Structure from the checkpoint file:  "3B-69_07c_oxalic_acid_trimer_mol1.chk"
 Charge =  0 Multiplicity = 1

                         Standard orientation:
 ---------------------------------------------------------------------
 Center     Atomic      Atomic             Coordinates (Angstroms)
 Number     Number       Type             X           Y           Z
 ---------------------------------------------------------------------
      1          8           0       -1.244585    2.667458   -0.972272
      2          8           0       -0.075541    4.333349   -0.006932
      3          6           0       -0.360810    3.083337   -0.253049
      4          1           0       -0.675254    4.976926   -0.464769
      5          8           0        1.474228    2.555618    1.239228
      6          8           0        0.305184    0.889727    0.273889
      7          6           0        0.590453    2.139740    0.520006
      8          1           0        0.904898    0.246150    0.731726
      9          8           0        1.561210   -1.373492    1.046944
     10          8           0        2.630903   -3.141315    0.150121
     11          6           0        2.445814   -1.869886    0.381843
     12          1           0        1.948419   -3.726512    0.568717
     13          8           0        4.408819   -1.515097   -0.994196
     14          8           0        3.339125    0.252726   -0.097373
     15          6           0        3.524214   -1.018703   -0.329094
     16          1           0        4.021609    0.837923   -0.515968
     17          8           0       -4.523640   -1.096441    0.860717
     18          8           0       -3.453947   -2.864264   -0.036106
     19          6           0       -3.639036   -1.592835    0.195616
     20          1           0       -4.136431   -3.449461    0.382490
     21          8           0       -1.676031   -1.238046   -1.180422
     22          8           0       -2.745725    0.529777   -0.283600
     23          6           0       -2.560636   -0.741652   -0.515321
     24          1           0       -2.063241    1.114974   -0.702195
 ---------------------------------------------------------------------

 SCF Done:  E(RHF) =  -1133.87069467     A.U. after    2 cycles

 The electronic state is 1-A.
 Alpha  occ. eigenvalues --  -21.17263 -21.16653 -21.16562 -21.14072 -21.12806
 Alpha  occ. eigenvalues --  -21.10854 -21.10846 -21.09929 -21.09595 -21.07682
 Alpha  occ. eigenvalues --  -21.06663 -21.05645 -11.59622 -11.58267 -11.55096
 Alpha  occ. eigenvalues --  -11.54839 -11.53260 -11.50575  -1.90526  -1.89184
 Alpha  occ. eigenvalues --   -1.86472  -1.84676  -1.82672  -1.80327  -1.71972
 Alpha  occ. eigenvalues --   -1.70916  -1.68775  -1.67362  -1.66829  -1.64444
 Alpha  occ. eigenvalues --   -1.02972  -1.01444  -0.98759  -0.82864  -0.81235
 Alpha  occ. eigenvalues --   -0.78807  -0.70331  -0.68722  -0.66420  -0.66008
 Alpha  occ. eigenvalues --   -0.64697  -0.64603  -0.63544  -0.63169  -0.61567
 Alpha  occ. eigenvalues --   -0.60748  -0.60448  -0.58323  -0.55525  -0.54142
 Alpha  occ. eigenvalues --   -0.53385  -0.52226  -0.51382  -0.49525  -0.47578
 Alpha  occ. eigenvalues --   -0.46129  -0.43703  -0.39534  -0.38838  -0.38031
 Alpha  occ. eigenvalues --   -0.37904  -0.36815  -0.35462  -0.34959  -0.34557
 Alpha  occ. eigenvalues --   -0.32513  -0.30897  -0.29319  -0.26681
 Alpha virt. eigenvalues --    0.02897   0.04233   0.04633   0.04913   0.06849
 Alpha virt. eigenvalues --    0.08204   0.08632   0.08732   0.09464   0.09501
 Alpha virt. eigenvalues --    0.10013   0.10466   0.10697   0.11065   0.11505

 Mulliken charges:
               1
     1  O   -3.248002
     2  O   -3.225323
     3  C    5.002282
     4  H    0.987414
     5  O   -3.093976
     6  O   -3.260082
     7  C    5.014054
     8  H    1.759807
     9  O   -3.089173
    10  O   -3.252343
    11  C    4.925523
    12  H    0.970435
    13  O   -3.015245
    14  O   -2.949228
    15  C    5.157176
    16  H    0.993736
    17  O   -2.967635
    18  O   -3.041072
    19  C    4.794604
    20  H    0.984280
    21  O   -3.005790
    22  O   -3.525015
    23  C    5.229887
    24  H    1.853685
 Sum of Mulliken charges =  -0.00000

 Dipole moment (field-independent basis, Debye):
    X=              2.1454    Y=             -0.0962    Z=              0.0533  Tot=              2.1482

 Test job not archived.
 1\1\GINC-SE035\SP\RHF\Aug-CC-pVDZ\C6H6O12\OHZDE\08-Apr-2025\0\\#t hf a
 ug-cc-pvdz iop(5/13=1,5/36=2,99/5=2) pseudo=read geom=check guess=(rea
 d,tcheck) scf=(maxcycle=1)\\title\\0,1\O,0,17.460467,7.487698,15.64457
 2\O,0,16.617781,6.366646,17.4072\C,0,16.79213,6.602179,16.134954\H,0,1
 7.08704,7.008709,17.999664\O,0,15.336533,4.700302,15.765028\O,0,16.179
 219,5.821354,14.0024\C,0,16.00487,5.585821,15.274646\H,0,15.70996,5.17
 9291,13.409936\O,0,15.336533,4.440698,11.838828\O,0,16.179219,3.319646
 ,10.0762\C,0,16.00487,3.555179,11.348446\H,0,15.70996,3.961709,9.48373

 Normal termination of Gaussian 16 at Tue Apr  8 19:10:18 2025.
