 Gaussian 16, Revision C.01,

 ----------------------------------------------------------------------
 #t hf aug-cc-pvdz symm=none int=(grid=ultrafine) guess=(read,tcheck) s
 table=(opt,rrhf)
 ----------------------------------------------------------------------
 -----
 title
 -----
 Symbolic Z-matrix:
 Charge =  0 Multiplicity = 1

 SCF Done:  E(RHF) =  -599.497747939     A.U. after   15 cycles
 Normal termination of Gaussian 16 at Tue Apr  8 19:09:42 2025.
 Gaussian 16:  ES64L-G16RevC.01  3-Jul-2019

 ----------------------------------------------------------------------
 #t hf aug-cc-pvdz iop(5/13=1,5/36=2,99/5=2) pseudo=read geom=check gue
 ss=(read,tcheck) scf=(maxcycle=1)
 ----------------------------------------------------------------------
 -----
 title
 -----
 Structure from the checkpoint file:  "3B-69_14a_cyanoacetamide_dimerBC_mol1.chk"
 Charge =  0 Multiplicity = 1

                         Standard orientation:
 ---------------------------------------------------------------------
 Center     Atomic      Atomic             Coordinates (Angstroms)
 Number     Number       Type             X           Y           Z
 ---------------------------------------------------------------------
      1          6           0       -2.689045   -0.508083    0.000423
      2          6           0       -1.738537    1.777992   -0.026128
      3          6           0       -1.430366    0.363749   -0.109021
      4          1           0       -0.702835    0.122423    0.666565
      5          1           0       -0.929323    0.176200   -1.061512
      6          1           0       -3.261462   -2.454987    0.082627
      7          1           0       -1.517423   -2.193327   -0.009473
      8          7           0       -2.461816   -1.824624   -0.007423
      9          7           0       -1.978984    2.900336    0.038643
     10          8           0       -3.812821   -0.002046    0.052085
     11          6           0        1.603784   -1.715571   -0.002635
     12          6           0        2.876668   -1.036977    0.134773
     13          6           0        2.732925    0.486639    0.031277
     14          1           0        3.569024   -1.433917   -0.606610
     15          1           0        3.288692   -1.279832    1.117749
     16          1           0        3.859562    2.167968   -0.095924
     17          1           0        4.771437    0.660745   -0.124096
     18          7           0        0.593118   -2.253443   -0.105143
     19          7           0        3.881999    1.147194   -0.147747
     20          8           0        1.631512    1.032294    0.124194
 ---------------------------------------------------------------------

 SCF Done:  E(RHF) =  -602.144274176     A.U. after    2 cycles

 The electronic state is 1-A.
 Alpha  occ. eigenvalues --  -21.06762 -21.00936 -15.83017 -15.79862 -15.76758
 Alpha  occ. eigenvalues --  -15.72793 -11.56727 -11.52100 -11.50808 -11.47348
 Alpha  occ. eigenvalues --  -11.44282 -11.40016  -1.74418  -1.68424  -1.40922
 Alpha  occ. eigenvalues --   -1.35740  -1.34603  -1.28246  -1.18810  -1.11870
 Alpha  occ. eigenvalues --   -0.88674  -0.82552  -0.77568  -0.74009  -0.71901
 Alpha  occ. eigenvalues --   -0.70623  -0.67060  -0.66770  -0.63766  -0.61169
 Alpha  occ. eigenvalues --   -0.56709  -0.55727  -0.53660  -0.50090  -0.48777
 Alpha  occ. eigenvalues --   -0.47752  -0.47561  -0.46935  -0.40419  -0.40030
 Alpha  occ. eigenvalues --   -0.36818  -0.33740  -0.30968  -0.27643
 Alpha virt. eigenvalues --    0.00705   0.02895   0.03757   0.04424   0.05564
 Alpha virt. eigenvalues --    0.06174   0.07578   0.07864   0.08390   0.09216
 Alpha virt. eigenvalues --    0.09826   0.10393   0.11843   0.12123   0.13321

 Mulliken charges:
               1
     1  C    5.080126
     2  C    2.020693
     3  C   -3.429518
     4  H    2.006311
     5  H    1.616456
     6  H    0.778319
     7  H    0.940402
     8  N   -3.279792
     9  N   -2.497254
    10  O   -3.113283
    11  C    3.105870
    12  C   -3.640193
    13  C    5.373840
    14  H    1.447924
    15  H    1.468670
    16  H    0.766785
    17  H    0.802440
    18  N   -3.008629
    19  N   -3.295799
    20  O   -3.143369
 Sum of Mulliken charges =  -0.00000

 Dipole moment (field-independent basis, Debye):
    X=              9.6147    Y=             -3.6864    Z=              0.1557  Tot=             10.2984

 Test job not archived.
 1\1\GINC-SE184\SP\RHF\Aug-CC-pVDZ\C6H8N4O2\OHZDE\08-Apr-2025\0\\#t hf
 aug-cc-pvdz iop(5/13=1,5/36=2,99/5=2) pseudo=read geom=check guess=(re
 ad,tcheck) scf=(maxcycle=1)\\title\\0,1\C,0,2.914349,23.782511,0.68304
 8\C,0,2.787287,26.254583,0.628049\C,0,3.42728,25.112897,1.251656\H,0,3
 .275043,25.177288,2.329501\H,0,4.505214,25.194233,1.093851\H,0,3.10310
 5,21.776494,0.938231\H,0,4.039968,22.763235,2.063953\N,0,3.423129,22.6
 91524,1.262585\N,0,2.282408,27.162428,0.135524\O,0,2.121953,23.756077,
 -0.261952\C,0,5.578016,24.531209,4.180296\C,0,5.959025,25.683875,4.971

 Normal termination of Gaussian 16 at Tue Apr  8 19:09:53 2025.
