 Gaussian 16, Revision C.01,

 ----------------------------------------------------------------------
 #t hf aug-cc-pvdz symm=none int=(grid=ultrafine) guess=(read,tcheck) s
 table=(opt,rrhf)
 ----------------------------------------------------------------------
 -----
 title
 -----
 Symbolic Z-matrix:
 Charge =  0 Multiplicity = 1

 SCF Done:  E(RHF) =  -379.283118320     A.U. after   12 cycles
 Normal termination of Gaussian 16 at Tue Apr  8 19:10:05 2025.
 Gaussian 16:  ES64L-G16RevC.01  3-Jul-2019

 ----------------------------------------------------------------------
 #t hf aug-cc-pvdz iop(5/13=1,5/36=2,99/5=2) pseudo=read geom=check gue
 ss=(read,tcheck) scf=(maxcycle=1)
 ----------------------------------------------------------------------
 -----
 title
 -----
 Structure from the checkpoint file:  "3B-69_21a_p-benzoquinone_dimerAB_mol2.chk"
 Charge =  0 Multiplicity = 1

                         Standard orientation:
 ---------------------------------------------------------------------
 Center     Atomic      Atomic             Coordinates (Angstroms)
 Number     Number       Type             X           Y           Z
 ---------------------------------------------------------------------
      1          8           0       -2.656299    0.000049    0.002256
      2          6           0       -1.430532    0.001920   -0.003925
      3          6           0       -0.668254    1.271622   -0.003403
      4          1           0       -1.243047    2.189353    0.005770
      5          6           0       -0.668888   -1.269783    0.000173
      6          1           0       -1.257556   -2.180053   -0.006741
      7          8           0        2.656299   -0.000049   -0.002257
      8          6           0        1.430532   -0.001920    0.003925
      9          6           0        0.668887    1.269784   -0.000173
     10          1           0        1.257555    2.180054    0.006741
     11          6           0        0.668254   -1.271622    0.003404
     12          1           0        1.243047   -2.189353   -0.005770
 ---------------------------------------------------------------------

 SCF Done:  E(RHF) =  -380.929904584     A.U. after    2 cycles

 The electronic state is 1-A.
 Alpha  occ. eigenvalues --  -21.08231 -21.08213 -11.56567 -11.51275 -11.48358
 Alpha  occ. eigenvalues --  -11.47152 -11.43838 -11.41833  -1.73844  -1.71944
 Alpha  occ. eigenvalues --   -1.30517  -1.15640  -1.01890  -0.91484  -0.85251
 Alpha  occ. eigenvalues --   -0.68048  -0.67740  -0.66788  -0.63831  -0.57147
 Alpha  occ. eigenvalues --   -0.52525  -0.52315  -0.49118  -0.48896  -0.40385
 Alpha  occ. eigenvalues --   -0.34035  -0.31648  -0.31124
 Alpha virt. eigenvalues --    0.02605   0.04937   0.05419   0.05932   0.06281
 Alpha virt. eigenvalues --    0.08253   0.10239   0.11229   0.11260   0.12424
 Alpha virt. eigenvalues --    0.12504   0.13005   0.13431   0.13785   0.14067

 Mulliken charges:
               1
     1  O   -3.795171
     2  C    2.931885
     3  C   -1.098658
     4  H    1.606010
     5  C   -1.231893
     6  H    1.587862
     7  O   -3.795168
     8  C    2.931877
     9  C   -1.231925
    10  H    1.587860
    11  C   -1.098689
    12  H    1.606009
 Sum of Mulliken charges =  -0.00000

 Dipole moment (field-independent basis, Debye):
    X=              0.0000    Y=              0.0000    Z=              0.0000  Tot=              0.0000

 Test job not archived.
 1\1\GINC-SE332\SP\RHF\Aug-CC-pVDZ\C6H4O2\OHZDE\08-Apr-2025\0\\#t hf au
 g-cc-pvdz iop(5/13=1,5/36=2,99/5=2) pseudo=read geom=check guess=(read
 ,tcheck) scf=(maxcycle=1)\\title\\0,1\O,0,0.080654,12.312048,7.623703\
 C,0,-0.510475,11.31644,7.221364\C,0,0.018253,9.957365,7.479383\H,0,0.9
 42935,9.888301,8.038752\C,0,-1.783484,11.439808,6.471979\H,0,-2.138694
 ,12.448619,6.295076\O,0,-2.49858,8.000952,5.895778\C,0,-1.907451,8.996
 56,6.298118\C,0,-0.634441,8.873192,7.047503\H,0,-0.279231,7.864381,7.2
 24406\C,0,-2.436179,10.355635,6.040099\H,0,-3.360861,10.424699,5.48073

 Normal termination of Gaussian 16 at Tue Apr  8 19:10:09 2025.
