 Gaussian 16, Revision C.01,

 ----------------------------------------------------------------------
 #t hf aug-cc-pvdz symm=none int=(grid=ultrafine) guess=(read,tcheck) s
 table=(opt,rrhf)
 ----------------------------------------------------------------------
 -----
 title
 -----
 Symbolic Z-matrix:
 Charge =  0 Multiplicity = 1

 SCF Done:  E(RHF) =  -227.770007737     A.U. after   12 cycles
 Normal termination of Gaussian 16 at Tue Apr  8 19:00:39 2025.
 Gaussian 16:  ES64L-G16RevC.01  3-Jul-2019

 ----------------------------------------------------------------------
 #t hf aug-cc-pvdz iop(5/13=1,5/36=2,99/5=2) pseudo=read geom=check gue
 ss=(read,tcheck) scf=(maxcycle=1)
 ----------------------------------------------------------------------
 -----
 title
 -----
 Structure from the checkpoint file:  "3B-69_02a_formaldehyde_dimerAC_mol1.chk"
 Charge =  0 Multiplicity = 1

                         Standard orientation:
 ---------------------------------------------------------------------
 Center     Atomic      Atomic             Coordinates (Angstroms)
 Number     Number       Type             X           Y           Z
 ---------------------------------------------------------------------
      1          8           0        5.122797   -0.149771   -0.081006
      2          6           0        3.963072    0.154703    0.093092
      3          1           0        3.627359    1.198863    0.011404
      4          1           0        3.194581   -0.591421    0.333333
      5          8           0       -3.825047   -0.191958   -0.112911
      6          6           0       -4.984771    0.112516    0.061187
      7          1           0       -5.320485    1.156676   -0.020502
      8          1           0       -5.753263   -0.633608    0.301428
 ---------------------------------------------------------------------

 SCF Done:  E(RHF) =  -228.732622845     A.U. after    2 cycles

 The electronic state is 1-A.
 Alpha  occ. eigenvalues --  -21.08650 -21.07869 -11.48263 -11.47476  -1.71396
 Alpha  occ. eigenvalues --   -1.70615  -0.91029  -0.90238  -0.67623  -0.66843
 Alpha  occ. eigenvalues --   -0.53810  -0.53020  -0.45634  -0.44860  -0.31479
 Alpha  occ. eigenvalues --   -0.30697
 Alpha virt. eigenvalues --    0.02794   0.03820   0.05269   0.06030   0.09169
 Alpha virt. eigenvalues --    0.09544   0.09969   0.11234   0.14417   0.15405
 Alpha virt. eigenvalues --    0.16143   0.16350   0.16938   0.17020   0.21773

 Mulliken charges:
               1
     1  O   -1.979744
     2  C   -0.553501
     3  H    1.260360
     4  H    1.272982
     5  O   -1.996319
     6  C   -0.547493
     7  H    1.268700
     8  H    1.275016
 Sum of Mulliken charges =   0.00000

 Dipole moment (field-independent basis, Debye):
    X=             -2.3472    Y=              0.5875    Z=              0.3376  Tot=              2.4430

 Test job not archived.
 1\1\GINC-SE047\SP\RHF\Aug-CC-pVDZ\C2H4O2\OHZDE\08-Apr-2025\0\\#t hf au
 g-cc-pvdz iop(5/13=1,5/36=2,99/5=2) pseudo=read geom=check guess=(read
 ,tcheck) scf=(maxcycle=1)\\title\\0,1\O,0,2.074088,0.498855,1.635515\C
 ,0,2.169454,0.15428,2.793163\H,0,2.970226,-0.523067,3.124239\H,0,1.470
 34,0.502963,3.564302\O,0,2.074088,0.498855,10.583515\C,0,2.169454,0.15
 428,11.741163\H,0,2.970226,-0.523067,12.072239\H,0,1.47034,0.502963,12
 .512302\\Version=ES64L-G16RevC.01\State=1-A\HF=-228.7326228\RMSD=4.555
 e-02\Dipole=0.0719706,-0.2623104,0.921876\Quadrupole=0.025739,0.104182

 Normal termination of Gaussian 16 at Tue Apr  8 19:00:41 2025.
