 Gaussian 16, Revision C.01,

 ----------------------------------------------------------------------
 #t hf aug-cc-pvdz symm=none int=(grid=ultrafine) guess=(read,tcheck) s
 table=(opt,rrhf)
 ----------------------------------------------------------------------
 -----
 title
 -----
 Symbolic Z-matrix:
 Charge =  0 Multiplicity = 1

 SCF Done:  E(RHF) =  -185.775233827     A.U. after   11 cycles
 Normal termination of Gaussian 16 at Tue Apr  8 19:11:51 2025.
 Gaussian 16:  ES64L-G16RevC.01  3-Jul-2019

 ----------------------------------------------------------------------
 #t hf aug-cc-pvdz iop(5/13=1,5/36=2,99/5=2) pseudo=read geom=check gue
 ss=(read,tcheck) scf=(maxcycle=1)
 ----------------------------------------------------------------------
 -----
 title
 -----
 Structure from the checkpoint file:  "A21x12_03_HCN-dimer_1p9_mol1.chk"
 Charge =  0 Multiplicity = 1

                         Standard orientation:
 ---------------------------------------------------------------------
 Center     Atomic      Atomic             Coordinates (Angstroms)
 Number     Number       Type             X           Y           Z
 ---------------------------------------------------------------------
      1          1           0        0.000000    0.000000   -5.802490
      2          6           0        0.000000    0.000000   -4.733777
      3          7           0        0.000000    0.000000   -3.578785
      4          1           0        0.000000    0.000000    2.656456
      5          6           0        0.000000    0.000000    3.730779
      6          7           0        0.000000    0.000000    4.887931
 ---------------------------------------------------------------------

 SCF Done:  E(RHF) =  -186.596557411     A.U. after    2 cycles

 The electronic state is 1-SG.
 Alpha  occ. eigenvalues --  -15.79443 -15.78410 -11.45363 -11.44285  -1.31993
 Alpha  occ. eigenvalues --   -1.30819  -0.83713  -0.82451  -0.55457  -0.54308
 Alpha  occ. eigenvalues --   -0.47489  -0.47489  -0.46345  -0.46345
 Alpha virt. eigenvalues --    0.02486   0.04003   0.08442   0.09485   0.09485
 Alpha virt. eigenvalues --    0.10190   0.10423   0.10423   0.14204   0.16206
 Alpha virt. eigenvalues --    0.16316   0.16316   0.17353   0.17353   0.19118

 Mulliken charges:
               1
     1  H    1.556494
     2  C    0.703778
     3  N   -2.260925
     4  H    1.601766
     5  C    0.594684
     6  N   -2.195796
 Sum of Mulliken charges =  -0.00000

 Dipole moment (field-independent basis, Debye):
    X=              0.0000    Y=              0.0000    Z=             -5.5638  Tot=              5.5638

 Test job not archived.
 1\1\GINC-SE284\SP\RHF\Aug-CC-pVDZ\C2H2N2\OHZDE\08-Apr-2025\0\\#t hf au
 g-cc-pvdz iop(5/13=1,5/36=2,99/5=2) pseudo=read geom=check guess=(read
 ,tcheck) scf=(maxcycle=1)\\title\\0,1\H,0,0.,0.,5.86034543\C,0,0.,0.,4
 .79163213\N,0,0.,0.,3.63664028\H,0,0.,0.,-2.5986004\C,0,0.,0.,-3.67292
 372\N,0,0.,0.,-4.83007604\\Version=ES64L-G16RevC.01\State=1-SG\HF=-186
 .5965574\RMSD=5.172e-02\Dipole=0.,0.,2.1889756\Quadrupole=-1.3188448,-
 1.3188448,2.6376897,0.,0.,0.\PG=C*V [C*(H1C1N1H1C1N1)]\\@

 Normal termination of Gaussian 16 at Tue Apr  8 19:11:53 2025.
