 Gaussian 16, Revision C.01,

 ----------------------------------------------------------------------
 #t hf aug-cc-pvdz symm=none int=(grid=ultrafine) guess=(read,tcheck) s
 table=(opt,rrhf)
 ----------------------------------------------------------------------
 -----
 title
 -----
 Symbolic Z-matrix:
 Charge =  0 Multiplicity = 1

 SCF Done:  E(RHF) =  -113.884850215     A.U. after   11 cycles
 Normal termination of Gaussian 16 at Tue Apr  8 19:13:48 2025.
 Gaussian 16:  ES64L-G16RevC.01  3-Jul-2019

 ----------------------------------------------------------------------
 #t hf aug-cc-pvdz iop(5/13=1,5/36=2,99/5=2) pseudo=read geom=check gue
 ss=(read,tcheck) scf=(maxcycle=1)
 ----------------------------------------------------------------------
 -----
 title
 -----
 Structure from the checkpoint file:  "A21x12_09_formaldehyde-dimer_0p9_mol3.chk"
 Charge =  0 Multiplicity = 1

                         Standard orientation:
 ---------------------------------------------------------------------
 Center     Atomic      Atomic             Coordinates (Angstroms)
 Number     Number       Type             X           Y           Z
 ---------------------------------------------------------------------
      1          6           0        0.000113    0.533970   -0.000000
      2          8           0        0.000113   -0.676587    0.000000
      3          1           0       -0.942831    1.102525   -0.000000
      4          1           0        0.941248    1.106346   -0.000000
 ---------------------------------------------------------------------

 SCF Done:  E(RHF) =  -114.366040424     A.U. after    2 cycles

 The electronic state is 1-A'.
 Alpha  occ. eigenvalues --  -21.08245 -11.47878  -1.71065  -0.90469  -0.67372
 Alpha  occ. eigenvalues --   -0.53363  -0.45292  -0.31075
 Alpha virt. eigenvalues --    0.03175   0.05502   0.09480   0.10333   0.14744
 Alpha virt. eigenvalues --    0.16600   0.16607   0.21528   0.25464   0.27524
 Alpha virt. eigenvalues --    0.29190   0.32801   0.33430   0.34348   0.43546

 Mulliken charges:
               1
     1  C   -0.558962
     2  O   -1.964530
     3  H    1.261382
     4  H    1.262109
 Sum of Mulliken charges =  -0.00000

 Dipole moment (field-independent basis, Debye):
    X=             -0.0001    Y=              1.1882    Z=             -0.0000  Tot=              1.1882

 Test job not archived.
 1\1\GINC-SE029\SP\RHF\Aug-CC-pVDZ\C1H2O1\OHZDE\08-Apr-2025\0\\#t hf au
 g-cc-pvdz iop(5/13=1,5/36=2,99/5=2) pseudo=read geom=check guess=(read
 ,tcheck) scf=(maxcycle=1)\\title\\0,1\C,0,0.,-0.60200491,1.55231177\O,
 0,0.,0.59238623,1.35513639\H,0,0.,-1.00937997,2.57526946\H,0,0.,-1.320
 02921,0.71697308\\Version=ES64L-G16RevC.01\State=1-A'\HF=-114.3660404\
 RMSD=6.395e-02\Dipole=0.,-0.4612216,0.0761732\Quadrupole=0.1235522,-0.
 0944654,-0.0290868,0.,0.,0.015026\PG=CS [SG(C1H2O1)]\\@

 Normal termination of Gaussian 16 at Tue Apr  8 19:13:49 2025.
