 Gaussian 16, Revision C.01,

 ----------------------------------------------------------------------
 #t hf aug-cc-pvdz symm=none int=(grid=ultrafine) guess=(read,tcheck) s
 table=(opt,rrhf)
 ----------------------------------------------------------------------
 -----
 title
 -----
 Symbolic Z-matrix:
 Charge =  0 Multiplicity = 1

 SCF Done:  E(RHF) =  -76.0409017379     A.U. after   10 cycles
 Normal termination of Gaussian 16 at Tue Apr  8 19:10:50 2025.
 Gaussian 16:  ES64L-G16RevC.01  3-Jul-2019

 ----------------------------------------------------------------------
 #t hf aug-cc-pvdz iop(5/13=1,5/36=2,99/5=2) pseudo=read geom=check gue
 ss=(read,tcheck) scf=(maxcycle=1)
 ----------------------------------------------------------------------
 -----
 title
 -----
 Structure from the checkpoint file:  "A21x12_01_water-ammonia_1p5_mol2.chk"
 Charge =  0 Multiplicity = 1

                         Standard orientation:
 ---------------------------------------------------------------------
 Center     Atomic      Atomic             Coordinates (Angstroms)
 Number     Number       Type             X           Y           Z
 ---------------------------------------------------------------------
      1          8           0       -0.000000    0.117417   -0.000000
      2          1           0        0.764421   -0.459264   -0.000000
      3          1           0       -0.764421   -0.480073    0.000000
 ---------------------------------------------------------------------

 SCF Done:  E(RHF) =  -76.3660630913     A.U. after    2 cycles

 The electronic state is 1-A'.
 Alpha  occ. eigenvalues --  -21.09987  -1.65875  -0.63366  -0.46499  -0.35317
 Alpha virt. eigenvalues --    0.03836   0.06336   0.18786   0.21945   0.23327
 Alpha virt. eigenvalues --    0.23536   0.29121   0.30699   0.35605   0.40163
 Alpha virt. eigenvalues --    0.42208   0.53040   0.65480   0.67706   0.80068

 Mulliken charges:
               1
     1  O   -1.729613
     2  H    0.871339
     3  H    0.858274
 Sum of Mulliken charges =  -0.00000

 Dipole moment (field-independent basis, Debye):
    X=              0.0230    Y=             -1.0372    Z=              0.0000  Tot=              1.0375

 Test job not archived.
 1\1\GINC-SE126\SP\RHF\Aug-CC-pVDZ\H2O1\OHZDE\08-Apr-2025\0\\#t hf aug-
 cc-pvdz iop(5/13=1,5/36=2,99/5=2) pseudo=read geom=check guess=(read,t
 check) scf=(maxcycle=1)\\title\\0,1\O,0,0.,-0.05789513,-1.5216349\H,0,
 0.,0.82290442,-1.89725661\H,0,0.,0.07946625,-0.5611844\\Version=ES64L-
 G16RevC.01\State=1-A'\HF=-76.3660631\RMSD=3.958e-02\Dipole=0.,0.358356
 9,0.1954148\Quadrupole=-1.2538303,0.2340471,1.0197833,0.,0.,-0.6365817
 \PG=CS [SG(H2O1)]\\@

 Normal termination of Gaussian 16 at Tue Apr  8 19:10:51 2025.
