 Gaussian 16, Revision C.01,

 ----------------------------------------------------------------------
 #t hf aug-cc-pvdz symm=none int=(grid=ultrafine) guess=(read,tcheck) s
 table=(opt,rrhf)
 ----------------------------------------------------------------------
 -----
 title
 -----
 Symbolic Z-matrix:
 Charge =  0 Multiplicity = 1

 SCF Done:  E(RHF) =  -116.241043229     A.U. after   10 cycles
 Normal termination of Gaussian 16 at Tue Apr  8 19:12:51 2025.
 Gaussian 16:  ES64L-G16RevC.01  3-Jul-2019

 ----------------------------------------------------------------------
 #t hf aug-cc-pvdz iop(5/13=1,5/36=2,99/5=2) pseudo=read geom=check gue
 ss=(read,tcheck) scf=(maxcycle=1)
 ----------------------------------------------------------------------
 -----
 title
 -----
 Structure from the checkpoint file:  "A21x12_08_water-methane_1p8_mol1.chk"
 Charge =  0 Multiplicity = 1

                         Standard orientation:
 ---------------------------------------------------------------------
 Center     Atomic      Atomic             Coordinates (Angstroms)
 Number     Number       Type             X           Y           Z
 ---------------------------------------------------------------------
      1          8           0       -0.003730   -3.312734    0.000000
      2          1           0        0.033680   -3.898449    0.757550
      3          1           0        0.033680   -3.898449   -0.757550
      4          6           0       -0.003730    3.428765    0.000000
      5          1           0       -0.512196    3.801329    0.887590
      6          1           0        1.025772    3.782720   -0.000000
      7          1           0       -0.016520    2.340803    0.000000
      8          1           0       -0.512196    3.801329   -0.887590
 ---------------------------------------------------------------------

 SCF Done:  E(RHF) =  -116.799019683     A.U. after    2 cycles

 The electronic state is 1-A'.
 Alpha  occ. eigenvalues --  -21.10158 -11.34994  -1.66226  -1.02393  -0.63482
 Alpha  occ. eigenvalues --   -0.53112  -0.53046  -0.53032  -0.46712  -0.35375
 Alpha virt. eigenvalues --    0.03300   0.04069   0.06243   0.06941   0.07019
 Alpha virt. eigenvalues --    0.08612   0.15669   0.15857   0.15875   0.16626
 Alpha virt. eigenvalues --    0.21732   0.22044   0.23315   0.24916   0.29191

 Mulliken charges:
               1
     1  O   -1.763370
     2  H    0.882300
     3  H    0.882300
     4  C   -4.651507
     5  H    1.154167
     6  H    1.153646
     7  H    1.188296
     8  H    1.154167
 Sum of Mulliken charges =   0.00000

 Dipole moment (field-independent basis, Debye):
    X=              0.0665    Y=             -1.0821    Z=              0.0000  Tot=              1.0842

 Test job not archived.
 1\1\GINC-SE166\SP\RHF\Aug-CC-pVDZ\C1H6O1\OHZDE\08-Apr-2025\0\\#t hf au
 g-cc-pvdz iop(5/13=1,5/36=2,99/5=2) pseudo=read geom=check guess=(read
 ,tcheck) scf=(maxcycle=1)\\title\\0,1\O,0,-0.00527852,0.,3.33832075\H,
 0,0.03157148,0.75755,3.92407075\H,0,0.03157148,-0.75755,3.92407075\C,0
 ,0.00116766,0.,-3.40317582\H,0,-0.50694234,0.88759,-3.77622582\H,0,1.0
 3100766,0.,-3.75614582\H,0,-0.01266234,0.,-2.31522582\H,0,-0.50694234,
 -0.88759,-3.77622582\\Version=ES64L-G16RevC.01\State=1-A'\HF=-116.7990
 197\RMSD=4.262e-02\Dipole=0.0257465,0.,0.4257709\Quadrupole=-2.9835899

 Normal termination of Gaussian 16 at Tue Apr  8 19:12:52 2025.
