 Gaussian 16, Revision C.01,

 ----------------------------------------------------------------------
 #t hf aug-cc-pvdz symm=none int=(grid=ultrafine) guess=(read,tcheck) s
 table=(opt,rrhf)
 ----------------------------------------------------------------------
 -----
 title
 -----
 Symbolic Z-matrix:
 Charge =  0 Multiplicity = 1

 SCF Done:  E(RHF) =  -156.087114994     A.U. after   11 cycles
 Normal termination of Gaussian 16 at Tue Apr  8 19:14:58 2025.
 Gaussian 16:  ES64L-G16RevC.01  3-Jul-2019

 ----------------------------------------------------------------------
 #t hf aug-cc-pvdz iop(5/13=1,5/36=2,99/5=2) pseudo=read geom=check gue
 ss=(read,tcheck) scf=(maxcycle=1)
 ----------------------------------------------------------------------
 -----
 title
 -----
 Structure from the checkpoint file:  "A21x12_14_ethene-dimer_1p1_mol1.chk"
 Charge =  0 Multiplicity = 1

                         Standard orientation:
 ---------------------------------------------------------------------
 Center     Atomic      Atomic             Coordinates (Angstroms)
 Number     Number       Type             X           Y           Z
 ---------------------------------------------------------------------
      1          1           0       -0.924445    1.231722   -2.096594
      2          1           0        0.924445    1.231722   -2.096594
      3          1           0        0.924445   -1.231722   -2.096594
      4          1           0       -0.924445   -1.231722   -2.096594
      5          6           0        0.000000   -0.667288   -2.095966
      6          6           0        0.000000    0.667288   -2.095966
      7          1           0        0.000000   -1.233449    3.020048
      8          1           0        0.000000   -1.225471    1.168492
      9          1           0        0.000000    1.225471    1.168492
     10          1           0        0.000000    1.233449    3.020048
     11          6           0       -0.000000    0.667117    2.096741
     12          6           0       -0.000000   -0.667117    2.096741
 ---------------------------------------------------------------------

 SCF Done:  E(RHF) =  -156.880308185     A.U. after    2 cycles

 The electronic state is 1-A1.
 Alpha  occ. eigenvalues --  -11.41295 -11.40442 -11.37353 -11.36669  -1.13634
 Alpha  occ. eigenvalues --   -1.12882  -0.82505  -0.81725  -0.64479  -0.63840
 Alpha  occ. eigenvalues --   -0.55924  -0.55174  -0.49714  -0.49108  -0.36072
 Alpha  occ. eigenvalues --   -0.35360
 Alpha virt. eigenvalues --    0.03698   0.05325   0.05348   0.05859   0.06086
 Alpha virt. eigenvalues --    0.06220   0.08000   0.08550   0.11152   0.12167
 Alpha virt. eigenvalues --    0.13222   0.14298   0.14435   0.14699   0.15171

 Mulliken charges:
               1
     1  H    1.387667
     2  H    1.387667
     3  H    1.387667
     4  H    1.387667
     5  C   -2.784933
     6  C   -2.784933
     7  H    1.327539
     8  H    1.424854
     9  H    1.424854
    10  H    1.327539
    11  C   -2.742795
    12  C   -2.742795
 Sum of Mulliken charges =  -0.00000

 Dipole moment (field-independent basis, Debye):
    X=             -0.0000    Y=              0.0000    Z=             -0.1079  Tot=              0.1079

 Test job not archived.
 1\1\GINC-SE128\SP\RHF\Aug-CC-pVDZ\C4H8\OHZDE\08-Apr-2025\0\\#t hf aug-
 cc-pvdz iop(5/13=1,5/36=2,99/5=2) pseudo=read geom=check guess=(read,t
 check) scf=(maxcycle=1)\\title\\0,1\H,0,0.9244451,-1.23172221,-2.09675
 848\H,0,-0.9244451,-1.23172221,-2.09675848\H,0,-0.9244451,1.23172221,-
 2.09675848\H,0,0.9244451,1.23172221,-2.09675848\C,0,0.,0.66728778,-2.0
 9613055\C,0,0.,-0.66728778,-2.09613055\H,0,0.,1.23344948,3.01988364\H,
 0,0.,1.22547148,1.16832771\H,0,0.,-1.22547148,1.16832771\H,0,0.,-1.233
 44948,3.01988364\C,0,0.,-0.66711698,2.09657614\C,0,0.,0.66711698,2.096

 Normal termination of Gaussian 16 at Tue Apr  8 19:15:00 2025.
