 Gaussian 16, Revision C.01,

 ----------------------------------------------------------------------
 #t hf aug-cc-pvdz symm=none int=(grid=ultrafine) guess=(read,tcheck) s
 table=(opt,rrhf)
 ----------------------------------------------------------------------
 -----
 title
 -----
 Symbolic Z-matrix:
 Charge =  0 Multiplicity = 1

 SCF Done:  E(RHF) =  -227.771448321     A.U. after   12 cycles
 Normal termination of Gaussian 16 at Tue Apr  8 19:13:50 2025.
 Gaussian 16:  ES64L-G16RevC.01  3-Jul-2019

 ----------------------------------------------------------------------
 #t hf aug-cc-pvdz iop(5/13=1,5/36=2,99/5=2) pseudo=read geom=check gue
 ss=(read,tcheck) scf=(maxcycle=1)
 ----------------------------------------------------------------------
 -----
 title
 -----
 Structure from the checkpoint file:  "A21x12_09_formaldehyde-dimer_1p7_mol1.chk"
 Charge =  0 Multiplicity = 1

                         Standard orientation:
 ---------------------------------------------------------------------
 Center     Atomic      Atomic             Coordinates (Angstroms)
 Number     Number       Type             X           Y           Z
 ---------------------------------------------------------------------
      1          6           0       -0.972798   -2.257560    0.000000
      2          8           0       -2.040798   -1.687533    0.000000
      3          1           0       -0.464263   -2.536180    0.935423
      4          1           0       -0.464263   -2.536180   -0.935423
      5          6           0        1.078231    2.397116    0.000000
      6          8           0        1.905531    1.513361    0.000000
      7          1           0        1.378065    3.456596    0.000000
      8          1           0        0.000000    2.171798    0.000000
 ---------------------------------------------------------------------

 SCF Done:  E(RHF) =  -228.733960733     A.U. after    2 cycles

 The electronic state is 1-A'.
 Alpha  occ. eigenvalues --  -21.08376 -21.08010 -11.47993 -11.47697  -1.71249
 Alpha  occ. eigenvalues --   -1.70865  -0.90519  -0.90263  -0.67439  -0.66884
 Alpha  occ. eigenvalues --   -0.53554  -0.53245  -0.45442  -0.45056  -0.31248
 Alpha  occ. eigenvalues --   -0.30865
 Alpha virt. eigenvalues --    0.03217   0.04386   0.05877   0.06495   0.09525
 Alpha virt. eigenvalues --    0.10341   0.10958   0.12095   0.14259   0.15861
 Alpha virt. eigenvalues --    0.16607   0.16709   0.17733   0.17969   0.21786

 Mulliken charges:
               1
     1  C   -0.694282
     2  O   -1.968114
     3  H    1.329325
     4  H    1.329325
     5  C   -0.645550
     6  O   -1.992603
     7  H    1.337889
     8  H    1.304010
 Sum of Mulliken charges =  -0.00000

 Dipole moment (field-independent basis, Debye):
    X=              0.2598    Y=              0.3361    Z=              0.0000  Tot=              0.4248

 Test job not archived.
 1\1\GINC-SE163\SP\RHF\Aug-CC-pVDZ\C2H4O2\OHZDE\08-Apr-2025\0\\#t hf au
 g-cc-pvdz iop(5/13=1,5/36=2,99/5=2) pseudo=read geom=check guess=(read
 ,tcheck) scf=(maxcycle=1)\\title\\0,1\C,0,0.,0.60349119,-2.37128253\O,
 0,0.,-0.59076675,-2.56953298\H,0,0.9354225,1.17652763,-2.28259409\H,0,
 -0.9354225,1.17652763,-2.28259409\C,0,0.,-0.60425645,2.56977764\O,0,0.
 ,0.59013469,2.37260226\H,0,0.,-1.01163151,3.59273533\H,0,0.,-1.3222807
 5,1.73443895\\Version=ES64L-G16RevC.01\State=1-A'\HF=-228.7339607\RMSD
 =4.711e-02\Dipole=0.,0.0005529,0.1671215\Quadrupole=-0.0251379,0.06184

 Normal termination of Gaussian 16 at Tue Apr  8 19:13:52 2025.
