 Gaussian 16, Revision C.01,

 ----------------------------------------------------------------------
 #t hf aug-cc-pvdz symm=none int=(grid=ultrafine) guess=(read,tcheck) s
 table=(opt,rrhf)
 ----------------------------------------------------------------------
 -----
 title
 -----
 Symbolic Z-matrix:
 Charge =  0 Multiplicity = 1

 SCF Done:  E(RHF) =  -227.775062764     A.U. after   12 cycles
 Normal termination of Gaussian 16 at Tue Apr  8 19:13:51 2025.
 Gaussian 16:  ES64L-G16RevC.01  3-Jul-2019

 ----------------------------------------------------------------------
 #t hf aug-cc-pvdz iop(5/13=1,5/36=2,99/5=2) pseudo=read geom=check gue
 ss=(read,tcheck) scf=(maxcycle=1)
 ----------------------------------------------------------------------
 -----
 title
 -----
 Structure from the checkpoint file:  "A21x12_09_formaldehyde-dimer_1p1_mol1.chk"
 Charge =  0 Multiplicity = 1

                         Standard orientation:
 ---------------------------------------------------------------------
 Center     Atomic      Atomic             Coordinates (Angstroms)
 Number     Number       Type             X           Y           Z
 ---------------------------------------------------------------------
      1          6           0       -0.944762   -1.323617    0.000000
      2          8           0       -1.758070   -0.426909    0.000000
      3          1           0       -0.559928   -1.757367    0.935423
      4          1           0       -0.559928   -1.757367   -0.935423
      5          6           0        1.091071    1.419459    0.000000
      6          8           0        1.572004    0.308536    0.000000
      7          1           0        1.730531    2.315835    0.000000
      8          1           0        0.000000    1.570830    0.000000
 ---------------------------------------------------------------------

 SCF Done:  E(RHF) =  -228.737473723     A.U. after    2 cycles

 The electronic state is 1-A'.
 Alpha  occ. eigenvalues --  -21.08535 -21.07203 -11.48062 -11.47277  -1.71731
 Alpha  occ. eigenvalues --   -1.70477  -0.90674  -0.89488  -0.67554  -0.66349
 Alpha  occ. eigenvalues --   -0.54112  -0.52586  -0.45715  -0.44518  -0.31652
 Alpha  occ. eigenvalues --   -0.30373
 Alpha virt. eigenvalues --    0.03369   0.05009   0.06153   0.07076   0.09528
 Alpha virt. eigenvalues --    0.10511   0.10885   0.13221   0.15042   0.16097
 Alpha virt. eigenvalues --    0.16625   0.17376   0.17504   0.18234   0.22507

 Mulliken charges:
               1
     1  C   -0.837390
     2  O   -1.981497
     3  H    1.379568
     4  H    1.379568
     5  C   -0.699647
     6  O   -2.053341
     7  H    1.402810
     8  H    1.409929
 Sum of Mulliken charges =   0.00000

 Dipole moment (field-independent basis, Debye):
    X=              0.5773    Y=              0.3009    Z=              0.0000  Tot=              0.6510

 Test job not archived.
 1\1\GINC-SE041\SP\RHF\Aug-CC-pVDZ\C2H4O2\OHZDE\08-Apr-2025\0\\#t hf au
 g-cc-pvdz iop(5/13=1,5/36=2,99/5=2) pseudo=read geom=check guess=(read
 ,tcheck) scf=(maxcycle=1)\\title\\0,1\C,0,0.,0.6015613,-1.49916892\O,0
 ,0.,-0.59269664,-1.69741937\H,0,0.9354225,1.17459774,-1.41048048\H,0,-
 0.9354225,1.17459774,-1.41048048\C,0,0.,-0.60232656,1.69766403\O,0,0.,
 0.59206458,1.50048865\H,0,0.,-1.00970162,2.72062172\H,0,0.,-1.32035086
 ,0.86232534\\Version=ES64L-G16RevC.01\State=1-A'\HF=-228.7374737\RMSD=
 5.071e-02\Dipole=0.,0.0234615,0.2550615\Quadrupole=0.0298995,0.1533377

 Normal termination of Gaussian 16 at Tue Apr  8 19:13:52 2025.
