 Gaussian 16, Revision C.01,

 ----------------------------------------------------------------------
 #t hf aug-cc-pvdz symm=none int=(grid=ultrafine) guess=(read,tcheck) s
 table=(opt,rrhf)
 ----------------------------------------------------------------------
 -----
 title
 -----
 Symbolic Z-matrix:
 Charge =  0 Multiplicity = 1

 SCF Done:  E(RHF) =  -185.779160078     A.U. after   11 cycles
 Normal termination of Gaussian 16 at Tue Apr  8 19:11:47 2025.
 Gaussian 16:  ES64L-G16RevC.01  3-Jul-2019

 ----------------------------------------------------------------------
 #t hf aug-cc-pvdz iop(5/13=1,5/36=2,99/5=2) pseudo=read geom=check gue
 ss=(read,tcheck) scf=(maxcycle=1)
 ----------------------------------------------------------------------
 -----
 title
 -----
 Structure from the checkpoint file:  "A21x12_03_HCN-dimer_1p2_mol1.chk"
 Charge =  0 Multiplicity = 1

                         Standard orientation:
 ---------------------------------------------------------------------
 Center     Atomic      Atomic             Coordinates (Angstroms)
 Number     Number       Type             X           Y           Z
 ---------------------------------------------------------------------
      1          1           0        0.000000    0.000000   -4.243062
      2          6           0        0.000000    0.000000   -3.174349
      3          7           0        0.000000    0.000000   -2.019357
      4          1           0        0.000000    0.000000    1.097028
      5          6           0        0.000000    0.000000    2.171351
      6          7           0        0.000000    0.000000    3.328503
 ---------------------------------------------------------------------

 SCF Done:  E(RHF) =  -186.599565350     A.U. after    2 cycles

 The electronic state is 1-SG.
 Alpha  occ. eigenvalues --  -15.80539 -15.77456 -11.46942 -11.43378  -1.33165
 Alpha  occ. eigenvalues --   -1.29957  -0.84753  -0.81258  -0.56965  -0.53419
 Alpha  occ. eigenvalues --   -0.48631  -0.48631  -0.45487  -0.45487
 Alpha virt. eigenvalues --    0.02162   0.05480   0.08821   0.08821   0.09305
 Alpha virt. eigenvalues --    0.10725   0.10725   0.12334   0.14674   0.16841
 Alpha virt. eigenvalues --    0.16841   0.17370   0.18552   0.18552   0.19724

 Mulliken charges:
               1
     1  H    1.613619
     2  C    0.785626
     3  N   -2.410497
     4  H    1.711338
     5  C    0.516596
     6  N   -2.216682
 Sum of Mulliken charges =  -0.00000

 Dipole moment (field-independent basis, Debye):
    X=              0.0000    Y=              0.0000    Z=             -5.9057  Tot=              5.9057

 Test job not archived.
 1\1\GINC-SE423\SP\RHF\Aug-CC-pVDZ\C2H2N2\OHZDE\08-Apr-2025\0\\#t hf au
 g-cc-pvdz iop(5/13=1,5/36=2,99/5=2) pseudo=read geom=check guess=(read
 ,tcheck) scf=(maxcycle=1)\\title\\0,1\H,0,0.,0.,4.30091738\C,0,0.,0.,3
 .23220408\N,0,0.,0.,2.07721223\H,0,0.,0.,-1.03917235\C,0,0.,0.,-2.1134
 9567\N,0,0.,0.,-3.27064799\\Version=ES64L-G16RevC.01\State=1-SG\HF=-18
 6.5995654\RMSD=5.822e-02\Dipole=0.,0.,2.3234957\Quadrupole=-1.3742545,
 -1.3742545,2.7485091,0.,0.,0.\PG=C*V [C*(H1C1N1H1C1N1)]\\@

 Normal termination of Gaussian 16 at Tue Apr  8 19:11:48 2025.
