 Gaussian 16, Revision C.01,

 ----------------------------------------------------------------------
 #t hf aug-cc-pvdz symm=none int=(grid=ultrafine) guess=(read,tcheck) s
 table=(opt,rrhf)
 ----------------------------------------------------------------------
 -----
 title
 -----
 Symbolic Z-matrix:
 Charge =  0 Multiplicity = 1

 SCF Done:  E(RHF) =  -227.773687243     A.U. after   12 cycles
 Normal termination of Gaussian 16 at Tue Apr  8 19:13:50 2025.
 Gaussian 16:  ES64L-G16RevC.01  3-Jul-2019

 ----------------------------------------------------------------------
 #t hf aug-cc-pvdz iop(5/13=1,5/36=2,99/5=2) pseudo=read geom=check gue
 ss=(read,tcheck) scf=(maxcycle=1)
 ----------------------------------------------------------------------
 -----
 title
 -----
 Structure from the checkpoint file:  "A21x12_09_formaldehyde-dimer_1p3_mol1.chk"
 Charge =  0 Multiplicity = 1

                         Standard orientation:
 ---------------------------------------------------------------------
 Center     Atomic      Atomic             Coordinates (Angstroms)
 Number     Number       Type             X           Y           Z
 ---------------------------------------------------------------------
      1          6           0       -0.970043   -1.633195    0.000000
      2          8           0       -1.900714   -0.858981    0.000000
      3          1           0       -0.528355   -2.008891    0.935423
      4          1           0       -0.528355   -2.008891   -0.935423
      5          6           0        1.101518    1.748549    0.000000
      6          8           0        1.733022    0.715760    0.000000
      7          1           0        1.609398    2.725511    0.000000
      8          1           0        0.000000    1.745916    0.000000
 ---------------------------------------------------------------------

 SCF Done:  E(RHF) =  -228.736011426     A.U. after    2 cycles

 The electronic state is 1-A'.
 Alpha  occ. eigenvalues --  -21.08459 -21.07698 -11.48029 -11.47502  -1.71422
 Alpha  occ. eigenvalues --   -1.70705  -0.90517  -0.89927  -0.67447  -0.66601
 Alpha  occ. eigenvalues --   -0.53741  -0.53014  -0.45547  -0.44832  -0.31426
 Alpha  occ. eigenvalues --   -0.30646
 Alpha virt. eigenvalues --    0.03327   0.04778   0.06048   0.06935   0.09557
 Alpha virt. eigenvalues --    0.10561   0.10960   0.12764   0.14999   0.16408
 Alpha virt. eigenvalues --    0.16497   0.17004   0.17057   0.18168   0.22155

 Mulliken charges:
               1
     1  C   -0.807423
     2  O   -1.954539
     3  H    1.369054
     4  H    1.369054
     5  C   -0.651782
     6  O   -2.028106
     7  H    1.381381
     8  H    1.322361
 Sum of Mulliken charges =  -0.00000

 Dipole moment (field-independent basis, Debye):
    X=              0.4011    Y=              0.3217    Z=             -0.0000  Tot=              0.5142

 Test job not archived.
 1\1\GINC-SE105\SP\RHF\Aug-CC-pVDZ\C2H4O2\OHZDE\08-Apr-2025\0\\#t hf au
 g-cc-pvdz iop(5/13=1,5/36=2,99/5=2) pseudo=read geom=check guess=(read
 ,tcheck) scf=(maxcycle=1)\\title\\0,1\C,0,0.,0.6022046,-1.78987346\O,0
 ,0.,-0.59205334,-1.98812391\H,0,0.9354225,1.17524104,-1.70118502\H,0,-
 0.9354225,1.17524104,-1.70118502\C,0,0.,-0.60296985,1.98836857\O,0,0.,
 0.59142129,1.79119319\H,0,0.,-1.01034491,3.01132626\H,0,0.,-1.32099415
 ,1.15302988\\Version=ES64L-G16RevC.01\State=1-A'\HF=-228.7360114\RMSD=
 4.878e-02\Dipole=0.,0.0073681,0.2021567\Quadrupole=-0.0054076,0.104413

 Normal termination of Gaussian 16 at Tue Apr  8 19:13:52 2025.
