 Gaussian 16, Revision C.01,

 ----------------------------------------------------------------------
 #t hf aug-cc-pvdz symm=none int=(grid=ultrafine) guess=(read,tcheck) s
 table=(opt,rrhf)
 ----------------------------------------------------------------------
 -----
 title
 -----
 Symbolic Z-matrix:
 Charge =  0 Multiplicity = 1

 SCF Done:  E(RHF) =  -152.086344972     A.U. after   10 cycles
 Normal termination of Gaussian 16 at Tue Apr  8 19:11:46 2025.
 Gaussian 16:  ES64L-G16RevC.01  3-Jul-2019

 ----------------------------------------------------------------------
 #t hf aug-cc-pvdz iop(5/13=1,5/36=2,99/5=2) pseudo=read geom=check gue
 ss=(read,tcheck) scf=(maxcycle=1)
 ----------------------------------------------------------------------
 -----
 title
 -----
 Structure from the checkpoint file:  "A21x12_02_water-dimer_1p3_mol1.chk"
 Charge =  0 Multiplicity = 1

                         Standard orientation:
 ---------------------------------------------------------------------
 Center     Atomic      Atomic             Coordinates (Angstroms)
 Number     Number       Type             X           Y           Z
 ---------------------------------------------------------------------
      1          8           0       -0.001687    1.962410    0.000000
      2          1           0        0.893748    2.302168    0.000000
      3          1           0        0.099976    1.002957    0.000000
      4          8           0       -0.001687   -1.834016   -0.000000
      5          1           0       -0.483366   -2.166142    0.760178
      6          1           0       -0.483366   -2.166142   -0.760178
 ---------------------------------------------------------------------

 SCF Done:  E(RHF) =  -152.735639596     A.U. after    2 cycles

 The electronic state is 1-A'.
 Alpha  occ. eigenvalues --  -21.11350 -21.08636  -1.67438  -1.64718  -0.64676
 Alpha  occ. eigenvalues --   -0.62004  -0.48045  -0.45217  -0.36695  -0.34049
 Alpha virt. eigenvalues --    0.03318   0.05574   0.06027   0.09484   0.17727
 Alpha virt. eigenvalues --    0.19544   0.21520   0.22966   0.23648   0.23947
 Alpha virt. eigenvalues --    0.25042   0.28042   0.28649   0.30248   0.33034

 Mulliken charges:
               1
     1  O   -1.826718
     2  H    0.839618
     3  H    0.968962
     4  O   -1.779063
     5  H    0.898601
     6  H    0.898601
 Sum of Mulliken charges =   0.00000

 Dipole moment (field-independent basis, Debye):
    X=              0.0145    Y=             -1.4362    Z=             -0.0000  Tot=              1.4363

 Test job not archived.
 1\1\GINC-SE120\SP\RHF\Aug-CC-pVDZ\H4O2\OHZDE\08-Apr-2025\0\\#t hf aug-
 cc-pvdz iop(5/13=1,5/36=2,99/5=2) pseudo=read geom=check guess=(read,t
 check) scf=(maxcycle=1)\\title\\0,1\O,0,-0.07000004,0.,1.93286933\H,0,
 0.81273337,0.,2.30438098\H,0,0.0658542,0.,0.97765736\O,0,0.065548,0.,-
 1.86113608\H,0,-0.40396515,-0.76017841,-2.2102485\H,0,-0.40396515,0.76
 017841,-2.2102485\\Version=ES64L-G16RevC.01\State=1-A'\HF=-152.7356396
 \RMSD=2.956e-02\Dipole=0.0258629,0.,-0.5644803\Quadrupole=-0.3284188,0
 .0004414,0.3279774,0.,3.7406095,0.\PG=CS [SG(H2O2),X(H2)]\\@

 Normal termination of Gaussian 16 at Tue Apr  8 19:11:47 2025.
