 Gaussian 16, Revision C.01,

 ----------------------------------------------------------------------
 #t hf aug-cc-pvdz symm=none int=(grid=ultrafine) guess=(read,tcheck) s
 table=(opt,rrhf)
 ----------------------------------------------------------------------
 -----
 title
 -----
 Symbolic Z-matrix:
 Charge =  0 Multiplicity = 1

 SCF Done:  E(RHF) =  -66.5892934764     A.U. after   10 cycles
 Normal termination of Gaussian 16 at Tue Apr  8 19:14:49 2025.
 Gaussian 16:  ES64L-G16RevC.01  3-Jul-2019

 ----------------------------------------------------------------------
 #t hf aug-cc-pvdz iop(5/13=1,5/36=2,99/5=2) pseudo=read geom=check gue
 ss=(read,tcheck) scf=(maxcycle=1)
 ----------------------------------------------------------------------
 -----
 title
 -----
 Structure from the checkpoint file:  "A21x12_16_borane-methane_1p0_mol1.chk"
 Charge =  0 Multiplicity = 1

                         Standard orientation:
 ---------------------------------------------------------------------
 Center     Atomic      Atomic             Coordinates (Angstroms)
 Number     Number       Type             X           Y           Z
 ---------------------------------------------------------------------
      1          6           0        0.001179   -1.325586   -0.000000
      2          1           0       -0.845943   -0.637280   -0.000000
      3          1           0       -0.387420   -2.342163   -0.000000
      4          1           0        0.606850   -1.168127    0.889943
      5          1           0        0.606850   -1.168127   -0.889943
      6          5           0        0.001179    1.653760    0.000000
      7          1           0       -0.589166    1.732590    1.030518
      8          1           0       -0.589166    1.732590   -1.030518
      9          1           0        1.185022    1.535233    0.000000
 ---------------------------------------------------------------------

 SCF Done:  E(RHF) =  -66.9785138882     A.U. after    2 cycles

 The electronic state is 1-A'.
 Alpha  occ. eigenvalues --  -11.36464  -7.61521  -1.04281  -0.86423  -0.54977
 Alpha  occ. eigenvalues --   -0.54576  -0.54516  -0.47743  -0.47650
 Alpha virt. eigenvalues --    0.02528   0.03790   0.04379   0.04435   0.06775
 Alpha virt. eigenvalues --    0.08404   0.08831   0.10561   0.11337   0.11484
 Alpha virt. eigenvalues --    0.11485   0.15105   0.16362   0.16531   0.19628

 Mulliken charges:
               1
     1  C   -5.062480
     2  H    1.359978
     3  H    1.250645
     4  H    1.307820
     5  H    1.307820
     6  B    6.780697
     7  H   -2.308227
     8  H   -2.308227
     9  H   -2.328026
 Sum of Mulliken charges =  -0.00000

 Dipole moment (field-independent basis, Debye):
    X=              0.0170    Y=             -0.3395    Z=             -0.0000  Tot=              0.3399

 Test job not archived.
 1\1\GINC-SE343\SP\RHF\Aug-CC-pVDZ\C1H7B1\OHZDE\08-Apr-2025\0\\#t hf au
 g-cc-pvdz iop(5/13=1,5/36=2,99/5=2) pseudo=read geom=check guess=(read
 ,tcheck) scf=(maxcycle=1)\\title\\0,1\C,0,0.00386534,0.,1.49076074\H,0
 ,0.84890169,0.,0.79989517\H,0,0.39553867,0.,2.50615801\H,0,-0.60227913
 ,-0.88994299,1.3351354\H,0,-0.60227913,0.88994299,1.3351354\B,0,-0.005
 14783,0.,-1.4885711\H,0,0.58495662,-1.030518,-1.56918659\H,0,0.5849566
 2,1.030518,-1.56918659\H,0,-1.18862614,0.,-1.36646351\\Version=ES64L-G
 16RevC.01\State=1-A'\HF=-66.9785139\RMSD=9.840e-02\Dipole=-0.0062961,0

 Normal termination of Gaussian 16 at Tue Apr  8 19:14:51 2025.
