 Gaussian 16, Revision C.01,

 ----------------------------------------------------------------------
 #t hf aug-cc-pvdz symm=none int=(grid=ultrafine) guess=(read,tcheck) s
 table=(opt,rrhf)
 ----------------------------------------------------------------------
 -----
 title
 -----
 Symbolic Z-matrix:
 Charge =  0 Multiplicity = 1

 SCF Done:  E(RHF) =  -119.436950875     A.U. after   10 cycles
 Normal termination of Gaussian 16 at Tue Apr  8 19:15:56 2025.
 Gaussian 16:  ES64L-G16RevC.01  3-Jul-2019

 ----------------------------------------------------------------------
 #t hf aug-cc-pvdz iop(5/13=1,5/36=2,99/5=2) pseudo=read geom=check gue
 ss=(read,tcheck) scf=(maxcycle=1)
 ----------------------------------------------------------------------
 -----
 title
 -----
 Structure from the checkpoint file:  "A21x12_17_methane-ethane_1p2_mol1.chk"
 Charge =  0 Multiplicity = 1

                         Standard orientation:
 ---------------------------------------------------------------------
 Center     Atomic      Atomic             Coordinates (Angstroms)
 Number     Number       Type             X           Y           Z
 ---------------------------------------------------------------------
      1          1           0       -2.379876   -0.453166   -0.888281
      2          6           0       -2.864006   -0.051538   -0.000001
      3          1           0       -3.915305   -0.332676   -0.000001
      4          1           0       -2.776803    1.033213    0.000001
      5          1           0       -2.379876   -0.453168    0.888289
      6          1           0        0.864078    1.063825   -0.880429
      7          1           0        2.316932   -1.006795   -0.881002
      8          6           0        1.441339    0.777233    0.000000
      9          6           0        1.740662   -0.719984   -0.000002
     10          1           0        2.361952    1.362901    0.000001
     11          1           0        0.819921   -1.305421   -0.000002
     12          1           0        0.864077    1.063822    0.880431
     13          1           0        2.316931   -1.006798    0.881008
 ---------------------------------------------------------------------

 SCF Done:  E(RHF) =  -120.108295712     A.U. after    2 cycles

 The electronic state is 1-A.
 Alpha  occ. eigenvalues --  -11.38336 -11.35539 -11.34395  -1.14220  -1.02929
 Alpha  occ. eigenvalues --   -0.88169  -0.59435  -0.59391  -0.53627  -0.53573
 Alpha  occ. eigenvalues --   -0.53573  -0.48495  -0.47477  -0.47425
 Alpha virt. eigenvalues --    0.03160   0.04605   0.05448   0.05991   0.06761
 Alpha virt. eigenvalues --    0.07310   0.07355   0.07798   0.07834   0.09249
 Alpha virt. eigenvalues --    0.13075   0.13724   0.14734   0.15399   0.16056

 Mulliken charges:
               1
     1  H    1.252047
     2  C   -5.008970
     3  H    1.255847
     4  H    1.244791
     5  H    1.252042
     6  H    1.331793
     7  H    1.232338
     8  C   -3.981045
     9  C   -3.724860
    10  H    1.285866
    11  H    1.296030
    12  H    1.331791
    13  H    1.232330
 Sum of Mulliken charges =   0.00000

 Dipole moment (field-independent basis, Debye):
    X=             -0.0087    Y=              0.0025    Z=             -0.0000  Tot=              0.0090

 Test job not archived.
 1\1\GINC-SE231\SP\RHF\Aug-CC-pVDZ\C3H10\OHZDE\08-Apr-2025\0\\#t hf aug
 -cc-pvdz iop(5/13=1,5/36=2,99/5=2) pseudo=read geom=check guess=(read,
 tcheck) scf=(maxcycle=1)\\title\\0,1\H,0,-0.88828045,-0.45623218,1.739
 72715\C,0,-0.00000045,-0.05865218,2.22718715\H,0,-0.00000045,-0.348542
 18,3.27610715\H,0,-0.00000045,1.02678782,2.14902715\H,0,0.88828955,-0.
 45623218,1.73972715\H,0,-0.88043051,1.08774038,-1.4914714\H,0,-0.88100
 051,-0.97069962,-2.9615314\C,0,-0.00000051,0.80597038,-2.0711014\C,0,-
 0.00000051,-0.68869962,-2.3828914\H,0,-0.00000051,1.39929038,-2.986801

 Normal termination of Gaussian 16 at Tue Apr  8 19:15:58 2025.
