 Gaussian 16, Revision C.01,

 ----------------------------------------------------------------------
 #t hf aug-cc-pvdz symm=none int=(grid=ultrafine) guess=(read,tcheck) s
 table=(opt,rrhf)
 ----------------------------------------------------------------------
 -----
 title
 -----
 Symbolic Z-matrix:
 Charge =  0 Multiplicity = 1

 SCF Done:  E(RHF) =  -134.249575349     A.U. after   11 cycles
 Normal termination of Gaussian 16 at Tue Apr  8 19:14:51 2025.
 Gaussian 16:  ES64L-G16RevC.01  3-Jul-2019

 ----------------------------------------------------------------------
 #t hf aug-cc-pvdz iop(5/13=1,5/36=2,99/5=2) pseudo=read geom=check gue
 ss=(read,tcheck) scf=(maxcycle=1)
 ----------------------------------------------------------------------
 -----
 title
 -----
 Structure from the checkpoint file:  "A21x12_13_ammonia-ethene_1p3_mol1.chk"
 Charge =  0 Multiplicity = 1

                         Standard orientation:
 ---------------------------------------------------------------------
 Center     Atomic      Atomic             Coordinates (Angstroms)
 Number     Number       Type             X           Y           Z
 ---------------------------------------------------------------------
      1          7           0       -1.171862   -2.729986    0.000000
      2          1           0       -0.911779   -3.277440    0.811230
      3          1           0       -0.578898   -1.908029    0.000000
      4          1           0       -0.911779   -3.277440   -0.811230
      5          6           0        1.325924    1.645179    0.000000
      6          6           0        0.000000    1.801412    0.000000
      7          1           0       -0.562421    1.865305   -0.923120
      8          1           0       -0.562421    1.865305    0.923120
      9          1           0        1.887393    1.581327    0.923890
     10          1           0        1.887393    1.581327   -0.923890
 ---------------------------------------------------------------------

 SCF Done:  E(RHF) =  -134.929299942     A.U. after    2 cycles

 The electronic state is 1-A'.
 Alpha  occ. eigenvalues --  -15.74165 -11.40779 -11.37382  -1.24529  -1.13673
 Alpha  occ. eigenvalues --   -0.82512  -0.64497  -0.60605  -0.60598  -0.55981
 Alpha  occ. eigenvalues --   -0.49744  -0.38498  -0.36127
 Alpha virt. eigenvalues --    0.03423   0.04868   0.05551   0.05697   0.06347
 Alpha virt. eigenvalues --    0.07149   0.09309   0.10234   0.12724   0.14683
 Alpha virt. eigenvalues --    0.14709   0.16935   0.17714   0.18621   0.20319

 Mulliken charges:
               1
     1  N   -1.954748
     2  H    0.628527
     3  H    0.697080
     4  H    0.628527
     5  C   -2.635866
     6  C   -2.768774
     7  H    1.367683
     8  H    1.367683
     9  H    1.334945
    10  H    1.334945
 Sum of Mulliken charges =   0.00000

 Dipole moment (field-independent basis, Debye):
    X=              1.2668    Y=             -0.1927    Z=             -0.0000  Tot=              1.2813

 Test job not archived.
 1\1\GINC-SE092\SP\RHF\Aug-CC-pVDZ\C2H7N1\OHZDE\08-Apr-2025\0\\#t hf au
 g-cc-pvdz iop(5/13=1,5/36=2,99/5=2) pseudo=read geom=check guess=(read
 ,tcheck) scf=(maxcycle=1)\\title\\0,1\N,0,0.,-0.00717242,-2.41352162\H
 ,0,-0.81123,-0.46299242,-2.81299162\H,0,0.,-0.22565242,-1.42383162\H,0
 ,0.81123,-0.46299242,-2.81299162\C,0,0.,-0.56559821,2.59339032\C,0,0.,
 0.71360179,2.21112032\H,0,0.92312,1.25526179,2.04679031\H,0,-0.92312,1
 .25526179,2.04679031\H,0,-0.92389,-1.10636821,2.75738031\H,0,0.92389,-
 1.10636821,2.75738031\\Version=ES64L-G16RevC.01\State=1-A'\HF=-134.929

 Normal termination of Gaussian 16 at Tue Apr  8 19:14:53 2025.
