 Gaussian 16, Revision C.01,

 ----------------------------------------------------------------------
 #t hf aug-cc-pvdz symm=none int=(grid=ultrafine) guess=(read,tcheck) s
 table=(opt,rrhf)
 ----------------------------------------------------------------------
 -----
 title
 -----
 Symbolic Z-matrix:
 Charge =  0 Multiplicity = 1

 SCF Done:  E(RHF) =  -191.928743218     A.U. after   11 cycles
 Normal termination of Gaussian 16 at Tue Apr  8 19:13:51 2025.
 Gaussian 16:  ES64L-G16RevC.01  3-Jul-2019

 ----------------------------------------------------------------------
 #t hf aug-cc-pvdz iop(5/13=1,5/36=2,99/5=2) pseudo=read geom=check gue
 ss=(read,tcheck) scf=(maxcycle=1)
 ----------------------------------------------------------------------
 -----
 title
 -----
 Structure from the checkpoint file:  "A21x12_11_formaldehyde-ethene_1p9_mol1.chk"
 Charge =  0 Multiplicity = 1

                         Standard orientation:
 ---------------------------------------------------------------------
 Center     Atomic      Atomic             Coordinates (Angstroms)
 Number     Number       Type             X           Y           Z
 ---------------------------------------------------------------------
      1          8           0        2.006353    2.972727    0.000000
      2          6           0        0.886463    3.426657    0.000000
      3          1           0        0.000000    2.771893    0.000000
      4          1           0        0.706941    4.514732    0.000000
      5          6           0       -0.732001   -3.067570    0.000000
      6          6           0       -2.028330   -3.386581    0.000000
      7          1           0       -0.180499   -2.927272    0.921130
      8          1           0       -0.180499   -2.927272   -0.921130
      9          1           0       -2.576780   -3.524464   -0.923940
     10          1           0       -2.576780   -3.524464    0.923940
 ---------------------------------------------------------------------

 SCF Done:  E(RHF) =  -192.805974003     A.U. after    2 cycles

 The electronic state is 1-A'.
 Alpha  occ. eigenvalues --  -21.08218 -11.47856 -11.40509 -11.37096  -1.71140
 Alpha  occ. eigenvalues --   -1.13355  -0.90387  -0.82288  -0.67230  -0.64205
 Alpha  occ. eigenvalues --   -0.55797  -0.53409  -0.49491  -0.45331  -0.35805
 Alpha  occ. eigenvalues --   -0.31034
 Alpha virt. eigenvalues --    0.03112   0.04099   0.05830   0.06102   0.06312
 Alpha virt. eigenvalues --    0.06509   0.09568   0.09641   0.11163   0.13098
 Alpha virt. eigenvalues --    0.14443   0.14945   0.15680   0.16385   0.16736

 Mulliken charges:
               1
     1  O   -1.975021
     2  C   -0.600025
     3  H    1.284741
     4  H    1.289145
     5  C   -2.626394
     6  C   -2.612214
     7  H    1.312404
     8  H    1.312404
     9  H    1.307481
    10  H    1.307481
 Sum of Mulliken charges =   0.00000

 Dipole moment (field-independent basis, Debye):
    X=             -1.0665    Y=              0.4292    Z=              0.0000  Tot=              1.1496

 Test job not archived.
 1\1\GINC-SE423\SP\RHF\Aug-CC-pVDZ\C3H6O1\OHZDE\08-Apr-2025\0\\#t hf au
 g-cc-pvdz iop(5/13=1,5/36=2,99/5=2) pseudo=read geom=check guess=(read
 ,tcheck) scf=(maxcycle=1)\\title\\0,1\O,0,0.,-0.43886791,-3.55215408\C
 ,0,0.,0.76606209,-3.46078408\H,0,0.,1.26893209,-2.48014408\H,0,0.,1.41
 067209,-4.35555408\C,0,0.,-0.67191886,3.0757765\C,0,0.,0.34736114,3.93
 79265\H,0,0.92113,-1.10351886,2.7048865\H,0,-0.92113,-1.10351886,2.704
 8865\H,0,-0.92394,0.77730114,4.3052965\H,0,0.92394,0.77730114,4.305296
 5\\Version=ES64L-G16RevC.01\State=1-A'\HF=-192.805974\RMSD=1.853e-01\D

 Normal termination of Gaussian 16 at Tue Apr  8 19:13:53 2025.
