 Gaussian 16, Revision C.01,

 ----------------------------------------------------------------------
 #t hf aug-cc-pvdz symm=none int=(grid=ultrafine) guess=(read,tcheck) s
 table=(opt,rrhf)
 ----------------------------------------------------------------------
 -----
 title
 -----
 Symbolic Z-matrix:
 Charge =  0 Multiplicity = 1

 SCF Done:  E(RHF) =  -185.774488466     A.U. after   11 cycles
 Normal termination of Gaussian 16 at Tue Apr  8 19:11:47 2025.
 Gaussian 16:  ES64L-G16RevC.01  3-Jul-2019

 ----------------------------------------------------------------------
 #t hf aug-cc-pvdz iop(5/13=1,5/36=2,99/5=2) pseudo=read geom=check gue
 ss=(read,tcheck) scf=(maxcycle=1)
 ----------------------------------------------------------------------
 -----
 title
 -----
 Structure from the checkpoint file:  "A21x12_03_HCN-dimer_0p9_mol1.chk"
 Charge =  0 Multiplicity = 1

                         Standard orientation:
 ---------------------------------------------------------------------
 Center     Atomic      Atomic             Coordinates (Angstroms)
 Number     Number       Type             X           Y           Z
 ---------------------------------------------------------------------
      1          1           0        0.000000    0.000000   -3.574736
      2          6           0        0.000000    0.000000   -2.506023
      3          7           0        0.000000    0.000000   -1.351031
      4          1           0        0.000000    0.000000    0.428701
      5          6           0        0.000000    0.000000    1.503025
      6          7           0        0.000000    0.000000    2.660177
 ---------------------------------------------------------------------

 SCF Done:  E(RHF) =  -186.600474311     A.U. after    2 cycles

 The electronic state is 1-SG.
 Alpha  occ. eigenvalues --  -15.81942 -15.75151 -11.49978 -11.40350  -1.35694
 Alpha  occ. eigenvalues --   -1.27869  -0.87667  -0.80333  -0.59499  -0.50750
 Alpha  occ. eigenvalues --   -0.50750  -0.50555  -0.43534  -0.43534
 Alpha virt. eigenvalues --    0.01623   0.05850   0.07674   0.07674   0.09819
 Alpha virt. eigenvalues --    0.11328   0.11328   0.13256   0.13682   0.17180
 Alpha virt. eigenvalues --    0.17180   0.18334   0.21016   0.21016   0.23814

 Mulliken charges:
               1
     1  H    1.516981
     2  C    0.784412
     3  N   -2.791705
     4  H    2.657060
     5  C    0.657842
     6  N   -2.824590
 Sum of Mulliken charges =  -0.00000

 Dipole moment (field-independent basis, Debye):
    X=             -0.0000    Y=              0.0000    Z=             -6.8259  Tot=              6.8259

 Test job not archived.
 1\1\GINC-SE103\SP\RHF\Aug-CC-pVDZ\C2H2N2\OHZDE\08-Apr-2025\0\\#t hf au
 g-cc-pvdz iop(5/13=1,5/36=2,99/5=2) pseudo=read geom=check guess=(read
 ,tcheck) scf=(maxcycle=1)\\title\\0,1\H,0,0.,0.,3.63259107\C,0,0.,0.,2
 .56387777\N,0,0.,0.,1.40888592\H,0,0.,0.,-0.37084604\C,0,0.,0.,-1.4451
 6936\N,0,0.,0.,-2.60232168\\Version=ES64L-G16RevC.01\State=1-SG\HF=-18
 6.6004743\RMSD=8.755e-02\Dipole=0.,0.,2.685502\Quadrupole=-1.311591,-1
 .311591,2.6231819,0.,0.,0.\PG=C*V [C*(H1C1N1H1C1N1)]\\@

 Normal termination of Gaussian 16 at Tue Apr  8 19:11:48 2025.
