 Gaussian 16, Revision C.01,

 ----------------------------------------------------------------------
 #t hf aug-cc-pvdz symm=none int=(grid=ultrafine) guess=(read,tcheck) s
 table=(opt,rrhf)
 ----------------------------------------------------------------------
 -----
 title
 -----
 Symbolic Z-matrix:
 Charge =  0 Multiplicity = 1

 SCF Done:  E(RHF) =  -112.411123159     A.U. after   10 cycles
 Normal termination of Gaussian 16 at Tue Apr  8 19:12:51 2025.
 Gaussian 16:  ES64L-G16RevC.01  3-Jul-2019

 ----------------------------------------------------------------------
 #t hf aug-cc-pvdz iop(5/13=1,5/36=2,99/5=2) pseudo=read geom=check gue
 ss=(read,tcheck) scf=(maxcycle=1)
 ----------------------------------------------------------------------
 -----
 title
 -----
 Structure from the checkpoint file:  "A21x12_05_ammonia-dimer_1p9_mol1.chk"
 Charge =  0 Multiplicity = 1

                         Standard orientation:
 ---------------------------------------------------------------------
 Center     Atomic      Atomic             Coordinates (Angstroms)
 Number     Number       Type             X           Y           Z
 ---------------------------------------------------------------------
      1          7           0       -0.000000    3.039057    0.000000
      2          1           0       -0.180337    3.618173    0.811060
      3          1           0       -0.180337    3.618173   -0.811060
      4          1           0       -0.700575    2.305331    0.000000
      5          7           0       -0.000000   -3.039057    0.000000
      6          1           0        0.180337   -3.618173    0.811060
      7          1           0        0.700575   -2.305331    0.000000
      8          1           0        0.180337   -3.618173   -0.811060
 ---------------------------------------------------------------------

 SCF Done:  E(RHF) =  -112.976068430     A.U. after    2 cycles

 The electronic state is 1-AG.
 Alpha  occ. eigenvalues --  -15.74382 -15.74380  -1.24718  -1.24717  -0.60875
 Alpha  occ. eigenvalues --   -0.60861  -0.60778  -0.60775  -0.38684  -0.38683
 Alpha virt. eigenvalues --    0.03578   0.04337   0.05858   0.06682   0.07149
 Alpha virt. eigenvalues --    0.07580   0.16576   0.18742   0.19758   0.20209
 Alpha virt. eigenvalues --    0.20333   0.21096   0.21108   0.21440   0.29449

 Mulliken charges:
               1
     1  N   -1.900137
     2  H    0.625724
     3  H    0.625724
     4  H    0.648689
     5  N   -1.900137
     6  H    0.625724
     7  H    0.648689
     8  H    0.625724
 Sum of Mulliken charges =   0.00000

 Dipole moment (field-independent basis, Debye):
    X=             -0.0000    Y=             -0.0000    Z=              0.0000  Tot=              0.0000

 Test job not archived.
 1\1\GINC-SE041\SP\RHF\Aug-CC-pVDZ\H6N2\OHZDE\08-Apr-2025\0\\#t hf aug-
 cc-pvdz iop(5/13=1,5/36=2,99/5=2) pseudo=read geom=check guess=(read,t
 check) scf=(maxcycle=1)\\title\\0,1\N,0,-0.03872201,-3.03881004,0.\H,0
 ,0.13422193,-3.62017699,0.81105976\H,0,0.13422193,-3.62017699,-0.81105
 976\H,0,0.67114508,-2.31406979,0.\N,0,0.03872201,3.03881004,0.\H,0,-0.
 13422193,3.62017699,0.81105976\H,0,-0.67114508,2.31406979,0.\H,0,-0.13
 422193,3.62017699,-0.81105976\\Version=ES64L-G16RevC.01\State=1-AG\HF=
 -112.9760684\RMSD=1.675e-02\Dipole=0.,0.,0.\Quadrupole=-3.7555142,3.83

 Normal termination of Gaussian 16 at Tue Apr  8 19:12:52 2025.
