 Gaussian 16, Revision C.01,

 ----------------------------------------------------------------------
 #t hf aug-cc-pvdz symm=none int=(grid=ultrafine) guess=(read,tcheck) s
 table=(opt,rrhf)
 ----------------------------------------------------------------------
 -----
 title
 -----
 Symbolic Z-matrix:
 Charge =  0 Multiplicity = 1

 SCF Done:  E(RHF) =  -96.4054044038     A.U. after   10 cycles
 Normal termination of Gaussian 16 at Tue Apr  8 19:12:51 2025.
 Gaussian 16:  ES64L-G16RevC.01  3-Jul-2019

 ----------------------------------------------------------------------
 #t hf aug-cc-pvdz iop(5/13=1,5/36=2,99/5=2) pseudo=read geom=check gue
 ss=(read,tcheck) scf=(maxcycle=1)
 ----------------------------------------------------------------------
 -----
 title
 -----
 Structure from the checkpoint file:  "A21x12_07_ammonia-methane_1p2_mol1.chk"
 Charge =  0 Multiplicity = 1

                         Standard orientation:
 ---------------------------------------------------------------------
 Center     Atomic      Atomic             Coordinates (Angstroms)
 Number     Number       Type             X           Y           Z
 ---------------------------------------------------------------------
      1          7           0        0.000000    0.000000    2.279186
      2          1           0        0.000000    0.937310    2.662917
      3          1           0        0.811734   -0.468655    2.662917
      4          1           0       -0.811734   -0.468655    2.662917
      5          1           0        0.000000    0.000000   -1.304312
      6          6           0        0.000000    0.000000   -2.392978
      7          1           0       -0.887701    0.512514   -2.760292
      8          1           0        0.887701    0.512514   -2.760292
      9          1           0       -0.000000   -1.025029   -2.760292
 ---------------------------------------------------------------------

 SCF Done:  E(RHF) =  -96.9224031816     A.U. after    2 cycles

 The electronic state is 1-A1.
 Alpha  occ. eigenvalues --  -15.74670 -11.34378  -1.25059  -1.01790  -0.61072
 Alpha  occ. eigenvalues --   -0.61072  -0.52466  -0.52466  -0.52386  -0.39030
 Alpha virt. eigenvalues --    0.03347   0.04486   0.05921   0.05921   0.07315
 Alpha virt. eigenvalues --    0.07315   0.09758   0.15393   0.16320   0.16320
 Alpha virt. eigenvalues --    0.17535   0.18868   0.20541   0.20541   0.24990

 Mulliken charges:
               1
     1  N   -1.956318
     2  H    0.647191
     3  H    0.647191
     4  H    0.647191
     5  H    1.262618
     6  C   -4.765646
     7  H    1.172591
     8  H    1.172591
     9  H    1.172591
 Sum of Mulliken charges =  -0.00000

 Dipole moment (field-independent basis, Debye):
    X=             -0.0000    Y=              0.0000    Z=              1.4682  Tot=              1.4682

 Test job not archived.
 1\1\GINC-SE120\SP\RHF\Aug-CC-pVDZ\C1H7N1\OHZDE\08-Apr-2025\0\\#t hf au
 g-cc-pvdz iop(5/13=1,5/36=2,99/5=2) pseudo=read geom=check guess=(read
 ,tcheck) scf=(maxcycle=1)\\title\\0,1\N,0,0.,0.,2.30242894\H,0,0.93730
 979,0.,2.68615976\H,0,-0.46865489,-0.81173409,2.68615976\H,0,-0.468654
 89,0.81173409,2.68615976\H,0,0.,0.,-1.28106926\C,0,0.,0.,-2.36973504\H
 ,0,0.51251439,0.88770096,-2.73704877\H,0,0.51251439,-0.88770096,-2.737
 04877\H,0,-1.02502878,0.,-2.73704877\\Version=ES64L-G16RevC.01\State=1
 -A1\HF=-96.9224032\RMSD=3.928e-02\Dipole=0.,0.,0.5776299\Quadrupole=-0

 Normal termination of Gaussian 16 at Tue Apr  8 19:12:53 2025.
