 Gaussian 16, Revision C.01,

 ----------------------------------------------------------------------
 #t hf aug-cc-pvdz symm=none int=(grid=ultrafine) guess=(read,tcheck) s
 table=(opt,rrhf)
 ----------------------------------------------------------------------
 -----
 title
 -----
 Symbolic Z-matrix:
 Charge =  0 Multiplicity = 1

 SCF Done:  E(RHF) =  -92.8869881317     A.U. after   10 cycles
 Normal termination of Gaussian 16 at Tue Apr  8 19:11:45 2025.
 Gaussian 16:  ES64L-G16RevC.01  3-Jul-2019

 ----------------------------------------------------------------------
 #t hf aug-cc-pvdz iop(5/13=1,5/36=2,99/5=2) pseudo=read geom=check gue
 ss=(read,tcheck) scf=(maxcycle=1)
 ----------------------------------------------------------------------
 -----
 title
 -----
 Structure from the checkpoint file:  "A21x12_03_HCN-dimer_1p1_mol3.chk"
 Charge =  0 Multiplicity = 1

                         Standard orientation:
 ---------------------------------------------------------------------
 Center     Atomic      Atomic             Coordinates (Angstroms)
 Number     Number       Type             X           Y           Z
 ---------------------------------------------------------------------
      1          1           0        0.000000    0.000000   -1.576162
      2          6           0        0.000000    0.000000   -0.501839
      3          7           0        0.000000    0.000000    0.655314
 ---------------------------------------------------------------------

 SCF Done:  E(RHF) =  -93.2973357973     A.U. after    2 cycles

 The electronic state is 1-SG.
 Alpha  occ. eigenvalues --  -15.78928 -11.44751  -1.31314  -0.83016  -0.54789
 Alpha  occ. eigenvalues --   -0.46839  -0.46839
 Alpha virt. eigenvalues --    0.02880   0.09112   0.09902   0.09902   0.14678
 Alpha virt. eigenvalues --    0.16932   0.16932   0.18422   0.26544   0.26544
 Alpha virt. eigenvalues --    0.27616   0.33120   0.41403   0.41403   0.41859

 Mulliken charges:
               1
     1  H    1.535417
     2  C    0.675232
     3  N   -2.210650
 Sum of Mulliken charges =  -0.00000

 Dipole moment (field-independent basis, Debye):
    X=              0.0000    Y=             -0.0000    Z=             -2.7404  Tot=              2.7404

 Test job not archived.
 1\1\GINC-SE364\SP\RHF\Aug-CC-pVDZ\C1H1N1\OHZDE\08-Apr-2025\0\\#t hf au
 g-cc-pvdz iop(5/13=1,5/36=2,99/5=2) pseudo=read geom=check guess=(read
 ,tcheck) scf=(maxcycle=1)\\title\\0,1\H,0,0.,0.,-0.59362147\C,0,0.,0.,
 -1.66794479\N,0,0.,0.,-2.82509711\\Version=ES64L-G16RevC.01\State=1-SG
 \HF=-93.2973358\RMSD=6.985e-02\Dipole=0.,0.,1.0781447\Quadrupole=-0.65
 48832,-0.6548832,1.3097665,0.,0.,0.\PG=C*V [C*(H1C1N1)]\\@

 Normal termination of Gaussian 16 at Tue Apr  8 19:11:46 2025.
