 Gaussian 16, Revision C.01,

 ----------------------------------------------------------------------
 #t hf aug-cc-pvdz symm=none int=(grid=ultrafine) guess=(read,tcheck) s
 table=(opt,rrhf)
 ----------------------------------------------------------------------
 -----
 title
 -----
 Symbolic Z-matrix:
 Charge =  0 Multiplicity = 1

 SCF Done:  E(RHF) =  -76.8282208966     A.U. after    9 cycles
 Normal termination of Gaussian 16 at Tue Apr  8 19:14:49 2025.
 Gaussian 16:  ES64L-G16RevC.01  3-Jul-2019

 ----------------------------------------------------------------------
 #t hf aug-cc-pvdz iop(5/13=1,5/36=2,99/5=2) pseudo=read geom=check gue
 ss=(read,tcheck) scf=(maxcycle=1)
 ----------------------------------------------------------------------
 -----
 title
 -----
 Structure from the checkpoint file:  "A21x12_12_ethyne-dimer_1p3_mol2.chk"
 Charge =  0 Multiplicity = 1

                         Standard orientation:
 ---------------------------------------------------------------------
 Center     Atomic      Atomic             Coordinates (Angstroms)
 Number     Number       Type             X           Y           Z
 ---------------------------------------------------------------------
      1          6           0        0.000000    0.603564   -0.000366
      2          1           0        0.000000    1.668476    0.002196
      3          6           0       -0.000000   -0.603564   -0.000366
      4          1           0       -0.000000   -1.668476    0.002196
 ---------------------------------------------------------------------

 SCF Done:  E(RHF) =  -77.1970676057     A.U. after    2 cycles

 The electronic state is 1-A1.
 Alpha  occ. eigenvalues --  -11.41638 -11.41279  -1.09564  -0.78865  -0.65919
 Alpha  occ. eigenvalues --   -0.38787  -0.38787
 Alpha virt. eigenvalues --    0.03299   0.04808   0.10760   0.10761   0.12587
 Alpha virt. eigenvalues --    0.14064   0.14435   0.14435   0.15532   0.24890
 Alpha virt. eigenvalues --    0.24894   0.25188   0.34236   0.36507   0.38400

 Mulliken charges:
               1
     1  C   -0.609111
     2  H    0.609111
     3  C   -0.609111
     4  H    0.609111
 Sum of Mulliken charges =   0.00000

 Dipole moment (field-independent basis, Debye):
    X=             -0.0000    Y=              0.0000    Z=              0.0065  Tot=              0.0065

 Test job not archived.
 1\1\GINC-SE041\SP\RHF\Aug-CC-pVDZ\C2H2\OHZDE\08-Apr-2025\0\\#t hf aug-
 cc-pvdz iop(5/13=1,5/36=2,99/5=2) pseudo=read geom=check guess=(read,t
 check) scf=(maxcycle=1)\\title\\0,1\C,0,0.,0.603564,-2.18173428\H,0,0.
 ,1.66847581,-2.184296\C,0,0.,-0.603564,-2.18173428\H,0,0.,-1.66847581,
 -2.184296\\Version=ES64L-G16RevC.01\State=1-A1\HF=-77.1970676\RMSD=1.3
 57e+00\Dipole=0.,0.,-0.0025548\Quadrupole=-1.8300755,3.6601341,-1.8300
 587,0.,0.,0.\PG=C02V [SGV(C2H2)]\\@

 Normal termination of Gaussian 16 at Tue Apr  8 19:14:50 2025.
