 Gaussian 16, Revision C.01,

 ----------------------------------------------------------------------
 #t hf aug-cc-pvdz symm=none int=(grid=ultrafine) guess=(read,tcheck) s
 table=(opt,rrhf)
 ----------------------------------------------------------------------
 -----
 title
 -----
 Symbolic Z-matrix:
 Charge =  0 Multiplicity = 1

 SCF Done:  E(RHF) =  -78.0435079339     A.U. after    9 cycles
 Normal termination of Gaussian 16 at Tue Apr  8 19:13:49 2025.
 Gaussian 16:  ES64L-G16RevC.01  3-Jul-2019

 ----------------------------------------------------------------------
 #t hf aug-cc-pvdz iop(5/13=1,5/36=2,99/5=2) pseudo=read geom=check gue
 ss=(read,tcheck) scf=(maxcycle=1)
 ----------------------------------------------------------------------
 -----
 title
 -----
 Structure from the checkpoint file:  "A21x12_10_water-ethene_1p3_mol2.chk"
 Charge =  0 Multiplicity = 1

                         Standard orientation:
 ---------------------------------------------------------------------
 Center     Atomic      Atomic             Coordinates (Angstroms)
 Number     Number       Type             X           Y           Z
 ---------------------------------------------------------------------
      1          6           0       -0.000014   -0.000424    0.668062
      2          6           0       -0.000014   -0.000424   -0.668062
      3          1           0        0.924394    0.001273   -1.232679
      4          1           0       -0.924310    0.001273   -1.232585
      5          1           0       -0.924310    0.001273    1.232585
      6          1           0        0.924394    0.001273    1.232679
 ---------------------------------------------------------------------

 SCF Done:  E(RHF) =  -78.4388590606     A.U. after    2 cycles

 The electronic state is 1-A'.
 Alpha  occ. eigenvalues --  -11.40482 -11.37076  -1.13323  -0.82237  -0.64245
 Alpha  occ. eigenvalues --   -0.55687  -0.49542  -0.35749
 Alpha virt. eigenvalues --    0.03773   0.05652   0.06163   0.06413   0.10113
 Alpha virt. eigenvalues --    0.12842   0.14592   0.14790   0.15692   0.19323
 Alpha virt. eigenvalues --    0.20512   0.21705   0.22818   0.24638   0.29728

 Mulliken charges:
               1
     1  C   -2.613964
     2  C   -2.613964
     3  H    1.306990
     4  H    1.306974
     5  H    1.306974
     6  H    1.306990
 Sum of Mulliken charges =  -0.00000

 Dipole moment (field-independent basis, Debye):
    X=             -0.0002    Y=              0.0052    Z=              0.0000  Tot=              0.0052

 Test job not archived.
 1\1\GINC-SE219\SP\RHF\Aug-CC-pVDZ\C2H4\OHZDE\08-Apr-2025\0\\#t hf aug-
 cc-pvdz iop(5/13=1,5/36=2,99/5=2) pseudo=read geom=check guess=(read,t
 check) scf=(maxcycle=1)\\title\\0,1\C,0,0.01357013,-0.66806246,1.65996
 226\C,0,0.01357013,0.66806246,1.65996226\H,0,0.87161404,1.23267933,1.3
 1602232\H,0,-0.84310097,1.23258495,2.00700802\H,0,-0.84310097,-1.23258
 495,2.00700802\H,0,0.87161404,-1.23267933,1.31602232\\Version=ES64L-G1
 6RevC.01\State=1-A'\HF=-78.4388591\RMSD=3.205e-01\Dipole=0.0006858,0.,
 0.0019442\Quadrupole=0.460859,1.0010831,-1.4619421,0.,-0.9250576,0.\PG

 Normal termination of Gaussian 16 at Tue Apr  8 19:13:50 2025.
