 Gaussian 16, Revision C.01,

 ----------------------------------------------------------------------
 #t hf aug-cc-pvdz symm=none int=(grid=ultrafine) guess=(read,tcheck) s
 table=(opt,rrhf)
 ----------------------------------------------------------------------
 -----
 title
 -----
 Symbolic Z-matrix:
 Charge =  0 Multiplicity = 1

 SCF Done:  E(RHF) =  -153.657930595     A.U. after   11 cycles
 Normal termination of Gaussian 16 at Tue Apr  8 19:14:51 2025.
 Gaussian 16:  ES64L-G16RevC.01  3-Jul-2019

 ----------------------------------------------------------------------
 #t hf aug-cc-pvdz iop(5/13=1,5/36=2,99/5=2) pseudo=read geom=check gue
 ss=(read,tcheck) scf=(maxcycle=1)
 ----------------------------------------------------------------------
 -----
 title
 -----
 Structure from the checkpoint file:  "A21x12_12_ethyne-dimer_1p1_mol1.chk"
 Charge =  0 Multiplicity = 1

                         Standard orientation:
 ---------------------------------------------------------------------
 Center     Atomic      Atomic             Coordinates (Angstroms)
 Number     Number       Type             X           Y           Z
 ---------------------------------------------------------------------
      1          6           0        0.000000    0.603564   -2.399803
      2          1           0        0.000000    1.668476   -2.402364
      3          6           0       -0.000000   -0.603564   -2.399803
      4          1           0       -0.000000   -1.668476   -2.402364
      5          6           0        0.000000   -0.000000    1.796613
      6          1           0        0.000000   -0.000000    0.729680
      7          6           0        0.000000   -0.000000    3.004084
      8          1           0        0.000000   -0.000000    4.068497
 ---------------------------------------------------------------------

 SCF Done:  E(RHF) =  -154.395447255     A.U. after    2 cycles

 The electronic state is 1-A1.
 Alpha  occ. eigenvalues --  -11.42488 -11.42187 -11.41398 -11.40797  -1.10412
 Alpha  occ. eigenvalues --   -1.09020  -0.79598  -0.78297  -0.66628  -0.65349
 Alpha  occ. eigenvalues --   -0.39743  -0.39569  -0.38326  -0.38307
 Alpha virt. eigenvalues --    0.03056   0.04475   0.04774   0.07054   0.09826
 Alpha virt. eigenvalues --    0.10346   0.11169   0.11957   0.12321   0.13837
 Alpha virt. eigenvalues --    0.13987   0.14202   0.14544   0.15795   0.16280

 Mulliken charges:
               1
     1  C   -0.649351
     2  H    0.622608
     3  C   -0.649351
     4  H    0.622608
     5  C    0.028771
     6  H    0.597701
     7  C   -1.169962
     8  H    0.596975
 Sum of Mulliken charges =  -0.00000

 Dipole moment (field-independent basis, Debye):
    X=             -0.0000    Y=              0.0000    Z=             -0.2859  Tot=              0.2859

 Test job not archived.
 1\1\GINC-SE022\SP\RHF\Aug-CC-pVDZ\C4H4\OHZDE\08-Apr-2025\0\\#t hf aug-
 cc-pvdz iop(5/13=1,5/36=2,99/5=2) pseudo=read geom=check guess=(read,t
 check) scf=(maxcycle=1)\\title\\0,1\C,0,0.,0.603564,-2.39992755\H,0,0.
 ,1.66847581,-2.40248927\C,0,0.,-0.603564,-2.39992755\H,0,0.,-1.6684758
 1,-2.40248927\C,0,0.,0.,1.79648851\H,0,0.,0.,0.72955531\C,0,0.,0.,3.00
 395881\H,0,0.,0.,4.06837197\\Version=ES64L-G16RevC.01\State=1-A1\HF=-1
 54.3954473\RMSD=1.163e+00\Dipole=0.,0.,-0.1124883\Quadrupole=-3.742308
 7,1.8254187,1.91689,0.,0.,0.\PG=C02V [C2(H1C1C1H1),SGV(C2H2)]\\@

 Normal termination of Gaussian 16 at Tue Apr  8 19:14:52 2025.
