 Gaussian 16, Revision C.01,

 ----------------------------------------------------------------------
 #t hf aug-cc-pvdz symm=none int=(grid=ultrafine) guess=(read,tcheck) s
 table=(opt,rrhf)
 ----------------------------------------------------------------------
 -----
 title
 -----
 Symbolic Z-matrix:
 Charge =  0 Multiplicity = 1

 SCF Done:  E(RHF) =  -185.776415313     A.U. after   11 cycles
 Normal termination of Gaussian 16 at Tue Apr  8 19:11:51 2025.
 Gaussian 16:  ES64L-G16RevC.01  3-Jul-2019

 ----------------------------------------------------------------------
 #t hf aug-cc-pvdz iop(5/13=1,5/36=2,99/5=2) pseudo=read geom=check gue
 ss=(read,tcheck) scf=(maxcycle=1)
 ----------------------------------------------------------------------
 -----
 title
 -----
 Structure from the checkpoint file:  "A21x12_03_HCN-dimer_1p5_mol1.chk"
 Charge =  0 Multiplicity = 1

                         Standard orientation:
 ---------------------------------------------------------------------
 Center     Atomic      Atomic             Coordinates (Angstroms)
 Number     Number       Type             X           Y           Z
 ---------------------------------------------------------------------
      1          1           0        0.000000    0.000000   -4.911389
      2          6           0        0.000000    0.000000   -3.842675
      3          7           0        0.000000    0.000000   -2.687683
      4          1           0        0.000000    0.000000    1.765354
      5          6           0        0.000000    0.000000    2.839677
      6          7           0        0.000000    0.000000    3.996829
 ---------------------------------------------------------------------

 SCF Done:  E(RHF) =  -186.597715197     A.U. after    2 cycles

 The electronic state is 1-SG.
 Alpha  occ. eigenvalues --  -15.79846 -15.78067 -11.45865 -11.43979  -1.32419
 Alpha  occ. eigenvalues --   -1.30501  -0.84087  -0.82042  -0.55964  -0.53998
 Alpha  occ. eigenvalues --   -0.47905  -0.47905  -0.46029  -0.46029
 Alpha virt. eigenvalues --    0.02349   0.04819   0.08927   0.09249   0.09249
 Alpha virt. eigenvalues --    0.10475   0.10475   0.11186   0.14613   0.16309
 Alpha virt. eigenvalues --    0.16309   0.16679   0.17646   0.17681   0.17681

 Mulliken charges:
               1
     1  H    1.598611
     2  C    0.727635
     3  N   -2.333582
     4  H    1.643275
     5  C    0.561198
     6  N   -2.197138
 Sum of Mulliken charges =   0.00000

 Dipole moment (field-independent basis, Debye):
    X=             -0.0000    Y=              0.0000    Z=             -5.6669  Tot=              5.6669

 Test job not archived.
 1\1\GINC-SE128\SP\RHF\Aug-CC-pVDZ\C2H2N2\OHZDE\08-Apr-2025\0\\#t hf au
 g-cc-pvdz iop(5/13=1,5/36=2,99/5=2) pseudo=read geom=check guess=(read
 ,tcheck) scf=(maxcycle=1)\\title\\0,1\H,0,0.,0.,4.96924369\C,0,0.,0.,3
 .90053039\N,0,0.,0.,2.74553854\H,0,0.,0.,-1.70749865\C,0,0.,0.,-2.7818
 2197\N,0,0.,0.,-3.93897429\\Version=ES64L-G16RevC.01\State=1-SG\HF=-18
 6.5977152\RMSD=5.488e-02\Dipole=0.,0.,2.2295179\Quadrupole=-1.3434192,
 -1.3434192,2.6868384,0.,0.,0.\PG=C*V [C*(H1C1N1H1C1N1)]\\@

 Normal termination of Gaussian 16 at Tue Apr  8 19:11:53 2025.
