 Gaussian 16, Revision C.01,

 ----------------------------------------------------------------------
 #t hf aug-cc-pvdz symm=none int=(grid=ultrafine) guess=(read,tcheck) s
 table=(opt,rrhf)
 ----------------------------------------------------------------------
 -----
 title
 -----
 Symbolic Z-matrix:
 Charge =  0 Multiplicity = 1

 SCF Done:  E(RHF) =  -152.085463667     A.U. after   10 cycles
 Normal termination of Gaussian 16 at Tue Apr  8 19:11:46 2025.
 Gaussian 16:  ES64L-G16RevC.01  3-Jul-2019

 ----------------------------------------------------------------------
 #t hf aug-cc-pvdz iop(5/13=1,5/36=2,99/5=2) pseudo=read geom=check gue
 ss=(read,tcheck) scf=(maxcycle=1)
 ----------------------------------------------------------------------
 -----
 title
 -----
 Structure from the checkpoint file:  "A21x12_02_water-dimer_1p4_mol1.chk"
 Charge =  0 Multiplicity = 1

                         Standard orientation:
 ---------------------------------------------------------------------
 Center     Atomic      Atomic             Coordinates (Angstroms)
 Number     Number       Type             X           Y           Z
 ---------------------------------------------------------------------
      1          8           0       -0.001820    2.108523    0.000000
      2          1           0        0.892912    2.450128    0.000000
      3          1           0        0.101823    1.149282    0.000000
      4          8           0       -0.001820   -1.980136   -0.000000
      5          1           0       -0.482812   -2.313256    0.760178
      6          1           0       -0.482812   -2.313256   -0.760178
 ---------------------------------------------------------------------

 SCF Done:  E(RHF) =  -152.734912854     A.U. after    2 cycles

 The electronic state is 1-A'.
 Alpha  occ. eigenvalues --  -21.11139 -21.08890  -1.67205  -1.64937  -0.64481
 Alpha  occ. eigenvalues --   -0.62239  -0.47753  -0.45465  -0.36455  -0.34261
 Alpha virt. eigenvalues --    0.03336   0.05440   0.06037   0.09376   0.17800
 Alpha virt. eigenvalues --    0.19415   0.21525   0.22795   0.23512   0.24007
 Alpha virt. eigenvalues --    0.25175   0.27033   0.28713   0.29700   0.32802

 Mulliken charges:
               1
     1  O   -1.799923
     2  H    0.848498
     3  H    0.933448
     4  O   -1.777013
     5  H    0.897495
     6  H    0.897495
 Sum of Mulliken charges =   0.00000

 Dipole moment (field-independent basis, Debye):
    X=              0.0204    Y=             -1.3667    Z=              0.0000  Tot=              1.3669

 Test job not archived.
 1\1\GINC-SE132\SP\RHF\Aug-CC-pVDZ\H4O2\OHZDE\08-Apr-2025\0\\#t hf aug-
 cc-pvdz iop(5/13=1,5/36=2,99/5=2) pseudo=read geom=check guess=(read,t
 check) scf=(maxcycle=1)\\title\\0,1\O,0,-0.07100024,0.,2.0790391\H,0,0
 .81173317,0.,2.45055075\H,0,0.064854,0.,1.12382713\O,0,0.06654819,0.,-
 2.00730585\H,0,-0.40296496,-0.76017841,-2.35641827\H,0,-0.40296496,0.7
 6017841,-2.35641827\\Version=ES64L-G16RevC.01\State=1-A'\HF=-152.73491
 29\RMSD=2.915e-02\Dipole=0.0261009,0.,-0.5371273\Quadrupole=-0.3441637
 ,-0.0155242,0.3596879,0.,3.9246013,0.\PG=CS [SG(H2O2),X(H2)]\\@

 Normal termination of Gaussian 16 at Tue Apr  8 19:11:47 2025.
