 Gaussian 16, Revision C.01,

 ----------------------------------------------------------------------
 #t hf aug-cc-pvdz symm=none int=(grid=ultrafine) guess=(read,tcheck) s
 table=(opt,rrhf)
 ----------------------------------------------------------------------
 -----
 title
 -----
 Symbolic Z-matrix:
 Charge =  0 Multiplicity = 1

 SCF Done:  E(RHF) =  -191.929613943     A.U. after   12 cycles
 Normal termination of Gaussian 16 at Tue Apr  8 19:13:51 2025.
 Gaussian 16:  ES64L-G16RevC.01  3-Jul-2019

 ----------------------------------------------------------------------
 #t hf aug-cc-pvdz iop(5/13=1,5/36=2,99/5=2) pseudo=read geom=check gue
 ss=(read,tcheck) scf=(maxcycle=1)
 ----------------------------------------------------------------------
 -----
 title
 -----
 Structure from the checkpoint file:  "A21x12_11_formaldehyde-ethene_1p2_mol1.chk"
 Charge =  0 Multiplicity = 1

                         Standard orientation:
 ---------------------------------------------------------------------
 Center     Atomic      Atomic             Coordinates (Angstroms)
 Number     Number       Type             X           Y           Z
 ---------------------------------------------------------------------
      1          8           0        1.969027    1.236937    0.000000
      2          6           0        1.046367    2.017259    0.000000
      3          1           0        0.000000    1.671354    0.000000
      4          1           0        1.214866    3.107095    0.000000
      5          6           0       -0.787693   -1.724190    0.000000
      6          6           0       -2.118881   -1.623333    0.000000
      7          1           0       -0.219933   -1.762746    0.921130
      8          1           0       -0.219933   -1.762746   -0.921130
      9          1           0       -2.682988   -1.583433   -0.923940
     10          1           0       -2.682988   -1.583433    0.923940
 ---------------------------------------------------------------------

 SCF Done:  E(RHF) =  -192.807060204     A.U. after    2 cycles

 The electronic state is 1-A'.
 Alpha  occ. eigenvalues --  -21.08040 -11.47647 -11.40627 -11.37110  -1.71007
 Alpha  occ. eigenvalues --   -1.13352  -0.90172  -0.82224  -0.67004  -0.64175
 Alpha  occ. eigenvalues --   -0.55731  -0.53250  -0.49426  -0.45180  -0.35865
 Alpha  occ. eigenvalues --   -0.30891
 Alpha virt. eigenvalues --    0.03239   0.04606   0.05982   0.06251   0.06912
 Alpha virt. eigenvalues --    0.07261   0.09750   0.10556   0.11751   0.13569
 Alpha virt. eigenvalues --    0.14436   0.15438   0.16458   0.17180   0.17299

 Mulliken charges:
               1
     1  O   -2.043338
     2  C   -0.639543
     3  H    1.344516
     4  H    1.355682
     5  C   -2.892608
     6  C   -2.586304
     7  H    1.405854
     8  H    1.405854
     9  H    1.324944
    10  H    1.324944
 Sum of Mulliken charges =  -0.00000

 Dipole moment (field-independent basis, Debye):
    X=             -0.8168    Y=              0.6807    Z=             -0.0000  Tot=              1.0632

 Test job not archived.
 1\1\GINC-SE338\SP\RHF\Aug-CC-pVDZ\C3H6O1\OHZDE\08-Apr-2025\0\\#t hf au
 g-cc-pvdz iop(5/13=1,5/36=2,99/5=2) pseudo=read geom=check guess=(read
 ,tcheck) scf=(maxcycle=1)\\title\\0,1\O,0,0.,-0.49869884,-2.26024941\C
 ,0,0.,0.70623116,-2.16887941\H,0,0.,1.20910116,-1.18823941\H,0,0.,1.35
 084116,-3.06364941\C,0,0.,-0.61208794,1.78387183\C,0,0.,0.40719206,2.6
 4602183\H,0,0.92113,-1.04368794,1.41298183\H,0,-0.92113,-1.04368794,1.
 41298183\H,0,-0.92394,0.83713206,3.01339183\H,0,0.92394,0.83713206,3.0
 1339183\\Version=ES64L-G16RevC.01\State=1-A'\HF=-192.8070602\RMSD=1.99

 Normal termination of Gaussian 16 at Tue Apr  8 19:13:53 2025.
