 Gaussian 16, Revision C.01,

 ----------------------------------------------------------------------
 #t hf aug-cc-pvdz symm=none int=(grid=ultrafine) guess=(read,tcheck) s
 table=(opt,rrhf)
 ----------------------------------------------------------------------
 -----
 title
 -----
 Symbolic Z-matrix:
 Charge =  0 Multiplicity = 1

 SCF Done:  E(RHF) =  -66.5910318689     A.U. after   10 cycles
 Normal termination of Gaussian 16 at Tue Apr  8 19:15:51 2025.
 Gaussian 16:  ES64L-G16RevC.01  3-Jul-2019

 ----------------------------------------------------------------------
 #t hf aug-cc-pvdz iop(5/13=1,5/36=2,99/5=2) pseudo=read geom=check gue
 ss=(read,tcheck) scf=(maxcycle=1)
 ----------------------------------------------------------------------
 -----
 title
 -----
 Structure from the checkpoint file:  "A21x12_16_borane-methane_1p2_mol1.chk"
 Charge =  0 Multiplicity = 1

                         Standard orientation:
 ---------------------------------------------------------------------
 Center     Atomic      Atomic             Coordinates (Angstroms)
 Number     Number       Type             X           Y           Z
 ---------------------------------------------------------------------
      1          6           0        0.001180   -1.590760   -0.000000
      2          1           0       -0.846011   -0.902538    0.000000
      3          1           0       -0.387319   -2.607376    0.000000
      4          1           0        0.606835   -1.433241    0.889943
      5          1           0        0.606835   -1.433241   -0.889943
      6          5           0        0.001180    1.985228    0.000000
      7          1           0       -0.589174    2.063999    1.030518
      8          1           0       -0.589174    2.063999   -1.030518
      9          1           0        1.185034    1.866819   -0.000000
 ---------------------------------------------------------------------

 SCF Done:  E(RHF) =  -66.9754505706     A.U. after    2 cycles

 The electronic state is 1-A'.
 Alpha  occ. eigenvalues --  -11.36107  -7.61818  -1.03506  -0.86684  -0.54317
 Alpha  occ. eigenvalues --   -0.54138  -0.53948  -0.47957  -0.47956
 Alpha virt. eigenvalues --    0.02496   0.03744   0.04322   0.04368   0.06607
 Alpha virt. eigenvalues --    0.08183   0.08434   0.10098   0.11277   0.11361
 Alpha virt. eigenvalues --    0.11456   0.14906   0.16231   0.16235   0.18838

 Mulliken charges:
               1
     1  C   -5.036157
     2  H    1.299961
     3  H    1.257730
     4  H    1.266808
     5  H    1.266808
     6  B    6.975398
     7  H   -2.336259
     8  H   -2.336259
     9  H   -2.358029
 Sum of Mulliken charges =   0.00000

 Dipole moment (field-independent basis, Debye):
    X=              0.0137    Y=             -0.1625    Z=             -0.0000  Tot=              0.1631

 Test job not archived.
 1\1\GINC-SE100\SP\RHF\Aug-CC-pVDZ\C1H7B1\OHZDE\08-Apr-2025\0\\#t hf au
 g-cc-pvdz iop(5/13=1,5/36=2,99/5=2) pseudo=read geom=check guess=(read
 ,tcheck) scf=(maxcycle=1)\\title\\0,1\C,0,0.00494546,0.,1.78907988\H,0
 ,0.84998181,0.,1.09821431\H,0,0.39661879,0.,2.80447715\H,0,-0.60119901
 ,-0.88994299,1.63345454\H,0,-0.60119901,0.88994299,1.63345454\B,0,-0.0
 0622794,0.,-1.78689023\H,0,0.58387651,-1.030518,-1.86750572\H,0,0.5838
 7651,1.030518,-1.86750572\H,0,-1.18970625,0.,-1.66478264\\Version=ES64
 L-G16RevC.01\State=1-A'\HF=-66.9754506\RMSD=9.863e-02\Dipole=-0.005198

 Normal termination of Gaussian 16 at Tue Apr  8 19:15:52 2025.
