 Gaussian 16, Revision C.01,

 ----------------------------------------------------------------------
 #t hf aug-cc-pvdz symm=none int=(grid=ultrafine) guess=(read,tcheck) s
 table=(opt,rrhf)
 ----------------------------------------------------------------------
 -----
 title
 -----
 Symbolic Z-matrix:
 Charge =  0 Multiplicity = 1

 SCF Done:  E(RHF) =  -80.3992680000     A.U. after    8 cycles
 Normal termination of Gaussian 16 at Tue Apr  8 19:16:52 2025.
 Gaussian 16:  ES64L-G16RevC.01  3-Jul-2019

 ----------------------------------------------------------------------
 #t hf aug-cc-pvdz iop(5/13=1,5/36=2,99/5=2) pseudo=read geom=check gue
 ss=(read,tcheck) scf=(maxcycle=1)
 ----------------------------------------------------------------------
 -----
 title
 -----
 Structure from the checkpoint file:  "A21x12_19_methane-dimer_1p7_mol1.chk"
 Charge =  0 Multiplicity = 1

                         Standard orientation:
 ---------------------------------------------------------------------
 Center     Atomic      Atomic             Coordinates (Angstroms)
 Number     Number       Type             X           Y           Z
 ---------------------------------------------------------------------
      1          6           0        0.000000    0.000000    3.092125
      2          1           0        0.000000    1.025482    2.727878
      3          1           0        0.888094   -0.512741    2.727878
      4          1           0       -0.888094   -0.512741    2.727878
      5          1           0        0.000000    0.000000    4.180331
      6          6           0       -0.000000   -0.000000   -3.092125
      7          1           0       -0.000000   -0.000000   -4.180331
      8          1           0       -0.888094    0.512741   -2.727878
      9          1           0       -0.000000   -1.025482   -2.727878
     10          1           0        0.888094    0.512741   -2.727878
 ---------------------------------------------------------------------

 SCF Done:  E(RHF) =  -80.8668535804     A.U. after    2 cycles

 The electronic state is 1-A1G.
 Alpha  occ. eigenvalues --  -11.35494 -11.35437  -1.02882  -1.02881  -0.53588
 Alpha  occ. eigenvalues --   -0.53585  -0.53522  -0.53522  -0.53516  -0.53516
 Alpha virt. eigenvalues --    0.02687   0.03841   0.05981   0.05981   0.06555
 Alpha virt. eigenvalues --    0.07828   0.07828   0.07865   0.12790   0.15068
 Alpha virt. eigenvalues --    0.15068   0.15898   0.15898   0.16205   0.16353

 Mulliken charges:
               1
     1  C   -4.746425
     2  H    1.176103
     3  H    1.176103
     4  H    1.176103
     5  H    1.218115
     6  C   -4.746425
     7  H    1.218115
     8  H    1.176103
     9  H    1.176103
    10  H    1.176103
 Sum of Mulliken charges =  -0.00000

 Dipole moment (field-independent basis, Debye):
    X=             -0.0000    Y=             -0.0000    Z=              0.0000  Tot=              0.0000

 Test job not archived.
 1\1\GINC-SE126\SP\RHF\Aug-CC-pVDZ\C2H8\OHZDE\08-Apr-2025\0\\#t hf aug-
 cc-pvdz iop(5/13=1,5/36=2,99/5=2) pseudo=read geom=check guess=(read,t
 check) scf=(maxcycle=1)\\title\\0,1\C,0,0.,0.,3.09212519\H,0,0.5127411
 5,0.88809373,2.72787805\H,0,0.51274115,-0.88809373,2.72787805\H,0,-1.0
 254823,0.,2.72787805\H,0,0.,0.,4.18033134\C,0,0.,0.,-3.09212519\H,0,0.
 ,0.,-4.18033134\H,0,-0.51274115,0.88809373,-2.72787805\H,0,-0.51274115
 ,-0.88809373,-2.72787805\H,0,1.0254823,0.,-2.72787805\\Version=ES64L-G
 16RevC.01\State=1-A1G\HF=-80.8668536\RMSD=4.821e-02\Dipole=0.,0.,0.\Qu

 Normal termination of Gaussian 16 at Tue Apr  8 19:16:53 2025.
