 Gaussian 16, Revision C.01,

 ----------------------------------------------------------------------
 #t hf aug-cc-pvdz symm=none int=(grid=ultrafine) guess=(read,tcheck) s
 table=(opt,rrhf)
 ----------------------------------------------------------------------
 -----
 title
 -----
 Symbolic Z-matrix:
 Charge =  0 Multiplicity = 1

 SCF Done:  E(RHF) =  -92.8872811830     A.U. after   10 cycles
 Normal termination of Gaussian 16 at Tue Apr  8 19:11:46 2025.
 Gaussian 16:  ES64L-G16RevC.01  3-Jul-2019

 ----------------------------------------------------------------------
 #t hf aug-cc-pvdz iop(5/13=1,5/36=2,99/5=2) pseudo=read geom=check gue
 ss=(read,tcheck) scf=(maxcycle=1)
 ----------------------------------------------------------------------
 -----
 title
 -----
 Structure from the checkpoint file:  "A21x12_03_HCN-dimer_0p9_mol2.chk"
 Charge =  0 Multiplicity = 1

                         Standard orientation:
 ---------------------------------------------------------------------
 Center     Atomic      Atomic             Coordinates (Angstroms)
 Number     Number       Type             X           Y           Z
 ---------------------------------------------------------------------
      1          1           0        0.000000    0.000000   -1.569873
      2          6           0        0.000000    0.000000   -0.501159
      3          7           0        0.000000    0.000000    0.653833
 ---------------------------------------------------------------------

 SCF Done:  E(RHF) =  -93.2984444254     A.U. after    2 cycles

 The electronic state is 1-SG.
 Alpha  occ. eigenvalues --  -15.78877 -11.44726  -1.31403  -0.83175  -0.54815
 Alpha  occ. eigenvalues --   -0.46905  -0.46905
 Alpha virt. eigenvalues --    0.02881   0.09123   0.09907   0.09907   0.14668
 Alpha virt. eigenvalues --    0.16946   0.16946   0.18441   0.26575   0.26575
 Alpha virt. eigenvalues --    0.27733   0.33188   0.41482   0.41482   0.41854

 Mulliken charges:
               1
     1  H    1.539647
     2  C    0.679986
     3  N   -2.219633
 Sum of Mulliken charges =  -0.00000

 Dipole moment (field-independent basis, Debye):
    X=              0.0000    Y=              0.0000    Z=             -2.7365  Tot=              2.7365

 Test job not archived.
 1\1\GINC-SE284\SP\RHF\Aug-CC-pVDZ\C1H1N1\OHZDE\08-Apr-2025\0\\#t hf au
 g-cc-pvdz iop(5/13=1,5/36=2,99/5=2) pseudo=read geom=check guess=(read
 ,tcheck) scf=(maxcycle=1)\\title\\0,1\H,0,0.,0.,3.85536651\C,0,0.,0.,2
 .78665321\N,0,0.,0.,1.63166136\\Version=ES64L-G16RevC.01\State=1-SG\HF
 =-93.2984444\RMSD=7.007e-02\Dipole=0.,0.,1.0766215\Quadrupole=-0.64636
 49,-0.6463649,1.2927297,0.,0.,0.\PG=C*V [C*(H1C1N1)]\\@

 Normal termination of Gaussian 16 at Tue Apr  8 19:11:47 2025.
