 Gaussian 16, Revision C.01,

 ----------------------------------------------------------------------
 #t hf aug-cc-pvdz symm=none int=(grid=ultrafine) guess=(read,tcheck) s
 table=(opt,rrhf)
 ----------------------------------------------------------------------
 -----
 title
 -----
 Symbolic Z-matrix:
 Charge =  0 Multiplicity = 1

 SCF Done:  E(RHF) =  -154.085465703     A.U. after   10 cycles
 Normal termination of Gaussian 16 at Tue Apr  8 19:13:50 2025.
 Gaussian 16:  ES64L-G16RevC.01  3-Jul-2019

 ----------------------------------------------------------------------
 #t hf aug-cc-pvdz iop(5/13=1,5/36=2,99/5=2) pseudo=read geom=check gue
 ss=(read,tcheck) scf=(maxcycle=1)
 ----------------------------------------------------------------------
 -----
 title
 -----
 Structure from the checkpoint file:  "A21x12_10_water-ethene_1p6_mol1.chk"
 Charge =  0 Multiplicity = 1

                         Standard orientation:
 ---------------------------------------------------------------------
 Center     Atomic      Atomic             Coordinates (Angstroms)
 Number     Number       Type             X           Y           Z
 ---------------------------------------------------------------------
      1          6           0       -0.041164   -2.034871    0.668062
      2          6           0       -0.041164   -2.034871   -0.668062
      3          1           0       -0.898142   -1.688284   -1.232679
      4          1           0        0.814432   -2.384560   -1.232585
      5          1           0        0.814432   -2.384560    1.232585
      6          1           0       -0.898142   -1.688284    1.232679
      7          1           0        0.800586    3.762099    0.000000
      8          8           0       -0.041164    3.303926    0.000000
      9          1           0        0.190106    2.370636    0.000000
 ---------------------------------------------------------------------

 SCF Done:  E(RHF) =  -154.806409801     A.U. after    2 cycles

 The electronic state is 1-A'.
 Alpha  occ. eigenvalues --  -21.09814 -11.40942 -11.37570  -1.65845  -1.13813
 Alpha  occ. eigenvalues --   -0.82677  -0.64691  -0.63163  -0.56141  -0.49970
 Alpha  occ. eigenvalues --   -0.46362  -0.36275  -0.35089
 Alpha virt. eigenvalues --    0.03316   0.04955   0.05409   0.06087   0.06362
 Alpha virt. eigenvalues --    0.08960   0.09628   0.12611   0.14659   0.14686
 Alpha virt. eigenvalues --    0.16510   0.18712   0.19515   0.20279   0.20897

 Mulliken charges:
               1
     1  C   -2.647572
     2  C   -2.647572
     3  H    1.331946
     4  H    1.316466
     5  H    1.316466
     6  H    1.331946
     7  H    0.856239
     8  O   -1.773232
     9  H    0.915313
 Sum of Mulliken charges =   0.00000

 Dipole moment (field-independent basis, Debye):
    X=              0.9284    Y=             -0.5359    Z=              0.0000  Tot=              1.0720

 Test job not archived.
 1\1\GINC-SE247\SP\RHF\Aug-CC-pVDZ\C2H6O1\OHZDE\08-Apr-2025\0\\#t hf au
 g-cc-pvdz iop(5/13=1,5/36=2,99/5=2) pseudo=read geom=check guess=(read
 ,tcheck) scf=(maxcycle=1)\\title\\0,1\C,0,0.02177144,-0.66806246,2.656
 07361\C,0,0.02177144,0.66806246,2.65607361\H,0,0.87981535,1.23267933,2
 .31213367\H,0,-0.83489966,1.23258495,3.00311937\H,0,-0.83489966,-1.232
 58495,3.00311937\H,0,0.87981535,-1.23267933,2.31213367\H,0,-0.8020757,
 0.,-3.14346757\O,0,0.03825502,0.,-2.68269773\H,0,-0.19589489,0.,-1.750
 12663\\Version=ES64L-G16RevC.01\State=1-A'\HF=-154.8064098\RMSD=2.143e

 Normal termination of Gaussian 16 at Tue Apr  8 19:13:51 2025.
