 Gaussian 16, Revision C.01,

 ----------------------------------------------------------------------
 #t hf aug-cc-pvdz symm=none int=(grid=ultrafine) guess=(read,tcheck) s
 table=(opt,rrhf)
 ----------------------------------------------------------------------
 -----
 title
 -----
 Symbolic Z-matrix:
 Charge =  0 Multiplicity = 1

 SCF Done:  E(RHF) =  -152.084308933     A.U. after   10 cycles
 Normal termination of Gaussian 16 at Tue Apr  8 19:11:46 2025.
 Gaussian 16:  ES64L-G16RevC.01  3-Jul-2019

 ----------------------------------------------------------------------
 #t hf aug-cc-pvdz iop(5/13=1,5/36=2,99/5=2) pseudo=read geom=check gue
 ss=(read,tcheck) scf=(maxcycle=1)
 ----------------------------------------------------------------------
 -----
 title
 -----
 Structure from the checkpoint file:  "A21x12_02_water-dimer_1p6_mol1.chk"
 Charge =  0 Multiplicity = 1

                         Standard orientation:
 ---------------------------------------------------------------------
 Center     Atomic      Atomic             Coordinates (Angstroms)
 Number     Number       Type             X           Y           Z
 ---------------------------------------------------------------------
      1          8           0       -0.002035    2.400771   -0.000000
      2          1           0        0.891547    2.745375    0.000000
      3          1           0        0.104824    1.441883   -0.000000
      4          8           0       -0.002035   -2.272397    0.000000
      5          1           0       -0.481907   -2.607128    0.760178
      6          1           0       -0.481907   -2.607128   -0.760178
 ---------------------------------------------------------------------

 SCF Done:  E(RHF) =  -152.733965134     A.U. after    2 cycles

 The electronic state is 1-A'.
 Alpha  occ. eigenvalues --  -21.10843 -21.09221  -1.66897  -1.65233  -0.64211
 Alpha  occ. eigenvalues --   -0.62568  -0.47393  -0.45784  -0.36129  -0.34551
 Alpha virt. eigenvalues --    0.03347   0.05204   0.06053   0.09029   0.17909
 Alpha virt. eigenvalues --    0.19185   0.21767   0.22651   0.23161   0.23985
 Alpha virt. eigenvalues --    0.24804   0.25885   0.28822   0.28919   0.32310

 Mulliken charges:
               1
     1  O   -1.766145
     2  H    0.851964
     3  H    0.906570
     4  O   -1.780952
     5  H    0.894281
     6  H    0.894281
 Sum of Mulliken charges =   0.00000

 Dipole moment (field-independent basis, Debye):
    X=              0.0275    Y=             -1.2724    Z=              0.0000  Tot=              1.2727

 Test job not archived.
 1\1\GINC-SE179\SP\RHF\Aug-CC-pVDZ\H4O2\OHZDE\08-Apr-2025\0\\#t hf aug-
 cc-pvdz iop(5/13=1,5/36=2,99/5=2) pseudo=read geom=check guess=(read,t
 check) scf=(maxcycle=1)\\title\\0,1\O,0,-0.07300062,0.,2.37137863\H,0,
 0.80973279,0.,2.74289028\H,0,0.06285362,0.,1.41616666\O,0,0.06854857,0
 .,-2.29964538\H,0,-0.40096458,-0.76017841,-2.6487578\H,0,-0.40096458,0
 .76017841,-2.6487578\\Version=ES64L-G16RevC.01\State=1-A'\HF=-152.7339
 651\RMSD=2.886e-02\Dipole=0.0259684,0.,-0.5000417\Quadrupole=-0.365373
 7,-0.0327863,0.39816,0.,4.2956993,0.\PG=CS [SG(H2O2),X(H2)]\\@

 Normal termination of Gaussian 16 at Tue Apr  8 19:11:47 2025.
