 Gaussian 16, Revision C.01,

 ----------------------------------------------------------------------
 #t hf aug-cc-pvdz symm=none int=(grid=ultrafine) guess=(read,tcheck) s
 table=(opt,rrhf)
 ----------------------------------------------------------------------
 -----
 title
 -----
 Symbolic Z-matrix:
 Charge =  0 Multiplicity = 1

 SCF Done:  E(RHF) =  -80.3971033951     A.U. after    9 cycles
 Normal termination of Gaussian 16 at Tue Apr  8 19:16:52 2025.
 Gaussian 16:  ES64L-G16RevC.01  3-Jul-2019

 ----------------------------------------------------------------------
 #t hf aug-cc-pvdz iop(5/13=1,5/36=2,99/5=2) pseudo=read geom=check gue
 ss=(read,tcheck) scf=(maxcycle=1)
 ----------------------------------------------------------------------
 -----
 title
 -----
 Structure from the checkpoint file:  "A21x12_19_methane-dimer_0p9_mol1.chk"
 Charge =  0 Multiplicity = 1

                         Standard orientation:
 ---------------------------------------------------------------------
 Center     Atomic      Atomic             Coordinates (Angstroms)
 Number     Number       Type             X           Y           Z
 ---------------------------------------------------------------------
      1          6           0        0.000000    0.000000    1.637142
      2          1           0        0.000000    1.025482    1.272894
      3          1           0        0.888094   -0.512741    1.272894
      4          1           0       -0.888094   -0.512741    1.272894
      5          1           0        0.000000    0.000000    2.725348
      6          6           0       -0.000000   -0.000000   -1.637142
      7          1           0       -0.000000   -0.000000   -2.725348
      8          1           0       -0.888094    0.512741   -1.272894
      9          1           0       -0.000000   -1.025482   -1.272894
     10          1           0        0.888094    0.512741   -1.272894
 ---------------------------------------------------------------------

 SCF Done:  E(RHF) =  -80.8665952780     A.U. after    2 cycles

 The electronic state is 1-A1G.
 Alpha  occ. eigenvalues --  -11.35570 -11.35307  -1.03988  -1.01679  -0.54549
 Alpha  occ. eigenvalues --   -0.54245  -0.54245  -0.52767  -0.52767  -0.52490
 Alpha virt. eigenvalues --    0.02951   0.04669   0.06518   0.06518   0.06799
 Alpha virt. eigenvalues --    0.07700   0.07700   0.09113   0.13523   0.13523
 Alpha virt. eigenvalues --    0.14263   0.17373   0.18031   0.18031   0.21213

 Mulliken charges:
               1
     1  C   -5.094713
     2  H    1.289060
     3  H    1.289060
     4  H    1.289060
     5  H    1.227534
     6  C   -5.094713
     7  H    1.227534
     8  H    1.289060
     9  H    1.289060
    10  H    1.289060
 Sum of Mulliken charges =   0.00000

 Dipole moment (field-independent basis, Debye):
    X=              0.0000    Y=             -0.0000    Z=              0.0000  Tot=              0.0000

 Test job not archived.
 1\1\GINC-SE083\SP\RHF\Aug-CC-pVDZ\C2H8\OHZDE\08-Apr-2025\0\\#t hf aug-
 cc-pvdz iop(5/13=1,5/36=2,99/5=2) pseudo=read geom=check guess=(read,t
 check) scf=(maxcycle=1)\\title\\0,1\C,0,0.,0.,1.63714162\H,0,0.5127411
 5,0.88809373,1.27289448\H,0,0.51274115,-0.88809373,1.27289448\H,0,-1.0
 254823,0.,1.27289448\H,0,0.,0.,2.72534777\C,0,0.,0.,-1.63714162\H,0,0.
 ,0.,-2.72534777\H,0,-0.51274115,0.88809373,-1.27289448\H,0,-0.51274115
 ,-0.88809373,-1.27289448\H,0,1.0254823,0.,-1.27289448\\Version=ES64L-G
 16RevC.01\State=1-A1G\HF=-80.8665953\RMSD=6.436e-02\Dipole=0.,0.,0.\Qu

 Normal termination of Gaussian 16 at Tue Apr  8 19:16:54 2025.
