 Gaussian 16, Revision C.01,

 ----------------------------------------------------------------------
 #t hf aug-cc-pvdz symm=none int=(grid=ultrafine) guess=(read,tcheck) s
 table=(opt,rrhf)
 ----------------------------------------------------------------------
 -----
 title
 -----
 Symbolic Z-matrix:
 Charge =  0 Multiplicity = 1

 SCF Done:  E(RHF) =  -132.251255810     A.U. after   11 cycles
 Normal termination of Gaussian 16 at Tue Apr  8 19:10:53 2025.
 Gaussian 16:  ES64L-G16RevC.01  3-Jul-2019

 ----------------------------------------------------------------------
 #t hf aug-cc-pvdz iop(5/13=1,5/36=2,99/5=2) pseudo=read geom=check gue
 ss=(read,tcheck) scf=(maxcycle=1)
 ----------------------------------------------------------------------
 -----
 title
 -----
 Structure from the checkpoint file:  "A21x12_01_water-ammonia_1p3_mol1.chk"
 Charge =  0 Multiplicity = 1

                         Standard orientation:
 ---------------------------------------------------------------------
 Center     Atomic      Atomic             Coordinates (Angstroms)
 Number     Number       Type             X           Y           Z
 ---------------------------------------------------------------------
      1          8           0       -0.037956    2.005089    0.000000
      2          1           0        0.849808    2.363941    0.000000
      3          1           0        0.081169    1.042206    0.000000
      4          7           0       -0.037956   -1.833286    0.000000
      5          1           0       -1.036771   -2.003279    0.000000
      6          1           0        0.337566   -2.305286    0.813484
      7          1           0        0.337566   -2.305286   -0.813484
 ---------------------------------------------------------------------

 SCF Done:  E(RHF) =  -132.859336021     A.U. after    2 cycles

 The electronic state is 1-A'.
 Alpha  occ. eigenvalues --  -21.07993 -15.75809  -1.64069  -1.26150  -0.62225
 Alpha  occ. eigenvalues --   -0.62152  -0.61408  -0.44775  -0.40265  -0.33524
 Alpha virt. eigenvalues --    0.03178   0.05622   0.05696   0.05952   0.09592
 Alpha virt. eigenvalues --    0.17393   0.18918   0.19407   0.20256   0.22338
 Alpha virt. eigenvalues --    0.23816   0.24314   0.26633   0.28874   0.29007

 Mulliken charges:
               1
     1  O   -1.860607
     2  H    0.826077
     3  H    1.043307
     4  N   -1.967271
     5  H    0.651258
     6  H    0.653618
     7  H    0.653618
 Sum of Mulliken charges =  -0.00000

 Dipole moment (field-independent basis, Debye):
    X=              0.5790    Y=             -2.1858    Z=             -0.0000  Tot=              2.2612

 Test job not archived.
 1\1\GINC-SE059\SP\RHF\Aug-CC-pVDZ\H5N1O1\OHZDE\08-Apr-2025\0\\#t hf au
 g-cc-pvdz iop(5/13=1,5/36=2,99/5=2) pseudo=read geom=check guess=(read
 ,tcheck) scf=(maxcycle=1)\\title\\0,1\O,0,0.,-0.05817157,-1.96830771\H
 ,0,0.,0.82262798,-2.34392942\H,0,0.,0.07918981,-1.00785721\N,0,0.,0.01
 461095,1.86937722\H,0,0.,-0.98080156,2.05827873\H,0,-0.81348351,0.3990
 1477,2.33417143\H,0,0.81348351,0.39901477,2.33417143\\Version=ES64L-G1
 6RevC.01\State=1-A'\HF=-132.859336\RMSD=2.372e-02\Dipole=0.,0.2440516,
 0.8554877\Quadrupole=-1.2239378,0.2110868,1.012851,0.,0.,-1.9629222\PG

 Normal termination of Gaussian 16 at Tue Apr  8 19:10:54 2025.
