 Gaussian 16, Revision C.01,

 ----------------------------------------------------------------------
 #t hf aug-cc-pvdz symm=none int=(grid=ultrafine) guess=(read,tcheck) s
 table=(opt,rrhf)
 ----------------------------------------------------------------------
 -----
 title
 -----
 Symbolic Z-matrix:
 Charge =  0 Multiplicity = 1

 SCF Done:  E(RHF) =  -26.3912152656     A.U. after    8 cycles
 Normal termination of Gaussian 16 at Tue Apr  8 19:14:49 2025.
 Gaussian 16:  ES64L-G16RevC.01  3-Jul-2019

 ----------------------------------------------------------------------
 #t hf aug-cc-pvdz iop(5/13=1,5/36=2,99/5=2) pseudo=read geom=check gue
 ss=(read,tcheck) scf=(maxcycle=1)
 ----------------------------------------------------------------------
 -----
 title
 -----
 Structure from the checkpoint file:  "A21x12_16_borane-methane_0p9_mol3.chk"
 Charge =  0 Multiplicity = 1

                         Standard orientation:
 ---------------------------------------------------------------------
 Center     Atomic      Atomic             Coordinates (Angstroms)
 Number     Number       Type             X           Y           Z
 ---------------------------------------------------------------------
      1          5           0        0.000000    0.004907    0.000000
      2          1           0        0.594768   -0.026286    1.030518
      3          1           0        0.594768   -0.026286   -1.030518
      4          1           0       -1.189536    0.028035   -0.000000
 ---------------------------------------------------------------------

 SCF Done:  E(RHF) =  -26.5418720563     A.U. after    2 cycles

 The electronic state is 1-A'.
 Alpha  occ. eigenvalues --   -7.62017  -0.86804  -0.48086  -0.48067
 Alpha virt. eigenvalues --    0.02777   0.04224   0.04226   0.04877   0.11467
 Alpha virt. eigenvalues --    0.11468   0.12112   0.13914   0.24614   0.24616
 Alpha virt. eigenvalues --    0.24646   0.25081   0.25082   0.35765   0.36524

 Mulliken charges:
               1
     1  B    6.919055
     2  H   -2.305858
     3  H   -2.305858
     4  H   -2.307338
 Sum of Mulliken charges =  -0.00000

 Dipole moment (field-independent basis, Debye):
    X=             -0.0002    Y=              0.0361    Z=             -0.0000  Tot=              0.0361

 Test job not archived.
 1\1\GINC-SE247\SP\RHF\Aug-CC-pVDZ\B1H3\OHZDE\08-Apr-2025\0\\#t hf aug-
 cc-pvdz iop(5/13=1,5/36=2,99/5=2) pseudo=read geom=check guess=(read,t
 check) scf=(maxcycle=1)\\title\\0,1\B,0,-0.00514783,0.,-1.4885711\H,0,
 0.58495662,-1.030518,-1.56918659\H,0,0.58495662,1.030518,-1.56918659\H
 ,0,-1.18862614,0.,-1.36646351\\Version=ES64L-G16RevC.01\State=1-A'\HF=
 -26.5418721\RMSD=1.956e-01\Dipole=0.0010911,0.,0.0141676\Quadrupole=-0
 .757152,-0.788706,1.545858,0.,0.2667102,0.\PG=CS [SG(B1H1),X(H2)]\\@

 Normal termination of Gaussian 16 at Tue Apr  8 19:14:50 2025.
