 Gaussian 16, Revision C.01,

 ----------------------------------------------------------------------
 #t hf aug-cc-pvdz symm=none int=(grid=ultrafine) guess=(read,tcheck) s
 table=(opt,rrhf)
 ----------------------------------------------------------------------
 -----
 title
 -----
 Symbolic Z-matrix:
 Charge =  0 Multiplicity = 1

 SCF Done:  E(RHF) =  -154.087142358     A.U. after   11 cycles
 Normal termination of Gaussian 16 at Tue Apr  8 19:13:49 2025.
 Gaussian 16:  ES64L-G16RevC.01  3-Jul-2019

 ----------------------------------------------------------------------
 #t hf aug-cc-pvdz iop(5/13=1,5/36=2,99/5=2) pseudo=read geom=check gue
 ss=(read,tcheck) scf=(maxcycle=1)
 ----------------------------------------------------------------------
 -----
 title
 -----
 Structure from the checkpoint file:  "A21x12_10_water-ethene_1p1_mol1.chk"
 Charge =  0 Multiplicity = 1

                         Standard orientation:
 ---------------------------------------------------------------------
 Center     Atomic      Atomic             Coordinates (Angstroms)
 Number     Number       Type             X           Y           Z
 ---------------------------------------------------------------------
      1          6           0       -0.041068   -1.396166    0.668062
      2          6           0       -0.041068   -1.396166   -0.668062
      3          1           0       -0.896264   -1.045205   -1.232679
      4          1           0        0.812729   -1.750222   -1.232585
      5          1           0        0.812729   -1.750222    1.232585
      6          1           0       -0.896264   -1.045205    1.232679
      7          1           0        0.803011    2.736410    0.000000
      8          8           0       -0.041068    2.282543    0.000000
      9          1           0        0.185430    1.348084    0.000000
 ---------------------------------------------------------------------

 SCF Done:  E(RHF) =  -154.809500690     A.U. after    2 cycles

 The electronic state is 1-A'.
 Alpha  occ. eigenvalues --  -21.08996 -11.41533 -11.38190  -1.65217  -1.14461
 Alpha  occ. eigenvalues --   -0.83208  -0.65261  -0.62491  -0.56652  -0.50435
 Alpha  occ. eigenvalues --   -0.45803  -0.37042  -0.34454
 Alpha virt. eigenvalues --    0.03469   0.05371   0.05557   0.06187   0.06395
 Alpha virt. eigenvalues --    0.09890   0.10546   0.12370   0.14478   0.14488
 Alpha virt. eigenvalues --    0.15832   0.18970   0.20014   0.20143   0.21144

 Mulliken charges:
               1
     1  C   -2.743164
     2  C   -2.743164
     3  H    1.360933
     4  H    1.338820
     5  H    1.338820
     6  H    1.360933
     7  H    0.820714
     8  O   -1.901447
     9  H    1.167557
 Sum of Mulliken charges =   0.00000

 Dipole moment (field-independent basis, Debye):
    X=              0.8654    Y=             -0.7579    Z=             -0.0000  Tot=              1.1504

 Test job not archived.
 1\1\GINC-SE231\SP\RHF\Aug-CC-pVDZ\C2H6O1\OHZDE\08-Apr-2025\0\\#t hf au
 g-cc-pvdz iop(5/13=1,5/36=2,99/5=2) pseudo=read geom=check guess=(read
 ,tcheck) scf=(maxcycle=1)\\title\\0,1\C,0,0.01493702,-0.66806246,1.825
 98081\C,0,0.01493702,0.66806246,1.82598081\H,0,0.87298093,1.23267933,1
 .48204087\H,0,-0.84173408,1.23258495,2.17302657\H,0,-0.84173408,-1.232
 58495,2.17302657\H,0,0.87298093,-1.23267933,1.48204087\H,0,-0.79524127
 ,0.,-2.31337477\O,0,0.04508945,0.,-1.85260493\H,0,-0.18906046,0.,-0.92
 003383\\Version=ES64L-G16RevC.01\State=1-A'\HF=-154.8095007\RMSD=2.185

 Normal termination of Gaussian 16 at Tue Apr  8 19:13:51 2025.
