 Gaussian 16, Revision C.01,

 ----------------------------------------------------------------------
 #t hf aug-cc-pvdz symm=none int=(grid=ultrafine) guess=(read,tcheck) s
 table=(opt,rrhf)
 ----------------------------------------------------------------------
 -----
 title
 -----
 Symbolic Z-matrix:
 Charge =  0 Multiplicity = 1

 SCF Done:  E(RHF) =  -185.777017338     A.U. after   11 cycles
 Normal termination of Gaussian 16 at Tue Apr  8 19:11:47 2025.
 Gaussian 16:  ES64L-G16RevC.01  3-Jul-2019

 ----------------------------------------------------------------------
 #t hf aug-cc-pvdz iop(5/13=1,5/36=2,99/5=2) pseudo=read geom=check gue
 ss=(read,tcheck) scf=(maxcycle=1)
 ----------------------------------------------------------------------
 -----
 title
 -----
 Structure from the checkpoint file:  "A21x12_03_HCN-dimer_1p4_mol1.chk"
 Charge =  0 Multiplicity = 1

                         Standard orientation:
 ---------------------------------------------------------------------
 Center     Atomic      Atomic             Coordinates (Angstroms)
 Number     Number       Type             X           Y           Z
 ---------------------------------------------------------------------
      1          1           0        0.000000    0.000000   -4.688613
      2          6           0        0.000000    0.000000   -3.619900
      3          7           0        0.000000    0.000000   -2.464908
      4          1           0        0.000000    0.000000    1.542578
      5          6           0        0.000000    0.000000    2.616902
      6          7           0        0.000000    0.000000    3.774054
 ---------------------------------------------------------------------

 SCF Done:  E(RHF) =  -186.598225435     A.U. after    2 cycles

 The electronic state is 1-SG.
 Alpha  occ. eigenvalues --  -15.80021 -15.77918 -11.46078 -11.43840  -1.32602
 Alpha  occ. eigenvalues --   -1.30367  -0.84246  -0.81858  -0.56193  -0.53865
 Alpha  occ. eigenvalues --   -0.48084  -0.48084  -0.45896  -0.45896
 Alpha virt. eigenvalues --    0.02302   0.05045   0.09059   0.09149   0.09149
 Alpha virt. eigenvalues --    0.10505   0.10505   0.11585   0.14750   0.16447
 Alpha virt. eigenvalues --    0.16447   0.16490   0.17861   0.17861   0.18027

 Mulliken charges:
               1
     1  H    1.613958
     2  C    0.732944
     3  N   -2.356951
     4  H    1.666498
     5  C    0.519305
     6  N   -2.175754
 Sum of Mulliken charges =  -0.00000

 Dipole moment (field-independent basis, Debye):
    X=              0.0000    Y=             -0.0000    Z=             -5.7182  Tot=              5.7182

 Test job not archived.
 1\1\GINC-SE078\SP\RHF\Aug-CC-pVDZ\C2H2N2\OHZDE\08-Apr-2025\0\\#t hf au
 g-cc-pvdz iop(5/13=1,5/36=2,99/5=2) pseudo=read geom=check guess=(read
 ,tcheck) scf=(maxcycle=1)\\title\\0,1\H,0,0.,0.,4.74646825\C,0,0.,0.,3
 .67775495\N,0,0.,0.,2.5227631\H,0,0.,0.,-1.48472322\C,0,0.,0.,-2.55904
 654\N,0,0.,0.,-3.71619886\\Version=ES64L-G16RevC.01\State=1-SG\HF=-186
 .5982254\RMSD=5.558e-02\Dipole=0.,0.,2.2496987\Quadrupole=-1.3514648,-
 1.3514648,2.7029296,0.,0.,0.\PG=C*V [C*(H1C1N1H1C1N1)]\\@

 Normal termination of Gaussian 16 at Tue Apr  8 19:11:48 2025.
