 Gaussian 16, Revision C.01,

 ----------------------------------------------------------------------
 #t hf aug-cc-pvdz symm=none int=(grid=ultrafine) guess=(read,tcheck) s
 table=(opt,rrhf)
 ----------------------------------------------------------------------
 -----
 title
 -----
 Symbolic Z-matrix:
 Charge =  0 Multiplicity = 1

 SCF Done:  E(RHF) =  -132.247216243     A.U. after   11 cycles
 Normal termination of Gaussian 16 at Tue Apr  8 19:11:53 2025.
 Gaussian 16:  ES64L-G16RevC.01  3-Jul-2019

 ----------------------------------------------------------------------
 #t hf aug-cc-pvdz iop(5/13=1,5/36=2,99/5=2) pseudo=read geom=check gue
 ss=(read,tcheck) scf=(maxcycle=1)
 ----------------------------------------------------------------------
 -----
 title
 -----
 Structure from the checkpoint file:  "A21x12_01_water-ammonia_2p0_mol1.chk"
 Charge =  0 Multiplicity = 1

                         Standard orientation:
 ---------------------------------------------------------------------
 Center     Atomic      Atomic             Coordinates (Angstroms)
 Number     Number       Type             X           Y           Z
 ---------------------------------------------------------------------
      1          8           0       -0.038510    3.046965    0.000000
      2          1           0        0.846919    3.411541    0.000000
      3          1           0        0.086829    2.084872    0.000000
      4          7           0       -0.038510   -2.875656    0.000000
      5          1           0       -1.036207   -3.052094    0.000000
      6          1           0        0.340051   -3.345222    0.813484
      7          1           0        0.340051   -3.345222   -0.813484
 ---------------------------------------------------------------------

 SCF Done:  E(RHF) =  -132.854917900     A.U. after    2 cycles

 The electronic state is 1-A'.
 Alpha  occ. eigenvalues --  -21.09313 -15.74969  -1.65227  -1.25303  -0.62691
 Alpha  occ. eigenvalues --   -0.61443  -0.61369  -0.45852  -0.39285  -0.34673
 Alpha virt. eigenvalues --    0.03284   0.04825   0.05901   0.05961   0.08410
 Alpha virt. eigenvalues --    0.17789   0.18891   0.20026   0.20044   0.20768
 Alpha virt. eigenvalues --    0.22507   0.23886   0.25690   0.29236   0.29288

 Mulliken charges:
               1
     1  O   -1.744082
     2  H    0.867583
     3  H    0.877901
     4  N   -1.886914
     5  H    0.629069
     6  H    0.628221
     7  H    0.628221
 Sum of Mulliken charges =  -0.00000

 Dipole moment (field-independent basis, Debye):
    X=              0.6176    Y=             -1.8718    Z=             -0.0000  Tot=              1.9711

 Test job not archived.
 1\1\GINC-SE059\SP\RHF\Aug-CC-pVDZ\H5N1O1\OHZDE\08-Apr-2025\0\\#t hf au
 g-cc-pvdz iop(5/13=1,5/36=2,99/5=2) pseudo=read geom=check guess=(read
 ,tcheck) scf=(maxcycle=1)\\title\\0,1\O,0,0.,-0.05881659,-3.01054428\H
 ,0,0.,0.82198296,-3.38616599\H,0,0.,0.07854479,-2.05009378\N,0,0.,0.01
 525597,2.91161379\H,0,0.,-0.98015654,3.1005153\H,0,-0.81348351,0.39965
 979,3.376408\H,0,0.81348351,0.39965979,3.376408\\Version=ES64L-G16RevC
 .01\State=1-A'\HF=-132.8549179\RMSD=2.206e-02\Dipole=0.,0.2521829,0.73
 33224\Quadrupole=-1.6582004,-0.2203624,1.8785628,0.,0.,-2.8403146\PG=C

 Normal termination of Gaussian 16 at Tue Apr  8 19:11:54 2025.
