 Gaussian 16, Revision C.01,

 ----------------------------------------------------------------------
 #t hf aug-cc-pvdz symm=none int=(grid=ultrafine) guess=(read,tcheck) s
 table=(opt,rrhf)
 ----------------------------------------------------------------------
 -----
 title
 -----
 Symbolic Z-matrix:
 Charge =  0 Multiplicity = 1

 SCF Done:  E(RHF) =  -154.082686470     A.U. after   11 cycles
 Normal termination of Gaussian 16 at Tue Apr  8 19:13:50 2025.
 Gaussian 16:  ES64L-G16RevC.01  3-Jul-2019

 ----------------------------------------------------------------------
 #t hf aug-cc-pvdz iop(5/13=1,5/36=2,99/5=2) pseudo=read geom=check gue
 ss=(read,tcheck) scf=(maxcycle=1)
 ----------------------------------------------------------------------
 -----
 title
 -----
 Structure from the checkpoint file:  "A21x12_10_water-ethene_0p9_mol1.chk"
 Charge =  0 Multiplicity = 1

                         Standard orientation:
 ---------------------------------------------------------------------
 Center     Atomic      Atomic             Coordinates (Angstroms)
 Number     Number       Type             X           Y           Z
 ---------------------------------------------------------------------
      1          6           0       -0.041000   -1.140638    0.668062
      2          6           0       -0.041000   -1.140638   -0.668062
      3          1           0       -0.894921   -0.786584   -1.232679
      4          1           0        0.811510   -1.497781   -1.232585
      5          1           0        0.811510   -1.497781    1.232585
      6          1           0       -0.894921   -0.786584    1.232679
      7          1           0        0.804716    2.324893   -0.000000
      8          8           0       -0.041000    1.874084   -0.000000
      9          1           0        0.182114    0.938812   -0.000000
 ---------------------------------------------------------------------

 SCF Done:  E(RHF) =  -154.810255099     A.U. after    2 cycles

 The electronic state is 1-A'.
 Alpha  occ. eigenvalues --  -21.07714 -11.41811 -11.38497  -1.64540  -1.15232
 Alpha  occ. eigenvalues --   -0.83700  -0.66030  -0.61982  -0.57060  -0.50807
 Alpha  occ. eigenvalues --   -0.45710  -0.36777  -0.33722
 Alpha virt. eigenvalues --    0.03570   0.05328   0.05855   0.06310   0.06364
 Alpha virt. eigenvalues --    0.10184   0.10942   0.12213   0.14199   0.14420
 Alpha virt. eigenvalues --    0.16125   0.18755   0.20035   0.20315   0.20797

 Mulliken charges:
               1
     1  C   -2.843447
     2  C   -2.843447
     3  H    1.294672
     4  H    1.319510
     5  H    1.319510
     6  H    1.294672
     7  H    0.753205
     8  O   -2.021318
     9  H    1.726643
 Sum of Mulliken charges =   0.00000

 Dipole moment (field-independent basis, Debye):
    X=              0.8383    Y=             -0.8364    Z=             -0.0000  Tot=              1.1842

 Test job not archived.
 1\1\GINC-SE187\SP\RHF\Aug-CC-pVDZ\C2H6O1\OHZDE\08-Apr-2025\0\\#t hf au
 g-cc-pvdz iop(5/13=1,5/36=2,99/5=2) pseudo=read geom=check guess=(read
 ,tcheck) scf=(maxcycle=1)\\title\\0,1\C,0,0.01220325,-0.66806246,1.493
 9437\C,0,0.01220325,0.66806246,1.4939437\H,0,0.87024716,1.23267933,1.1
 5000376\H,0,-0.84446785,1.23258495,1.84098946\H,0,-0.84446785,-1.23258
 495,1.84098946\H,0,0.87024716,-1.23267933,1.15000376\H,0,-0.7925075,0.
 ,-1.98133766\O,0,0.04782322,0.,-1.52056782\H,0,-0.18632669,0.,-0.58799
 672\\Version=ES64L-G16RevC.01\State=1-A'\HF=-154.8102551\RMSD=2.256e-0

 Normal termination of Gaussian 16 at Tue Apr  8 19:13:52 2025.
