 Gaussian 16, Revision C.01,

 ----------------------------------------------------------------------
 #t hf aug-cc-pvdz symm=none int=(grid=ultrafine) guess=(read,tcheck) s
 table=(opt,rrhf)
 ----------------------------------------------------------------------
 -----
 title
 -----
 Symbolic Z-matrix:
 Charge =  0 Multiplicity = 1

 SCF Done:  E(RHF) =  -857.253423353     A.U. after   16 cycles
 Normal termination of Gaussian 16 at Tue Apr  8 19:31:01 2025.
 Gaussian 16:  ES64L-G16RevC.01  3-Jul-2019

 ----------------------------------------------------------------------
 #t hf aug-cc-pvdz iop(5/13=1,5/36=2,99/5=2) pseudo=read geom=check gue
 ss=(read,tcheck) scf=(maxcycle=1)
 ----------------------------------------------------------------------
 -----
 title
 -----
 Structure from the checkpoint file:  "ACHC_11_dimer_mol1.chk"
 Charge =  0 Multiplicity = 1

                         Standard orientation:
 ---------------------------------------------------------------------
 Center     Atomic      Atomic             Coordinates (Angstroms)
 Number     Number       Type             X           Y           Z
 ---------------------------------------------------------------------
      1          7           0       -1.347439   -2.016959    0.646446
      2          6           0       -1.379846   -1.314934    1.797105
      3          7           0       -1.495333    0.005278    1.946230
      4          6           0       -1.583656    0.625957    0.757972
      5          6           0       -1.564160    0.032153   -0.509403
      6          6           0       -1.437537   -1.376340   -0.541321
      7          7           0       -1.677098    0.980029   -1.512909
      8          6           0       -1.762939    2.120702   -0.868540
      9          7           0       -1.712488    1.973625    0.505221
     10          1           0       -1.300647   -1.919438    2.702205
     11          7           0       -1.403668   -2.090477   -1.679360
     12          1           0       -1.471778   -1.600087   -2.558100
     13          1           0       -1.310485   -3.110638   -1.651559
     14          1           0       -1.863859    3.097255   -1.331534
     15          1           0       -1.759739    2.703613    1.202212
     16          7           0        1.766261    1.396348    0.915478
     17          6           0        1.733478    1.336504   -0.491832
     18          7           0        1.828387    0.112482   -1.071772
     19          6           0        1.948905   -0.997018   -0.326410
     20          6           0        1.983178   -0.942583    1.117940
     21          6           0        1.887900    0.284199    1.693447
     22          1           0        1.693713    2.320498    1.320311
     23          8           0        1.620554    2.396597   -1.121590
     24          7           0        2.037252   -2.166828   -0.967527
     25          1           0        2.012497   -2.205866   -2.009052
     26          1           0        2.128769   -3.020943   -0.439981
     27          1           0        2.080812   -1.841840    1.720211
     28          1           0        1.903226    0.438345    2.771613
 ---------------------------------------------------------------------

 SCF Done:  E(RHF) =  -861.115760056     A.U. after    2 cycles

 The electronic state is 1-A.
 Alpha  occ. eigenvalues --  -20.98927 -15.80046 -15.79055 -15.78940 -15.77921
 Alpha  occ. eigenvalues --  -15.72945 -15.72729 -15.71798 -15.69956 -11.54039
 Alpha  occ. eigenvalues --  -11.52787 -11.49951 -11.49697 -11.48650 -11.44515
 Alpha  occ. eigenvalues --  -11.44400 -11.40018 -11.39468  -1.68107  -1.59382
 Alpha  occ. eigenvalues --   -1.49639  -1.46744  -1.39976  -1.38489  -1.28347
 Alpha  occ. eigenvalues --   -1.26621  -1.24061  -1.13738  -1.10246  -0.92970
 Alpha  occ. eigenvalues --   -0.92101  -0.89773  -0.89593  -0.84913  -0.75773
 Alpha  occ. eigenvalues --   -0.75308  -0.72511  -0.71529  -0.69390  -0.67552
 Alpha  occ. eigenvalues --   -0.63945  -0.63698  -0.61476  -0.60961  -0.59337
 Alpha  occ. eigenvalues --   -0.57742  -0.56062  -0.55858  -0.55215  -0.54722
 Alpha  occ. eigenvalues --   -0.51130  -0.48492  -0.46628  -0.44796  -0.43161
 Alpha  occ. eigenvalues --   -0.38756  -0.38374  -0.36154  -0.34541  -0.33632
 Alpha  occ. eigenvalues --   -0.33098  -0.28704  -0.27127  -0.24951
 Alpha virt. eigenvalues --    0.02982   0.04040   0.04159   0.05227   0.05421
 Alpha virt. eigenvalues --    0.05630   0.06138   0.06347   0.06959   0.07873
 Alpha virt. eigenvalues --    0.08833   0.09853   0.10263   0.10649   0.11004

 Mulliken charges:
               1
     1  N   -3.992394
     2  C    0.012133
     3  N   -3.747368
     4  C    4.708374
     5  C    2.705504
     6  C    6.579178
     7  N   -3.870637
     8  C    0.032981
     9  N   -4.029943
    10  H    1.810588
    11  N   -4.583837
    12  H    0.684341
    13  H    0.962230
    14  H    1.856247
    15  H    1.007130
    16  N   -3.332844
    17  C    5.999845
    18  N   -4.005335
    19  C    4.849047
    20  C   -1.495423
    21  C   -0.209875
    22  H    0.851655
    23  O   -3.528305
    24  N   -4.458149
    25  H    0.932641
    26  H    0.741814
    27  H    1.875251
    28  H    1.645152
 Sum of Mulliken charges =   0.00000

 Dipole moment (field-independent basis, Debye):
    X=              0.1910    Y=             -1.7639    Z=              2.0249  Tot=              2.6922

 Test job not archived.
 1\1\GINC-SE214\SP\RHF\Aug-CC-pVDZ\C9H10N8O1\OHZDE\08-Apr-2025\0\\#t hf
  aug-cc-pvdz iop(5/13=1,5/36=2,99/5=2) pseudo=read geom=check guess=(r
 ead,tcheck) scf=(maxcycle=1)\\title\\0,1\N,0,-0.214386,-1.993021,0.000
 158\C,0,-1.483458,-1.537649,0.000039\N,0,-1.896987,-0.269765,-0.000126
 \C,0,-0.859092,0.583332,-0.00013\C,0,0.502351,0.258224,0.000025\C,0,0.
 818987,-1.120415,0.000169\N,0,1.293025,1.395362,-0.000018\C,0,0.430884
 ,2.385528,-0.000191\N,0,-0.88463,1.960299,-0.000268\H,0,-2.247335,-2.3
 17004,0.000055\N,0,2.078153,-1.590279,0.000313\H,0,2.839337,-0.928535,

 Normal termination of Gaussian 16 at Tue Apr  8 19:31:55 2025.
