 Gaussian 16, Revision C.01,

 ----------------------------------------------------------------------
 #t hf aug-cc-pvdz symm=none int=(grid=ultrafine) guess=(read,tcheck) s
 table=(opt,rrhf)
 ----------------------------------------------------------------------
 -----
 title
 -----
 Symbolic Z-matrix:
 Charge =  0 Multiplicity = 1

 SCF Done:  E(RHF) =  -857.250969366     A.U. after   16 cycles
 Normal termination of Gaussian 16 at Tue Apr  8 19:31:50 2025.
 Gaussian 16:  ES64L-G16RevC.01  3-Jul-2019

 ----------------------------------------------------------------------
 #t hf aug-cc-pvdz iop(5/13=1,5/36=2,99/5=2) pseudo=read geom=check gue
 ss=(read,tcheck) scf=(maxcycle=1)
 ----------------------------------------------------------------------
 -----
 title
 -----
 Structure from the checkpoint file:  "ACHC_23_dimer_mol1.chk"
 Charge =  0 Multiplicity = 1

                         Standard orientation:
 ---------------------------------------------------------------------
 Center     Atomic      Atomic             Coordinates (Angstroms)
 Number     Number       Type             X           Y           Z
 ---------------------------------------------------------------------
      1          7           0        2.977468    0.314808   -0.943983
      2          6           0        2.654789    1.547062   -0.502016
      3          7           0        1.792535    1.869623    0.462873
      4          6           0        1.227602    0.775390    1.000000
      5          6           0        1.463222   -0.558080    0.645652
      6          6           0        2.399275   -0.776294   -0.392178
      7          7           0        0.703323   -1.426042    1.412100
      8          6           0        0.023697   -0.636940    2.211564
      9          7           0        0.296062    0.703701    2.011823
     10          1           0        3.173025    2.363089   -1.008410
     11          7           0        2.731623   -1.997655   -0.843944
     12          1           0        2.292863   -2.802700   -0.423589
     13          1           0        3.415994   -2.105287   -1.599084
     14          1           0       -0.686804   -0.965955    2.963322
     15          1           0       -0.102775    1.490490    2.504573
     16          7           0       -2.752462   -1.055343    0.171795
     17          6           0       -1.809403   -1.185038   -0.866954
     18          7           0       -1.270125   -0.046226   -1.372773
     19          6           0       -1.626251    1.156901   -0.896599
     20          6           0       -2.593250    1.296950    0.169038
     21          6           0       -3.129930    0.154798    0.671776
     22          1           0       -3.137672   -1.919598    0.529404
     23          8           0       -1.523914   -2.323510   -1.261314
     24          7           0       -1.053111    2.233597   -1.443891
     25          1           0       -0.355817    2.132391   -2.212297
     26          1           0       -1.296516    3.153570   -1.111329
     27          1           0       -2.880665    2.271844    0.553616
     28          1           0       -3.866027    0.146502    1.474601
 ---------------------------------------------------------------------

 SCF Done:  E(RHF) =  -861.109427542     A.U. after    2 cycles

 The electronic state is 1-A.
 Alpha  occ. eigenvalues --  -20.99016 -15.80242 -15.79522 -15.79062 -15.76764
 Alpha  occ. eigenvalues --  -15.73316 -15.72315 -15.70982 -15.70335 -11.53166
 Alpha  occ. eigenvalues --  -11.52696 -11.50666 -11.49266 -11.48650 -11.45047
 Alpha  occ. eigenvalues --  -11.43760 -11.40878 -11.38921  -1.68101  -1.59390
 Alpha  occ. eigenvalues --   -1.50056  -1.46193  -1.40301  -1.37681  -1.28270
 Alpha  occ. eigenvalues --   -1.26920  -1.23422  -1.14456  -1.09974  -0.93581
 Alpha  occ. eigenvalues --   -0.91768  -0.90026  -0.89363  -0.85047  -0.76018
 Alpha  occ. eigenvalues --   -0.75313  -0.72802  -0.70852  -0.69802  -0.67200
 Alpha  occ. eigenvalues --   -0.64216  -0.63852  -0.61407  -0.61397  -0.58697
 Alpha  occ. eigenvalues --   -0.58367  -0.56784  -0.55392  -0.54722  -0.53879
 Alpha  occ. eigenvalues --   -0.51978  -0.47364  -0.46705  -0.44965  -0.44555
 Alpha  occ. eigenvalues --   -0.38119  -0.37900  -0.36575  -0.34107  -0.33432
 Alpha  occ. eigenvalues --   -0.33025  -0.27219  -0.27078  -0.26120
 Alpha virt. eigenvalues --    0.02439   0.03521   0.04052   0.04359   0.05391
 Alpha virt. eigenvalues --    0.06104   0.06281   0.06595   0.07362   0.07954
 Alpha virt. eigenvalues --    0.08760   0.09034   0.09753   0.10626   0.11052

 Mulliken charges:
               1
     1  N   -3.947216
     2  C    0.623876
     3  N   -3.917011
     4  C    4.136227
     5  C    2.325658
     6  C    6.222745
     7  N   -3.792605
     8  C   -0.244027
     9  N   -3.424368
    10  H    1.788126
    11  N   -4.183564
    12  H    0.658610
    13  H    0.940779
    14  H    1.863513
    15  H    1.043368
    16  N   -3.207127
    17  C    5.932576
    18  N   -3.711518
    19  C    4.342964
    20  C   -1.044591
    21  C   -0.386356
    22  H    0.819663
    23  O   -3.449856
    24  N   -4.433281
    25  H    0.964396
    26  H    0.748377
    27  H    1.756524
    28  H    1.574119
 Sum of Mulliken charges =  -0.00000

 Dipole moment (field-independent basis, Debye):
    X=             -3.2652    Y=              2.6471    Z=              3.3547  Tot=              5.3781

 Test job not archived.
 1\1\GINC-SE222\SP\RHF\Aug-CC-pVDZ\C9H10N8O1\OHZDE\08-Apr-2025\0\\#t hf
  aug-cc-pvdz iop(5/13=1,5/36=2,99/5=2) pseudo=read geom=check guess=(r
 ead,tcheck) scf=(maxcycle=1)\\title\\0,1\N,0,-0.214386,-1.993021,0.000
 158\C,0,-1.483458,-1.537649,0.000039\N,0,-1.896987,-0.269765,-0.000126
 \C,0,-0.859092,0.583332,-0.00013\C,0,0.502351,0.258224,0.000025\C,0,0.
 818987,-1.120415,0.000169\N,0,1.293025,1.395362,-0.000018\C,0,0.430884
 ,2.385528,-0.000191\N,0,-0.88463,1.960299,-0.000268\H,0,-2.247335,-2.3
 17004,0.000055\N,0,2.078153,-1.590279,0.000313\H,0,2.839337,-0.928535,

 Normal termination of Gaussian 16 at Tue Apr  8 19:32:53 2025.
