 Gaussian 16, Revision C.01,

 ----------------------------------------------------------------------
 #t hf aug-cc-pvdz symm=none int=(grid=ultrafine) guess=(read,tcheck) s
 table=(opt,rrhf)
 ----------------------------------------------------------------------
 -----
 title
 -----
 Symbolic Z-matrix:
 Charge =  0 Multiplicity = 1

 SCF Done:  E(RHF) =  -464.584520054     A.U. after   15 cycles
 Normal termination of Gaussian 16 at Tue Apr  8 19:18:57 2025.
 Gaussian 16:  ES64L-G16RevC.01  3-Jul-2019

 ----------------------------------------------------------------------
 #t hf aug-cc-pvdz iop(5/13=1,5/36=2,99/5=2) pseudo=read geom=check gue
 ss=(read,tcheck) scf=(maxcycle=1)
 ----------------------------------------------------------------------
 -----
 title
 -----
 Structure from the checkpoint file:  "ACHC_13_dimer_mol2.chk"
 Charge =  0 Multiplicity = 1

                         Standard orientation:
 ---------------------------------------------------------------------
 Center     Atomic      Atomic             Coordinates (Angstroms)
 Number     Number       Type             X           Y           Z
 ---------------------------------------------------------------------
      1          7           0       -1.934417    0.534298    0.000156
      2          6           0       -1.287433    1.717227    0.000037
      3          7           0        0.029298    1.928781   -0.000128
      4          6           0        0.710811    0.770964   -0.000132
      5          6           0        0.178162   -0.523449    0.000023
      6          6           0       -1.232929   -0.622082    0.000167
      7          7           0        1.178672   -1.481170   -0.000020
      8          6           0        2.290744   -0.783308   -0.000193
      9          7           0        2.075030    0.582293   -0.000270
     10          1           0       -1.938666    2.592897    0.000053
     11          7           0       -1.892689   -1.792974    0.000311
     12          1           0       -1.357221   -2.647714    0.000352
     13          1           0       -2.917268   -1.813536    0.000505
     14          1           0        3.293182   -1.199625   -0.000274
     15          1           0        2.772586    1.313270   -0.000410
 ---------------------------------------------------------------------

 SCF Done:  E(RHF) =  -466.681985713     A.U. after    2 cycles

 The electronic state is 1-A.
 Alpha  occ. eigenvalues --  -15.80768 -15.78081 -15.74040 -15.72835 -15.71714
 Alpha  occ. eigenvalues --  -11.52813 -11.49129 -11.45200 -11.43940 -11.39436
 Alpha  occ. eigenvalues --   -1.60241  -1.46886  -1.38493  -1.28936  -1.24121
 Alpha  occ. eigenvalues --   -1.10628  -0.92484  -0.90031  -0.85607  -0.76114
 Alpha  occ. eigenvalues --   -0.71791  -0.68020  -0.64318  -0.62107  -0.59535
 Alpha  occ. eigenvalues --   -0.56279  -0.55278  -0.54672  -0.48371  -0.45311
 Alpha  occ. eigenvalues --   -0.38927  -0.38870  -0.34180  -0.33756  -0.28100
 Alpha virt. eigenvalues --    0.03214   0.04743   0.05398   0.05969   0.06750
 Alpha virt. eigenvalues --    0.09420   0.09712   0.10564   0.11344   0.11611
 Alpha virt. eigenvalues --    0.12575   0.13659   0.13667   0.13928   0.14392

 Mulliken charges:
               1
     1  N   -3.503259
     2  C    0.490174
     3  N   -3.570530
     4  C    3.331301
     5  C    2.513585
     6  C    5.027315
     7  N   -3.698006
     8  C    0.814810
     9  N   -3.376709
    10  H    1.662378
    11  N   -3.746640
    12  H    0.598784
    13  H    0.878325
    14  H    1.690620
    15  H    0.887853
 Sum of Mulliken charges =  -0.00000

 Dipole moment (field-independent basis, Debye):
    X=              1.8797    Y=             -1.1931    Z=              0.0000  Tot=              2.2264

 Test job not archived.
 1\1\GINC-SE048\SP\RHF\Aug-CC-pVDZ\C5H5N5\OHZDE\08-Apr-2025\0\\#t hf au
 g-cc-pvdz iop(5/13=1,5/36=2,99/5=2) pseudo=read geom=check guess=(read
 ,tcheck) scf=(maxcycle=1)\\title\\0,1\N,0,-0.214386,-1.993021,0.000158
 \C,0,-1.483458,-1.537649,0.000039\N,0,-1.896987,-0.269765,-0.000126\C,
 0,-0.859092,0.583332,-0.00013\C,0,0.502351,0.258224,0.000025\C,0,0.818
 987,-1.120415,0.000169\N,0,1.293025,1.395362,-0.000018\C,0,0.430884,2.
 385528,-0.000191\N,0,-0.88463,1.960299,-0.000268\H,0,-2.247335,-2.3170
 04,0.000055\N,0,2.078153,-1.590279,0.000313\H,0,2.839337,-0.928535,0.0

 Normal termination of Gaussian 16 at Tue Apr  8 19:19:04 2025.
