 Gaussian 16, Revision C.01,

 ----------------------------------------------------------------------
 #t hf aug-cc-pvdz symm=none int=(grid=ultrafine) guess=(read,tcheck) s
 table=(opt,rrhf)
 ----------------------------------------------------------------------
 -----
 title
 -----
 Symbolic Z-matrix:
 Charge =  0 Multiplicity = 1

 SCF Done:  E(RHF) =  -857.251278231     A.U. after   16 cycles
 Normal termination of Gaussian 16 at Tue Apr  8 19:33:21 2025.
 Gaussian 16:  ES64L-G16RevC.01  3-Jul-2019

 ----------------------------------------------------------------------
 #t hf aug-cc-pvdz iop(5/13=1,5/36=2,99/5=2) pseudo=read geom=check gue
 ss=(read,tcheck) scf=(maxcycle=1)
 ----------------------------------------------------------------------
 -----
 title
 -----
 Structure from the checkpoint file:  "ACHC_9_dimer_mol1.chk"
 Charge =  0 Multiplicity = 1

                         Standard orientation:
 ---------------------------------------------------------------------
 Center     Atomic      Atomic             Coordinates (Angstroms)
 Number     Number       Type             X           Y           Z
 ---------------------------------------------------------------------
      1          7           0       -1.478451    2.003234    0.418440
      2          6           0       -1.419734    2.000274   -0.928575
      3          7           0       -1.427936    0.945672   -1.744837
      4          6           0       -1.505844   -0.205326   -1.056263
      5          6           0       -1.572779   -0.355948    0.333721
      6          6           0       -1.556569    0.835390    1.096186
      7          7           0       -1.644012   -1.691364    0.694052
      8          6           0       -1.620761   -2.334131   -0.450512
      9          7           0       -1.538041   -1.492719   -1.544395
     10          1           0       -1.358700    2.989969   -1.384297
     11          7           0       -1.614363    0.855311    2.438771
     12          1           0       -1.672334   -0.022790    2.931604
     13          1           0       -1.599533    1.744705    2.947635
     14          1           0       -1.660558   -3.412713   -0.565753
     15          1           0       -1.506426   -1.755874   -2.519414
     16          7           0        1.803606   -1.613078   -0.176728
     17          6           0        1.780842   -0.886987    1.030522
     18          7           0        1.840465    0.467171    0.951341
     19          6           0        1.918171    1.086387   -0.236772
     20          6           0        1.941933    0.347328   -1.479154
     21          6           0        1.882070   -1.007136   -1.394753
     22          1           0        1.757981   -2.619677   -0.087937
     23          8           0        1.708120   -1.518066    2.093345
     24          7           0        1.973534    2.422136   -0.236155
     25          1           0        1.956367    2.954884    0.659832
     26          1           0        2.032489    2.920952   -1.110169
     27          1           0        2.004884    0.850092   -2.440503
     28          1           0        1.893279   -1.658666   -2.267576
 ---------------------------------------------------------------------

 SCF Done:  E(RHF) =  -861.113701034     A.U. after    2 cycles

 The electronic state is 1-A.
 Alpha  occ. eigenvalues --  -20.98681 -15.80796 -15.78977 -15.78785 -15.77106
 Alpha  occ. eigenvalues --  -15.73713 -15.72801 -15.71413 -15.69962 -11.53655
 Alpha  occ. eigenvalues --  -11.52773 -11.50154 -11.49952 -11.48330 -11.45141
 Alpha  occ. eigenvalues --  -11.44494 -11.40176 -11.39606  -1.67797  -1.59819
 Alpha  occ. eigenvalues --   -1.49594  -1.46665  -1.39906  -1.38177  -1.28691
 Alpha  occ. eigenvalues --   -1.26573  -1.23952  -1.13797  -1.10494  -0.93067
 Alpha  occ. eigenvalues --   -0.92221  -0.89920  -0.89561  -0.85471  -0.75762
 Alpha  occ. eigenvalues --   -0.75341  -0.72409  -0.71272  -0.69381  -0.67565
 Alpha  occ. eigenvalues --   -0.64316  -0.63734  -0.61833  -0.60932  -0.59108
 Alpha  occ. eigenvalues --   -0.57777  -0.56143  -0.55842  -0.55240  -0.55124
 Alpha  occ. eigenvalues --   -0.50857  -0.48292  -0.46358  -0.45090  -0.43562
 Alpha  occ. eigenvalues --   -0.38557  -0.38476  -0.36159  -0.35506  -0.33568
 Alpha  occ. eigenvalues --   -0.32274  -0.28199  -0.26833  -0.25449
 Alpha virt. eigenvalues --    0.02614   0.03709   0.04059   0.04657   0.05431
 Alpha virt. eigenvalues --    0.05693   0.06124   0.07026   0.07240   0.07914
 Alpha virt. eigenvalues --    0.08891   0.09790   0.10043   0.10270   0.10757

 Mulliken charges:
               1
     1  N   -3.987948
     2  C    0.307557
     3  N   -3.797974
     4  C    4.018614
     5  C    3.243317
     6  C    5.956675
     7  N   -3.889820
     8  C    0.078395
     9  N   -3.890656
    10  H    1.830076
    11  N   -4.334477
    12  H    0.667051
    13  H    0.956305
    14  H    1.873824
    15  H    1.008416
    16  N   -3.210414
    17  C    5.916066
    18  N   -3.840793
    19  C    4.564671
    20  C   -1.286125
    21  C   -0.439372
    22  H    0.849924
    23  O   -3.471391
    24  N   -4.275131
    25  H    0.963964
    26  H    0.713263
    27  H    1.783351
    28  H    1.692630
 Sum of Mulliken charges =  -0.00000

 Dipole moment (field-independent basis, Debye):
    X=              0.0422    Y=             -0.4589    Z=             -4.2304  Tot=              4.2554

 Test job not archived.
 1\1\GINC-SE018\SP\RHF\Aug-CC-pVDZ\C9H10N8O1\OHZDE\08-Apr-2025\0\\#t hf
  aug-cc-pvdz iop(5/13=1,5/36=2,99/5=2) pseudo=read geom=check guess=(r
 ead,tcheck) scf=(maxcycle=1)\\title\\0,1\N,0,-0.214386,-1.993021,0.000
 158\C,0,-1.483458,-1.537649,0.000039\N,0,-1.896987,-0.269765,-0.000126
 \C,0,-0.859092,0.583332,-0.00013\C,0,0.502351,0.258224,0.000025\C,0,0.
 818987,-1.120415,0.000169\N,0,1.293025,1.395362,-0.000018\C,0,0.430884
 ,2.385528,-0.000191\N,0,-0.88463,1.960299,-0.000268\H,0,-2.247335,-2.3
 17004,0.000055\N,0,2.078153,-1.590279,0.000313\H,0,2.839337,-0.928535,

 Normal termination of Gaussian 16 at Tue Apr  8 19:34:09 2025.
