 Gaussian 16, Revision C.01,

 ----------------------------------------------------------------------
 #t hf aug-cc-pvdz symm=none int=(grid=ultrafine) guess=(read,tcheck) s
 table=(opt,rrhf)
 ----------------------------------------------------------------------
 -----
 title
 -----
 Symbolic Z-matrix:
 Charge =  0 Multiplicity = 1

 SCF Done:  E(RHF) =  -857.250249449     A.U. after   16 cycles
 Normal termination of Gaussian 16 at Tue Apr  8 19:31:55 2025.
 Gaussian 16:  ES64L-G16RevC.01  3-Jul-2019

 ----------------------------------------------------------------------
 #t hf aug-cc-pvdz iop(5/13=1,5/36=2,99/5=2) pseudo=read geom=check gue
 ss=(read,tcheck) scf=(maxcycle=1)
 ----------------------------------------------------------------------
 -----
 title
 -----
 Structure from the checkpoint file:  "ACHC_21_dimer_mol1.chk"
 Charge =  0 Multiplicity = 1

                         Standard orientation:
 ---------------------------------------------------------------------
 Center     Atomic      Atomic             Coordinates (Angstroms)
 Number     Number       Type             X           Y           Z
 ---------------------------------------------------------------------
      1          7           0        2.539897    0.505740   -1.141114
      2          6           0        2.276482    1.658619   -0.493510
      3          7           0        1.609720    1.819849    0.650155
      4          6           0        1.189178    0.642242    1.141464
      5          6           0        1.386932   -0.625847    0.582834
      6          6           0        2.109120   -0.671184   -0.632605
      7          7           0        0.813709   -1.616283    1.363026
      8          6           0        0.281488   -0.963486    2.370157
      9          7           0        0.474086    0.403446    2.293987
     10          1           0        2.664608    2.554339   -0.981308
     11          7           0        2.379824   -1.811605   -1.290200
     12          1           0        2.052633   -2.682161   -0.899837
     13          1           0        2.907158   -1.793713   -2.168712
     14          1           0       -0.260500   -1.415264    3.194990
     15          1           0        0.157712    1.104707    2.949008
     16          7           0       -2.410550   -1.122240    0.190308
     17          6           0       -1.684027   -1.079339   -1.016134
     18          7           0       -1.283751    0.137444   -1.466452
     19          6           0       -1.572546    1.255671   -0.782899
     20          6           0       -2.317599    1.218623    0.455570
     21          6           0       -2.715837   -0.000973    0.901973
     22          1           0       -2.695835   -2.041321    0.501932
     23          8           0       -1.450334   -2.146781   -1.598456
     24          7           0       -1.145464    2.417517   -1.287882
     25          1           0       -0.608205    2.444014   -2.180944
     26          1           0       -1.344071    3.277794   -0.801391
     27          1           0       -2.550725    2.124932    1.008003
     28          1           0       -3.281548   -0.142116    1.822019
 ---------------------------------------------------------------------

 SCF Done:  E(RHF) =  -861.109610825     A.U. after    2 cycles

 The electronic state is 1-A.
 Alpha  occ. eigenvalues --  -20.98924 -15.80458 -15.79199 -15.78816 -15.76725
 Alpha  occ. eigenvalues --  -15.73652 -15.72397 -15.71048 -15.70070 -11.53163
 Alpha  occ. eigenvalues --  -11.52762 -11.50565 -11.49558 -11.48487 -11.45223
 Alpha  occ. eigenvalues --  -11.44009 -11.40597 -11.39245  -1.68019  -1.59583
 Alpha  occ. eigenvalues --   -1.49795  -1.46319  -1.40055  -1.37784  -1.28484
 Alpha  occ. eigenvalues --   -1.26698  -1.23537  -1.14192  -1.10203  -0.93367
 Alpha  occ. eigenvalues --   -0.91934  -0.89868  -0.89467  -0.85263  -0.75745
 Alpha  occ. eigenvalues --   -0.75398  -0.72573  -0.70942  -0.69580  -0.67296
 Alpha  occ. eigenvalues --   -0.64141  -0.63912  -0.61613  -0.61109  -0.58767
 Alpha  occ. eigenvalues --   -0.58105  -0.56506  -0.55512  -0.54923  -0.54400
 Alpha  occ. eigenvalues --   -0.51797  -0.47124  -0.46597  -0.44912  -0.44452
 Alpha  occ. eigenvalues --   -0.38445  -0.38301  -0.36335  -0.34214  -0.33495
 Alpha  occ. eigenvalues --   -0.33119  -0.27169  -0.26904  -0.25892
 Alpha virt. eigenvalues --    0.02511   0.03587   0.03985   0.04285   0.05427
 Alpha virt. eigenvalues --    0.06332   0.06448   0.06485   0.07300   0.07901
 Alpha virt. eigenvalues --    0.08595   0.09159   0.09828   0.10336   0.11040

 Mulliken charges:
               1
     1  N   -3.945703
     2  C    0.428699
     3  N   -3.882533
     4  C    4.019560
     5  C    2.753415
     6  C    6.225703
     7  N   -3.831550
     8  C   -0.237890
     9  N   -3.598541
    10  H    1.797460
    11  N   -4.243979
    12  H    0.663717
    13  H    0.948984
    14  H    1.873881
    15  H    1.033932
    16  N   -3.194656
    17  C    6.004713
    18  N   -3.777360
    19  C    4.517018
    20  C   -1.246038
    21  C   -0.389063
    22  H    0.848239
    23  O   -3.511584
    24  N   -4.332177
    25  H    0.942228
    26  H    0.731409
    27  H    1.787005
    28  H    1.615111
 Sum of Mulliken charges =  -0.00000

 Dipole moment (field-independent basis, Debye):
    X=             -2.4304    Y=              2.1272    Z=              4.1814  Tot=              5.2836

 Test job not archived.
 1\1\GINC-SE117\SP\RHF\Aug-CC-pVDZ\C9H10N8O1\OHZDE\08-Apr-2025\0\\#t hf
  aug-cc-pvdz iop(5/13=1,5/36=2,99/5=2) pseudo=read geom=check guess=(r
 ead,tcheck) scf=(maxcycle=1)\\title\\0,1\N,0,-0.214386,-1.993021,0.000
 158\C,0,-1.483458,-1.537649,0.000039\N,0,-1.896987,-0.269765,-0.000126
 \C,0,-0.859092,0.583332,-0.00013\C,0,0.502351,0.258224,0.000025\C,0,0.
 818987,-1.120415,0.000169\N,0,1.293025,1.395362,-0.000018\C,0,0.430884
 ,2.385528,-0.000191\N,0,-0.88463,1.960299,-0.000268\H,0,-2.247335,-2.3
 17004,0.000055\N,0,2.078153,-1.590279,0.000313\H,0,2.839337,-0.928535,

 Normal termination of Gaussian 16 at Tue Apr  8 19:32:48 2025.
