 Gaussian 16, Revision C.01,

 ----------------------------------------------------------------------
 #t hf aug-cc-pvdz symm=none int=(grid=ultrafine) guess=(read,tcheck) s
 table=(opt,rrhf)
 ----------------------------------------------------------------------
 -----
 title
 -----
 Symbolic Z-matrix:
 Charge =  0 Multiplicity = 1

 SCF Done:  E(RHF) =  -857.257053475     A.U. after   16 cycles
 Normal termination of Gaussian 16 at Tue Apr  8 19:26:59 2025.
 Gaussian 16:  ES64L-G16RevC.01  3-Jul-2019

 ----------------------------------------------------------------------
 #t hf aug-cc-pvdz iop(5/13=1,5/36=2,99/5=2) pseudo=read geom=check gue
 ss=(read,tcheck) scf=(maxcycle=1)
 ----------------------------------------------------------------------
 -----
 title
 -----
 Structure from the checkpoint file:  "ACHC_8_dimer_mol1.chk"
 Charge =  0 Multiplicity = 1

                         Standard orientation:
 ---------------------------------------------------------------------
 Center     Atomic      Atomic             Coordinates (Angstroms)
 Number     Number       Type             X           Y           Z
 ---------------------------------------------------------------------
      1          7           0       -2.272941    1.616470    1.185473
      2          6           0       -2.246965    2.152051   -0.051615
      3          7           0       -2.232161    1.509785   -1.220294
      4          6           0       -2.246427    0.177629   -1.046629
      5          6           0       -2.273322   -0.516158    0.168755
      6          6           0       -2.286995    0.273173    1.342498
      7          7           0       -2.281416   -1.886494   -0.032148
      8          6           0       -2.259929   -2.019367   -1.338134
      9          7           0       -2.238139   -0.809541   -2.006898
     10          1           0       -2.237327    3.243024   -0.075836
     11          7           0       -2.312846   -0.245061    2.582271
     12          1           0       -2.323057   -1.248385    2.684957
     13          1           0       -2.321798    0.368338    3.403152
     14          1           0       -2.258641   -2.963797   -1.873159
     15          1           0       -2.219600   -0.661563   -3.006232
     16          7           0        2.722198   -1.576254   -0.031192
     17          6           0        2.709887   -0.718218    1.086307
     18          7           0        2.725201    0.619222    0.852669
     19          6           0        2.751113    1.100913   -0.399682
     20          6           0        2.763864    0.226024   -1.550633
     21          6           0        2.748462   -1.111134   -1.311770
     22          1           0        2.710329   -2.567051    0.172246
     23          8           0        2.685899   -1.225831    2.215420
     24          7           0        2.764924    2.429048   -0.551858
     25          1           0        2.755706    3.059757    0.278222
     26          1           0        2.784430    2.826448   -1.478080
     27          1           0        2.784852    0.617501   -2.564157
     28          1           0        2.756053   -1.857329   -2.105225
 ---------------------------------------------------------------------

 SCF Done:  E(RHF) =  -861.106941885     A.U. after    2 cycles

 The electronic state is 1-A.
 Alpha  occ. eigenvalues --  -20.98992 -15.80793 -15.79374 -15.79272 -15.77410
 Alpha  occ. eigenvalues --  -15.73995 -15.72702 -15.71388 -15.70322 -11.52637
 Alpha  occ. eigenvalues --  -11.52483 -11.50162 -11.49199 -11.48209 -11.45280
 Alpha  occ. eigenvalues --  -11.44033 -11.40487 -11.39348  -1.68114  -1.60078
 Alpha  occ. eigenvalues --   -1.50014  -1.46624  -1.40127  -1.38156  -1.28758
 Alpha  occ. eigenvalues --   -1.26771  -1.23852  -1.14122  -1.10446  -0.93360
 Alpha  occ. eigenvalues --   -0.92258  -0.89899  -0.89858  -0.85525  -0.75852
 Alpha  occ. eigenvalues --   -0.75757  -0.72820  -0.71393  -0.69768  -0.67720
 Alpha  occ. eigenvalues --   -0.64158  -0.64155  -0.61960  -0.61524  -0.59202
 Alpha  occ. eigenvalues --   -0.58222  -0.56603  -0.55972  -0.55192  -0.54373
 Alpha  occ. eigenvalues --   -0.51374  -0.48114  -0.46687  -0.45197  -0.44141
 Alpha  occ. eigenvalues --   -0.38669  -0.38653  -0.36493  -0.34024  -0.33698
 Alpha  occ. eigenvalues --   -0.33547  -0.27811  -0.27107  -0.26110
 Alpha virt. eigenvalues --    0.02552   0.03614   0.03842   0.04073   0.05356
 Alpha virt. eigenvalues --    0.05956   0.06280   0.06391   0.07185   0.07614
 Alpha virt. eigenvalues --    0.08704   0.09240   0.10017   0.10488   0.10952

 Mulliken charges:
               1
     1  N   -3.527750
     2  C    0.293172
     3  N   -3.603166
     4  C    3.271653
     5  C    3.352566
     6  C    4.886326
     7  N   -3.800935
     8  C    0.446922
     9  N   -3.524395
    10  H    1.752777
    11  N   -3.931216
    12  H    0.650867
    13  H    0.948044
    14  H    1.800771
    15  H    0.975784
    16  N   -3.026303
    17  C    5.399157
    18  N   -3.491681
    19  C    3.967951
    20  C   -0.938156
    21  C   -0.283939
    22  H    0.762239
    23  O   -3.344731
    24  N   -3.959675
    25  H    0.921098
    26  H    0.705175
    27  H    1.704605
    28  H    1.592841
 Sum of Mulliken charges =  -0.00000

 Dipole moment (field-independent basis, Debye):
    X=              0.0785    Y=             -1.0740    Z=             -5.6685  Tot=              5.7699

 Test job not archived.
 1\1\GINC-SE368\SP\RHF\Aug-CC-pVDZ\C9H10N8O1\OHZDE\08-Apr-2025\0\\#t hf
  aug-cc-pvdz iop(5/13=1,5/36=2,99/5=2) pseudo=read geom=check guess=(r
 ead,tcheck) scf=(maxcycle=1)\\title\\0,1\N,0,-0.214386,-1.993021,0.000
 158\C,0,-1.483458,-1.537649,0.000039\N,0,-1.896987,-0.269765,-0.000126
 \C,0,-0.859092,0.583332,-0.00013\C,0,0.502351,0.258224,0.000025\C,0,0.
 818987,-1.120415,0.000169\N,0,1.293025,1.395362,-0.000018\C,0,0.430884
 ,2.385528,-0.000191\N,0,-0.88463,1.960299,-0.000268\H,0,-2.247335,-2.3
 17004,0.000055\N,0,2.078153,-1.590279,0.000313\H,0,2.839337,-0.928535,

 Normal termination of Gaussian 16 at Tue Apr  8 19:27:27 2025.
