 Gaussian 16, Revision C.01,

 ----------------------------------------------------------------------
 #t hf aug-cc-pvdz symm=none int=(grid=ultrafine) guess=(read,tcheck) s
 table=(opt,rrhf)
 ----------------------------------------------------------------------
 -----
 title
 -----
 Symbolic Z-matrix:
 Charge =  0 Multiplicity = 1

 SCF Done:  E(RHF) =  -857.235087269     A.U. after   16 cycles
 Normal termination of Gaussian 16 at Tue Apr  8 19:32:41 2025.
 Gaussian 16:  ES64L-G16RevC.01  3-Jul-2019

 ----------------------------------------------------------------------
 #t hf aug-cc-pvdz iop(5/13=1,5/36=2,99/5=2) pseudo=read geom=check gue
 ss=(read,tcheck) scf=(maxcycle=1)
 ----------------------------------------------------------------------
 -----
 title
 -----
 Structure from the checkpoint file:  "ACHC_1_dimer_mol1.chk"
 Charge =  0 Multiplicity = 1

                         Standard orientation:
 ---------------------------------------------------------------------
 Center     Atomic      Atomic             Coordinates (Angstroms)
 Number     Number       Type             X           Y           Z
 ---------------------------------------------------------------------
      1          7           0       -1.358009    1.764235    0.971079
      2          6           0       -1.127246    2.248642   -0.265855
      3          7           0       -1.022088    1.563915   -1.405428
      4          6           0       -1.177977    0.245382   -1.200076
      5          6           0       -1.421117   -0.397274    0.019390
      6          6           0       -1.512580    0.433964    1.160259
      7          7           0       -1.526819   -1.768457   -0.144726
      8          6           0       -1.351844   -1.951774   -1.432940
      9          7           0       -1.136705   -0.774324   -2.124839
     10          1           0       -1.016572    3.333079   -0.317329
     11          7           0       -1.742001   -0.033082    2.399414
     12          1           0       -1.855315   -1.027250    2.526281
     13          1           0       -1.799847    0.609304    3.195767
     14          1           0       -1.367597   -2.912312   -1.938233
     15          1           0       -0.978299   -0.666223   -3.116874
     16          7           0        1.474342   -1.701727    0.202662
     17          6           0        1.397538   -0.804321    1.286149
     18          7           0        1.562546    0.517125    1.021349
     19          6           0        1.790338    0.947310   -0.229304
     20          6           0        1.870305    0.031827   -1.345449
     21          6           0        1.704573   -1.289134   -1.075488
     22          1           0        1.347732   -2.679487    0.428850
     23          8           0        1.184952   -1.265120    2.415580
     24          7           0        1.942690    2.262689   -0.413309
     25          1           0        1.884970    2.922677    0.391672
     26          1           0        2.115199    2.621785   -1.339314
     27          1           0        2.054822    0.381611   -2.357640
     28          1           0        1.745656   -2.062582   -1.841338
 ---------------------------------------------------------------------

 SCF Done:  E(RHF) =  -861.110098568     A.U. after    2 cycles

 The electronic state is 1-A.
 Alpha  occ. eigenvalues --  -20.98724 -15.80721 -15.78666 -15.78460 -15.76501
 Alpha  occ. eigenvalues --  -15.74034 -15.72417 -15.70970 -15.69663 -11.53864
 Alpha  occ. eigenvalues --  -11.53593 -11.50577 -11.50354 -11.48614 -11.45514
 Alpha  occ. eigenvalues --  -11.44517 -11.40201 -11.39646  -1.67922  -1.59782
 Alpha  occ. eigenvalues --   -1.49485  -1.46504  -1.39874  -1.37989  -1.28900
 Alpha  occ. eigenvalues --   -1.26647  -1.23778  -1.13990  -1.10699  -0.93168
 Alpha  occ. eigenvalues --   -0.92175  -0.90050  -0.89392  -0.85619  -0.75575
 Alpha  occ. eigenvalues --   -0.75291  -0.72334  -0.71003  -0.69279  -0.67364
 Alpha  occ. eigenvalues --   -0.65592  -0.63650  -0.61866  -0.60031  -0.58799
 Alpha  occ. eigenvalues --   -0.57754  -0.56115  -0.55801  -0.55533  -0.55086
 Alpha  occ. eigenvalues --   -0.52553  -0.46485  -0.46050  -0.45203  -0.42838
 Alpha  occ. eigenvalues --   -0.39596  -0.38469  -0.36199  -0.34865  -0.33595
 Alpha  occ. eigenvalues --   -0.33272  -0.27387  -0.26833  -0.24742
 Alpha virt. eigenvalues --    0.02648   0.03675   0.03994   0.04295   0.05420
 Alpha virt. eigenvalues --    0.06350   0.06656   0.06758   0.07288   0.07918
 Alpha virt. eigenvalues --    0.08438   0.09704   0.10083   0.10304   0.11001

 Mulliken charges:
               1
     1  N   -4.228636
     2  C    0.391909
     3  N   -3.966271
     4  C    4.539883
     5  C    3.075389
     6  C    6.539080
     7  N   -4.100615
     8  C   -0.293483
     9  N   -3.776272
    10  H    1.788103
    11  N   -4.397137
    12  H    0.631822
    13  H    0.961772
    14  H    1.815293
    15  H    1.003916
    16  N   -3.244575
    17  C    6.365686
    18  N   -3.855923
    19  C    5.014079
    20  C   -1.742366
    21  C   -0.426577
    22  H    0.880817
    23  O   -3.665660
    24  N   -4.352276
    25  H    0.894470
    26  H    0.702029
    27  H    1.794782
    28  H    1.650761
 Sum of Mulliken charges =  -0.00000

 Dipole moment (field-independent basis, Debye):
    X=              0.5759    Y=             -1.1050    Z=             -4.8664  Tot=              5.0234

 Test job not archived.
 1\1\GINC-SE088\SP\RHF\Aug-CC-pVDZ\C9H10N8O1\OHZDE\08-Apr-2025\0\\#t hf
  aug-cc-pvdz iop(5/13=1,5/36=2,99/5=2) pseudo=read geom=check guess=(r
 ead,tcheck) scf=(maxcycle=1)\\title\\0,1\N,0,-0.214386,-1.993021,0.000
 158\C,0,-1.483458,-1.537649,0.000039\N,0,-1.896987,-0.269765,-0.000126
 \C,0,-0.859092,0.583332,-0.00013\C,0,0.502351,0.258224,0.000025\C,0,0.
 818987,-1.120415,0.000169\N,0,1.293025,1.395362,-0.000018\C,0,0.430884
 ,2.385528,-0.000191\N,0,-0.88463,1.960299,-0.000268\H,0,-2.247335,-2.3
 17004,0.000055\N,0,2.078153,-1.590279,0.000313\H,0,2.839337,-0.928535,

 Normal termination of Gaussian 16 at Tue Apr  8 19:33:32 2025.
