 Gaussian 16, Revision C.01,

 ----------------------------------------------------------------------
 #t hf aug-cc-pvdz symm=none int=(grid=ultrafine) guess=(read,tcheck) s
 table=(opt,rrhf)
 ----------------------------------------------------------------------
 -----
 title
 -----
 Symbolic Z-matrix:
 Charge =  0 Multiplicity = 1

 SCF Done:  E(RHF) =  -857.254245211     A.U. after   16 cycles
 Normal termination of Gaussian 16 at Tue Apr  8 19:32:26 2025.
 Gaussian 16:  ES64L-G16RevC.01  3-Jul-2019

 ----------------------------------------------------------------------
 #t hf aug-cc-pvdz iop(5/13=1,5/36=2,99/5=2) pseudo=read geom=check gue
 ss=(read,tcheck) scf=(maxcycle=1)
 ----------------------------------------------------------------------
 -----
 title
 -----
 Structure from the checkpoint file:  "ACHC_52_dimer_mol1.chk"
 Charge =  0 Multiplicity = 1

                         Standard orientation:
 ---------------------------------------------------------------------
 Center     Atomic      Atomic             Coordinates (Angstroms)
 Number     Number       Type             X           Y           Z
 ---------------------------------------------------------------------
      1          7           0       -1.833075    1.222639    1.365066
      2          6           0       -1.757991    2.012600    0.275006
      3          7           0       -1.614138    1.638827   -0.997054
      4          6           0       -1.544816    0.301813   -1.109248
      5          6           0       -1.607894   -0.637776   -0.073672
      6          6           0       -1.761561   -0.121645    1.234341
      7          7           0       -1.503109   -1.931032   -0.558189
      8          6           0       -1.379513   -1.778220   -1.856299
      9          7           0       -1.397421   -0.453468   -2.251402
     10          1           0       -1.825169    3.082034    0.481645
     11          7           0       -1.837960   -0.895264    2.330675
     12          1           0       -1.783224   -1.896165    2.218841
     13          1           0       -1.949237   -0.474433    3.258416
     14          1           0       -1.272328   -2.583770   -2.575885
     15          1           0       -1.318720   -0.093013   -3.192035
     16          7           0        2.305471   -1.387742   -0.161900
     17          6           0        1.868110   -0.822052    1.052139
     18          7           0        1.636975    0.515705    1.075571
     19          6           0        1.820177    1.267164   -0.021164
     20          6           0        2.268749    0.693017   -1.269932
     21          6           0        2.498632   -0.645675   -1.288369
     22          1           0        2.469781   -2.385780   -0.150541
     23          8           0        1.718520   -1.569949    2.027544
     24          7           0        1.572439    2.577186    0.077633
     25          1           0        1.248962    2.991002    0.978204
     26          1           0        1.699178    3.172451   -0.725978
     27          1           0        2.416667    1.302751   -2.157216
     28          1           0        2.838298   -1.178806   -2.175406
 ---------------------------------------------------------------------

 SCF Done:  E(RHF) =  -861.112111497     A.U. after    2 cycles

 The electronic state is 1-A.
 Alpha  occ. eigenvalues --  -20.98885 -15.80484 -15.79166 -15.78767 -15.76515
 Alpha  occ. eigenvalues --  -15.73664 -15.72294 -15.70870 -15.69998 -11.52880
 Alpha  occ. eigenvalues --  -11.52761 -11.50307 -11.49473 -11.48397 -11.45036
 Alpha  occ. eigenvalues --  -11.44014 -11.40432 -11.39185  -1.68024  -1.59549
 Alpha  occ. eigenvalues --   -1.49734  -1.46148  -1.39931  -1.37655  -1.28350
 Alpha  occ. eigenvalues --   -1.26619  -1.23421  -1.13995  -1.10103  -0.93179
 Alpha  occ. eigenvalues --   -0.91826  -0.89744  -0.89429  -0.85160  -0.75563
 Alpha  occ. eigenvalues --   -0.75340  -0.72519  -0.70811  -0.69488  -0.67178
 Alpha  occ. eigenvalues --   -0.63920  -0.63770  -0.61555  -0.61224  -0.58637
 Alpha  occ. eigenvalues --   -0.57997  -0.56389  -0.55400  -0.54871  -0.54176
 Alpha  occ. eigenvalues --   -0.51493  -0.47206  -0.46590  -0.44862  -0.43914
 Alpha  occ. eigenvalues --   -0.38347  -0.38229  -0.36319  -0.34225  -0.33400
 Alpha  occ. eigenvalues --   -0.33077  -0.27470  -0.26955  -0.25567
 Alpha virt. eigenvalues --    0.02663   0.03733   0.04024   0.04106   0.05398
 Alpha virt. eigenvalues --    0.06406   0.06535   0.06688   0.07381   0.07941
 Alpha virt. eigenvalues --    0.08783   0.09328   0.09873   0.10416   0.10951

 Mulliken charges:
               1
     1  N   -3.922773
     2  C    0.329601
     3  N   -3.771618
     4  C    3.831360
     5  C    2.982522
     6  C    5.989331
     7  N   -3.812985
     8  C    0.140875
     9  N   -3.881561
    10  H    1.809502
    11  N   -4.274813
    12  H    0.659537
    13  H    0.960520
    14  H    1.859086
    15  H    1.036561
    16  N   -3.354003
    17  C    5.942551
    18  N   -3.642869
    19  C    4.429207
    20  C   -1.273270
    21  C   -0.208180
    22  H    0.822949
    23  O   -3.477377
    24  N   -4.249463
    25  H    0.950453
    26  H    0.737136
    27  H    1.773080
    28  H    1.614641
 Sum of Mulliken charges =   0.00000

 Dipole moment (field-independent basis, Debye):
    X=              1.2761    Y=              0.1091    Z=             -5.2014  Tot=              5.3568

 Test job not archived.
 1\1\GINC-SE247\SP\RHF\Aug-CC-pVDZ\C9H10N8O1\OHZDE\08-Apr-2025\0\\#t hf
  aug-cc-pvdz iop(5/13=1,5/36=2,99/5=2) pseudo=read geom=check guess=(r
 ead,tcheck) scf=(maxcycle=1)\\title\\0,1\N,0,-0.214386,-1.993021,0.000
 158\C,0,-1.483458,-1.537649,0.000039\N,0,-1.896987,-0.269765,-0.000126
 \C,0,-0.859092,0.583332,-0.00013\C,0,0.502351,0.258224,0.000025\C,0,0.
 818987,-1.120415,0.000169\N,0,1.293025,1.395362,-0.000018\C,0,0.430884
 ,2.385528,-0.000191\N,0,-0.88463,1.960299,-0.000268\H,0,-2.247335,-2.3
 17004,0.000055\N,0,2.078153,-1.590279,0.000313\H,0,2.839337,-0.928535,

 Normal termination of Gaussian 16 at Tue Apr  8 19:33:17 2025.
