 Gaussian 16, Revision C.01,

 ----------------------------------------------------------------------
 #t hf aug-cc-pvdz symm=none int=(grid=ultrafine) guess=(read,tcheck) s
 table=(opt,rrhf)
 ----------------------------------------------------------------------
 -----
 title
 -----
 Symbolic Z-matrix:
 Charge =  0 Multiplicity = 1

 SCF Done:  E(RHF) =  -857.253680696     A.U. after   16 cycles
 Normal termination of Gaussian 16 at Tue Apr  8 19:29:38 2025.
 Gaussian 16:  ES64L-G16RevC.01  3-Jul-2019

 ----------------------------------------------------------------------
 #t hf aug-cc-pvdz iop(5/13=1,5/36=2,99/5=2) pseudo=read geom=check gue
 ss=(read,tcheck) scf=(maxcycle=1)
 ----------------------------------------------------------------------
 -----
 title
 -----
 Structure from the checkpoint file:  "ACHC_12_dimer_mol1.chk"
 Charge =  0 Multiplicity = 1

                         Standard orientation:
 ---------------------------------------------------------------------
 Center     Atomic      Atomic             Coordinates (Angstroms)
 Number     Number       Type             X           Y           Z
 ---------------------------------------------------------------------
      1          7           0        1.382249    1.763685    1.130903
      2          6           0        1.442024    0.780049    2.051118
      3          7           0        1.550990   -0.532103    1.839172
      4          6           0        1.600028   -0.813191    0.526318
      5          6           0        1.548918    0.097292   -0.535582
      6          6           0        1.432913    1.463246   -0.186849
      7          7           0        1.625209   -0.548436   -1.758473
      8          6           0        1.720254   -1.819714   -1.444572
      9          7           0        1.710548   -2.044561   -0.080480
     10          1           0        1.393827    1.121111    3.086616
     11          7           0        1.372137    2.455188   -1.091631
     12          1           0        1.410939    2.217068   -2.070967
     13          1           0        1.288111    3.430951   -0.789952
     14          1           0        1.799849   -2.637317   -2.154074
     15          1           0        1.771881   -2.934083    0.394811
     16          7           0       -1.802362   -1.102228    1.204068
     17          6           0       -1.751031   -1.395067   -0.173172
     18          7           0       -1.816394   -0.352686   -1.040776
     19          6           0       -1.925895    0.909065   -0.596844
     20          6           0       -1.979078    1.216383    0.814897
     21          6           0       -1.913342    0.170220    1.678901
     22          1           0       -1.751712   -1.897472    1.827147
     23          8           0       -1.649654   -2.580083   -0.517560
     24          7           0       -1.984928    1.883622   -1.510104
     25          1           0       -1.946541    1.661806   -2.528060
     26          1           0       -2.067391    2.843412   -1.213124
     27          1           0       -2.067761    2.238579    1.172916
     28          1           0       -1.944855    0.289547    2.761123
 ---------------------------------------------------------------------

 SCF Done:  E(RHF) =  -861.114753632     A.U. after    2 cycles

 The electronic state is 1-A.
 Alpha  occ. eigenvalues --  -20.99003 -15.79658 -15.79073 -15.78886 -15.78132
 Alpha  occ. eigenvalues --  -15.72937 -15.72769 -15.71730 -15.69973 -11.53956
 Alpha  occ. eigenvalues --  -11.52861 -11.49921 -11.49594 -11.48757 -11.44495
 Alpha  occ. eigenvalues --  -11.44363 -11.40010 -11.39467  -1.68190  -1.59250
 Alpha  occ. eigenvalues --   -1.49661  -1.46723  -1.39951  -1.38575  -1.28284
 Alpha  occ. eigenvalues --   -1.26641  -1.23980  -1.13718  -1.10256  -0.93039
 Alpha  occ. eigenvalues --   -0.92052  -0.89869  -0.89441  -0.84737  -0.75767
 Alpha  occ. eigenvalues --   -0.75166  -0.72599  -0.71606  -0.69419  -0.67609
 Alpha  occ. eigenvalues --   -0.63845  -0.63719  -0.61426  -0.60969  -0.59369
 Alpha  occ. eigenvalues --   -0.57752  -0.56078  -0.55792  -0.54993  -0.54655
 Alpha  occ. eigenvalues --   -0.51969  -0.47689  -0.46725  -0.44813  -0.43338
 Alpha  occ. eigenvalues --   -0.39085  -0.38398  -0.36152  -0.34703  -0.33592
 Alpha  occ. eigenvalues --   -0.32931  -0.27856  -0.27092  -0.25479
 Alpha virt. eigenvalues --    0.03037   0.03983   0.04280   0.04934   0.05516
 Alpha virt. eigenvalues --    0.05711   0.06372   0.06584   0.07257   0.07630
 Alpha virt. eigenvalues --    0.09021   0.09883   0.10018   0.10546   0.10722

 Mulliken charges:
               1
     1  N   -3.974236
     2  C   -0.122642
     3  N   -3.785153
     4  C    4.264879
     5  C    2.849755
     6  C    6.885769
     7  N   -3.878081
     8  C    0.016575
     9  N   -3.995271
    10  H    1.792184
    11  N   -4.535512
    12  H    0.662286
    13  H    0.983837
    14  H    1.878006
    15  H    1.032040
    16  N   -3.412091
    17  C    6.010752
    18  N   -3.882592
    19  C    4.547343
    20  C   -1.261457
    21  C   -0.270795
    22  H    0.879935
    23  O   -3.525377
    24  N   -4.298182
    25  H    0.955719
    26  H    0.700168
    27  H    1.805917
    28  H    1.676224
 Sum of Mulliken charges =   0.00000

 Dipole moment (field-independent basis, Debye):
    X=             -0.2147    Y=              2.8540    Z=              0.6329  Tot=              2.9313

 Test job not archived.
 1\1\GINC-SE403\SP\RHF\Aug-CC-pVDZ\C9H10N8O1\OHZDE\08-Apr-2025\0\\#t hf
  aug-cc-pvdz iop(5/13=1,5/36=2,99/5=2) pseudo=read geom=check guess=(r
 ead,tcheck) scf=(maxcycle=1)\\title\\0,1\N,0,-0.214386,-1.993021,0.000
 158\C,0,-1.483458,-1.537649,0.000039\N,0,-1.896987,-0.269765,-0.000126
 \C,0,-0.859092,0.583332,-0.00013\C,0,0.502351,0.258224,0.000025\C,0,0.
 818987,-1.120415,0.000169\N,0,1.293025,1.395362,-0.000018\C,0,0.430884
 ,2.385528,-0.000191\N,0,-0.88463,1.960299,-0.000268\H,0,-2.247335,-2.3
 17004,0.000055\N,0,2.078153,-1.590279,0.000313\H,0,2.839337,-0.928535,

 Normal termination of Gaussian 16 at Tue Apr  8 19:30:17 2025.
