 Gaussian 16, Revision C.01,

 ----------------------------------------------------------------------
 #t hf aug-cc-pvdz symm=none int=(grid=ultrafine) guess=(read,tcheck) s
 table=(opt,rrhf)
 ----------------------------------------------------------------------
 -----
 title
 -----
 Symbolic Z-matrix:
 Charge =  0 Multiplicity = 1

 SCF Done:  E(RHF) =  -193.149201423     A.U. after   12 cycles
 Normal termination of Gaussian 16 at Tue Apr  8 22:20:15 2025.
 Gaussian 16:  ES64L-G16RevC.01  3-Jul-2019

 ----------------------------------------------------------------------
 #t hf aug-cc-pvdz iop(5/13=1,5/36=2,99/5=2) pseudo=read geom=check gue
 ss=(read,tcheck) scf=(maxcycle=1)
 ----------------------------------------------------------------------
 -----
 title
 -----
 Structure from the checkpoint file:  "AlcoholCONF_3_4_mol2.chk"
 Charge =  0 Multiplicity = 1

                         Standard orientation:
 ---------------------------------------------------------------------
 Center     Atomic      Atomic             Coordinates (Angstroms)
 Number     Number       Type             X           Y           Z
 ---------------------------------------------------------------------
      1          6           0        0.001017    0.039104    0.368927
      2          1           0       -0.007490    0.088802    1.462038
      3          6           0        1.315098   -0.546095   -0.090146
      4          1           0        1.445373   -1.549649    0.307759
      5          1           0        2.142690    0.073678    0.243188
      6          1           0        1.335241   -0.594109   -1.176809
      7          6           0       -1.183039   -0.779901   -0.103750
      8          1           0       -1.140690   -1.788120    0.303744
      9          1           0       -2.122094   -0.329372    0.214654
     10          1           0       -1.179940   -0.839892   -1.190000
     11          8           0       -0.047738    1.363272   -0.162407
     12          1           0       -0.889645    1.753835    0.084497
 ---------------------------------------------------------------------

 SCF Done:  E(RHF) =  -194.080823062     A.U. after    2 cycles

 The electronic state is 1-A.
 Alpha  occ. eigenvalues --  -21.05850 -11.43372 -11.38435 -11.34955  -1.70721
 Alpha  occ. eigenvalues --   -1.16570  -1.00962  -0.82594  -0.66732  -0.61004
 Alpha  occ. eigenvalues --   -0.58758  -0.53847  -0.50823  -0.48424  -0.45713
 Alpha  occ. eigenvalues --   -0.39460  -0.31309
 Alpha virt. eigenvalues --    0.03812   0.05725   0.05845   0.05953   0.06315
 Alpha virt. eigenvalues --    0.06533   0.07006   0.07579   0.11774   0.13235
 Alpha virt. eigenvalues --    0.14390   0.15386   0.15906   0.16602   0.17889

 Mulliken charges:
               1
     1  C    0.260309
     2  H    1.601398
     3  C   -3.540220
     4  H    1.243807
     5  H    1.207989
     6  H    1.243788
     7  C   -3.479263
     8  H    1.261942
     9  H    1.168400
    10  H    1.210001
    11  O   -2.949245
    12  H    0.771094
 Sum of Mulliken charges =  -0.00000

 Dipole moment (field-independent basis, Debye):
    X=             -0.4559    Y=             -0.3209    Z=              0.4698  Tot=              0.7291

 Test job not archived.
 1\1\GINC-SE105\SP\RHF\Aug-CC-pVDZ\C3H8O1\OHZDE\08-Apr-2025\0\\#t hf au
 g-cc-pvdz iop(5/13=1,5/36=2,99/5=2) pseudo=read geom=check guess=(read
 ,tcheck) scf=(maxcycle=1)\\title\\0,1\C,0,0.01073,0.01815,0.37272\H,0,
 0.02207,-0.01574,1.46641\C,0,-1.22068,0.76124,-0.08713\H,0,-1.21692,1.
 7791,0.29545\H,0,-2.11848,0.25869,0.26149\H,0,-1.24372,0.79506,-1.1742
 7\C,0,1.28653,0.67008,-0.12074\H,0,1.37816,1.68135,0.27078\H,0,2.16225
 ,0.10685,0.19874\H,0,1.28194,0.71358,-1.20777\O,0,-0.11639,-1.30908,-0
 .13759\H,0,0.67013,-1.80138,0.11007\\Version=ES64L-G16RevC.01\State=1-

 Normal termination of Gaussian 16 at Tue Apr  8 22:20:18 2025.
