 Gaussian 16, Revision C.01,

 ----------------------------------------------------------------------
 #t hf aug-cc-pvdz symm=none int=(grid=ultrafine) guess=(read,tcheck) s
 table=(opt,rrhf)
 ----------------------------------------------------------------------
 -----
 title
 -----
 Symbolic Z-matrix:
 Charge =  0 Multiplicity = 1

 SCF Done:  E(RHF) =  -193.143011922     A.U. after   12 cycles
 Normal termination of Gaussian 16 at Tue Apr  8 22:20:16 2025.
 Gaussian 16:  ES64L-G16RevC.01  3-Jul-2019

 ----------------------------------------------------------------------
 #t hf aug-cc-pvdz iop(5/13=1,5/36=2,99/5=2) pseudo=read geom=check gue
 ss=(read,tcheck) scf=(maxcycle=1)
 ----------------------------------------------------------------------
 -----
 title
 -----
 Structure from the checkpoint file:  "AlcoholCONF_3_5_mol1.chk"
 Charge =  0 Multiplicity = 1

                         Standard orientation:
 ---------------------------------------------------------------------
 Center     Atomic      Atomic             Coordinates (Angstroms)
 Number     Number       Type             X           Y           Z
 ---------------------------------------------------------------------
      1          6           0        0.005506    0.042692    0.365402
      2          8           0        0.099686    1.364532   -0.170817
      3          1           0       -0.668071    1.861254    0.121872
      4          6           0        1.256846   -0.671459   -0.087390
      5          1           0        1.271386   -0.726214   -1.174014
      6          1           0        2.143047   -0.139140    0.246369
      7          1           0        1.279653   -1.682494    0.312664
      8          6           0       -1.270397   -0.670750   -0.098009
      9          1           0       -1.841099   -0.015335   -0.751402
     10          1           0       -1.039194   -1.570872   -0.662726
     11          1           0       -1.905521   -0.953718    0.737562
     12          1           0        0.010576    0.107360    1.456189
 ---------------------------------------------------------------------

 SCF Done:  E(RHF) =  -194.073400823     A.U. after    2 cycles

 The electronic state is 1-A.
 Alpha  occ. eigenvalues --  -21.05801 -11.43761 -11.37879 -11.35011  -1.70586
 Alpha  occ. eigenvalues --   -1.16218  -1.00830  -0.82747  -0.66340  -0.61030
 Alpha  occ. eigenvalues --   -0.58345  -0.54299  -0.50795  -0.48143  -0.45496
 Alpha  occ. eigenvalues --   -0.39320  -0.31138
 Alpha virt. eigenvalues --    0.03842   0.05821   0.05880   0.06158   0.06219
 Alpha virt. eigenvalues --    0.06484   0.06967   0.07513   0.12696   0.13004
 Alpha virt. eigenvalues --    0.14688   0.15263   0.16077   0.16512   0.16884

 Mulliken charges:
               1
     1  C    0.386192
     2  O   -2.958118
     3  H    0.741504
     4  C   -3.591213
     5  H    1.241011
     6  H    1.184922
     7  H    1.185658
     8  C   -3.538557
     9  H    1.238497
    10  H    1.267974
    11  H    1.197428
    12  H    1.644703
 Sum of Mulliken charges =   0.00000

 Dipole moment (field-independent basis, Debye):
    X=             -0.5076    Y=             -0.2485    Z=              0.5069  Tot=              0.7591

 Test job not archived.
 1\1\GINC-SE043\SP\RHF\Aug-CC-pVDZ\C3H8O1\OHZDE\08-Apr-2025\0\\#t hf au
 g-cc-pvdz iop(5/13=1,5/36=2,99/5=2) pseudo=read geom=check guess=(read
 ,tcheck) scf=(maxcycle=1)\\title\\0,1\C,0,0.00335,0.01592,-0.36993\O,0
 ,-0.55278,-1.19737,0.14223\H,0,-1.46034,-1.26293,-0.16418\C,0,1.43731,
 0.03927,0.10346\H,0,1.46093,0.0658,1.19098\H,0,1.96627,-0.84722,-0.234
 84\H,0,1.94585,0.92183,-0.27763\C,0,-0.78327,1.24595,0.09904\H,0,-1.60
 684,0.93412,0.73676\H,0,-0.15822,1.91854,0.68172\H,0,-1.19429,1.80919,
 -0.7349\H,0,-0.00772,-0.02863,-1.46168\\Version=ES64L-G16RevC.01\State

 Normal termination of Gaussian 16 at Tue Apr  8 22:20:20 2025.
