 Gaussian 16, Revision C.01,

 ----------------------------------------------------------------------
 #t hf aug-cc-pvdz symm=none int=(grid=ultrafine) guess=(read,tcheck) s
 table=(opt,rrhf)
 ----------------------------------------------------------------------
 -----
 title
 -----
 Symbolic Z-matrix:
 Charge =  0 Multiplicity = 1

 SCF Done:  E(RHF) =  -193.142099189     A.U. after   12 cycles
 Normal termination of Gaussian 16 at Tue Apr  8 22:20:15 2025.
 Gaussian 16:  ES64L-G16RevC.01  3-Jul-2019

 ----------------------------------------------------------------------
 #t hf aug-cc-pvdz iop(5/13=1,5/36=2,99/5=2) pseudo=read geom=check gue
 ss=(read,tcheck) scf=(maxcycle=1)
 ----------------------------------------------------------------------
 -----
 title
 -----
 Structure from the checkpoint file:  "AlcoholCONF_4_5_mol1.chk"
 Charge =  0 Multiplicity = 1

                         Standard orientation:
 ---------------------------------------------------------------------
 Center     Atomic      Atomic             Coordinates (Angstroms)
 Number     Number       Type             X           Y           Z
 ---------------------------------------------------------------------
      1          6           0        1.876286   -0.122943    0.000022
      2          1           0        2.009869   -0.749081    0.879675
      3          1           0        2.664550    0.624919   -0.000246
      4          6           0        0.500330    0.524499   -0.000035
      5          1           0        0.388467    1.161140    0.879129
      6          6           0       -0.603344   -0.510092   -0.000006
      7          1           0       -0.510346   -1.147097    0.880824
      8          8           0       -1.907937    0.060319   -0.000005
      9          1           0       -1.816490    1.014371    0.000203
     10          1           0       -0.510382   -1.147106   -0.880825
     11          1           0        0.388488    1.161053   -0.879270
     12          1           0        2.009712   -0.749531   -0.879332
 ---------------------------------------------------------------------

 SCF Done:  E(RHF) =  -194.070940914     A.U. after    2 cycles

 The electronic state is 1-A.
 Alpha  occ. eigenvalues --  -21.06030 -11.43123 -11.39722 -11.35613  -1.70130
 Alpha  occ. eigenvalues --   -1.19434  -0.97089  -0.85532  -0.66235  -0.61471
 Alpha  occ. eigenvalues --   -0.56123  -0.55434  -0.53764  -0.47929  -0.47890
 Alpha  occ. eigenvalues --   -0.37545  -0.31331
 Alpha virt. eigenvalues --    0.03890   0.05343   0.05689   0.05912   0.06147
 Alpha virt. eigenvalues --    0.06670   0.07373   0.07850   0.10502   0.13557
 Alpha virt. eigenvalues --    0.14555   0.15369   0.15462   0.16019   0.17115

 Mulliken charges:
               1
     1  C   -3.341525
     2  H    1.237776
     3  H    1.124431
     4  C   -3.332085
     5  H    1.380983
     6  C   -0.539820
     7  H    1.381464
     8  O   -2.725385
     9  H    0.813849
    10  H    1.381512
    11  H    1.380964
    12  H    1.237836
 Sum of Mulliken charges =   0.00000

 Dipole moment (field-independent basis, Debye):
    X=              1.0008    Y=              0.4973    Z=              0.0001  Tot=              1.1176

 Test job not archived.
 1\1\GINC-SE340\SP\RHF\Aug-CC-pVDZ\C3H8O1\OHZDE\08-Apr-2025\0\\#t hf au
 g-cc-pvdz iop(5/13=1,5/36=2,99/5=2) pseudo=read geom=check guess=(read
 ,tcheck) scf=(maxcycle=1)\\title\\0,1\C,0,-0.78198,-1.60898,0.79148\H,
 0,-1.40156,-1.14165,1.55398\H,0,-0.34965,-2.50975,1.21852\C,0,0.2977,-
 0.65256,0.30983\H,0,0.94836,-0.37654,1.14122\C,0,-0.29587,0.60454,-0.2
 867\H,0,-0.91173,1.11004,0.4586\O,0,0.687,1.52508,-0.7492\H,0,1.55181,
 1.14725,-0.58209\H,0,-0.94043,0.34386,-1.12745\H,0,0.91962,-1.14133,-0
 .44189\H,0,-1.43059,-1.90644,-0.0298\\Version=ES64L-G16RevC.01\State=1

 Normal termination of Gaussian 16 at Tue Apr  8 22:20:18 2025.
