 Gaussian 16, Revision C.01,

 ----------------------------------------------------------------------
 #t hf aug-cc-pvdz symm=none int=(grid=ultrafine) guess=(read,tcheck) s
 table=(opt,rrhf)
 ----------------------------------------------------------------------
 -----
 title
 -----
 Symbolic Z-matrix:
 Charge =  0 Multiplicity = 1

 SCF Done:  E(RHF) =  -193.138527668     A.U. after   12 cycles
 Normal termination of Gaussian 16 at Tue Apr  8 22:20:15 2025.
 Gaussian 16:  ES64L-G16RevC.01  3-Jul-2019

 ----------------------------------------------------------------------
 #t hf aug-cc-pvdz iop(5/13=1,5/36=2,99/5=2) pseudo=read geom=check gue
 ss=(read,tcheck) scf=(maxcycle=1)
 ----------------------------------------------------------------------
 -----
 title
 -----
 Structure from the checkpoint file:  "AlcoholCONF_4_20_mol1.chk"
 Charge =  0 Multiplicity = 1

                         Standard orientation:
 ---------------------------------------------------------------------
 Center     Atomic      Atomic             Coordinates (Angstroms)
 Number     Number       Type             X           Y           Z
 ---------------------------------------------------------------------
      1          6           0        1.539620   -0.487328    0.108571
      2          1           0        1.929217   -1.019417   -0.754132
      3          6           0        0.604601    0.662019   -0.292479
      4          1           0        0.493844    0.707389   -1.374085
      5          1           0        1.024157    1.616907    0.022441
      6          6           0       -0.779342    0.532530    0.311551
      7          8           0       -1.494783   -0.586607   -0.195526
      8          1           0       -1.002297   -1.380195    0.025799
      9          1           0       -1.387124    1.397431    0.059442
     10          1           0       -0.708275    0.478538    1.401739
     11          1           0        2.389656   -0.130638    0.683125
     12          1           0        1.029809   -1.220496    0.734021
 ---------------------------------------------------------------------

 SCF Done:  E(RHF) =  -194.068242959     A.U. after    2 cycles

 The electronic state is 1-A.
 Alpha  occ. eigenvalues --  -21.06111 -11.42840 -11.39073 -11.35275  -1.70319
 Alpha  occ. eigenvalues --   -1.18407  -0.98209  -0.83969  -0.66522  -0.63137
 Alpha  occ. eigenvalues --   -0.57214  -0.55667  -0.50164  -0.47693  -0.46246
 Alpha  occ. eigenvalues --   -0.39755  -0.31078
 Alpha virt. eigenvalues --    0.03909   0.05497   0.05906   0.05984   0.06250
 Alpha virt. eigenvalues --    0.06387   0.06697   0.07941   0.11897   0.13918
 Alpha virt. eigenvalues --    0.14080   0.15024   0.15608   0.15870   0.17749

 Mulliken charges:
               1
     1  C   -3.557991
     2  H    1.230274
     3  C   -2.824550
     4  H    1.377033
     5  H    1.318690
     6  C   -1.104442
     7  O   -2.486118
     8  H    0.842301
     9  H    1.265226
    10  H    1.439315
    11  H    1.227651
    12  H    1.272611
 Sum of Mulliken charges =  -0.00000

 Dipole moment (field-independent basis, Debye):
    X=              0.7841    Y=              0.1489    Z=              0.2965  Tot=              0.8514

 Test job not archived.
 1\1\GINC-SE252\SP\RHF\Aug-CC-pVDZ\C3H8O1\OHZDE\08-Apr-2025\0\\#t hf au
 g-cc-pvdz iop(5/13=1,5/36=2,99/5=2) pseudo=read geom=check guess=(read
 ,tcheck) scf=(maxcycle=1)\\title\\0,1\C,0,-1.57452,-0.56012,-0.13399\H
 ,0,-1.94197,-1.115,0.72406\C,0,-0.70161,0.63348,0.27765\H,0,-0.60006,0
 .67977,1.36012\H,0,-1.16715,1.56718,-0.03618\C,0,0.69087,0.57701,-0.31
 794\O,0,1.45905,-0.50653,0.1893\H,0,1.0089,-1.32314,-0.03835\H,0,1.252
 35,1.47056,-0.05848\H,0,0.62945,0.52416,-1.40877\H,0,-2.43797,-0.24458
 ,-0.7126\H,0,-1.02423,-1.26377,-0.75904\\Version=ES64L-G16RevC.01\Stat

 Normal termination of Gaussian 16 at Tue Apr  8 22:20:18 2025.
