 Gaussian 16, Revision C.01,

 ----------------------------------------------------------------------
 #t hf aug-cc-pvdz symm=none int=(grid=ultrafine) guess=(read,tcheck) s
 table=(opt,rrhf)
 ----------------------------------------------------------------------
 -----
 title
 -----
 Symbolic Z-matrix:
 Charge =  0 Multiplicity = 1

 SCF Done:  E(RHF) =  -193.144327222     A.U. after   12 cycles
 Normal termination of Gaussian 16 at Tue Apr  8 22:20:15 2025.
 Gaussian 16:  ES64L-G16RevC.01  3-Jul-2019

 ----------------------------------------------------------------------
 #t hf aug-cc-pvdz iop(5/13=1,5/36=2,99/5=2) pseudo=read geom=check gue
 ss=(read,tcheck) scf=(maxcycle=1)
 ----------------------------------------------------------------------
 -----
 title
 -----
 Structure from the checkpoint file:  "AlcoholCONF_4_15_mol1.chk"
 Charge =  0 Multiplicity = 1

                         Standard orientation:
 ---------------------------------------------------------------------
 Center     Atomic      Atomic             Coordinates (Angstroms)
 Number     Number       Type             X           Y           Z
 ---------------------------------------------------------------------
      1          6           0        1.879589   -0.129098    0.018361
      2          1           0        1.998977   -0.692381    0.941991
      3          1           0        2.677834    0.606758   -0.027899
      4          6           0        0.511605    0.532100   -0.045664
      5          1           0        0.400588    1.236943    0.780591
      6          6           0       -0.602494   -0.491662    0.024317
      7          1           0       -0.514711   -1.074619    0.945477
      8          8           0       -1.897217    0.083210   -0.085066
      9          1           0       -2.012421    0.692663    0.647255
     10          1           0       -0.523197   -1.185302   -0.810069
     11          1           0        0.403427    1.102058   -0.967235
     12          1           0        2.015036   -0.819847   -0.811662
 ---------------------------------------------------------------------

 SCF Done:  E(RHF) =  -194.074770490     A.U. after    2 cycles

 The electronic state is 1-A.
 Alpha  occ. eigenvalues --  -21.06261 -11.42680 -11.39128 -11.35157  -1.70329
 Alpha  occ. eigenvalues --   -1.19054  -0.96921  -0.84814  -0.67055  -0.60661
 Alpha  occ. eigenvalues --   -0.57276  -0.55345  -0.51213  -0.47857  -0.47188
 Alpha  occ. eigenvalues --   -0.39294  -0.30892
 Alpha virt. eigenvalues --    0.03939   0.05252   0.05657   0.05997   0.06282
 Alpha virt. eigenvalues --    0.06625   0.07184   0.08135   0.10645   0.13719
 Alpha virt. eigenvalues --    0.14942   0.15520   0.15673   0.16051   0.17218

 Mulliken charges:
               1
     1  C   -3.446513
     2  H    1.248836
     3  H    1.167995
     4  C   -3.352446
     5  H    1.405280
     6  C   -0.539936
     7  H    1.357106
     8  O   -2.633126
     9  H    0.734657
    10  H    1.416608
    11  H    1.388833
    12  H    1.252706
 Sum of Mulliken charges =  -0.00000

 Dipole moment (field-independent basis, Debye):
    X=              0.6620    Y=              0.2108    Z=              0.4819  Tot=              0.8455

 Test job not archived.
 1\1\GINC-SE362\SP\RHF\Aug-CC-pVDZ\C3H8O1\OHZDE\08-Apr-2025\0\\#t hf au
 g-cc-pvdz iop(5/13=1,5/36=2,99/5=2) pseudo=read geom=check guess=(read
 ,tcheck) scf=(maxcycle=1)\\title\\0,1\C,0,-1.95289,0.13356,0.01479\H,0
 ,-2.07752,0.71653,0.92542\H,0,-2.75155,-0.60244,-0.02078\C,0,-0.58518,
 -0.53001,-0.0265\H,0,-0.48004,-1.21715,0.81529\C,0,0.52946,0.49407,0.0
 2863\H,0,0.43647,1.09663,0.93657\O,0,1.82428,-0.0841,-0.06031\H,0,1.93
 429,-0.67788,0.68556\H,0,0.45608,1.16981,-0.82085\H,0,-0.47178,-1.1196
 ,-0.935\H,0,-2.08245,0.80655,-0.83062\\Version=ES64L-G16RevC.01\State=

 Normal termination of Gaussian 16 at Tue Apr  8 22:20:17 2025.
