 Gaussian 16, Revision C.01,

 ----------------------------------------------------------------------
 #t hf aug-cc-pvdz symm=none int=(grid=ultrafine) guess=(read,tcheck) s
 table=(opt,rrhf)
 ----------------------------------------------------------------------
 -----
 title
 -----
 Symbolic Z-matrix:
 Charge =  0 Multiplicity = 1

 SCF Done:  E(RHF) =  -115.059868479     A.U. after   11 cycles
 Normal termination of Gaussian 16 at Tue Apr  8 22:19:09 2025.
 Gaussian 16:  ES64L-G16RevC.01  3-Jul-2019

 ----------------------------------------------------------------------
 #t hf aug-cc-pvdz iop(5/13=1,5/36=2,99/5=2) pseudo=read geom=check gue
 ss=(read,tcheck) scf=(maxcycle=1)
 ----------------------------------------------------------------------
 -----
 title
 -----
 Structure from the checkpoint file:  "AlcoholCONF_1_2_mol1.chk"
 Charge =  0 Multiplicity = 1

                         Standard orientation:
 ---------------------------------------------------------------------
 Center     Atomic      Atomic             Coordinates (Angstroms)
 Number     Number       Type             X           Y           Z
 ---------------------------------------------------------------------
      1          6           0        0.666866    0.018356   -0.000001
      2          1           0        1.078602   -0.461984   -0.883947
      3          8           0       -0.748412   -0.124226   -0.000002
      4          1           0       -1.144013    0.746055    0.000002
      5          1           0        0.972933    1.061606    0.000013
      6          1           0        1.078576   -0.462000    0.883954
 ---------------------------------------------------------------------

 SCF Done:  E(RHF) =  -115.580281334     A.U. after    2 cycles

 The electronic state is 1-A.
 Alpha  occ. eigenvalues --  -21.06652 -11.39769  -1.69850  -0.97637  -0.63958
 Alpha  occ. eigenvalues --   -0.59614  -0.54155  -0.40987  -0.31637
 Alpha virt. eigenvalues --    0.03390   0.05843   0.06283   0.06605   0.11850
 Alpha virt. eigenvalues --    0.15209   0.15235   0.16051   0.21919   0.22656
 Alpha virt. eigenvalues --    0.24037   0.25916   0.30116   0.33627   0.35229

 Mulliken charges:
               1
     1  C   -2.185544
     2  H    1.191362
     3  O   -2.212192
     4  H    0.816650
     5  H    1.198370
     6  H    1.191354
 Sum of Mulliken charges =  -0.00000

 Dipole moment (field-independent basis, Debye):
    X=              0.4308    Y=              0.8589    Z=             -0.0000  Tot=              0.9608

 Test job not archived.
 1\1\GINC-SE460\SP\RHF\Aug-CC-pVDZ\C1H4O1\OHZDE\08-Apr-2025\0\\#t hf au
 g-cc-pvdz iop(5/13=1,5/36=2,99/5=2) pseudo=read geom=check guess=(read
 ,tcheck) scf=(maxcycle=1)\\title\\0,1\C,0,-0.7295,0.01696,0.00455\H,0,
 -1.11588,-0.45765,0.90292\O,0,0.69028,-0.06969,-0.003\H,0,1.05111,0.81
 525,-0.02693\H,0,-1.07662,1.04703,-0.0181\H,0,-1.12787,-0.50055,-0.864
 42\\Version=ES64L-G16RevC.01\State=1-A\HF=-115.5802813\RMSD=5.855e-02\
 Dipole=-0.1827147,0.3308672,-0.0067861\Quadrupole=-0.2305737,0.8022461
 ,-0.5716724,1.1682717,-0.0307097,-0.0413204\PG=C01 [X(C1H4O1)]\\@

 Normal termination of Gaussian 16 at Tue Apr  8 22:19:10 2025.
