 Gaussian 16, Revision C.01,

 ----------------------------------------------------------------------
 #t hf aug-cc-pvdz symm=none int=(grid=ultrafine) guess=(read,tcheck) s
 table=(opt,rrhf)
 ----------------------------------------------------------------------
 -----
 title
 -----
 Symbolic Z-matrix:
 Charge =  0 Multiplicity = 1

 SCF Done:  E(RHF) =  -115.061684158     A.U. after   11 cycles
 Normal termination of Gaussian 16 at Tue Apr  8 22:19:33 2025.
 Gaussian 16:  ES64L-G16RevC.01  3-Jul-2019

 ----------------------------------------------------------------------
 #t hf aug-cc-pvdz iop(5/13=1,5/36=2,99/5=2) pseudo=read geom=check gue
 ss=(read,tcheck) scf=(maxcycle=1)
 ----------------------------------------------------------------------
 -----
 title
 -----
 Structure from the checkpoint file:  "AlcoholCONF_1_2_mol2.chk"
 Charge =  0 Multiplicity = 1

                         Standard orientation:
 ---------------------------------------------------------------------
 Center     Atomic      Atomic             Coordinates (Angstroms)
 Number     Number       Type             X           Y           Z
 ---------------------------------------------------------------------
      1          6           0        0.664999   -0.020037    0.000001
      2          1           0        1.021604   -0.541567   -0.887450
      3          8           0       -0.746793    0.121822   -0.000002
      4          1           0       -1.135835   -0.753747    0.000014
      5          1           0        1.076978    0.982502   -0.000006
      6          1           0        1.021604   -0.541543    0.887454
 ---------------------------------------------------------------------

 SCF Done:  E(RHF) =  -115.583363048     A.U. after    2 cycles

 The electronic state is 1-A.
 Alpha  occ. eigenvalues --  -21.06777 -11.39671  -1.70018  -0.97560  -0.63827
 Alpha  occ. eigenvalues --   -0.59841  -0.53889  -0.41387  -0.31750
 Alpha virt. eigenvalues --    0.03437   0.05930   0.06118   0.06647   0.11817
 Alpha virt. eigenvalues --    0.14509   0.15976   0.16171   0.21084   0.22184
 Alpha virt. eigenvalues --    0.24949   0.27911   0.28893   0.31392   0.34783

 Mulliken charges:
               1
     1  C   -2.231649
     2  H    1.191070
     3  O   -2.255424
     4  H    0.853217
     5  H    1.251712
     6  H    1.191073
 Sum of Mulliken charges =   0.00000

 Dipole moment (field-independent basis, Debye):
    X=              0.4329    Y=             -0.7233    Z=              0.0000  Tot=              0.8429

 Test job not archived.
 1\1\GINC-SE044\SP\RHF\Aug-CC-pVDZ\C1H4O1\OHZDE\08-Apr-2025\0\\#t hf au
 g-cc-pvdz iop(5/13=1,5/36=2,99/5=2) pseudo=read geom=check guess=(read
 ,tcheck) scf=(maxcycle=1)\\title\\0,1\C,0,-0.72722,-0.02974,0.00436\H,
 0,-1.09164,-0.51041,0.91149\O,0,0.68743,0.07952,-0.00599\H,0,1.05636,-
 0.80419,0.02439\H,0,-1.11618,0.98135,-0.03056\H,0,-1.09965,-0.57474,-0
 .86223\\Version=ES64L-G16RevC.01\State=1-A\HF=-115.583363\RMSD=5.946e-
 02\Dipole=-0.1767791,-0.2803745,0.0109596\Quadrupole=-0.1748023,0.7967
 558,-0.6219535,-1.3393397,0.0465634,-0.0454516\PG=C01 [X(C1H4O1)]\\@

 Normal termination of Gaussian 16 at Tue Apr  8 22:19:35 2025.
