 Gaussian 16, Revision C.01,

 ----------------------------------------------------------------------
 #t hf aug-cc-pvdz symm=none int=(grid=ultrafine) guess=(read,tcheck) s
 table=(opt,rrhf)
 ----------------------------------------------------------------------
 -----
 title
 -----
 Symbolic Z-matrix:
 Charge =  0 Multiplicity = 1

 SCF Done:  E(RHF) =  -193.135272969     A.U. after   12 cycles
 Normal termination of Gaussian 16 at Tue Apr  8 22:20:16 2025.
 Gaussian 16:  ES64L-G16RevC.01  3-Jul-2019

 ----------------------------------------------------------------------
 #t hf aug-cc-pvdz iop(5/13=1,5/36=2,99/5=2) pseudo=read geom=check gue
 ss=(read,tcheck) scf=(maxcycle=1)
 ----------------------------------------------------------------------
 -----
 title
 -----
 Structure from the checkpoint file:  "AlcoholCONF_4_13_mol1.chk"
 Charge =  0 Multiplicity = 1

                         Standard orientation:
 ---------------------------------------------------------------------
 Center     Atomic      Atomic             Coordinates (Angstroms)
 Number     Number       Type             X           Y           Z
 ---------------------------------------------------------------------
      1          6           0       -1.427534   -0.573867   -0.024281
      2          1           0       -1.159262   -1.146247   -0.906839
      3          1           0       -2.500178   -0.396824   -0.040685
      4          6           0       -0.681381    0.752110    0.024661
      5          1           0       -0.995744    1.360537   -0.821379
      6          6           0        0.856942    0.617655    0.002109
      7          1           0        1.262551    1.112866   -0.874639
      8          8           0        1.337893   -0.717366   -0.091575
      9          1           0        1.110507   -1.178119    0.717975
     10          1           0        1.287822    1.105862    0.877257
     11          1           0       -0.981622    1.296077    0.919030
     12          1           0       -1.215380   -1.190607    0.846950
 ---------------------------------------------------------------------

 SCF Done:  E(RHF) =  -194.063713244     A.U. after    2 cycles

 The electronic state is 1-A.
 Alpha  occ. eigenvalues --  -21.06105 -11.42806 -11.38651 -11.34966  -1.70269
 Alpha  occ. eigenvalues --   -1.17685  -0.98112  -0.83181  -0.66449  -0.61908
 Alpha  occ. eigenvalues --   -0.58700  -0.54843  -0.49639  -0.47255  -0.45698
 Alpha  occ. eigenvalues --   -0.39299  -0.31096
 Alpha virt. eigenvalues --    0.03691   0.05544   0.05743   0.06044   0.06246
 Alpha virt. eigenvalues --    0.06354   0.07187   0.08040   0.11233   0.13841
 Alpha virt. eigenvalues --    0.14680   0.15325   0.15572   0.15872   0.17312

 Mulliken charges:
               1
     1  C   -3.307247
     2  H    1.316160
     3  H    1.127236
     4  C   -2.955562
     5  H    1.311410
     6  C   -0.976123
     7  H    1.278808
     8  O   -2.464176
     9  H    0.768956
    10  H    1.304215
    11  H    1.323149
    12  H    1.273174
 Sum of Mulliken charges =   0.00000

 Dipole moment (field-independent basis, Debye):
    X=             -0.3947    Y=              0.3152    Z=              0.4742  Tot=              0.6928

 Test job not archived.
 1\1\GINC-SE227\SP\RHF\Aug-CC-pVDZ\C3H8O1\OHZDE\08-Apr-2025\0\\#t hf au
 g-cc-pvdz iop(5/13=1,5/36=2,99/5=2) pseudo=read geom=check guess=(read
 ,tcheck) scf=(maxcycle=1)\\title\\0,1\C,0,-1.4743,0.57323,0.0138\H,0,-
 1.19627,1.15082,0.88992\H,0,-2.54861,0.40734,0.0365\C,0,-0.74194,-0.76
 071,-0.0263\H,0,-1.05872,-1.35818,0.82662\C,0,0.79776,-0.64182,-0.0116
 9\H,0,1.2022,-1.13318,0.86776\O,0,1.29272,0.689,0.06771\H,0,1.06644,1.
 14469,-0.74501\H,0,1.21973,-1.14234,-0.88422\H,0,-1.0517,-1.30967,-0.9
 1435\H,0,-1.25975,1.17983,-0.86394\\Version=ES64L-G16RevC.01\State=1-A

 Normal termination of Gaussian 16 at Tue Apr  8 22:20:18 2025.
