 Gaussian 16, Revision C.01,

 ----------------------------------------------------------------------
 #t hf aug-cc-pvdz symm=none int=(grid=ultrafine) guess=(read,tcheck) s
 table=(opt,rrhf)
 ----------------------------------------------------------------------
 -----
 title
 -----
 Symbolic Z-matrix:
 Charge =  0 Multiplicity = 1

 SCF Done:  E(RHF) =  -274.430229954     A.U. after   11 cycles
 Normal termination of Gaussian 16 at Tue Apr  8 22:21:20 2025.
 Gaussian 16:  ES64L-G16RevC.01  3-Jul-2019

 ----------------------------------------------------------------------
 #t hf aug-cc-pvdz iop(5/13=1,5/36=2,99/5=2) pseudo=read geom=check gue
 ss=(read,tcheck) scf=(maxcycle=1)
 ----------------------------------------------------------------------
 -----
 title
 -----
 Structure from the checkpoint file:  "AlkAtom19_12_mol1.chk"
 Charge =  0 Multiplicity = 1

                         Standard orientation:
 ---------------------------------------------------------------------
 Center     Atomic      Atomic             Coordinates (Angstroms)
 Number     Number       Type             X           Y           Z
 ---------------------------------------------------------------------
      1          6           0       -2.223705   -0.502453    0.272279
      2          1           0       -2.190337   -0.604336    1.361136
      3          1           0       -2.255742   -1.521228   -0.125243
      4          6           0       -0.943981    0.184455   -0.207392
      5          1           0       -0.975338    0.278518   -1.298374
      6          1           0       -0.923943    1.204745    0.184773
      7          6           0        0.329089   -0.560430    0.197503
      8          1           0        0.387904   -0.611004    1.290959
      9          1           0        0.249780   -1.596374   -0.147579
     10          6           0        1.640954    0.031158   -0.341575
     11          1           0        1.542887    0.113641   -1.430328
     12          6           0        2.814476   -0.908266   -0.049403
     13          1           0        3.747342   -0.516604   -0.458362
     14          1           0        2.952773   -1.034196    1.027404
     15          1           0        2.649082   -1.897312   -0.479868
     16          6           0        1.924764    1.431454    0.210945
     17          1           0        1.137158    2.140379   -0.043141
     18          1           0        2.012998    1.406435    1.300317
     19          1           0        2.861787    1.825040   -0.186558
     20          6           0       -3.495641    0.241443   -0.130289
     21          1           0       -4.389290   -0.273924    0.224158
     22          1           0       -3.509538    1.251503    0.284060
     23          1           0       -3.573259    0.330556   -1.215766
 ---------------------------------------------------------------------

 SCF Done:  E(RHF) =  -275.891102900     A.U. after    2 cycles

 The electronic state is 1-A.
 Alpha  occ. eigenvalues --  -11.42006 -11.41627 -11.39348 -11.37593 -11.36967
 Alpha  occ. eigenvalues --  -11.35195 -11.33242  -1.28734  -1.17963  -1.04487
 Alpha  occ. eigenvalues --   -0.99373  -0.91973  -0.82876  -0.79339  -0.65545
 Alpha  occ. eigenvalues --   -0.61997  -0.59773  -0.58671  -0.56364  -0.53861
 Alpha  occ. eigenvalues --   -0.52657  -0.51263  -0.48936  -0.47891  -0.45300
 Alpha  occ. eigenvalues --   -0.44927  -0.43644  -0.41747  -0.38007
 Alpha virt. eigenvalues --    0.04321   0.04853   0.04970   0.05585   0.05775
 Alpha virt. eigenvalues --    0.05874   0.06210   0.06334   0.06505   0.07212
 Alpha virt. eigenvalues --    0.07862   0.08201   0.08522   0.10406   0.10768

 Mulliken charges:
               1
     1  C   -3.194544
     2  H    1.428311
     3  H    1.460515
     4  C   -2.420771
     5  H    1.540655
     6  H    1.784444
     7  C   -2.467246
     8  H    1.489534
     9  H    1.616656
    10  C   -1.426053
    11  H    1.835973
    12  C   -4.541093
    13  H    1.187942
    14  H    1.343068
    15  H    1.280602
    16  C   -4.118534
    17  H    1.367757
    18  H    1.311299
    19  H    1.277591
    20  C   -4.484097
    21  H    1.069290
    22  H    1.334889
    23  H    1.323811
 Sum of Mulliken charges =  -0.00000

 Dipole moment (field-independent basis, Debye):
    X=             -0.0413    Y=             -0.0437    Z=             -0.1306  Tot=              0.1438

 Test job not archived.
 1\1\GINC-SE250\SP\RHF\Aug-CC-pVDZ\C7H16\OHZDE\08-Apr-2025\0\\#t hf aug
 -cc-pvdz iop(5/13=1,5/36=2,99/5=2) pseudo=read geom=check guess=(read,
 tcheck) scf=(maxcycle=1)\\title\\0,1\C,0,-2.223705,-0.502453,0.272279\
 H,0,-2.190337,-0.604336,1.361136\H,0,-2.255742,-1.521228,-0.125243\C,0
 ,-0.943981,0.184455,-0.207392\H,0,-0.975338,0.278518,-1.298374\H,0,-0.
 923943,1.204745,0.184773\C,0,0.329089,-0.56043,0.197503\H,0,0.387904,-
 0.611004,1.290959\H,0,0.24978,-1.596374,-0.147579\C,0,1.640954,0.03115
 8,-0.341575\H,0,1.542887,0.113641,-1.430328\C,0,2.814476,-0.908266,-0.

 Normal termination of Gaussian 16 at Tue Apr  8 22:21:29 2025.
