 Gaussian 16, Revision C.01,

 ----------------------------------------------------------------------
 #t hf aug-cc-pvdz symm=none int=(grid=ultrafine) guess=(read,tcheck) s
 table=(opt,rrhf)
 ----------------------------------------------------------------------
 -----
 title
 -----
 Symbolic Z-matrix:
 Charge =  0 Multiplicity = 1

 SCF Done:  E(RHF) =  -274.428249510     A.U. after   12 cycles
 Normal termination of Gaussian 16 at Tue Apr  8 22:21:28 2025.
 Gaussian 16:  ES64L-G16RevC.01  3-Jul-2019

 ----------------------------------------------------------------------
 #t hf aug-cc-pvdz iop(5/13=1,5/36=2,99/5=2) pseudo=read geom=check gue
 ss=(read,tcheck) scf=(maxcycle=1)
 ----------------------------------------------------------------------
 -----
 title
 -----
 Structure from the checkpoint file:  "AlkAtom19_16_mol1.chk"
 Charge =  0 Multiplicity = 1

                         Standard orientation:
 ---------------------------------------------------------------------
 Center     Atomic      Atomic             Coordinates (Angstroms)
 Number     Number       Type             X           Y           Z
 ---------------------------------------------------------------------
      1          6           0        1.382083    1.004589    0.000000
      2          1           0        1.838156    0.534367    0.874097
      3          1           0        1.838156    0.534367   -0.874097
      4          6           0       -0.128744    0.758657    0.000000
      5          1           0       -0.560865    1.258825   -0.873638
      6          1           0       -0.560865    1.258825    0.873638
      7          6           0       -0.616963   -0.709861    0.000000
      8          6           0       -0.128744   -1.449918   -1.255413
      9          1           0       -0.536699   -2.462012   -1.288109
     10          1           0        0.957932   -1.533995   -1.280986
     11          1           0       -0.446893   -0.934416   -2.164084
     12          6           0       -2.154131   -0.696002    0.000000
     13          1           0       -2.542626   -0.183102    0.882098
     14          1           0       -2.554912   -1.711469    0.000000
     15          1           0       -2.542626   -0.183102   -0.882098
     16          6           0       -0.128744   -1.449918    1.255413
     17          1           0       -0.536699   -2.462012    1.288109
     18          1           0       -0.446893   -0.934416    2.164084
     19          1           0        0.957932   -1.533995    1.280986
     20          6           0        1.725331    2.494198    0.000000
     21          1           0        1.316043    2.993582    0.880457
     22          1           0        2.804289    2.654502    0.000000
     23          1           0        1.316043    2.993582   -0.880457
 ---------------------------------------------------------------------

 SCF Done:  E(RHF) =  -275.892771446     A.U. after    2 cycles

 The electronic state is 1-A'.
 Alpha  occ. eigenvalues --  -11.42202 -11.40726 -11.38314 -11.38093 -11.37816
 Alpha  occ. eigenvalues --  -11.35657 -11.33386  -1.30675  -1.15678  -0.99923
 Alpha  occ. eigenvalues --   -0.99777  -0.98245  -0.85077  -0.75741  -0.64305
 Alpha  occ. eigenvalues --   -0.62646  -0.59921  -0.59567  -0.55936  -0.54071
 Alpha  occ. eigenvalues --   -0.53545  -0.50564  -0.50410  -0.49054  -0.46239
 Alpha  occ. eigenvalues --   -0.45775  -0.41198  -0.40480  -0.38349
 Alpha virt. eigenvalues --    0.04149   0.04966   0.05080   0.05183   0.05546
 Alpha virt. eigenvalues --    0.05820   0.05944   0.06324   0.06557   0.07841
 Alpha virt. eigenvalues --    0.08274   0.08472   0.08860   0.09308   0.10683

 Mulliken charges:
               1
     1  C   -3.116027
     2  H    1.510406
     3  H    1.510406
     4  C   -3.679090
     5  H    1.487236
     6  H    1.487236
     7  C    6.099338
     8  C   -5.182741
     9  H    1.130002
    10  H    1.441774
    11  H    1.139314
    12  C   -5.305697
    13  H    1.242687
    14  H    1.198814
    15  H    1.242687
    16  C   -5.182741
    17  H    1.130002
    18  H    1.139314
    19  H    1.441774
    20  C   -4.440803
    21  H    1.320507
    22  H    1.065096
    23  H    1.320507
 Sum of Mulliken charges =   0.00000

 Dipole moment (field-independent basis, Debye):
    X=              0.1101    Y=             -0.0526    Z=             -0.0000  Tot=              0.1220

 Test job not archived.
 1\1\GINC-SE460\SP\RHF\Aug-CC-pVDZ\C7H16\OHZDE\08-Apr-2025\0\\#t hf aug
 -cc-pvdz iop(5/13=1,5/36=2,99/5=2) pseudo=read geom=check guess=(read,
 tcheck) scf=(maxcycle=1)\\title\\0,1\C,0,1.382083,1.004589,0.\H,0,1.83
 8156,0.534367,0.874097\H,0,1.838156,0.534367,-0.874097\C,0,-0.128744,0
 .758657,0.\H,0,-0.560865,1.258825,-0.873638\H,0,-0.560865,1.258825,0.8
 73638\C,0,-0.616963,-0.709861,0.\C,0,-0.128744,-1.449918,-1.255413\H,0
 ,-0.536699,-2.462012,-1.288109\H,0,0.957932,-1.533995,-1.280986\H,0,-0
 .446893,-0.934416,-2.164084\C,0,-2.154131,-0.696002,0.\H,0,-2.542626,-

 Normal termination of Gaussian 16 at Tue Apr  8 22:21:34 2025.
