 Gaussian 16, Revision C.01,

 ----------------------------------------------------------------------
 #t hf aug-cc-pvdz symm=none int=(grid=ultrafine) guess=(read,tcheck) s
 table=(opt,rrhf)
 ----------------------------------------------------------------------
 -----
 title
 -----
 Symbolic Z-matrix:
 Charge =  0 Multiplicity = 1

 SCF Done:  E(RHF) =  -313.470418977     A.U. after   11 cycles
 Normal termination of Gaussian 16 at Tue Apr  8 22:21:57 2025.
 Gaussian 16:  ES64L-G16RevC.01  3-Jul-2019

 ----------------------------------------------------------------------
 #t hf aug-cc-pvdz iop(5/13=1,5/36=2,99/5=2) pseudo=read geom=check gue
 ss=(read,tcheck) scf=(maxcycle=1)
 ----------------------------------------------------------------------
 -----
 title
 -----
 Structure from the checkpoint file:  "AlkIsod14_6_mol2.chk"
 Charge =  0 Multiplicity = 1

                         Standard orientation:
 ---------------------------------------------------------------------
 Center     Atomic      Atomic             Coordinates (Angstroms)
 Number     Number       Type             X           Y           Z
 ---------------------------------------------------------------------
      1          6           0       -0.162804    1.957862    0.000000
      2          1           0       -0.816690    2.044788    0.874380
      3          1           0       -0.816690    2.044788   -0.874380
      4          6           0        0.498460    0.579577    0.000000
      5          1           0        1.151912    0.493203   -0.874479
      6          1           0        1.151912    0.493203    0.874479
      7          6           0       -0.498460   -0.579577    0.000000
      8          1           0       -1.151912   -0.493203   -0.874479
      9          1           0       -1.151912   -0.493203    0.874479
     10          6           0        0.162804   -1.957862    0.000000
     11          1           0        0.816690   -2.044788    0.874380
     12          1           0        0.816690   -2.044788   -0.874380
     13          6           0       -0.832656   -3.117803    0.000000
     14          1           0       -1.485721   -3.031747   -0.873746
     15          1           0       -1.485721   -3.031747    0.873746
     16          6           0       -0.162804   -4.490823    0.000000
     17          1           0        0.469428   -4.621287    0.880573
     18          1           0       -0.900043   -5.294738    0.000000
     19          1           0        0.469428   -4.621287   -0.880573
     20          6           0        0.832656    3.117803    0.000000
     21          1           0        1.485721    3.031747   -0.873746
     22          1           0        1.485721    3.031747    0.873746
     23          6           0        0.162804    4.490823    0.000000
     24          1           0       -0.469428    4.621287    0.880573
     25          1           0        0.900043    5.294738    0.000000
     26          1           0       -0.469428    4.621287   -0.880573
 ---------------------------------------------------------------------

 SCF Done:  E(RHF) =  -315.134035539     A.U. after    2 cycles

 The electronic state is 1-AG.
 Alpha  occ. eigenvalues --  -11.42162 -11.41922 -11.40492 -11.39008 -11.37119
 Alpha  occ. eigenvalues --  -11.35825 -11.34817 -11.33154  -1.28404  -1.20433
 Alpha  occ. eigenvalues --   -1.11155  -1.01991  -0.93472  -0.85858  -0.81663
 Alpha  occ. eigenvalues --   -0.81595  -0.66510  -0.63326  -0.59207  -0.58956
 Alpha  occ. eigenvalues --   -0.57119  -0.55774  -0.54300  -0.52222  -0.49853
 Alpha  occ. eigenvalues --   -0.47128  -0.46802  -0.46388  -0.44679  -0.44501
 Alpha  occ. eigenvalues --   -0.44083  -0.43857  -0.36747
 Alpha virt. eigenvalues --    0.04260   0.04646   0.04752   0.05548   0.05642
 Alpha virt. eigenvalues --    0.05937   0.06085   0.06594   0.06628   0.07187
 Alpha virt. eigenvalues --    0.07235   0.07602   0.08695   0.09249   0.10016

 Mulliken charges:
               1
     1  C   -2.628204
     2  H    1.586068
     3  H    1.586068
     4  C   -2.223165
     5  H    1.586153
     6  H    1.586153
     7  C   -2.223165
     8  H    1.586153
     9  H    1.586153
    10  C   -2.628204
    11  H    1.586068
    12  H    1.586068
    13  C   -3.515952
    14  H    1.487649
    15  H    1.487649
    16  C   -4.728348
    17  H    1.347222
    18  H    1.081487
    19  H    1.347222
    20  C   -3.515952
    21  H    1.487649
    22  H    1.487649
    23  C   -4.728348
    24  H    1.347222
    25  H    1.081487
    26  H    1.347222
 Sum of Mulliken charges =  -0.00000

 Dipole moment (field-independent basis, Debye):
    X=              0.0000    Y=             -0.0000    Z=             -0.0000  Tot=              0.0000

 Test job not archived.
 1\1\GINC-SE071\SP\RHF\Aug-CC-pVDZ\C8H18\OHZDE\08-Apr-2025\0\\#t hf aug
 -cc-pvdz iop(5/13=1,5/36=2,99/5=2) pseudo=read geom=check guess=(read,
 tcheck) scf=(maxcycle=1)\\title\\0,1\C,0,-0.162804,1.957862,0.\H,0,-0.
 81669,2.044788,0.87438\H,0,-0.81669,2.044788,-0.87438\C,0,0.49846,0.57
 9577,0.\H,0,1.151912,0.493203,-0.874479\H,0,1.151912,0.493203,0.874479
 \C,0,-0.49846,-0.579577,0.\H,0,-1.151912,-0.493203,-0.874479\H,0,-1.15
 1912,-0.493203,0.874479\C,0,0.162804,-1.957862,0.\H,0,0.81669,-2.04478
 8,0.87438\H,0,0.81669,-2.044788,-0.87438\C,0,-0.832656,-3.117803,0.\H,

 Normal termination of Gaussian 16 at Tue Apr  8 22:22:07 2025.
