 Gaussian 16, Revision C.01,

 ----------------------------------------------------------------------
 #t hf aug-cc-pvdz symm=none int=(grid=ultrafine) guess=(read,tcheck) s
 table=(opt,rrhf)
 ----------------------------------------------------------------------
 -----
 title
 -----
 Symbolic Z-matrix:
 Charge =  0 Multiplicity = 1

 SCF Done:  E(RHF) =  -235.388223870     A.U. after   11 cycles
 Normal termination of Gaussian 16 at Tue Apr  8 22:21:18 2025.
 Gaussian 16:  ES64L-G16RevC.01  3-Jul-2019

 ----------------------------------------------------------------------
 #t hf aug-cc-pvdz iop(5/13=1,5/36=2,99/5=2) pseudo=read geom=check gue
 ss=(read,tcheck) scf=(maxcycle=1)
 ----------------------------------------------------------------------
 -----
 title
 -----
 Structure from the checkpoint file:  "AlkIsomer11_6_mol1.chk"
 Charge =  0 Multiplicity = 1

                         Standard orientation:
 ---------------------------------------------------------------------
 Center     Atomic      Atomic             Coordinates (Angstroms)
 Number     Number       Type             X           Y           Z
 ---------------------------------------------------------------------
      1          6           0       -0.231425    0.739197   -0.000000
      2          1           0       -1.328653    0.732002   -0.000000
      3          6           0        0.231425   -0.739197   -0.000000
      4          1           0        1.328653   -0.732002   -0.000000
      5          6           0       -0.231425   -1.496131    1.250811
      6          1           0        0.179825   -1.077166    2.167609
      7          1           0       -1.321376   -1.479009    1.333715
      8          1           0        0.077206   -2.541463    1.202345
      9          6           0       -0.231425   -1.496131   -1.250811
     10          1           0        0.179825   -1.077166   -2.167609
     11          1           0        0.077206   -2.541463   -1.202345
     12          1           0       -1.321376   -1.479009   -1.333715
     13          6           0        0.231425    1.496131   -1.250811
     14          1           0        1.321376    1.479009   -1.333715
     15          1           0       -0.179825    1.077166   -2.167609
     16          1           0       -0.077206    2.541463   -1.202345
     17          6           0        0.231425    1.496131    1.250811
     18          1           0       -0.179825    1.077166    2.167609
     19          1           0        1.321376    1.479009    1.333715
     20          1           0       -0.077206    2.541463    1.202345
 ---------------------------------------------------------------------

 SCF Done:  E(RHF) =  -236.648533455     A.U. after    2 cycles

 The electronic state is 1-AG.
 Alpha  occ. eigenvalues --  -11.41759 -11.39761 -11.38052 -11.37447 -11.36123
 Alpha  occ. eigenvalues --  -11.33397  -1.29037  -1.11657  -1.00734  -0.97747
 Alpha  occ. eigenvalues --   -0.88040  -0.77863  -0.63111  -0.62168  -0.59249
 Alpha  occ. eigenvalues --   -0.57732  -0.54521  -0.53129  -0.52420  -0.50122
 Alpha  occ. eigenvalues --   -0.47600  -0.46548  -0.43264  -0.40184  -0.39184
 Alpha virt. eigenvalues --    0.04448   0.05266   0.05407   0.05692   0.05780
 Alpha virt. eigenvalues --    0.05871   0.05917   0.06294   0.06577   0.08249
 Alpha virt. eigenvalues --    0.08635   0.09072   0.09112   0.11764   0.12743

 Mulliken charges:
               1
     1  C   -1.091197
     2  H    1.751123
     3  C   -1.091197
     4  H    1.751123
     5  C   -4.178391
     6  H    1.405961
     7  H    1.283256
     8  H    1.159212
     9  C   -4.178391
    10  H    1.405961
    11  H    1.159212
    12  H    1.283256
    13  C   -4.178391
    14  H    1.283256
    15  H    1.405961
    16  H    1.159212
    17  C   -4.178391
    18  H    1.405961
    19  H    1.283256
    20  H    1.159212
 Sum of Mulliken charges =   0.00000

 Dipole moment (field-independent basis, Debye):
    X=              0.0000    Y=             -0.0000    Z=             -0.0000  Tot=              0.0000

 Test job not archived.
 1\1\GINC-SE227\SP\RHF\Aug-CC-pVDZ\C6H14\OHZDE\08-Apr-2025\0\\#t hf aug
 -cc-pvdz iop(5/13=1,5/36=2,99/5=2) pseudo=read geom=check guess=(read,
 tcheck) scf=(maxcycle=1)\\title\\0,1\C,0,0.341702,-0.695133,0.\H,0,1.4
 24935,-0.520295,0.\C,0,-0.341702,0.695133,0.\H,0,-1.424935,0.520295,0.
 \C,0,0.,1.513924,1.250811\H,0,-0.342372,1.037017,2.167609\H,0,1.079758
 ,1.663618,1.333715\H,0,-0.464798,2.499792,1.202345\C,0,0.,1.513924,-1.
 250811\H,0,-0.342372,1.037017,-2.167609\H,0,-0.464798,2.499792,-1.2023
 45\H,0,1.079758,1.663618,-1.333715\C,0,0.,-1.513924,-1.250811\H,0,-1.0

 Normal termination of Gaussian 16 at Tue Apr  8 22:21:23 2025.
