 Gaussian 16, Revision C.01,

 ----------------------------------------------------------------------
 #t hf aug-cc-pvdz symm=none int=(grid=ultrafine) guess=(read,tcheck) s
 table=(opt,rrhf)
 ----------------------------------------------------------------------
 -----
 title
 -----
 Symbolic Z-matrix:
 Charge =  0 Multiplicity = 1

 SCF Done:  E(RHF) =  -196.352767030     A.U. after   11 cycles
 Normal termination of Gaussian 16 at Tue Apr  8 22:20:33 2025.
 Gaussian 16:  ES64L-G16RevC.01  3-Jul-2019

 ----------------------------------------------------------------------
 #t hf aug-cc-pvdz iop(5/13=1,5/36=2,99/5=2) pseudo=read geom=check gue
 ss=(read,tcheck) scf=(maxcycle=1)
 ----------------------------------------------------------------------
 -----
 title
 -----
 Structure from the checkpoint file:  "AlkIsomer11_2_mol1.chk"
 Charge =  0 Multiplicity = 1

                         Standard orientation:
 ---------------------------------------------------------------------
 Center     Atomic      Atomic             Coordinates (Angstroms)
 Number     Number       Type             X           Y           Z
 ---------------------------------------------------------------------
      1          6           0       -1.732520   -0.825958   -0.014263
      2          1           0       -1.632654   -1.853327   -0.368339
      3          1           0       -1.914580   -0.862324    1.062815
      4          1           0       -2.618015   -0.394676   -0.483962
      5          6           0       -0.479826   -0.002843   -0.326868
      6          1           0       -0.341364   -0.003790   -1.414473
      7          6           0        0.764362   -0.654721    0.296340
      8          1           0        0.771229   -1.713876    0.023800
      9          1           0        0.668545   -0.624776    1.387049
     10          6           0        2.097043   -0.031778   -0.117649
     11          1           0        2.187352    1.002398    0.215260
     12          1           0        2.934810   -0.584672    0.309156
     13          1           0        2.214892   -0.041761   -1.203393
     14          6           0       -0.666711    1.449732    0.121089
     15          1           0       -0.787728    1.506790    1.206063
     16          1           0        0.181157    2.077458   -0.152585
     17          1           0       -1.557733    1.885958   -0.333288
 ---------------------------------------------------------------------

 SCF Done:  E(RHF) =  -197.403543827     A.U. after    2 cycles

 The electronic state is 1-A.
 Alpha  occ. eigenvalues --  -11.41127 -11.39307 -11.37531 -11.36169 -11.33428
 Alpha  occ. eigenvalues --   -1.26661  -1.08553  -0.99396  -0.90221  -0.79143
 Alpha  occ. eigenvalues --   -0.63950  -0.60470  -0.58895  -0.56063  -0.52873
 Alpha  occ. eigenvalues --   -0.52511  -0.48742  -0.48020  -0.43756  -0.41934
 Alpha  occ. eigenvalues --   -0.40408
 Alpha virt. eigenvalues --    0.04222   0.05355   0.05671   0.05789   0.05904
 Alpha virt. eigenvalues --    0.06232   0.06389   0.06485   0.06710   0.08797
 Alpha virt. eigenvalues --    0.09188   0.09635   0.13406   0.13516   0.13960

 Mulliken charges:
               1
     1  C   -4.043517
     2  H    1.279621
     3  H    1.332089
     4  H    1.214072
     5  C   -1.404839
     6  H    1.798423
     7  C   -3.068336
     8  H    1.451356
     9  H    1.444390
    10  C   -3.767971
    11  H    1.428190
    12  H    1.068482
    13  H    1.242856
    14  C   -3.909051
    15  H    1.298619
    16  H    1.389930
    17  H    1.245688
 Sum of Mulliken charges =   0.00000

 Dipole moment (field-independent basis, Debye):
    X=              0.0535    Y=             -0.0580    Z=             -0.1282  Tot=              0.1506

 Test job not archived.
 1\1\GINC-SE073\SP\RHF\Aug-CC-pVDZ\C5H12\OHZDE\08-Apr-2025\0\\#t hf aug
 -cc-pvdz iop(5/13=1,5/36=2,99/5=2) pseudo=read geom=check guess=(read,
 tcheck) scf=(maxcycle=1)\\title\\0,1\C,0,-1.732561,-0.825763,-0.019573
 \H,0,-1.634022,-1.847963,-0.388664\H,0,-1.910585,-0.877524,1.057549\H,
 0,-2.619809,-0.387861,-0.479742\C,0,-0.481047,0.001802,-0.325076\H,0,-
 0.34666,0.016402,-1.413094\C,0,0.765467,-0.658847,0.28409\H,0,0.771313
 ,-1.714,-0.003579\H,0,0.673736,-0.644495,1.375467\C,0,2.096588,-0.0299
 81,-0.125945\H,0,2.188143,0.999337,0.221366\H,0,2.935948,-0.588872,0.2

 Normal termination of Gaussian 16 at Tue Apr  8 22:20:38 2025.
