 Gaussian 16, Revision C.01,

 ----------------------------------------------------------------------
 #t hf aug-cc-pvdz symm=none int=(grid=ultrafine) guess=(read,tcheck) s
 table=(opt,rrhf)
 ----------------------------------------------------------------------
 -----
 title
 -----
 Symbolic Z-matrix:
 Charge =  0 Multiplicity = 1

 SCF Done:  E(RHF) =  -196.355002143     A.U. after   10 cycles
 Normal termination of Gaussian 16 at Tue Apr  8 22:21:05 2025.
 Gaussian 16:  ES64L-G16RevC.01  3-Jul-2019

 ----------------------------------------------------------------------
 #t hf aug-cc-pvdz iop(5/13=1,5/36=2,99/5=2) pseudo=read geom=check gue
 ss=(read,tcheck) scf=(maxcycle=1)
 ----------------------------------------------------------------------
 -----
 title
 -----
 Structure from the checkpoint file:  "AlkIsomer11_3_mol1.chk"
 Charge =  0 Multiplicity = 1

                         Standard orientation:
 ---------------------------------------------------------------------
 Center     Atomic      Atomic             Coordinates (Angstroms)
 Number     Number       Type             X           Y           Z
 ---------------------------------------------------------------------
      1          6           0        0.000000    0.000000    0.000000
      2          6           0        0.886824    0.886824    0.886824
      3          6           0       -0.886824   -0.886824    0.886824
      4          6           0       -0.886824    0.886824   -0.886824
      5          6           0        0.886824   -0.886824   -0.886824
      6          1           0        1.529595    1.529595    0.281953
      7          1           0        0.281953    1.529595    1.529595
      8          1           0        1.529595    0.281953    1.529595
      9          1           0       -1.529595   -1.529595    0.281953
     10          1           0       -0.281953   -1.529595    1.529595
     11          1           0       -1.529595   -0.281953    1.529595
     12          1           0       -1.529595    0.281953   -1.529595
     13          1           0       -1.529595    1.529595   -0.281953
     14          1           0       -0.281953    1.529595   -1.529595
     15          1           0        0.281953   -1.529595   -1.529595
     16          1           0        1.529595   -0.281953   -1.529595
     17          1           0        1.529595   -1.529595   -0.281953
 ---------------------------------------------------------------------

 SCF Done:  E(RHF) =  -197.405701731     A.U. after    2 cycles

 The electronic state is 1-A1.
 Alpha  occ. eigenvalues --  -11.39728 -11.37819 -11.37819 -11.37819 -11.33450
 Alpha  occ. eigenvalues --   -1.28630  -0.99747  -0.99747  -0.99747  -0.76431
 Alpha  occ. eigenvalues --   -0.61344  -0.61344  -0.61344  -0.54931  -0.54931
 Alpha  occ. eigenvalues --   -0.50431  -0.50431  -0.50431  -0.41426  -0.41426
 Alpha  occ. eigenvalues --   -0.41426
 Alpha virt. eigenvalues --    0.03775   0.05673   0.05673   0.05673   0.06288
 Alpha virt. eigenvalues --    0.06288   0.06354   0.06354   0.06354   0.09272
 Alpha virt. eigenvalues --    0.09272   0.09272   0.11496   0.13701   0.13701

 Mulliken charges:
               1
     1  C    2.909806
     2  C   -4.451639
     3  C   -4.451639
     4  C   -4.451639
     5  C   -4.451639
     6  H    1.241396
     7  H    1.241396
     8  H    1.241396
     9  H    1.241396
    10  H    1.241396
    11  H    1.241396
    12  H    1.241396
    13  H    1.241396
    14  H    1.241396
    15  H    1.241396
    16  H    1.241396
    17  H    1.241396
 Sum of Mulliken charges =  -0.00000

 Dipole moment (field-independent basis, Debye):
    X=             -0.0000    Y=              0.0000    Z=             -0.0000  Tot=              0.0000

 Test job not archived.
 1\1\GINC-SE097\SP\RHF\Aug-CC-pVDZ\C5H12\OHZDE\08-Apr-2025\0\\#t hf aug
 -cc-pvdz iop(5/13=1,5/36=2,99/5=2) pseudo=read geom=check guess=(read,
 tcheck) scf=(maxcycle=1)\\title\\0,1\C,0,0.,0.,0.\C,0,0.886824,0.88682
 4,0.886824\C,0,-0.886824,-0.886824,0.886824\C,0,-0.886824,0.886824,-0.
 886824\C,0,0.886824,-0.886824,-0.886824\H,0,1.529595,1.529595,0.281953
 \H,0,0.281953,1.529595,1.529595\H,0,1.529595,0.281953,1.529595\H,0,-1.
 529595,-1.529595,0.281953\H,0,-0.281953,-1.529595,1.529595\H,0,-1.5295
 95,-0.281953,1.529595\H,0,-1.529595,0.281953,-1.529595\H,0,-1.529595,1

 Normal termination of Gaussian 16 at Tue Apr  8 22:21:08 2025.
