 Gaussian 16, Revision C.01,

 ----------------------------------------------------------------------
 #t hf aug-cc-pvdz symm=none int=(grid=ultrafine) guess=(read,tcheck) s
 table=(opt,rrhf)
 ----------------------------------------------------------------------
 -----
 title
 -----
 Symbolic Z-matrix:
 Charge =  0 Multiplicity = 1

 SCF Done:  E(RHF) =  -235.389323177     A.U. after   11 cycles
 Normal termination of Gaussian 16 at Tue Apr  8 22:21:58 2025.
 Gaussian 16:  ES64L-G16RevC.01  3-Jul-2019

 ----------------------------------------------------------------------
 #t hf aug-cc-pvdz iop(5/13=1,5/36=2,99/5=2) pseudo=read geom=check gue
 ss=(read,tcheck) scf=(maxcycle=1)
 ----------------------------------------------------------------------
 -----
 title
 -----
 Structure from the checkpoint file:  "AlkIsomer11_7_mol1.chk"
 Charge =  0 Multiplicity = 1

                         Standard orientation:
 ---------------------------------------------------------------------
 Center     Atomic      Atomic             Coordinates (Angstroms)
 Number     Number       Type             X           Y           Z
 ---------------------------------------------------------------------
      1          6           0       -0.332728   -0.121350    2.575521
      2          1           0       -1.063912   -0.932242    2.551099
      3          1           0        0.640901   -0.559786    2.794486
      4          1           0       -0.590828    0.528927    3.412444
      5          6           0       -0.332728    0.658684    1.260911
      6          1           0       -1.299837    1.157066    1.150568
      7          1           0        0.414324    1.458052    1.310992
      8          6           0       -0.075942   -0.183404    0.000000
      9          1           0       -0.804036   -1.004805   -0.000000
     10          6           0       -0.332728    0.658684   -1.260911
     11          1           0        0.414324    1.458052   -1.310992
     12          1           0       -1.299837    1.157066   -1.150568
     13          6           0       -0.332728   -0.121350   -2.575521
     14          1           0       -0.590828    0.528927   -3.412444
     15          1           0        0.640901   -0.559786   -2.794486
     16          1           0       -1.063912   -0.932242   -2.551099
     17          6           0        1.327529   -0.797769    0.000000
     18          1           0        2.089957   -0.013988    0.000000
     19          1           0        1.494365   -1.423101    0.876573
     20          1           0        1.494365   -1.423101   -0.876573
 ---------------------------------------------------------------------

 SCF Done:  E(RHF) =  -236.646117444     A.U. after    2 cycles

 The electronic state is 1-A'.
 Alpha  occ. eigenvalues --  -11.41302 -11.41086 -11.38532 -11.36646 -11.35840
 Alpha  occ. eigenvalues --  -11.33333  -1.28168  -1.11904  -1.04705  -0.94298
 Alpha  occ. eigenvalues --   -0.86470  -0.78840  -0.64429  -0.61982  -0.59077
 Alpha  occ. eigenvalues --   -0.57311  -0.54797  -0.52530  -0.52013  -0.49466
 Alpha  occ. eigenvalues --   -0.46843  -0.46708  -0.43533  -0.41193  -0.38855
 Alpha virt. eigenvalues --    0.04232   0.05116   0.05240   0.05647   0.05841
 Alpha virt. eigenvalues --    0.06171   0.06205   0.06272   0.06556   0.08433
 Alpha virt. eigenvalues --    0.08500   0.08766   0.09368   0.11226   0.13320

 Mulliken charges:
               1
     1  C   -4.186014
     2  H    1.242870
     3  H    1.436592
     4  H    1.049914
     5  C   -3.044844
     6  H    1.462348
     7  H    1.427365
     8  C   -0.408205
     9  H    1.931978
    10  C   -3.044844
    11  H    1.427365
    12  H    1.462348
    13  C   -4.186014
    14  H    1.049914
    15  H    1.436592
    16  H    1.242870
    17  C   -4.356282
    18  H    1.279981
    19  H    1.388031
    20  H    1.388031
 Sum of Mulliken charges =   0.00000

 Dipole moment (field-independent basis, Debye):
    X=             -0.1141    Y=              0.0404    Z=              0.0000  Tot=              0.1211

 Test job not archived.
 1\1\GINC-SE015\SP\RHF\Aug-CC-pVDZ\C6H14\OHZDE\08-Apr-2025\0\\#t hf aug
 -cc-pvdz iop(5/13=1,5/36=2,99/5=2) pseudo=read geom=check guess=(read,
 tcheck) scf=(maxcycle=1)\\title\\0,1\C,0,-0.332728,-0.12135,2.575521\H
 ,0,-1.063912,-0.932242,2.551099\H,0,0.640901,-0.559786,2.794486\H,0,-0
 .590828,0.528927,3.412444\C,0,-0.332728,0.658684,1.260911\H,0,-1.29983
 7,1.157066,1.150568\H,0,0.414324,1.458052,1.310992\C,0,-0.075942,-0.18
 3404,0.\H,0,-0.804036,-1.004805,0.\C,0,-0.332728,0.658684,-1.260911\H,
 0,0.414324,1.458052,-1.310992\H,0,-1.299837,1.157066,-1.150568\C,0,-0.

 Normal termination of Gaussian 16 at Tue Apr  8 22:22:05 2025.
