 Gaussian 16, Revision C.01,

 ----------------------------------------------------------------------
 #t hf aug-cc-pvdz symm=none int=(grid=ultrafine) guess=(read,tcheck) s
 table=(opt,rrhf)
 ----------------------------------------------------------------------
 -----
 title
 -----
 Symbolic Z-matrix:
 Charge =  0 Multiplicity = 1

 SCF Done:  E(RHF) =  -276.586149038     A.U. after   15 cycles
 Normal termination of Gaussian 16 at Tue Apr  8 21:31:29 2025.
 Gaussian 16:  ES64L-G16RevC.01  3-Jul-2019

 ----------------------------------------------------------------------
 #t hf aug-cc-pvdz iop(5/13=1,5/36=2,99/5=2) pseudo=read geom=check gue
 ss=(read,tcheck) scf=(maxcycle=1)
 ----------------------------------------------------------------------
 -----
 title
 -----
 Structure from the checkpoint file:  "ANI1ccx_370_conf64_mol1.chk"
 Charge =  0 Multiplicity = 1

                         Standard orientation:
 ---------------------------------------------------------------------
 Center     Atomic      Atomic             Coordinates (Angstroms)
 Number     Number       Type             X           Y           Z
 ---------------------------------------------------------------------
      1          6           0        0.999154    0.281312    0.022443
      2          1           0        2.100400    0.245851    0.001466
      3          7           0        0.085967    1.178171   -0.023958
      4          7           0       -1.048300    0.425122    0.020536
      5          7           0       -0.866634   -0.780489   -0.009379
      6          8           0        0.588431   -0.961669   -0.005814
 ---------------------------------------------------------------------

 SCF Done:  E(RHF) =  -277.755509328     A.U. after    2 cycles

 The electronic state is 1-A.
 Alpha  occ. eigenvalues --  -21.16969 -15.86674 -15.84541 -15.79518 -11.50728
 Alpha  occ. eigenvalues --   -1.96777  -1.57621  -1.35309  -0.92740  -0.89543
 Alpha  occ. eigenvalues --   -0.75405  -0.70269  -0.59530  -0.51377  -0.45816
 Alpha  occ. eigenvalues --   -0.45332  -0.41723  -0.41165
 Alpha virt. eigenvalues --    0.03281   0.09218   0.09414   0.09880   0.13118
 Alpha virt. eigenvalues --    0.13857   0.14291   0.14453   0.16266   0.17075
 Alpha virt. eigenvalues --    0.19145   0.19776   0.20547   0.22514   0.24218

 Mulliken charges:
               1
     1  C    1.721392
     2  H    1.552829
     3  N   -2.001950
     4  N    0.944009
     5  N    0.050593
     6  O   -2.266873
 Sum of Mulliken charges =   0.00000

 Dipole moment (field-independent basis, Debye):
    X=              3.0020    Y=             -1.0566    Z=              0.0055  Tot=              3.1826

 Test job not archived.
 1\1\GINC-SE127\SP\RHF\Aug-CC-pVDZ\C1H1N3O1\OHZDE\08-Apr-2025\0\\#t hf
 aug-cc-pvdz iop(5/13=1,5/36=2,99/5=2) pseudo=read geom=check guess=(re
 ad,tcheck) scf=(maxcycle=1)\\title\\0,1\C,0,0.999154,0.28131,0.0224431
 \H,0,2.1004,0.245848,0.00146568\N,0,0.0859683,1.17817,-0.0239582\N,0,-
 1.0483,0.425123,0.0205356\N,0,-0.866635,-0.780488,-0.00937932\O,0,0.58
 843,-0.96167,-0.00581382\\Version=ES64L-G16RevC.01\State=1-A\HF=-277.7
 555093\RMSD=1.020e-01\Dipole=1.1810907,-0.415701,0.0021707\Quadrupole=
 1.7967081,-2.6105726,0.8138645,-0.0848465,0.0328419,0.0281518\PG=C01 [

 Normal termination of Gaussian 16 at Tue Apr  8 21:31:32 2025.
