 Gaussian 16, Revision C.01,

 ----------------------------------------------------------------------
 #t hf aug-cc-pvdz symm=none int=(grid=ultrafine) guess=(read,tcheck) s
 table=(opt,rrhf)
 ----------------------------------------------------------------------
 -----
 title
 -----
 Symbolic Z-matrix:
 Charge =  0 Multiplicity = 1

 SCF Done:  E(RHF) =  -903.321421642     A.U. after   14 cycles
 Normal termination of Gaussian 16 at Tue Apr  8 20:27:04 2025.
 Gaussian 16:  ES64L-G16RevC.01  3-Jul-2019

 ----------------------------------------------------------------------
 #t hf aug-cc-pvdz iop(5/13=1,5/36=2,99/5=2) pseudo=read geom=check gue
 ss=(read,tcheck) scf=(maxcycle=1)
 ----------------------------------------------------------------------
 -----
 title
 -----
 Structure from the checkpoint file:  "ANI1ccx_1597_conf23_mol1.chk"
 Charge =  0 Multiplicity = 1

                         Standard orientation:
 ---------------------------------------------------------------------
 Center     Atomic      Atomic             Coordinates (Angstroms)
 Number     Number       Type             X           Y           Z
 ---------------------------------------------------------------------
      1          6           0        2.147140    0.638679   -0.954383
      2          6           0        0.711955    0.229883   -0.256035
      3          6           0        3.291620    0.383834    0.075300
      4          6           0        3.251920   -1.195100    0.397219
      5          6           0       -1.682090    0.485660   -0.203725
      6          6           0       -1.551140    1.665410    0.708543
      7          6           0       -2.111360   -0.730280    0.553698
      8          6           0       -3.051180   -1.514650   -0.269751
      9          1           0       -0.221822    2.425250   -0.417530
     10          1           0       -4.736740   -0.532749    0.393228
     11          1           0       -4.721020   -1.884960   -0.937868
     12          1           0       -1.324510   -1.512470    0.654864
     13          1           0       -2.440730   -0.301165    1.514130
     14          1           0       -2.502950    0.770314   -0.947229
     15          1           0       -0.362767    0.492310   -2.038160
     16          1           0        2.694750   -1.071650    2.308430
     17          1           0        4.197610    0.519190   -0.550827
     18          1           0        3.344510    1.107230    0.829488
     19          1           0        2.321960   -0.059036   -1.811630
     20          1           0        2.419290    2.167990   -2.472370
     21          1           0        2.495660    2.645380   -0.904235
     22          1           0        3.392670   -2.539950    1.976250
     23          7           0        1.955730    2.014270   -1.561590
     24          7           0        3.252170   -1.624240    1.682580
     25          7           0       -0.479417    0.386545   -0.967331
     26          7           0       -4.370220   -1.214400   -0.231800
     27          8           0       -2.594080   -2.316770   -1.154680
     28          8           0        0.727715    0.012749    0.919883
     29          8           0        3.363530   -1.967760   -0.551423
     30          8           0       -2.267380    1.673230    1.723490
     31          8           0       -0.867901    2.730860    0.268381
 ---------------------------------------------------------------------

 SCF Done:  E(RHF) =  -907.312847934     A.U. after    2 cycles

 The electronic state is 1-A.
 Alpha  occ. eigenvalues --  -21.12978 -21.05983 -21.04785 -21.03104 -21.01550
 Alpha  occ. eigenvalues --  -15.78727 -15.78182 -15.78108 -15.77743 -11.55648
 Alpha  occ. eigenvalues --  -11.53953 -11.52239 -11.51939 -11.49162 -11.48425
 Alpha  occ. eigenvalues --  -11.42860 -11.40465  -1.82674  -1.75657  -1.70373
 Alpha  occ. eigenvalues --   -1.67907  -1.65501  -1.43064  -1.36128  -1.35139
 Alpha  occ. eigenvalues --   -1.34056  -1.17715  -1.13303  -1.02055  -0.94528
 Alpha  occ. eigenvalues --   -0.83586  -0.81659  -0.81051  -0.77180  -0.75163
 Alpha  occ. eigenvalues --   -0.72931  -0.72115  -0.71196  -0.69595  -0.65630
 Alpha  occ. eigenvalues --   -0.64418  -0.62492  -0.60063  -0.59427  -0.56349
 Alpha  occ. eigenvalues --   -0.55297  -0.53631  -0.51750  -0.51363  -0.50368
 Alpha  occ. eigenvalues --   -0.49421  -0.48533  -0.47580  -0.47015  -0.46398
 Alpha  occ. eigenvalues --   -0.43542  -0.40780  -0.36458  -0.34409  -0.33221
 Alpha  occ. eigenvalues --   -0.31571  -0.30521  -0.29306  -0.29011  -0.28410
 Alpha virt. eigenvalues --    0.02828   0.03714   0.03888   0.04968   0.05317
 Alpha virt. eigenvalues --    0.05527   0.05875   0.06407   0.06915   0.07074
 Alpha virt. eigenvalues --    0.07768   0.08339   0.08884   0.09709   0.10810

 Mulliken charges:
               1
     1  C   -0.146720
     2  C    5.576233
     3  C   -4.367874
     4  C    6.581967
     5  C   -2.383711
     6  C    6.951116
     7  C   -4.263763
     8  C    6.658125
     9  H    1.345098
    10  H    0.832551
    11  H    0.709687
    12  H    1.623380
    13  H    1.478792
    14  H    2.071385
    15  H    0.668704
    16  H    0.625866
    17  H    1.338373
    18  H    1.465945
    19  H    1.811094
    20  H    0.637755
    21  H    0.506665
    22  H    0.869679
    23  N   -2.527159
    24  N   -3.714892
    25  N   -2.967990
    26  N   -3.869891
    27  O   -3.356491
    28  O   -3.565730
    29  O   -3.375339
    30  O   -3.416254
    31  O   -3.796600
 Sum of Mulliken charges =  -0.00000

 Dipole moment (field-independent basis, Debye):
    X=              0.7904    Y=              1.9666    Z=             -0.3740  Tot=              2.1522

 Test job not archived.
 1\1\GINC-SE367\SP\RHF\Aug-CC-pVDZ\C8H14N4O5\OHZDE\08-Apr-2025\0\\#t hf
  aug-cc-pvdz iop(5/13=1,5/36=2,99/5=2) pseudo=read geom=check guess=(r
 ead,tcheck) scf=(maxcycle=1)\\title\\0,1\C,0,2.14714,0.638679,-0.95438
 3\C,0,0.711955,0.229883,-0.256035\C,0,3.29162,0.383834,0.0753001\C,0,3
 .25192,-1.1951,0.397219\C,0,-1.68209,0.48566,-0.203725\C,0,-1.55114,1.
 66541,0.708543\C,0,-2.11136,-0.73028,0.553698\C,0,-3.05118,-1.51465,-0
 .269751\H,0,-0.221822,2.42525,-0.41753\H,0,-4.73674,-0.532749,0.393228
 \H,0,-4.72102,-1.88496,-0.937868\H,0,-1.32451,-1.51247,0.654864\H,0,-2

 Normal termination of Gaussian 16 at Tue Apr  8 20:27:39 2025.
