 Gaussian 16, Revision C.01,

 ----------------------------------------------------------------------
 #t hf aug-cc-pvdz symm=none int=(grid=ultrafine) guess=(read,tcheck) s
 table=(opt,rrhf)
 ----------------------------------------------------------------------
 -----
 title
 -----
 Symbolic Z-matrix:
 Charge =  0 Multiplicity = 1

 SCF Done:  E(RHF) =  -389.482272834     A.U. after   15 cycles
 Normal termination of Gaussian 16 at Tue Apr  8 21:42:48 2025.
 Gaussian 16:  ES64L-G16RevC.01  3-Jul-2019

 ----------------------------------------------------------------------
 #t hf aug-cc-pvdz iop(5/13=1,5/36=2,99/5=2) pseudo=read geom=check gue
 ss=(read,tcheck) scf=(maxcycle=1)
 ----------------------------------------------------------------------
 -----
 title
 -----
 Structure from the checkpoint file:  "ANI1ccx_473_conf6_mol1.chk"
 Charge =  0 Multiplicity = 1

                         Standard orientation:
 ---------------------------------------------------------------------
 Center     Atomic      Atomic             Coordinates (Angstroms)
 Number     Number       Type             X           Y           Z
 ---------------------------------------------------------------------
      1          6           0       -1.200770    0.945407   -0.036427
      2          6           0       -1.189981   -1.391108    0.030923
      3          1           0       -1.914952   -2.213188    0.089679
      4          7           0       -1.792861   -0.127336   -0.020663
      5          7           0        2.964429   -0.138258   -0.111933
      6          7           0        2.030520    0.444944    0.150940
      7          8           0       -0.768149    2.022422   -0.007795
      8          8           0       -0.001246   -1.568429   -0.015338
 ---------------------------------------------------------------------

 SCF Done:  E(RHF) =  -391.077498627     A.U. after    2 cycles

 The electronic state is 1-A.
 Alpha  occ. eigenvalues --  -21.16931 -21.08528 -15.86611 -15.86368 -15.79652
 Alpha  occ. eigenvalues --  -11.61819 -11.53073  -1.81079  -1.75039  -1.53539
 Alpha  occ. eigenvalues --   -1.41828  -0.97081  -0.78918  -0.74655  -0.67300
 Alpha  occ. eigenvalues --   -0.64533  -0.61900  -0.57466  -0.55807  -0.55332
 Alpha  occ. eigenvalues --   -0.53982  -0.50450  -0.42463  -0.35324  -0.32904
 Alpha virt. eigenvalues --    0.03539   0.07577   0.09375   0.10174   0.10442
 Alpha virt. eigenvalues --    0.10865   0.10994   0.11780   0.12878   0.13551
 Alpha virt. eigenvalues --    0.14245   0.15466   0.15958   0.16677   0.17329

 Mulliken charges:
               1
     1  C    3.678805
     2  C    1.932913
     3  H    1.682730
     4  N   -2.475798
     5  N    0.372807
     6  N   -0.323654
     7  O   -2.382782
     8  O   -2.485023
 Sum of Mulliken charges =  -0.00000

 Dipole moment (field-independent basis, Debye):
    X=             -0.1326    Y=              0.8220    Z=              0.0702  Tot=              0.8356

 Test job not archived.
 1\1\GINC-SE086\SP\RHF\Aug-CC-pVDZ\C2H1N3O2\OHZDE\08-Apr-2025\0\\#t hf
 aug-cc-pvdz iop(5/13=1,5/36=2,99/5=2) pseudo=read geom=check guess=(re
 ad,tcheck) scf=(maxcycle=1)\\title\\0,1\C,0,-1.20077,0.945405,-0.03642
 69\C,0,-1.18998,-1.39111,0.0309232\H,0,-1.91495,-2.21319,0.089679\N,0,
 -1.79286,-0.127338,-0.0206632\N,0,2.96443,-0.138258,-0.111933\N,0,2.03
 052,0.444944,0.15094\O,0,-0.76815,2.02242,-0.00779478\O,0,-0.00124432,
 -1.56843,-0.0153385\\Version=ES64L-G16RevC.01\State=1-A\HF=-391.077498
 6\RMSD=7.717e-02\Dipole=-0.0521842,0.3234187,0.0276261\Quadrupole=-2.3

 Normal termination of Gaussian 16 at Tue Apr  8 21:42:51 2025.
