 Gaussian 16, Revision C.01,

 ----------------------------------------------------------------------
 #t hf aug-cc-pvdz symm=none int=(grid=ultrafine) guess=(read,tcheck) s
 table=(opt,rrhf)
 ----------------------------------------------------------------------
 -----
 title
 -----
 Symbolic Z-matrix:
 Charge =  0 Multiplicity = 1

 SCF Done:  E(RHF) =  -487.878363963     A.U. after   14 cycles
 Normal termination of Gaussian 16 at Tue Apr  8 19:20:37 2025.
 Gaussian 16:  ES64L-G16RevC.01  3-Jul-2019

 ----------------------------------------------------------------------
 #t hf aug-cc-pvdz iop(5/13=1,5/36=2,99/5=2) pseudo=read geom=check gue
 ss=(read,tcheck) scf=(maxcycle=1)
 ----------------------------------------------------------------------
 -----
 title
 -----
 Structure from the checkpoint file:  "ANI1ccx_1001_conf3_mol2.chk"
 Charge =  0 Multiplicity = 1

                         Standard orientation:
 ---------------------------------------------------------------------
 Center     Atomic      Atomic             Coordinates (Angstroms)
 Number     Number       Type             X           Y           Z
 ---------------------------------------------------------------------
      1          6           0        2.197621   -0.050247    0.088506
      2          6           0        0.225558    0.451401   -0.380700
      3          6           0       -1.064640    1.194849   -0.684046
      4          6           0       -2.119140    1.079959    0.390288
      5          6           0       -2.479249   -0.298696    0.843791
      6          1           0       -3.188478   -1.856382   -0.080677
      7          1           0       -3.415539   -0.248499    1.381940
      8          1           0       -1.701899   -0.707796    1.535410
      9          1           0       -1.950560    1.673159    1.302440
     10          1           0       -3.046330    1.531218    0.053417
     11          1           0       -0.814740    2.250639   -0.888778
     12          1           0       -1.481930    0.762896   -1.585820
     13          1           0       -0.360786   -1.608040   -0.559399
     14          1           0        4.019941   -0.800094    0.625894
     15          1           0        3.778350    0.865372    0.979778
     16          7           0        3.543861    0.072998    0.405425
     17          7           0        1.623011   -1.193399   -0.123288
     18          7           0        0.337395   -0.874347   -0.440923
     19          7           0        1.378170    0.994843   -0.110919
     20          8           0       -2.571999   -1.140841   -0.302913
 ---------------------------------------------------------------------

 SCF Done:  E(RHF) =  -490.122136924     A.U. after    2 cycles

 The electronic state is 1-A.
 Alpha  occ. eigenvalues --  -21.08690 -15.78485 -15.74729 -15.70849 -15.69900
 Alpha  occ. eigenvalues --  -11.47987 -11.46212 -11.43547 -11.41691 -11.37559
 Alpha  occ. eigenvalues --   -1.73253  -1.64611  -1.35447  -1.28975  -1.21864
 Alpha  occ. eigenvalues --   -1.13637  -1.01660  -0.87543  -0.82462  -0.79043
 Alpha  occ. eigenvalues --   -0.70937  -0.69211  -0.67237  -0.63597  -0.63082
 Alpha  occ. eigenvalues --   -0.58022  -0.57397  -0.54489  -0.52167  -0.48702
 Alpha  occ. eigenvalues --   -0.46199  -0.45028  -0.42968  -0.42340  -0.35995
 Alpha  occ. eigenvalues --   -0.35479  -0.34230  -0.27723
 Alpha virt. eigenvalues --    0.03315   0.04868   0.04894   0.05288   0.05665
 Alpha virt. eigenvalues --    0.05731   0.06580   0.07043   0.07443   0.07965
 Alpha virt. eigenvalues --    0.10748   0.12533   0.12672   0.13628   0.13844

 Mulliken charges:
               1
     1  C    5.767941
     2  C    5.122677
     3  C   -4.080241
     4  C   -2.642628
     5  C   -1.153024
     6  H    0.803543
     7  H    1.171299
     8  H    1.534999
     9  H    1.298008
    10  H    1.313126
    11  H    1.265959
    12  H    1.348599
    13  H    1.036556
    14  H    0.657992
    15  H    0.637869
    16  N   -3.167056
    17  N   -2.545876
    18  N   -1.918436
    19  N   -3.973689
    20  O   -2.477618
 Sum of Mulliken charges =   0.00000

 Dipole moment (field-independent basis, Debye):
    X=             -3.2658    Y=             -0.7741    Z=              1.0320  Tot=              3.5113

 Test job not archived.
 1\1\GINC-SE040\SP\RHF\Aug-CC-pVDZ\C5H10N4O1\OHZDE\08-Apr-2025\0\\#t hf
  aug-cc-pvdz iop(5/13=1,5/36=2,99/5=2) pseudo=read geom=check guess=(r
 ead,tcheck) scf=(maxcycle=1)\\title\\0,1\C,0,2.19762,-0.0502478,0.0885
 063\C,0,0.225558,0.451401,-0.3807\C,0,-1.06464,1.19485,-0.684046\C,0,-
 2.11914,1.07996,0.390288\C,0,-2.47925,-0.298695,0.843791\H,0,-3.18848,
 -1.85638,-0.0806772\H,0,-3.41554,-0.248497,1.38194\H,0,-1.7019,-0.7077
 95,1.53541\H,0,-1.95056,1.67316,1.30244\H,0,-3.04633,1.53122,0.0534167
 \H,0,-0.81474,2.25064,-0.888778\H,0,-1.48193,0.762897,-1.58582\H,0,-0.

 Normal termination of Gaussian 16 at Tue Apr  8 19:20:48 2025.
