 Gaussian 16, Revision C.01,

 ----------------------------------------------------------------------
 #t hf aug-cc-pvdz symm=none int=(grid=ultrafine) guess=(read,tcheck) s
 table=(opt,rrhf)
 ----------------------------------------------------------------------
 -----
 title
 -----
 Symbolic Z-matrix:
 Charge =  0 Multiplicity = 1

 SCF Done:  E(RHF) =  -869.339583474     A.U. after   14 cycles
 Normal termination of Gaussian 16 at Tue Apr  8 20:27:31 2025.
 Gaussian 16:  ES64L-G16RevC.01  3-Jul-2019

 ----------------------------------------------------------------------
 #t hf aug-cc-pvdz iop(5/13=1,5/36=2,99/5=2) pseudo=read geom=check gue
 ss=(read,tcheck) scf=(maxcycle=1)
 ----------------------------------------------------------------------
 -----
 title
 -----
 Structure from the checkpoint file:  "ANI1ccx_1593_conf10_mol2.chk"
 Charge =  0 Multiplicity = 1

                         Standard orientation:
 ---------------------------------------------------------------------
 Center     Atomic      Atomic             Coordinates (Angstroms)
 Number     Number       Type             X           Y           Z
 ---------------------------------------------------------------------
      1          6           0       -1.621059   -0.481807    0.122837
      2          6           0       -0.390555    0.159525   -0.488860
      3          6           0       -2.782909    0.432098   -0.213818
      4          6           0       -4.103369   -0.201505   -0.117139
      5          6           0        2.036641   -0.006268   -0.543683
      6          6           0        3.171381   -1.038640   -0.609258
      7          6           0        2.601511    1.183050    0.309170
      8          6           0        1.905181    2.537430    0.285627
      9          1           0        3.645051   -2.811950   -0.061552
     10          1           0        2.422680    3.210510    1.041921
     11          1           0        0.845999    2.544090    0.513784
     12          1           0        1.987110    2.991510   -0.702192
     13          1           0        1.826011    0.572628    1.972901
     14          1           0        3.629131    1.324860   -0.004133
     15          1           0        1.928451    0.366402   -1.579359
     16          1           0        0.645735   -1.059270    0.658966
     17          1           0       -5.877479    0.045996   -0.694798
     18          1           0       -2.814249    1.271250    0.527788
     19          1           0       -2.672859    0.964777   -1.154189
     20          1           0       -1.825859   -1.465180   -0.288239
     21          1           0       -1.465749    0.181104    1.997771
     22          1           0       -2.300499   -1.213670    1.822921
     23          7           0       -1.447049   -0.752743    1.547691
     24          7           0        0.799572   -0.392636   -0.063607
     25          8           0       -0.497297    1.103790   -1.271899
     26          8           0       -4.330159   -1.152950    0.569232
     27          8           0       -5.043459    0.506632   -0.778631
     28          8           0        4.260861   -0.738870   -0.953842
     29          8           0        2.723331    0.766246    1.676001
     30          8           0        2.843971   -2.285940   -0.104537
 ---------------------------------------------------------------------

 SCF Done:  E(RHF) =  -873.134394774     A.U. after    2 cycles

 The electronic state is 1-A.
 Alpha  occ. eigenvalues --  -21.13859 -21.13013 -21.06944 -21.06919 -21.06829
 Alpha  occ. eigenvalues --  -21.04491 -15.78051 -15.76060 -11.56092 -11.55081
 Alpha  occ. eigenvalues --  -11.54957 -11.49686 -11.48124 -11.44303 -11.41225
 Alpha  occ. eigenvalues --  -11.37687  -1.85077  -1.83258  -1.72865  -1.71365
 Alpha  occ. eigenvalues --   -1.67958  -1.67448  -1.44768  -1.37612  -1.16028
 Alpha  occ. eigenvalues --   -1.15288  -1.06804  -0.98709  -0.88055  -0.83795
 Alpha  occ. eigenvalues --   -0.81735  -0.79722  -0.74068  -0.70323  -0.67673
 Alpha  occ. eigenvalues --   -0.66975  -0.64512  -0.63532  -0.61672  -0.60949
 Alpha  occ. eigenvalues --   -0.59980  -0.59349  -0.57638  -0.55941  -0.55074
 Alpha  occ. eigenvalues --   -0.53048  -0.51831  -0.50130  -0.49445  -0.48532
 Alpha  occ. eigenvalues --   -0.47548  -0.46602  -0.46133  -0.40057  -0.39637
 Alpha  occ. eigenvalues --   -0.35940  -0.35443  -0.34428  -0.32210  -0.31679
 Alpha  occ. eigenvalues --   -0.30014  -0.29417
 Alpha virt. eigenvalues --    0.03489   0.04284   0.04700   0.04783   0.05681
 Alpha virt. eigenvalues --    0.05830   0.06277   0.06814   0.06957   0.07552
 Alpha virt. eigenvalues --    0.07980   0.08559   0.08833   0.09828   0.10674

 Mulliken charges:
               1
     1  C   -2.791669
     2  C    7.268348
     3  C   -4.189714
     4  C    6.907156
     5  C   -3.939416
     6  C    7.491292
     7  C    1.904089
     8  C   -4.423373
     9  H    0.961976
    10  H    1.080741
    11  H    1.340163
    12  H    1.191060
    13  H    0.931877
    14  H    1.805908
    15  H    1.735026
    16  H    0.787954
    17  H    0.991961
    18  H    1.494470
    19  H    1.532732
    20  H    2.170155
    21  H    0.444928
    22  H    0.719988
    23  N   -2.320411
    24  N   -2.660042
    25  O   -3.643401
    26  O   -3.263391
    27  O   -3.331429
    28  O   -3.461316
    29  O   -3.484239
    30  O   -3.251423
 Sum of Mulliken charges =   0.00000

 Dipole moment (field-independent basis, Debye):
    X=             -1.9979    Y=             -0.4769    Z=              0.5459  Tot=              2.1254

 Test job not archived.
 1\1\GINC-SE343\SP\RHF\Aug-CC-pVDZ\C8H14N2O6\OHZDE\08-Apr-2025\0\\#t hf
  aug-cc-pvdz iop(5/13=1,5/36=2,99/5=2) pseudo=read geom=check guess=(r
 ead,tcheck) scf=(maxcycle=1)\\title\\0,1\C,0,-1.62106,-0.481807,0.1228
 36\C,0,-0.390556,0.159525,-0.488861\C,0,-2.78291,0.432098,-0.213819\C,
 0,-4.10337,-0.201505,-0.11714\C,0,2.03664,-0.00626804,-0.543684\C,0,3.
 17138,-1.03864,-0.609259\C,0,2.60151,1.18305,0.309169\C,0,1.90518,2.53
 743,0.285626\H,0,3.64505,-2.81195,-0.0615525\H,0,2.42268,3.21051,1.041
 92\H,0,0.845998,2.54409,0.513783\H,0,1.98711,2.99151,-0.702193\H,0,1.8

 Normal termination of Gaussian 16 at Tue Apr  8 20:28:06 2025.
