 Gaussian 16, Revision C.01,

 ----------------------------------------------------------------------
 #t hf aug-cc-pvdz symm=none int=(grid=ultrafine) guess=(read,tcheck) s
 table=(opt,rrhf)
 ----------------------------------------------------------------------
 -----
 title
 -----
 Symbolic Z-matrix:
 Charge =  0 Multiplicity = 1

 SCF Done:  E(RHF) =  -428.562885131     A.U. after   13 cycles
 Normal termination of Gaussian 16 at Tue Apr  8 21:39:52 2025.
 Gaussian 16:  ES64L-G16RevC.01  3-Jul-2019

 ----------------------------------------------------------------------
 #t hf aug-cc-pvdz iop(5/13=1,5/36=2,99/5=2) pseudo=read geom=check gue
 ss=(read,tcheck) scf=(maxcycle=1)
 ----------------------------------------------------------------------
 -----
 title
 -----
 Structure from the checkpoint file:  "ANI1ccx_419_conf6_mol1.chk"
 Charge =  0 Multiplicity = 1

                         Standard orientation:
 ---------------------------------------------------------------------
 Center     Atomic      Atomic             Coordinates (Angstroms)
 Number     Number       Type             X           Y           Z
 ---------------------------------------------------------------------
      1          6           0       -0.159209   -0.306428    0.026520
      2          1           0        1.911090    1.131501    0.010099
      3          1           0       -0.734908    1.624751   -0.261491
      4          1           0       -1.585280   -1.680679    0.058762
      5          1           0       -3.012470    0.365849    0.407885
      6          1           0        2.512440   -1.623739   -0.339112
      7          7           0        0.034987    1.032431   -0.326537
      8          7           0       -1.453660   -0.733714    0.442747
      9          7           0        0.744202   -1.227909    0.039544
     10          8           0        1.153640    1.610091    0.335783
     11          8           0       -2.375780    0.170125   -0.312828
     12          8           0        2.045350   -0.714561   -0.163647
 ---------------------------------------------------------------------

 SCF Done:  E(RHF) =  -430.381074048     A.U. after    2 cycles

 The electronic state is 1-A.
 Alpha  occ. eigenvalues --  -21.12151 -21.09749 -21.09118 -15.81789 -15.79276
 Alpha  occ. eigenvalues --  -15.76023 -11.47929  -1.81468  -1.76384  -1.74951
 Alpha  occ. eigenvalues --   -1.38232  -1.20728  -1.13930  -0.82744  -0.73234
 Alpha  occ. eigenvalues --   -0.66255  -0.64859  -0.62280  -0.58306  -0.55321
 Alpha  occ. eigenvalues --   -0.51948  -0.50823  -0.43187  -0.41737  -0.37839
 Alpha  occ. eigenvalues --   -0.35960  -0.30562  -0.25865
 Alpha virt. eigenvalues --    0.03885   0.05130   0.05742   0.06805   0.07606
 Alpha virt. eigenvalues --    0.11258   0.12526   0.13411   0.14737   0.15289
 Alpha virt. eigenvalues --    0.15685   0.17544   0.18558   0.18708   0.19356

 Mulliken charges:
               1
     1  C    4.566366
     2  H    0.975172
     3  H    0.922471
     4  H    0.692089
     5  H    0.814288
     6  H    0.878784
     7  N   -0.794634
     8  N   -0.899302
     9  N   -0.441659
    10  O   -2.219527
    11  O   -1.878455
    12  O   -2.615592
 Sum of Mulliken charges =   0.00000

 Dipole moment (field-independent basis, Debye):
    X=             -1.2440    Y=              0.6847    Z=             -0.2959  Tot=              1.4505

 Test job not archived.
 1\1\GINC-SE404\SP\RHF\Aug-CC-pVDZ\C1H5N3O3\OHZDE\08-Apr-2025\0\\#t hf
 aug-cc-pvdz iop(5/13=1,5/36=2,99/5=2) pseudo=read geom=check guess=(re
 ad,tcheck) scf=(maxcycle=1)\\title\\0,1\C,0,-0.159209,-0.306429,0.0265
 201\H,0,1.91109,1.1315,0.0100991\H,0,-0.734908,1.62475,-0.261491\H,0,-
 1.58528,-1.68068,0.0587618\H,0,-3.01247,0.365849,0.407885\H,0,2.51244,
 -1.62374,-0.339112\N,0,0.0349873,1.03243,-0.326537\N,0,-1.45366,-0.733
 715,0.442747\N,0,0.744202,-1.22791,0.0395444\O,0,1.15364,1.61009,0.335
 783\O,0,-2.37578,0.170124,-0.312828\O,0,2.04535,-0.714562,-0.163647\\V

 Normal termination of Gaussian 16 at Tue Apr  8 21:39:56 2025.
