 Gaussian 16, Revision C.01,

 ----------------------------------------------------------------------
 #t hf aug-cc-pvdz symm=none int=(grid=ultrafine) guess=(read,tcheck) s
 table=(opt,rrhf)
 ----------------------------------------------------------------------
 -----
 title
 -----
 Symbolic Z-matrix:
 Charge =  0 Multiplicity = 1

 SCF Done:  E(RHF) =  -645.341911164     A.U. after   17 cycles
 Normal termination of Gaussian 16 at Tue Apr  8 21:33:58 2025.
 Gaussian 16:  ES64L-G16RevC.01  3-Jul-2019

 ----------------------------------------------------------------------
 #t hf aug-cc-pvdz iop(5/13=1,5/36=2,99/5=2) pseudo=read geom=check gue
 ss=(read,tcheck) scf=(maxcycle=1)
 ----------------------------------------------------------------------
 -----
 title
 -----
 Structure from the checkpoint file:  "ANI1ccx_33_conf1_mol2.chk"
 Charge =  0 Multiplicity = 1

                         Standard orientation:
 ---------------------------------------------------------------------
 Center     Atomic      Atomic             Coordinates (Angstroms)
 Number     Number       Type             X           Y           Z
 ---------------------------------------------------------------------
      1          6           0        3.894119    1.163369    1.334210
      2          6           0       -3.746911   -0.230489   -0.125858
      3          6           0       -0.617251   -1.703371    0.824748
      4          6           0       -1.488051   -0.824813    0.117516
      5          6           0       -1.008131   -0.104742   -0.966287
      6          6           0        0.747511   -1.778311    0.601256
      7          6           0        1.334409   -0.898774   -0.335044
      8          6           0        3.297719    0.221547   -0.909402
      9          6           0        3.143479    1.418279    0.032474
     10          6           0        0.413086   -0.000319   -1.042950
     11          1           0       -1.659661    0.690508   -1.544810
     12          1           0       -3.087451    2.200329    1.326000
     13          1           0       -4.268391    1.545859   -0.924857
     14          1           0       -4.623771   -0.756425   -0.481882
     15          1           0        1.466639   -2.436291    1.155970
     16          1           0       -0.970724   -2.323161    1.676570
     17          1           0        0.634168    0.814277   -1.801460
     18          1           0        1.974089    1.435409    0.260535
     19          1           0        4.325879   -0.104781   -0.934251
     20          1           0        3.439459    2.422869   -0.450242
     21          1           0        3.376129    0.303485    1.971040
     22          1           0        3.971099    1.970329    2.036700
     23          1           0        4.870659    0.797584    0.964207
     24          1           0        3.036729    0.572489   -1.913400
     25          7           0       -2.834831   -0.893665    0.420170
     26          7           0       -3.869531    1.129639   -0.105085
     27          8           0        2.619799   -0.965065   -0.565041
     28          8           0       -2.791571    1.920249    0.473833
 ---------------------------------------------------------------------

 SCF Done:  E(RHF) =  -648.330004594     A.U. after    2 cycles

 The electronic state is 1-A.
 Alpha  occ. eigenvalues --  -21.12972 -21.06364 -15.81858 -15.69648 -11.50712
 Alpha  occ. eigenvalues --  -11.47538 -11.45007 -11.44532 -11.42658 -11.41784
 Alpha  occ. eigenvalues --  -11.39990 -11.38807 -11.35963 -11.35576  -1.80465
 Alpha  occ. eigenvalues --   -1.78406  -1.43590  -1.29545  -1.21581  -1.18107
 Alpha  occ. eigenvalues --   -1.07473  -1.04190  -0.96956  -0.88151  -0.85001
 Alpha  occ. eigenvalues --   -0.82369  -0.77736  -0.74088  -0.67817  -0.66665
 Alpha  occ. eigenvalues --   -0.64730  -0.63338  -0.61613  -0.60561  -0.58116
 Alpha  occ. eigenvalues --   -0.56517  -0.55206  -0.53503  -0.52295  -0.49535
 Alpha  occ. eigenvalues --   -0.48141  -0.47474  -0.45744  -0.44804  -0.42647
 Alpha  occ. eigenvalues --   -0.41760  -0.38207  -0.36911  -0.33227  -0.32144
 Alpha  occ. eigenvalues --   -0.31431  -0.20895
 Alpha virt. eigenvalues --    0.03441   0.04597   0.04634   0.04903   0.05539
 Alpha virt. eigenvalues --    0.05629   0.06103   0.06511   0.07057   0.07081
 Alpha virt. eigenvalues --    0.07475   0.08229   0.09239   0.09584   0.10373

 Mulliken charges:
               1
     1  C   -3.636606
     2  C    0.882263
     3  C   -0.431423
     4  C    3.594117
     5  C   -1.815723
     6  C   -2.775424
     7  C    3.617228
     8  C   -1.706107
     9  C   -3.896419
    10  C   -2.017197
    11  H    1.783973
    12  H    0.854936
    13  H    0.876035
    14  H    1.892073
    15  H    1.660713
    16  H    1.718627
    17  H    1.560379
    18  H    1.918842
    19  H    1.478619
    20  H    1.288117
    21  H    1.192799
    22  H    1.260109
    23  H    1.276237
    24  H    1.729616
    25  N   -4.407932
    26  N   -0.925915
    27  O   -4.747718
    28  O   -2.224220
 Sum of Mulliken charges =   0.00000

 Dipole moment (field-independent basis, Debye):
    X=             -1.3667    Y=              3.4146    Z=             -0.4853  Tot=              3.7098

 Test job not archived.
 1\1\GINC-SE094\SP\RHF\Aug-CC-pVDZ\C10H14N2O2\OHZDE\08-Apr-2025\0\\#t h
 f aug-cc-pvdz iop(5/13=1,5/36=2,99/5=2) pseudo=read geom=check guess=(
 read,tcheck) scf=(maxcycle=1)\\title\\0,1\C,0,3.89412,1.16337,1.33421\
 C,0,-3.74691,-0.230488,-0.125858\C,0,-0.61725,-1.70337,0.824748\C,0,-1
 .48805,-0.824812,0.117516\C,0,-1.00813,-0.104741,-0.966287\C,0,0.74751
 2,-1.77831,0.601256\C,0,1.33441,-0.898773,-0.335044\C,0,3.29772,0.2215
 48,-0.909402\C,0,3.14348,1.41828,0.0324744\C,0,0.413087,-0.00031816,-1
 .04295\H,0,-1.65966,0.690509,-1.54481\H,0,-3.08745,2.20033,1.326\H,0,-

 Normal termination of Gaussian 16 at Tue Apr  8 21:34:25 2025.
