 Gaussian 16, Revision C.01,

 ----------------------------------------------------------------------
 #t hf aug-cc-pvdz symm=none int=(grid=ultrafine) guess=(read,tcheck) s
 table=(opt,rrhf)
 ----------------------------------------------------------------------
 -----
 title
 -----
 Symbolic Z-matrix:
 Charge =  0 Multiplicity = 1

 SCF Done:  E(RHF) =  -425.756535944     A.U. after   14 cycles
 Normal termination of Gaussian 16 at Tue Apr  8 21:47:14 2025.
 Gaussian 16:  ES64L-G16RevC.01  3-Jul-2019

 ----------------------------------------------------------------------
 #t hf aug-cc-pvdz iop(5/13=1,5/36=2,99/5=2) pseudo=read geom=check gue
 ss=(read,tcheck) scf=(maxcycle=1)
 ----------------------------------------------------------------------
 -----
 title
 -----
 Structure from the checkpoint file:  "ANI1ccx_543_conf1_mol1.chk"
 Charge =  0 Multiplicity = 1

                         Standard orientation:
 ---------------------------------------------------------------------
 Center     Atomic      Atomic             Coordinates (Angstroms)
 Number     Number       Type             X           Y           Z
 ---------------------------------------------------------------------
      1          6           0        1.344539   -0.091961    0.085931
      2          6           0       -0.745719    0.848715    0.008854
      3          1           0        2.972578   -1.149522    0.086109
      4          1           0        3.298349    0.487553    0.043756
      5          1           0       -2.158372   -1.780728    0.883517
      6          1           0       -2.664662   -1.096258   -0.615648
      7          1           0        1.127280    1.941610    0.008876
      8          7           0        2.663079   -0.260689   -0.108919
      9          7           0        0.437759   -1.109360   -0.030886
     10          7           0       -0.812126   -0.539148    0.051371
     11          7           0       -1.897382   -1.446688   -0.069903
     12          7           0        0.628555    1.094150    0.056878
     13          8           0       -1.663410    1.611121   -0.033139
 ---------------------------------------------------------------------

 SCF Done:  E(RHF) =  -427.641476785     A.U. after    2 cycles

 The electronic state is 1-A.
 Alpha  occ. eigenvalues --  -21.02194 -15.81036 -15.80633 -15.77897 -15.77235
 Alpha  occ. eigenvalues --  -15.72604 -11.52308 -11.49342  -1.73746  -1.61384
 Alpha  occ. eigenvalues --   -1.45733  -1.35994  -1.25443  -1.08625  -0.88025
 Alpha  occ. eigenvalues --   -0.85285  -0.74962  -0.70718  -0.68379  -0.66131
 Alpha  occ. eigenvalues --   -0.62716  -0.58515  -0.52474  -0.50749  -0.45118
 Alpha  occ. eigenvalues --   -0.41492  -0.38630  -0.37514  -0.29529  -0.22354
 Alpha virt. eigenvalues --    0.02490   0.04712   0.05421   0.06288   0.07108
 Alpha virt. eigenvalues --    0.10081   0.10971   0.11219   0.12414   0.13650
 Alpha virt. eigenvalues --    0.14210   0.14347   0.15880   0.16315   0.17535

 Mulliken charges:
               1
     1  C    3.826512
     2  C    4.919357
     3  H    0.651312
     4  H    0.676071
     5  H    0.673611
     6  H    0.725622
     7  H    0.715947
     8  N   -2.815003
     9  N   -2.065929
    10  N   -0.023000
    11  N   -1.684622
    12  N   -2.406203
    13  O   -3.193674
 Sum of Mulliken charges =   0.00000

 Dipole moment (field-independent basis, Debye):
    X=              3.3501    Y=              0.6171    Z=              0.8064  Tot=              3.5006

 Test job not archived.
 1\1\GINC-SE461\SP\RHF\Aug-CC-pVDZ\C2H5N5O1\OHZDE\08-Apr-2025\0\\#t hf
 aug-cc-pvdz iop(5/13=1,5/36=2,99/5=2) pseudo=read geom=check guess=(re
 ad,tcheck) scf=(maxcycle=1)\\title\\0,1\C,0,1.34454,-0.0919604,0.08593
 07\C,0,-0.745719,0.848714,0.00885422\H,0,2.97258,-1.14952,0.0861092\H,
 0,3.29835,0.487555,0.0437564\H,0,-2.15837,-1.78073,0.883517\H,0,-2.664
 66,-1.09626,-0.615648\H,0,1.12728,1.94161,0.00887604\N,0,2.66308,-0.26
 0688,-0.108919\N,0,0.437761,-1.10936,-0.0308863\N,0,-0.812125,-0.53914
 9,0.0513709\N,0,-1.89738,-1.44669,-0.0699028\N,0,0.628555,1.09415,0.05

 Normal termination of Gaussian 16 at Tue Apr  8 21:47:18 2025.
