 Gaussian 16, Revision C.01,

 ----------------------------------------------------------------------
 #t hf aug-cc-pvdz symm=none int=(grid=ultrafine) guess=(read,tcheck) s
 table=(opt,rrhf)
 ----------------------------------------------------------------------
 -----
 title
 -----
 Symbolic Z-matrix:
 Charge =  0 Multiplicity = 1

 SCF Done:  E(RHF) =  -599.027848700     A.U. after   16 cycles
 Normal termination of Gaussian 16 at Tue Apr  8 20:33:51 2025.
 Gaussian 16:  ES64L-G16RevC.01  3-Jul-2019

 ----------------------------------------------------------------------
 #t hf aug-cc-pvdz iop(5/13=1,5/36=2,99/5=2) pseudo=read geom=check gue
 ss=(read,tcheck) scf=(maxcycle=1)
 ----------------------------------------------------------------------
 -----
 title
 -----
 Structure from the checkpoint file:  "ANI1ccx_1666_conf1_mol2.chk"
 Charge =  0 Multiplicity = 1

                         Standard orientation:
 ---------------------------------------------------------------------
 Center     Atomic      Atomic             Coordinates (Angstroms)
 Number     Number       Type             X           Y           Z
 ---------------------------------------------------------------------
      1          6           0        1.068060    1.899670    0.478745
      2          6           0       -0.191960    1.922570   -0.341681
      3          6           0       -1.066770    0.715685   -0.161842
      4          6           0       -2.802890   -1.198099    0.164714
      5          6           0       -1.454640   -1.601860    0.180868
      6          6           0       -0.544393   -0.573108   -0.048055
      7          6           0        0.912230   -0.604477   -0.057035
      8          6           0        1.698880    0.589275    0.119842
      9          1           0       -1.084830   -2.592750    0.520405
     10          1           0       -3.537800   -1.923029    0.352219
     11          1           0        0.075964    2.016730   -1.433650
     12          1           0        0.913672    1.895650    1.601900
     13          1           0        1.733530    2.761390    0.290438
     14          1           0       -0.751707    2.804470   -0.129636
     15          7           0        2.932390    0.208441    0.101398
     16          7           0       -2.359380    0.978829   -0.180035
     17          7           0       -3.219420    0.024005    0.010870
     18          7           0        1.688250   -1.610520   -0.217627
     19          8           0        2.955900   -1.133210   -0.152155
 ---------------------------------------------------------------------

 SCF Done:  E(RHF) =  -601.741443029     A.U. after    2 cycles

 The electronic state is 1-A.
 Alpha  occ. eigenvalues --  -21.15754 -15.81773 -15.80970 -15.78806 -15.77875
 Alpha  occ. eigenvalues --  -11.53619 -11.50908 -11.49410 -11.48518 -11.46639
 Alpha  occ. eigenvalues --  -11.45708 -11.44016 -11.42016  -1.97918  -1.59789
 Alpha  occ. eigenvalues --   -1.38816  -1.34040  -1.26174  -1.22466  -1.16717
 Alpha  occ. eigenvalues --   -0.99843  -0.98481  -0.90371  -0.85797  -0.80235
 Alpha  occ. eigenvalues --   -0.73986  -0.69757  -0.67672  -0.66181  -0.65816
 Alpha  occ. eigenvalues --   -0.63355  -0.61229  -0.58876  -0.55295  -0.53504
 Alpha  occ. eigenvalues --   -0.51453  -0.48082  -0.45962  -0.45076  -0.42436
 Alpha  occ. eigenvalues --   -0.41581  -0.39976  -0.38479  -0.35426  -0.33260
 Alpha virt. eigenvalues --    0.02680   0.04792   0.05076   0.05437   0.06371
 Alpha virt. eigenvalues --    0.06430   0.06834   0.09184   0.09527   0.09772
 Alpha virt. eigenvalues --    0.10261   0.11067   0.11204   0.11671   0.11903

 Mulliken charges:
               1
     1  C   -3.804720
     2  C   -3.859743
     3  C    1.602562
     4  C   -1.611839
     5  C   -1.246270
     6  C    5.013107
     7  C    3.539174
     8  C    2.711280
     9  H    1.516894
    10  H    1.587177
    11  H    1.074017
    12  H    1.089680
    13  H    1.219957
    14  H    1.108307
    15  N   -1.531500
    16  N   -2.759344
    17  N   -1.844239
    18  N   -1.327881
    19  O   -2.476620
 Sum of Mulliken charges =   0.00000

 Dipole moment (field-independent basis, Debye):
    X=              0.5874    Y=             -0.3112    Z=              0.7014  Tot=              0.9663

 Test job not archived.
 1\1\GINC-SE041\SP\RHF\Aug-CC-pVDZ\C8H6N4O1\OHZDE\08-Apr-2025\0\\#t hf
 aug-cc-pvdz iop(5/13=1,5/36=2,99/5=2) pseudo=read geom=check guess=(re
 ad,tcheck) scf=(maxcycle=1)\\title\\0,1\C,0,1.06806,1.89967,0.478745\C
 ,0,-0.19196,1.92257,-0.341681\C,0,-1.06677,0.715685,-0.161842\C,0,-2.8
 0289,-1.1981,0.164714\C,0,-1.45464,-1.60186,0.180868\C,0,-0.544393,-0.
 573108,-0.0480548\C,0,0.91223,-0.604477,-0.0570353\C,0,1.69888,0.58927
 5,0.119842\H,0,-1.08483,-2.59275,0.520405\H,0,-3.5378,-1.92303,0.35221
 9\H,0,0.0759643,2.01673,-1.43365\H,0,0.913672,1.89565,1.6019\H,0,1.733

 Normal termination of Gaussian 16 at Tue Apr  8 20:34:05 2025.
