 Gaussian 16, Revision C.01,

 ----------------------------------------------------------------------
 #t hf aug-cc-pvdz symm=none int=(grid=ultrafine) guess=(read,tcheck) s
 table=(opt,rrhf)
 ----------------------------------------------------------------------
 -----
 title
 -----
 Symbolic Z-matrix:
 Charge =  0 Multiplicity = 1

 SCF Done:  E(RHF) =  -380.210728301     A.U. after   11 cycles
 Normal termination of Gaussian 16 at Tue Apr  8 21:03:26 2025.
 Gaussian 16:  ES64L-G16RevC.01  3-Jul-2019

 ----------------------------------------------------------------------
 #t hf aug-cc-pvdz iop(5/13=1,5/36=2,99/5=2) pseudo=read geom=check gue
 ss=(read,tcheck) scf=(maxcycle=1)
 ----------------------------------------------------------------------
 -----
 title
 -----
 Structure from the checkpoint file:  "ANI1ccx_1843_conf120_mol1.chk"
 Charge =  0 Multiplicity = 1

                         Standard orientation:
 ---------------------------------------------------------------------
 Center     Atomic      Atomic             Coordinates (Angstroms)
 Number     Number       Type             X           Y           Z
 ---------------------------------------------------------------------
      1          1           0       -1.849199   -0.447264   -0.317039
      2          1           0       -2.501049   -1.804500    0.167278
      3          1           0       -0.922667    1.629911   -0.173119
      4          1           0       -2.486450    1.722690    0.116790
      5          1           0        1.205280    1.899341    1.313150
      6          1           0        0.518305    0.546720    0.802249
      7          1           0        1.174411   -1.116739    0.380122
      8          1           0       -0.277494   -1.389959    0.664398
      9          1           0        3.188981   -0.381698   -0.868020
     10          1           0        1.929251    0.516214   -0.753751
     11          8           0       -1.734029   -1.419339   -0.326050
     12          8           0       -1.826640    1.287490   -0.439770
     13          8           0        0.857497    1.488191    0.465574
     14          8           0        0.521439   -1.067789    1.094180
     15          8           0        2.184311   -0.435393   -0.960440
 ---------------------------------------------------------------------

 SCF Done:  E(RHF) =  -381.866810120     A.U. after    2 cycles

 The electronic state is 1-A.
 Alpha  occ. eigenvalues --  -21.09649 -21.08341 -21.08209 -21.07513 -21.06386
 Alpha  occ. eigenvalues --   -1.68933  -1.66974  -1.65247  -1.63737  -1.62568
 Alpha  occ. eigenvalues --   -0.66374  -0.65108  -0.63708  -0.61810  -0.60508
 Alpha  occ. eigenvalues --   -0.51823  -0.50076  -0.47403  -0.46023  -0.42701
 Alpha  occ. eigenvalues --   -0.36628  -0.35421  -0.33589  -0.33275  -0.31968
 Alpha virt. eigenvalues --    0.03447   0.04536   0.05281   0.05743   0.07637
 Alpha virt. eigenvalues --    0.08317   0.08786   0.10112   0.10473   0.11928
 Alpha virt. eigenvalues --    0.18319   0.18483   0.20458   0.21266   0.21572

 Mulliken charges:
               1
     1  H    1.571079
     2  H    0.791895
     3  H    1.160820
     4  H    0.853778
     5  H    0.672555
     6  H    1.726852
     7  H    1.313930
     8  H    1.299018
     9  H    0.872862
    10  H    1.080225
    11  O   -2.201838
    12  O   -2.269386
    13  O   -2.279078
    14  O   -2.548513
    15  O   -2.044199
 Sum of Mulliken charges =  -0.00000

 Dipole moment (field-independent basis, Debye):
    X=             -0.1522    Y=              1.2386    Z=              0.9630  Tot=              1.5763

 Test job not archived.
 1\1\GINC-SE454\SP\RHF\Aug-CC-pVDZ\H10O5\OHZDE\08-Apr-2025\0\\#t hf aug
 -cc-pvdz iop(5/13=1,5/36=2,99/5=2) pseudo=read geom=check guess=(read,
 tcheck) scf=(maxcycle=1)\\title\\0,1\H,0,-1.8492,-0.447264,-0.317039\H
 ,0,-2.50105,-1.8045,0.167278\H,0,-0.922667,1.62991,-0.173119\H,0,-2.48
 645,1.72269,0.11679\H,0,1.20528,1.89934,1.31315\H,0,0.518304,0.546719,
 0.802249\H,0,1.17441,-1.11674,0.380122\H,0,-0.277495,-1.38996,0.664398
 \H,0,3.18898,-0.3817,-0.86802\H,0,1.92925,0.516212,-0.753751\O,0,-1.73
 403,-1.41934,-0.32605\O,0,-1.82664,1.28749,-0.43977\O,0,0.857497,1.488

 Normal termination of Gaussian 16 at Tue Apr  8 21:03:30 2025.
