 Gaussian 16, Revision C.01,

 ----------------------------------------------------------------------
 #t hf aug-cc-pvdz symm=none int=(grid=ultrafine) guess=(read,tcheck) s
 table=(opt,rrhf)
 ----------------------------------------------------------------------
 -----
 title
 -----
 Symbolic Z-matrix:
 Charge =  0 Multiplicity = 1

 SCF Done:  E(RHF) =  -603.083898763     A.U. after   14 cycles
 Normal termination of Gaussian 16 at Tue Apr  8 22:09:51 2025.
 Gaussian 16:  ES64L-G16RevC.01  3-Jul-2019

 ----------------------------------------------------------------------
 #t hf aug-cc-pvdz iop(5/13=1,5/36=2,99/5=2) pseudo=read geom=check gue
 ss=(read,tcheck) scf=(maxcycle=1)
 ----------------------------------------------------------------------
 -----
 title
 -----
 Structure from the checkpoint file:  "ANI1ccx_894_conf2_mol2.chk"
 Charge =  0 Multiplicity = 1

                         Standard orientation:
 ---------------------------------------------------------------------
 Center     Atomic      Atomic             Coordinates (Angstroms)
 Number     Number       Type             X           Y           Z
 ---------------------------------------------------------------------
      1          6           0       -1.859869   -0.232567   -0.031115
      2          6           0       -0.535947    0.407708    0.073957
      3          6           0        0.555196   -0.401582    0.111332
      4          6           0        1.886501    0.237280    0.000468
      5          1           0       -2.587758    1.576772   -0.013799
      6          1           0        0.398565    2.028980    0.032344
      7          1           0       -0.421873   -1.982459    0.144463
      8          1           0        2.437650   -1.510341   -0.047989
      9          8           0       -2.899959    0.625341   -0.038080
     10          8           0       -2.041020   -1.444908   -0.070743
     11          8           0       -0.541992    1.737531    0.009011
     12          8           0        0.527894   -1.740760    0.087082
     13          8           0        2.864791   -0.638371   -0.122009
     14          8           0        2.077552    1.438919    0.004380
 ---------------------------------------------------------------------

 SCF Done:  E(RHF) =  -605.562333778     A.U. after    2 cycles

 The electronic state is 1-A.
 Alpha  occ. eigenvalues --  -21.15315 -21.14640 -21.13652 -21.13571 -21.08930
 Alpha  occ. eigenvalues --  -21.08558 -11.58571 -11.57290 -11.53094 -11.47293
 Alpha  occ. eigenvalues --   -1.90384  -1.85579  -1.79576  -1.78539  -1.69948
 Alpha  occ. eigenvalues --   -1.68283  -1.16938  -1.02727  -0.85845  -0.81573
 Alpha  occ. eigenvalues --   -0.74557  -0.71011  -0.68222  -0.65957  -0.59094
 Alpha  occ. eigenvalues --   -0.57831  -0.57308  -0.54275  -0.51914  -0.51018
 Alpha  occ. eigenvalues --   -0.49072  -0.47417  -0.45804  -0.36956  -0.36894
 Alpha  occ. eigenvalues --   -0.35728  -0.31166  -0.27821
 Alpha virt. eigenvalues --    0.03324   0.06154   0.06530   0.07414   0.07604
 Alpha virt. eigenvalues --    0.08461   0.09871   0.10285   0.10415   0.11211
 Alpha virt. eigenvalues --    0.11492   0.12948   0.13353   0.14575   0.15276

 Mulliken charges:
               1
     1  C    5.064475
     2  C    2.962650
     3  C    2.990102
     4  C    5.278455
     5  H    0.993267
     6  H    0.968240
     7  H    1.029583
     8  H    1.038812
     9  O   -3.142708
    10  O   -3.062565
    11  O   -3.936370
    12  O   -3.926879
    13  O   -3.205422
    14  O   -3.051640
 Sum of Mulliken charges =  -0.00000

 Dipole moment (field-independent basis, Debye):
    X=             -0.2060    Y=              0.0089    Z=              0.0062  Tot=              0.2063

 Test job not archived.
 1\1\GINC-SE226\SP\RHF\Aug-CC-pVDZ\C4H4O6\OHZDE\08-Apr-2025\0\\#t hf au
 g-cc-pvdz iop(5/13=1,5/36=2,99/5=2) pseudo=read geom=check guess=(read
 ,tcheck) scf=(maxcycle=1)\\title\\0,1\C,0,-1.85987,-0.232569,-0.031114
 7\C,0,-0.535948,0.407707,0.0739575\C,0,0.555195,-0.401582,0.111332\C,0
 ,1.8865,0.237281,0.00046809\H,0,-2.58776,1.57677,-0.0137987\H,0,0.3985
 63,2.02898,0.0323436\H,0,-0.421873,-1.98246,0.144463\H,0,2.43765,-1.51
 034,-0.0479889\O,0,-2.89996,0.625339,-0.0380797\O,0,-2.04102,-1.44491,
 -0.0707433\O,0,-0.541994,1.73753,0.00901108\O,0,0.527894,-1.74076,0.08

 Normal termination of Gaussian 16 at Tue Apr  8 22:09:58 2025.
