 Gaussian 16, Revision C.01,

 ----------------------------------------------------------------------
 #t hf aug-cc-pvdz symm=none int=(grid=ultrafine) guess=(read,tcheck) s
 table=(opt,rrhf)
 ----------------------------------------------------------------------
 -----
 title
 -----
 Symbolic Z-matrix:
 Charge =  0 Multiplicity = 1

 SCF Done:  E(RHF) =  -258.516678018     a.u. after   27 cycles
 Normal termination of Gaussian 16 at Tue Apr  8 21:16:27 2025.
 Gaussian 16:  ES64L-G16RevC.01  3-Jul-2019

 ----------------------------------------------------------------------
 #t hf aug-cc-pvdz iop(5/13=1,5/36=2,99/5=2) pseudo=read geom=check gue
 ss=(read,tcheck) scf=(maxcycle=1)
 ----------------------------------------------------------------------
 -----
 title
 -----
 Structure from the checkpoint file:  "ANI1ccx_1907_conf18_mol1.chk"
 Charge =  0 Multiplicity = 1

                         Standard orientation:
 ---------------------------------------------------------------------
 Center     Atomic      Atomic             Coordinates (Angstroms)
 Number     Number       Type             X           Y           Z
 ---------------------------------------------------------------------
      1          7           0        1.744969    0.530719    0.000615
      2          7           0        2.304289   -0.420701   -0.001903
      3          8           0       -1.181471   -0.160512    0.004710
      4          8           0       -2.361631    0.064247   -0.003583
 ---------------------------------------------------------------------

 SCF Done:  E(RHF) =  -259.527062598     A.U. after    2 cycles

 The electronic state is 1-A.
 Alpha  occ. eigenvalues --  -21.23225 -21.22552 -15.87488 -15.87335  -2.12184
 Alpha  occ. eigenvalues --   -1.56321  -1.21490  -0.79088  -0.62250  -0.58462
 Alpha  occ. eigenvalues --   -0.57929  -0.57593  -0.55502  -0.54519  -0.27308
 Alpha virt. eigenvalues --    0.09702   0.11039   0.13272   0.13580   0.14329
 Alpha virt. eigenvalues --    0.15107   0.15412   0.16668   0.19731   0.21068
 Alpha virt. eigenvalues --    0.22603   0.25139   0.27605   0.29417   0.29650

 Mulliken charges:
               1
     1  N    0.086499
     2  N   -0.123460
     3  O   -0.379566
     4  O    0.416527
 Sum of Mulliken charges =  -0.00000

 Dipole moment (field-independent basis, Debye):
    X=             -0.0461    Y=             -0.0100    Z=             -0.0001  Tot=              0.0472

 Test job not archived.
 1\1\GINC-SE015\SP\RHF\Aug-CC-pVDZ\N2O2\OHZDE\08-Apr-2025\0\\#t hf aug-
 cc-pvdz iop(5/13=1,5/36=2,99/5=2) pseudo=read geom=check guess=(read,t
 check) scf=(maxcycle=1)\\title\\0,1\N,0,1.74497,0.530719,0.00061527\N,
 0,2.30429,-0.420701,-0.00190308\O,0,-1.18147,-0.160512,0.00471023\O,0,
 -2.36163,0.0642462,-0.0035834\\Version=ES64L-G16RevC.01\State=1-A\HF=-
 259.5270626\RMSD=1.356e-01\Dipole=-0.0181285,-0.0039371,-0.000056\Quad
 rupole=0.1461584,0.6742854,-0.8204438,0.4242277,0.0041279,-0.0210931\P
 G=C01 [X(N2O2)]\\@

 Normal termination of Gaussian 16 at Tue Apr  8 21:16:29 2025.
