 Gaussian 16, Revision C.01,

 ----------------------------------------------------------------------
 #t hf aug-cc-pvdz symm=none int=(grid=ultrafine) guess=(read,tcheck) s
 table=(opt,rrhf)
 ----------------------------------------------------------------------
 -----
 title
 -----
 Symbolic Z-matrix:
 Charge =  0 Multiplicity = 1

 SCF Done:  E(RHF) =  -444.054484719     A.U. after   18 cycles
 Normal termination of Gaussian 16 at Tue Apr  8 22:18:24 2025.
 Gaussian 16:  ES64L-G16RevC.01  3-Jul-2019

 ----------------------------------------------------------------------
 #t hf aug-cc-pvdz iop(5/13=1,5/36=2,99/5=2) pseudo=read geom=check gue
 ss=(read,tcheck) scf=(maxcycle=1)
 ----------------------------------------------------------------------
 -----
 title
 -----
 Structure from the checkpoint file:  "ANI1ccx_993_conf2_mol2.chk"
 Charge =  0 Multiplicity = 1

                         Standard orientation:
 ---------------------------------------------------------------------
 Center     Atomic      Atomic             Coordinates (Angstroms)
 Number     Number       Type             X           Y           Z
 ---------------------------------------------------------------------
      1          6           0        1.761581   -0.874009   -0.021133
      2          6           0        0.748835    0.110848    0.038445
      3          6           0       -0.630648   -0.007297    0.065863
      4          6           0       -1.624068   -1.008652    0.033474
      5          7           0        2.588233   -1.681936   -0.009322
      6          7           0        1.019598    1.435032   -0.019142
      7          7           0       -0.044021    2.093351    0.002451
      8          7           0       -2.523437   -1.736683   -0.036346
      9          8           0       -1.102101    1.238289   -0.032924
 ---------------------------------------------------------------------

 SCF Done:  E(RHF) =  -445.949389691     A.U. after    2 cycles

 The electronic state is 1-A.
 Alpha  occ. eigenvalues --  -21.22306 -15.90245 -15.86073 -15.84026 -15.81718
 Alpha  occ. eigenvalues --  -11.61653 -11.54303 -11.51102 -11.48635  -2.03737
 Alpha  occ. eigenvalues --   -1.55265  -1.38773  -1.35409  -1.26823  -1.03728
 Alpha  occ. eigenvalues --   -0.95749  -0.89356  -0.74210  -0.74004  -0.62824
 Alpha  occ. eigenvalues --   -0.58624  -0.56719  -0.55895  -0.54313  -0.53800
 Alpha  occ. eigenvalues --   -0.51454  -0.48548  -0.45544  -0.44681  -0.39633
 Alpha virt. eigenvalues --    0.03805   0.04838   0.08489   0.08632   0.09999
 Alpha virt. eigenvalues --    0.10129   0.10340   0.11333   0.11357   0.11869
 Alpha virt. eigenvalues --    0.12672   0.13092   0.13433   0.13642   0.13850

 Mulliken charges:
               1
     1  C    2.144989
     2  C    1.031369
     3  C    4.705608
     4  C    1.772281
     5  N   -2.843126
     6  N   -1.484730
     7  N    0.722459
     8  N   -2.723129
     9  O   -3.325720
 Sum of Mulliken charges =  -0.00000

 Dipole moment (field-independent basis, Debye):
    X=             -1.4525    Y=              1.6408    Z=              0.0568  Tot=              2.1921

 Test job not archived.
 1\1\GINC-SE364\SP\RHF\Aug-CC-pVDZ\C4N4O1\OHZDE\08-Apr-2025\0\\#t hf au
 g-cc-pvdz iop(5/13=1,5/36=2,99/5=2) pseudo=read geom=check guess=(read
 ,tcheck) scf=(maxcycle=1)\\title\\0,1\C,0,1.76158,-0.874012,-0.0211327
 \C,0,0.748835,0.110846,0.0384455\C,0,-0.630648,-0.00729662,0.0658634\C
 ,0,-1.62407,-1.00865,0.0334737\N,0,2.58823,-1.68194,-0.00932193\N,0,1.
 0196,1.43503,-0.0191416\N,0,-0.044018,2.09335,0.00245053\N,0,-2.52344,
 -1.73668,-0.0363456\O,0,-1.1021,1.23829,-0.0329236\\Version=ES64L-G16R
 evC.01\State=1-A\HF=-445.9493897\RMSD=1.703e+00\Dipole=-0.5714601,0.64

 Normal termination of Gaussian 16 at Tue Apr  8 22:18:28 2025.
