 Gaussian 16, Revision C.01,

 ----------------------------------------------------------------------
 #t hf aug-cc-pvdz symm=none int=(grid=ultrafine) guess=(read,tcheck) s
 table=(opt,rrhf)
 ----------------------------------------------------------------------
 -----
 title
 -----
 Symbolic Z-matrix:
 Charge =  0 Multiplicity = 1

 SCF Done:  E(RHF) =  -601.274743895     A.U. after   14 cycles
 Normal termination of Gaussian 16 at Tue Apr  8 19:23:25 2025.
 Gaussian 16:  ES64L-G16RevC.01  3-Jul-2019

 ----------------------------------------------------------------------
 #t hf aug-cc-pvdz iop(5/13=1,5/36=2,99/5=2) pseudo=read geom=check gue
 ss=(read,tcheck) scf=(maxcycle=1)
 ----------------------------------------------------------------------
 -----
 title
 -----
 Structure from the checkpoint file:  "ANI1ccx_1119_conf6_mol1.chk"
 Charge =  0 Multiplicity = 1

                         Standard orientation:
 ---------------------------------------------------------------------
 Center     Atomic      Atomic             Coordinates (Angstroms)
 Number     Number       Type             X           Y           Z
 ---------------------------------------------------------------------
      1          6           0       -1.933421   -0.226692   -0.176272
      2          6           0       -0.813407   -0.281088    0.903539
      3          6           0        0.111974   -1.404339    0.919470
      4          6           0        1.343200   -1.041478    0.056529
      5          6           0        0.919236    1.419331   -0.039349
      6          1           0       -0.618657    1.968960    1.300220
      7          1           0        2.478169    0.330839   -0.752766
      8          1           0        0.523176   -1.626449    1.889060
      9          1           0       -1.120411   -0.091311    1.972630
     10          1           0       -0.521987   -0.959105   -1.265600
     11          1           0       -0.211392   -2.333330    0.547497
     12          7           0        1.646539    0.282235   -0.225399
     13          7           0       -0.123904    1.172210    0.810684
     14          8           0        2.037871   -1.943758   -0.357829
     15          8           0       -1.438930   -0.631256   -1.389120
     16          8           0       -3.014741    0.264282   -0.084701
     17          8           0        1.296697    2.527592   -0.389795
 ---------------------------------------------------------------------

 SCF Done:  E(RHF) =  -603.854711992     A.U. after    2 cycles

 The electronic state is 1-A.
 Alpha  occ. eigenvalues --  -21.14844 -21.08788 -21.08248 -21.05300 -15.82170
 Alpha  occ. eigenvalues --  -15.79261 -11.57926 -11.56760 -11.54585 -11.53213
 Alpha  occ. eigenvalues --  -11.46568  -1.84759  -1.76844  -1.73959  -1.68722
 Alpha  occ. eigenvalues --   -1.48152  -1.36119  -1.23453  -1.03509  -0.93769
 Alpha  occ. eigenvalues --   -0.86312  -0.82391  -0.76270  -0.71606  -0.68250
 Alpha  occ. eigenvalues --   -0.65646  -0.64349  -0.62074  -0.60069  -0.56680
 Alpha  occ. eigenvalues --   -0.55217  -0.52698  -0.51110  -0.49981  -0.47528
 Alpha  occ. eigenvalues --   -0.38775  -0.36613  -0.34714  -0.34252  -0.31841
 Alpha  occ. eigenvalues --   -0.30954
 Alpha virt. eigenvalues --    0.02355   0.04536   0.04606   0.05655   0.05976
 Alpha virt. eigenvalues --    0.07014   0.08739   0.09109   0.09453   0.10569
 Alpha virt. eigenvalues --    0.11231   0.11752   0.12092   0.12687   0.13255

 Mulliken charges:
               1
     1  C    5.704204
     2  C   -1.150060
     3  C   -3.745433
     4  C    5.686547
     5  C    5.132068
     6  H    0.618494
     7  H    0.662669
     8  H    1.389598
     9  H    1.477008
    10  H    1.503845
    11  H    1.234772
    12  N   -2.972100
    13  N   -2.210491
    14  O   -3.574309
    15  O   -3.289208
    16  O   -3.264564
    17  O   -3.203041
 Sum of Mulliken charges =   0.00000

 Dipole moment (field-independent basis, Debye):
    X=              0.1124    Y=             -1.4198    Z=              1.8667  Tot=              2.3480

 Test job not archived.
 1\1\GINC-SE102\SP\RHF\Aug-CC-pVDZ\C5H6N2O4\OHZDE\08-Apr-2025\0\\#t hf
 aug-cc-pvdz iop(5/13=1,5/36=2,99/5=2) pseudo=read geom=check guess=(re
 ad,tcheck) scf=(maxcycle=1)\\title\\0,1\C,0,-1.93342,-0.226691,-0.1762
 72\C,0,-0.813406,-0.281088,0.903539\C,0,0.111974,-1.40434,0.91947\C,0,
 1.3432,-1.04148,0.0565286\C,0,0.919238,1.41933,-0.0393489\H,0,-0.61865
 4,1.96896,1.30022\H,0,2.47817,0.330836,-0.752766\H,0,0.523176,-1.62645
 ,1.88906\H,0,-1.12041,-0.0913108,1.97263\H,0,-0.521987,-0.959105,-1.26
 56\H,0,-0.211393,-2.33333,0.547497\N,0,1.64654,0.282233,-0.225399\N,0,

 Normal termination of Gaussian 16 at Tue Apr  8 19:23:34 2025.
