 Gaussian 16, Revision C.01,

 ----------------------------------------------------------------------
 #t hf aug-cc-pvdz symm=none int=(grid=ultrafine) guess=(read,tcheck) s
 table=(opt,rrhf)
 ----------------------------------------------------------------------
 -----
 title
 -----
 Symbolic Z-matrix:
 Charge =  0 Multiplicity = 1

 SCF Done:  E(RHF) =  -486.731087702     A.U. after   15 cycles
 Normal termination of Gaussian 16 at Tue Apr  8 19:24:27 2025.
 Gaussian 16:  ES64L-G16RevC.01  3-Jul-2019

 ----------------------------------------------------------------------
 #t hf aug-cc-pvdz iop(5/13=1,5/36=2,99/5=2) pseudo=read geom=check gue
 ss=(read,tcheck) scf=(maxcycle=1)
 ----------------------------------------------------------------------
 -----
 title
 -----
 Structure from the checkpoint file:  "ANI1ccx_1154_conf1_mol1.chk"
 Charge =  0 Multiplicity = 1

                         Standard orientation:
 ---------------------------------------------------------------------
 Center     Atomic      Atomic             Coordinates (Angstroms)
 Number     Number       Type             X           Y           Z
 ---------------------------------------------------------------------
      1          6           0        3.325370    0.032603    0.000895
      2          6           0        0.900756   -0.263962   -0.045912
      3          6           0        0.580824    1.048370    0.006825
      4          6           0       -0.851569    1.464680   -0.007059
      5          6           0       -1.394420   -0.833240   -0.049160
      6          1           0        0.146730   -2.098270   -0.557834
      7          1           0       -3.212130   -1.409641    0.238077
      8          1           0       -2.062149   -2.535751    0.658313
      9          1           0        1.346810    1.798370    0.160923
     10          1           0        2.167600   -1.592159    0.687649
     11          1           0        3.144210    0.772966   -0.806334
     12          1           0        4.203860   -0.538331   -0.319076
     13          1           0        3.456420    0.541549    0.981610
     14          7           0        2.156640   -0.841395    0.012053
     15          7           0       -1.809870    0.417124   -0.011737
     16          7           0       -2.346599   -1.839871   -0.034715
     17          7           0       -0.095998   -1.248200   -0.056762
     18          8           0       -1.235791    2.619620    0.020158
 ---------------------------------------------------------------------

 SCF Done:  E(RHF) =  -488.944348235     A.U. after    2 cycles

 The electronic state is 1-A.
 Alpha  occ. eigenvalues --  -21.00285 -15.80975 -15.78788 -15.77514 -15.71018
 Alpha  occ. eigenvalues --  -11.52460 -11.50979 -11.48649 -11.41977 -11.38178
 Alpha  occ. eigenvalues --   -1.67770  -1.56964  -1.44698  -1.32485  -1.28316
 Alpha  occ. eigenvalues --   -1.12125  -1.02286  -0.89356  -0.87209  -0.77168
 Alpha  occ. eigenvalues --   -0.73943  -0.67775  -0.65548  -0.64216  -0.63839
 Alpha  occ. eigenvalues --   -0.60680  -0.58717  -0.54513  -0.53772  -0.49489
 Alpha  occ. eigenvalues --   -0.48124  -0.46475  -0.40043  -0.38015  -0.32917
 Alpha  occ. eigenvalues --   -0.27760  -0.25801
 Alpha virt. eigenvalues --    0.02489   0.03596   0.04464   0.05158   0.05428
 Alpha virt. eigenvalues --    0.06607   0.06780   0.08247   0.09157   0.10715
 Alpha virt. eigenvalues --    0.11488   0.12303   0.12736   0.12961   0.13447

 Mulliken charges:
               1
     1  C   -3.948907
     2  C    4.443749
     3  C   -0.997998
     4  C    4.033415
     5  C    3.940958
     6  H    0.673910
     7  H    0.624344
     8  H    0.513353
     9  H    1.635816
    10  H    0.691075
    11  H    1.283700
    12  H    1.352688
    13  H    1.398162
    14  N   -3.473706
    15  N   -2.762151
    16  N   -3.134212
    17  N   -2.825201
    18  O   -3.448998
 Sum of Mulliken charges =  -0.00000

 Dipole moment (field-independent basis, Debye):
    X=              3.6950    Y=             -5.9390    Z=              1.1590  Tot=              7.0900

 Test job not archived.
 1\1\GINC-SE041\SP\RHF\Aug-CC-pVDZ\C5H8N4O1\OHZDE\08-Apr-2025\0\\#t hf
 aug-cc-pvdz iop(5/13=1,5/36=2,99/5=2) pseudo=read geom=check guess=(re
 ad,tcheck) scf=(maxcycle=1)\\title\\0,1\C,0,3.32537,0.0326019,0.000894
 62\C,0,0.900756,-0.263962,-0.0459118\C,0,0.580824,1.04837,0.00682534\C
 ,0,-0.851569,1.46468,-0.00705903\C,0,-1.39442,-0.83324,-0.0491604\H,0,
 0.146729,-2.09827,-0.557834\H,0,-3.21213,-1.40964,0.238077\H,0,-2.0621
 5,-2.53575,0.658313\H,0,1.34681,1.79837,0.160923\H,0,2.1676,-1.59216,0
 .687649\H,0,3.14421,0.772965,-0.806334\H,0,4.20386,-0.538332,-0.319076

 Normal termination of Gaussian 16 at Tue Apr  8 19:24:36 2025.
