 Gaussian 16, Revision C.01,

 ----------------------------------------------------------------------
 #t hf aug-cc-pvdz symm=none int=(grid=ultrafine) guess=(read,tcheck) s
 table=(opt,rrhf)
 ----------------------------------------------------------------------
 -----
 title
 -----
 Symbolic Z-matrix:
 Charge =  0 Multiplicity = 1

 SCF Done:  E(RHF) =  -601.809495263     A.U. after   17 cycles
 Normal termination of Gaussian 16 at Tue Apr  8 21:03:28 2025.
 Gaussian 16:  ES64L-G16RevC.01  3-Jul-2019

 ----------------------------------------------------------------------
 #t hf aug-cc-pvdz iop(5/13=1,5/36=2,99/5=2) pseudo=read geom=check gue
 ss=(read,tcheck) scf=(maxcycle=1)
 ----------------------------------------------------------------------
 -----
 title
 -----
 Structure from the checkpoint file:  "ANI1ccx_1803_conf2_mol1.chk"
 Charge =  0 Multiplicity = 1

                         Standard orientation:
 ---------------------------------------------------------------------
 Center     Atomic      Atomic             Coordinates (Angstroms)
 Number     Number       Type             X           Y           Z
 ---------------------------------------------------------------------
      1          6           0       -0.190307    1.543460   -0.012276
      2          6           0        0.849215    0.481750    0.006574
      3          6           0        2.180890    0.916795   -0.012614
      4          6           0        3.170390   -0.016331    0.033966
      5          6           0       -3.118450   -0.622218   -0.074273
      6          6           0        1.528321   -1.863760   -0.072559
      7          6           0        0.493518   -0.881988    0.042881
      8          6           0       -1.723260   -0.261589    0.033131
      9          6           0        2.790961   -1.377350    0.013610
     10          1           0        1.250301   -2.858540   -0.306878
     11          1           0        3.574971   -2.105260    0.044731
     12          1           0        4.264130    0.299361    0.046947
     13          1           0        2.361690    1.975280    0.031096
     14          7           0       -0.812359   -1.197211    0.015251
     15          7           0       -4.229850   -0.909556   -0.068894
     16          8           0       -0.033903    2.738500   -0.180667
     17          8           0       -1.471510    1.001989    0.281789
 ---------------------------------------------------------------------

 SCF Done:  E(RHF) =  -604.449965393     A.U. after    2 cycles

 The electronic state is 1-A.
 Alpha  occ. eigenvalues --  -21.16734 -21.09203 -15.80630 -15.78700 -11.58868
 Alpha  occ. eigenvalues --  -11.58264 -11.55105 -11.50199 -11.47433 -11.46881
 Alpha  occ. eigenvalues --  -11.45378 -11.44890 -11.40914  -1.92210  -1.71656
 Alpha  occ. eigenvalues --   -1.47624  -1.35571  -1.32031  -1.16714  -1.14544
 Alpha  occ. eigenvalues --   -1.00766  -0.96365  -0.88839  -0.82974  -0.76365
 Alpha  occ. eigenvalues --   -0.75066  -0.67600  -0.66899  -0.65273  -0.62075
 Alpha  occ. eigenvalues --   -0.57423  -0.56064  -0.55850  -0.54381  -0.53470
 Alpha  occ. eigenvalues --   -0.50547  -0.48970  -0.47091  -0.46954  -0.41394
 Alpha  occ. eigenvalues --   -0.40129  -0.36197  -0.33704  -0.30482
 Alpha virt. eigenvalues --    0.02367   0.04329   0.04528   0.04825   0.06524
 Alpha virt. eigenvalues --    0.06738   0.07661   0.08168   0.09971   0.10236
 Alpha virt. eigenvalues --    0.10380   0.10620   0.11545   0.11652   0.12145

 Mulliken charges:
               1
     1  C    4.039604
     2  C   -0.989498
     3  C   -0.971648
     4  C   -2.269821
     5  C    1.197721
     6  C   -3.563838
     7  C    6.050784
     8  C    3.961964
     9  C    0.730860
    10  H    1.487404
    11  H    1.387760
    12  H    1.457945
    13  H    1.759162
    14  N   -4.512016
    15  N   -2.382130
    16  O   -3.616858
    17  O   -3.767395
 Sum of Mulliken charges =   0.00000

 Dipole moment (field-independent basis, Debye):
    X=              4.1999    Y=              0.1257    Z=              0.0958  Tot=              4.2029

 Test job not archived.
 1\1\GINC-SE457\SP\RHF\Aug-CC-pVDZ\C9H4N2O2\OHZDE\08-Apr-2025\0\\#t hf
 aug-cc-pvdz iop(5/13=1,5/36=2,99/5=2) pseudo=read geom=check guess=(re
 ad,tcheck) scf=(maxcycle=1)\\title\\0,1\C,0,-0.190307,1.54346,-0.01227
 62\C,0,0.849215,0.48175,0.00657408\C,0,2.18089,0.916795,-0.0126138\C,0
 ,3.17039,-0.0163308,0.0339655\C,0,-3.11845,-0.622217,-0.0742729\C,0,1.
 52832,-1.86376,-0.0725588\C,0,0.493518,-0.881988,0.0428805\C,0,-1.7232
 6,-0.261588,0.0331305\C,0,2.79096,-1.37735,0.0136096\H,0,1.2503,-2.858
 54,-0.306878\H,0,3.57497,-2.10526,0.0447313\H,0,4.26413,0.299361,0.046

 Normal termination of Gaussian 16 at Tue Apr  8 21:03:39 2025.
