 Gaussian 16, Revision C.01,

 ----------------------------------------------------------------------
 #t hf aug-cc-pvdz symm=none int=(grid=ultrafine) guess=(read,tcheck) s
 table=(opt,rrhf)
 ----------------------------------------------------------------------
 -----
 title
 -----
 Symbolic Z-matrix:
 Charge =  0 Multiplicity = 1

 SCF Done:  E(RHF) =  -413.901142114     A.U. after   13 cycles
 Normal termination of Gaussian 16 at Tue Apr  8 21:49:14 2025.
 Gaussian 16:  ES64L-G16RevC.01  3-Jul-2019

 ----------------------------------------------------------------------
 #t hf aug-cc-pvdz iop(5/13=1,5/36=2,99/5=2) pseudo=read geom=check gue
 ss=(read,tcheck) scf=(maxcycle=1)
 ----------------------------------------------------------------------
 -----
 title
 -----
 Structure from the checkpoint file:  "ANI1ccx_583_conf2_mol2.chk"
 Charge =  0 Multiplicity = 1

                         Standard orientation:
 ---------------------------------------------------------------------
 Center     Atomic      Atomic             Coordinates (Angstroms)
 Number     Number       Type             X           Y           Z
 ---------------------------------------------------------------------
      1          6           0       -0.371139    2.048410    0.072542
      2          6           0        0.401688   -0.085654   -0.299236
      3          1           0       -0.900273    2.013180   -0.921293
      4          1           0       -0.042337    3.092820    0.271270
      5          1           0       -0.962622    1.712490    0.921865
      6          1           0        1.122480   -1.934171   -0.326621
      7          1           0        3.519610   -1.195773   -0.031466
      8          1           0        2.674030   -0.846233    1.386270
      9          1           0       -4.126199   -0.391068   -0.017567
     10          1           0       -2.579219   -0.567241    0.056951
     11          7           0        1.440620   -0.935600   -0.225638
     12          7           0        2.671471   -0.739117    0.331700
     13          8           0        0.769947    1.167919    0.032693
     14          8           0       -0.790502   -0.415494   -0.458474
     15          8           0       -3.438620   -0.994615    0.335572
 ---------------------------------------------------------------------

 SCF Done:  E(RHF) =  -415.709427894     A.U. after    2 cycles

 The electronic state is 1-A.
 Alpha  occ. eigenvalues --  -21.09653 -21.04881 -21.03710 -15.80152 -15.78341
 Alpha  occ. eigenvalues --  -11.53464 -11.42126  -1.85610  -1.66080  -1.60457
 Alpha  occ. eigenvalues --   -1.50407  -1.16777  -1.00979  -0.80702  -0.72261
 Alpha  occ. eigenvalues --   -0.69915  -0.68430  -0.64263  -0.59886  -0.55967
 Alpha  occ. eigenvalues --   -0.54560  -0.53703  -0.43968  -0.41334  -0.40944
 Alpha  occ. eigenvalues --   -0.34456  -0.32528  -0.31737  -0.30663
 Alpha virt. eigenvalues --    0.03099   0.04342   0.05046   0.05764   0.06024
 Alpha virt. eigenvalues --    0.06762   0.07309   0.09191   0.11723   0.12659
 Alpha virt. eigenvalues --    0.13387   0.14651   0.15307   0.15707   0.16342

 Mulliken charges:
               1
     1  C   -3.143826
     2  C    6.183621
     3  H    1.273340
     4  H    1.296142
     5  H    1.265637
     6  H    0.510270
     7  H    0.745283
     8  H    0.600307
     9  H    0.793691
    10  H    1.464167
    11  N   -1.667714
    12  N   -1.745305
    13  O   -2.718913
    14  O   -2.839091
    15  O   -2.017611
 Sum of Mulliken charges =   0.00000

 Dipole moment (field-independent basis, Debye):
    X=              3.3859    Y=              0.4677    Z=              0.5228  Tot=              3.4578

 Test job not archived.
 1\1\GINC-SE095\SP\RHF\Aug-CC-pVDZ\C2H8N2O3\OHZDE\08-Apr-2025\0\\#t hf
 aug-cc-pvdz iop(5/13=1,5/36=2,99/5=2) pseudo=read geom=check guess=(re
 ad,tcheck) scf=(maxcycle=1)\\title\\0,1\C,0,-0.371142,2.04841,0.072541
 8\C,0,0.401687,-0.0856532,-0.299236\H,0,-0.900276,2.01318,-0.921293\H,
 0,-0.0423411,3.09282,0.27127\H,0,-0.962624,1.71249,0.921865\H,0,1.1224
 8,-1.93417,-0.326621\H,0,3.51961,-1.19577,-0.0314661\H,0,2.67403,-0.84
 6231,1.38627\H,0,-4.1262,-0.391071,-0.0175668\H,0,-2.57922,-0.567243,0
 .0569513\N,0,1.44062,-0.935599,-0.225638\N,0,2.67147,-0.739115,0.3317\

 Normal termination of Gaussian 16 at Tue Apr  8 21:49:19 2025.
