 Gaussian 16, Revision C.01,

 ----------------------------------------------------------------------
 #t hf aug-cc-pvdz symm=none int=(grid=ultrafine) guess=(read,tcheck) s
 table=(opt,rrhf)
 ----------------------------------------------------------------------
 -----
 title
 -----
 Symbolic Z-matrix:
 Charge =  0 Multiplicity = 1

 SCF Done:  E(RHF) =  -1021.06036803     A.U. after   16 cycles
 Normal termination of Gaussian 16 at Tue Apr  8 22:08:06 2025.
 Gaussian 16:  ES64L-G16RevC.01  3-Jul-2019

 ----------------------------------------------------------------------
 #t hf aug-cc-pvdz iop(5/13=1,5/36=2,99/5=2) pseudo=read geom=check gue
 ss=(read,tcheck) scf=(maxcycle=1)
 ----------------------------------------------------------------------
 -----
 title
 -----
 Structure from the checkpoint file:  "ANI1ccx_54_conf17_mol1.chk"
 Charge =  0 Multiplicity = 1

                         Standard orientation:
 ---------------------------------------------------------------------
 Center     Atomic      Atomic             Coordinates (Angstroms)
 Number     Number       Type             X           Y           Z
 ---------------------------------------------------------------------
      1          6           0        1.341310   -0.057566    0.975740
      2          6           0       -4.327360   -0.573550   -0.043035
      3          6           0       -1.882930   -0.635679    0.642619
      4          6           0       -1.128360    1.718719   -0.227160
      5          6           0       -1.303290    0.204319   -0.509213
      6          6           0       -3.083370   -1.440271    0.147724
      7          6           0        3.659840    1.070159    0.568037
      8          6           0        2.130150    1.188759    0.432637
      9          6           0        0.970152   -0.882178   -0.305610
     10          6           0        3.978710   -0.033869   -0.409981
     11          1           0       -2.085270    0.289367   -1.357230
     12          1           0       -2.955160    1.837549    0.258861
     13          1           0       -6.204980   -0.721409   -0.327697
     14          1           0       -2.919900   -1.665491   -0.977949
     15          1           0       -3.263590   -2.402601    0.684211
     16          1           0       -2.003420    0.016530    1.497430
     17          1           0       -1.093850   -1.203981    0.969175
     18          1           0       -0.195990   -0.932051   -1.861100
     19          1           0        4.352850   -1.918771   -0.269473
     20          1           0        4.265310    2.008079    0.468844
     21          1           0        3.926460    0.661263    1.548950
     22          1           0        1.793810    2.183049    1.033830
     23          1           0        1.706330    1.485869   -0.545610
     24          1           0        0.465155    0.361115    1.397370
     25          1           0        1.470830   -1.797901    1.988780
     26          1           0        2.926490   -1.113761    1.480430
     27          7           0        2.006490   -0.905569    1.951850
     28          7           0       -0.100846   -0.341921   -1.042850
     29          8           0        1.729330   -1.751081   -0.777741
     30          8           0        4.042700   -0.004903   -1.624080
     31          8           0        4.429210   -1.130581    0.238433
     32          8           0       -0.186237    2.316799   -0.694910
     33          8           0       -4.437650    0.625412    0.196877
     34          8           0       -5.436980   -1.314571   -0.287652
     35          8           0       -2.097080    2.295489    0.451284
 ---------------------------------------------------------------------

 SCF Done:  E(RHF) =  -1025.54339733     A.U. after    2 cycles

 The electronic state is 1-A.
 Alpha  occ. eigenvalues --  -21.16296 -21.12227 -21.10489 -21.10291 -21.05177
 Alpha  occ. eigenvalues --  -21.04743 -21.03168 -15.77331 -15.73158 -11.59099
 Alpha  occ. eigenvalues --  -11.56013 -11.54534 -11.52340 -11.52120 -11.48530
 Alpha  occ. eigenvalues --  -11.47416 -11.44273 -11.43703 -11.39911  -1.86962
 Alpha  occ. eigenvalues --   -1.83804  -1.81918  -1.70910  -1.69483  -1.66518
 Alpha  occ. eigenvalues --   -1.63151  -1.44085  -1.35308  -1.24578  -1.18129
 Alpha  occ. eigenvalues --   -1.09541  -1.04121  -0.98313  -0.90383  -0.83385
 Alpha  occ. eigenvalues --   -0.81406  -0.78223  -0.77515  -0.74064  -0.73031
 Alpha  occ. eigenvalues --   -0.70520  -0.68057  -0.67798  -0.65266  -0.64271
 Alpha  occ. eigenvalues --   -0.62149  -0.61072  -0.59829  -0.58711  -0.58203
 Alpha  occ. eigenvalues --   -0.56682  -0.55697  -0.53789  -0.53696  -0.53298
 Alpha  occ. eigenvalues --   -0.51765  -0.50741  -0.48938  -0.48894  -0.47400
 Alpha  occ. eigenvalues --   -0.46059  -0.44628  -0.43081  -0.42211  -0.38398
 Alpha  occ. eigenvalues --   -0.37091  -0.34924  -0.34600  -0.33219  -0.30949
 Alpha  occ. eigenvalues --   -0.30072  -0.29088  -0.27314
 Alpha virt. eigenvalues --    0.02458   0.03438   0.03894   0.04409   0.05441
 Alpha virt. eigenvalues --    0.05840   0.06088   0.06395   0.06823   0.06911
 Alpha virt. eigenvalues --    0.07332   0.07793   0.08247   0.08745   0.09713

 Mulliken charges:
               1
     1  C    0.992240
     2  C    6.370545
     3  C   -4.105456
     4  C    7.683127
     5  C    0.188659
     6  C   -4.460450
     7  C   -5.340283
     8  C   -3.162593
     9  C    5.201311
    10  C    7.402521
    11  H    1.975838
    12  H    1.344186
    13  H    0.941746
    14  H    1.359002
    15  H    1.401540
    16  H    1.738929
    17  H    2.131798
    18  H    0.442522
    19  H    0.917591
    20  H    1.299558
    21  H    1.400885
    22  H    1.026214
    23  H    2.095716
    24  H    2.102390
    25  H    0.538781
    26  H    0.664844
    27  N   -3.413184
    28  N   -4.129684
    29  O   -3.841832
    30  O   -3.664788
    31  O   -3.354490
    32  O   -3.752803
    33  O   -3.066518
    34  O   -3.302316
    35  O   -3.625547
 Sum of Mulliken charges =   0.00000

 Dipole moment (field-independent basis, Debye):
    X=             -4.9772    Y=             -2.7442    Z=              0.4127  Tot=              5.6986

 Test job not archived.
 1\1\GINC-SE116\SP\RHF\Aug-CC-pVDZ\C10H16N2O7\OHZDE\08-Apr-2025\0\\#t h
 f aug-cc-pvdz iop(5/13=1,5/36=2,99/5=2) pseudo=read geom=check guess=(
 read,tcheck) scf=(maxcycle=1)\\title\\0,1\C,0,1.34131,-0.0575649,0.975
 74\C,0,-4.32736,-0.573549,-0.0430347\C,0,-1.88293,-0.635678,0.642619\C
 ,0,-1.12836,1.71872,-0.22716\C,0,-1.30329,0.20432,-0.509213\C,0,-3.083
 37,-1.44027,0.147724\C,0,3.65984,1.07016,0.568037\C,0,2.13015,1.18876,
 0.432637\C,0,0.970152,-0.882177,-0.30561\C,0,3.97871,-0.033868,-0.4099
 81\H,0,-2.08527,0.289368,-1.35723\H,0,-2.95516,1.83755,0.258861\H,0,-6

 Normal termination of Gaussian 16 at Tue Apr  8 22:09:11 2025.
