 Gaussian 16, Revision C.01,

 ----------------------------------------------------------------------
 #t hf aug-cc-pvdz symm=none int=(grid=ultrafine) guess=(read,tcheck) s
 table=(opt,rrhf)
 ----------------------------------------------------------------------
 -----
 title
 -----
 Symbolic Z-matrix:
 Charge =  0 Multiplicity = 1

 SCF Done:  E(RHF) =  -962.234741887     A.U. after   14 cycles
 Normal termination of Gaussian 16 at Tue Apr  8 21:06:09 2025.
 Gaussian 16:  ES64L-G16RevC.01  3-Jul-2019

 ----------------------------------------------------------------------
 #t hf aug-cc-pvdz iop(5/13=1,5/36=2,99/5=2) pseudo=read geom=check gue
 ss=(read,tcheck) scf=(maxcycle=1)
 ----------------------------------------------------------------------
 -----
 title
 -----
 Structure from the checkpoint file:  "ANI1ccx_1756_conf16_mol1.chk"
 Charge =  0 Multiplicity = 1

                         Standard orientation:
 ---------------------------------------------------------------------
 Center     Atomic      Atomic             Coordinates (Angstroms)
 Number     Number       Type             X           Y           Z
 ---------------------------------------------------------------------
      1          6           0       -0.788343   -1.003880   -0.051153
      2          6           0        0.448962   -1.467430    0.744678
      3          6           0       -2.052899   -1.664521    0.570956
      4          6           0       -3.242099   -1.182451   -0.229578
      5          6           0       -3.402780    0.316951   -0.285616
      6          6           0        2.072330    0.285587   -0.178137
      7          6           0        3.525730    0.032174   -0.611644
      8          6           0        1.802780    1.564360    0.648623
      9          6           0        0.289085    1.915290    0.517981
     10          1           0        2.935741   -1.687670   -1.108949
     11          1           0       -1.369950    1.551659    1.476361
     12          1           0        2.441800    2.347250    0.261788
     13          1           0        2.048660    1.321850    1.777991
     14          1           0        1.593460    0.329955   -1.178839
     15          1           0        2.200571   -1.181200    1.368701
     16          1           0       -4.460700    1.719379   -1.246119
     17          1           0       -4.579940    0.138775   -1.903749
     18          1           0       -3.243999   -1.547181   -1.233199
     19          1           0       -4.190789   -1.500171    0.160068
     20          1           0       -2.243499   -1.368361    1.629111
     21          1           0       -1.984759   -2.749511    0.589489
     22          1           0       -1.037120    0.036448    0.064538
     23          1           0       -1.225910   -0.772079   -2.053709
     24          1           0       -0.354214   -2.172630   -1.674639
     25          7           0       -0.473845   -1.187650   -1.459359
     26          7           0       -3.999160    0.832611   -1.445349
     27          7           0        1.742590   -0.946270    0.509108
     28          8           0        0.351107   -2.266870    1.652721
     29          8           0       -2.863790    1.088539    0.518690
     30          8           0        4.345890    0.925964   -0.588336
     31          8           0       -0.151327    2.521180   -0.457193
     32          8           0       -0.391270    1.667390    1.615301
     33          8           0        3.792761   -1.202930   -1.105719
 ---------------------------------------------------------------------

 SCF Done:  E(RHF) =  -966.465711187     A.U. after    2 cycles

 The electronic state is 1-A.
 Alpha  occ. eigenvalues --  -21.12229 -21.10992 -21.06494 -21.05030 -21.04972
 Alpha  occ. eigenvalues --  -21.04307 -15.80867 -15.77188 -15.76880 -11.56177
 Alpha  occ. eigenvalues --  -11.54967 -11.54471 -11.54215 -11.49107 -11.48285
 Alpha  occ. eigenvalues --  -11.45938 -11.42811 -11.41437  -1.82653  -1.81168
 Alpha  occ. eigenvalues --   -1.75012  -1.73239  -1.65398  -1.64209  -1.42528
 Alpha  occ. eigenvalues --   -1.38692  -1.36747  -1.21161  -1.15727  -1.06029
 Alpha  occ. eigenvalues --   -1.01110  -0.93762  -0.82595  -0.81705  -0.79829
 Alpha  occ. eigenvalues --   -0.78730  -0.73303  -0.72743  -0.71200  -0.69988
 Alpha  occ. eigenvalues --   -0.66402  -0.65694  -0.64992  -0.62943  -0.61638
 Alpha  occ. eigenvalues --   -0.60008  -0.59088  -0.56061  -0.55693  -0.54893
 Alpha  occ. eigenvalues --   -0.53764  -0.53080  -0.51343  -0.50391  -0.49854
 Alpha  occ. eigenvalues --   -0.48825  -0.47861  -0.46224  -0.45490  -0.41842
 Alpha  occ. eigenvalues --   -0.38306  -0.37397  -0.34979  -0.33647  -0.33065
 Alpha  occ. eigenvalues --   -0.32251  -0.31271  -0.28990  -0.27820
 Alpha virt. eigenvalues --    0.02156   0.03420   0.03620   0.04418   0.04693
 Alpha virt. eigenvalues --    0.05585   0.06323   0.06520   0.07026   0.07424
 Alpha virt. eigenvalues --    0.07785   0.07936   0.08709   0.09157   0.09586

 Mulliken charges:
               1
     1  C    0.181655
     2  C    5.613340
     3  C   -4.840095
     4  C   -3.529770
     5  C    5.475536
     6  C   -2.367310
     7  C    6.193931
     8  C   -4.905479
     9  C    8.075566
    10  H    1.099218
    11  H    1.361741
    12  H    1.524139
    13  H    1.300057
    14  H    2.009952
    15  H    0.475219
    16  H    0.694183
    17  H    0.653667
    18  H    1.621343
    19  H    1.496486
    20  H    1.324293
    21  H    1.422229
    22  H    3.592372
    23  H    0.513607
    24  H    0.641384
    25  N   -2.993870
    26  N   -3.326106
    27  N   -1.763496
    28  O   -3.697132
    29  O   -3.648548
    30  O   -3.274519
    31  O   -3.624847
    32  O   -3.942027
    33  O   -3.356722
 Sum of Mulliken charges =   0.00000

 Dipole moment (field-independent basis, Debye):
    X=             -6.1251    Y=             -1.9145    Z=             -1.3216  Tot=              6.5520

 Test job not archived.
 1\1\GINC-SE081\SP\RHF\Aug-CC-pVDZ\C9H15N3O6\OHZDE\08-Apr-2025\0\\#t hf
  aug-cc-pvdz iop(5/13=1,5/36=2,99/5=2) pseudo=read geom=check guess=(r
 ead,tcheck) scf=(maxcycle=1)\\title\\0,1\C,0,-0.788343,-1.00388,-0.051
 1542\C,0,0.448961,-1.46743,0.744677\C,0,-2.0529,-1.66452,0.570955\C,0,
 -3.2421,-1.18245,-0.229579\C,0,-3.40278,0.316952,-0.285617\C,0,2.07233
 ,0.285587,-0.178138\C,0,3.52573,0.0321733,-0.611645\C,0,1.80278,1.5643
 6,0.648622\C,0,0.289085,1.91529,0.51798\H,0,2.93574,-1.68767,-1.10895\
 H,0,-1.36995,1.55166,1.47636\H,0,2.4418,2.34725,0.261787\H,0,2.04866,1

 Normal termination of Gaussian 16 at Tue Apr  8 21:07:03 2025.
