 Gaussian 16, Revision C.01,

 ----------------------------------------------------------------------
 #t hf aug-cc-pvdz symm=none int=(grid=ultrafine) guess=(read,tcheck) s
 table=(opt,rrhf)
 ----------------------------------------------------------------------
 -----
 title
 -----
 Symbolic Z-matrix:
 Charge =  0 Multiplicity = 1

 SCF Done:  E(RHF) =  -398.813941250     A.U. after   14 cycles
 Normal termination of Gaussian 16 at Tue Apr  8 19:23:50 2025.
 Gaussian 16:  ES64L-G16RevC.01  3-Jul-2019

 ----------------------------------------------------------------------
 #t hf aug-cc-pvdz iop(5/13=1,5/36=2,99/5=2) pseudo=read geom=check gue
 ss=(read,tcheck) scf=(maxcycle=1)
 ----------------------------------------------------------------------
 -----
 title
 -----
 Structure from the checkpoint file:  "ANI1ccx_1166_conf11_mol2.chk"
 Charge =  0 Multiplicity = 1

                         Standard orientation:
 ---------------------------------------------------------------------
 Center     Atomic      Atomic             Coordinates (Angstroms)
 Number     Number       Type             X           Y           Z
 ---------------------------------------------------------------------
      1          6           0       -0.113328    0.243794    0.726460
      2          6           0       -1.462630    0.067901   -0.012026
      3          6           0        0.739902    1.371430    0.004932
      4          6           0        2.034220    0.602944   -0.320969
      5          6           0        1.654400   -0.874461   -0.479407
      6          1           0       -0.888394   -1.679570   -0.033612
      7          1           0        2.466360   -1.590880   -0.338496
      8          1           0        1.198310   -1.080670   -1.447860
      9          1           0        2.650640    1.026910   -1.123810
     10          1           0        0.966560    2.232510    0.642425
     11          1           0        0.141370    1.769540   -0.829766
     12          1           0       -0.263146    0.409903    1.801420
     13          1           0        1.093140   -1.238390    1.491380
     14          1           0        2.658560    0.656037    0.595930
     15          7           0        0.636965   -1.023650    0.605695
     16          8           0       -2.251440    0.949096   -0.215856
     17          8           0       -1.698250   -1.175280   -0.348071
 ---------------------------------------------------------------------

 SCF Done:  E(RHF) =  -400.633470051     A.U. after    2 cycles

 The electronic state is 1-A.
 Alpha  occ. eigenvalues --  -21.09261 -21.02814 -15.74853 -11.52869 -11.48581
 Alpha  occ. eigenvalues --  -11.44530 -11.41433 -11.37839  -1.81979  -1.63765
 Alpha  occ. eigenvalues --   -1.45091  -1.15192  -1.10658  -0.91406  -0.86380
 Alpha  occ. eigenvalues --   -0.75718  -0.73758  -0.71659  -0.64523  -0.61671
 Alpha  occ. eigenvalues --   -0.56441  -0.54114  -0.52165  -0.49374  -0.48062
 Alpha  occ. eigenvalues --   -0.47700  -0.46516  -0.42319  -0.36485  -0.31447
 Alpha  occ. eigenvalues --   -0.27446
 Alpha virt. eigenvalues --    0.02976   0.04385   0.04621   0.05118   0.05229
 Alpha virt. eigenvalues --    0.05449   0.07082   0.07581   0.08045   0.11389
 Alpha virt. eigenvalues --    0.11610   0.12306   0.12851   0.13189   0.13558

 Mulliken charges:
               1
     1  C   -2.546702
     2  C    6.655312
     3  C   -2.432455
     4  C   -2.255721
     5  C   -2.780336
     6  H    1.184231
     7  H    1.248626
     8  H    1.564635
     9  H    1.278117
    10  H    1.215755
    11  H    1.374116
    12  H    1.755215
    13  H    0.416769
    14  H    1.393274
    15  N   -1.406543
    16  O   -3.339249
    17  O   -3.325043
 Sum of Mulliken charges =  -0.00000

 Dipole moment (field-independent basis, Debye):
    X=              3.9082    Y=             -0.9509    Z=              1.0507  Tot=              4.1572

 Test job not archived.
 1\1\GINC-SE230\SP\RHF\Aug-CC-pVDZ\C5H9N1O2\OHZDE\08-Apr-2025\0\\#t hf
 aug-cc-pvdz iop(5/13=1,5/36=2,99/5=2) pseudo=read geom=check guess=(re
 ad,tcheck) scf=(maxcycle=1)\\title\\0,1\C,0,-0.113328,0.243794,0.72646
 \C,0,-1.46263,0.0679016,-0.0120258\C,0,0.739902,1.37143,0.00493255\C,0
 ,2.03422,0.602944,-0.320969\C,0,1.6544,-0.874461,-0.479407\H,0,-0.8883
 94,-1.67957,-0.033612\H,0,2.46636,-1.59088,-0.338496\H,0,1.19831,-1.08
 067,-1.44786\H,0,2.65064,1.02691,-1.12381\H,0,0.96656,2.23251,0.642425
 \H,0,0.14137,1.76954,-0.829766\H,0,-0.263146,0.409903,1.80142\H,0,1.09

 Normal termination of Gaussian 16 at Tue Apr  8 19:23:57 2025.
