 Gaussian 16, Revision C.01,

 ----------------------------------------------------------------------
 #t hf aug-cc-pvdz symm=none int=(grid=ultrafine) guess=(read,tcheck) s
 table=(opt,rrhf)
 ----------------------------------------------------------------------
 -----
 title
 -----
 Symbolic Z-matrix:
 Charge =  0 Multiplicity = 1

 SCF Done:  E(RHF) =  -755.373824699     A.U. after   14 cycles
 Normal termination of Gaussian 16 at Tue Apr  8 19:46:45 2025.
 Gaussian 16:  ES64L-G16RevC.01  3-Jul-2019

 ----------------------------------------------------------------------
 #t hf aug-cc-pvdz iop(5/13=1,5/36=2,99/5=2) pseudo=read geom=check gue
 ss=(read,tcheck) scf=(maxcycle=1)
 ----------------------------------------------------------------------
 -----
 title
 -----
 Structure from the checkpoint file:  "ANI1ccx_1405_conf34_mol1.chk"
 Charge =  0 Multiplicity = 1

                         Standard orientation:
 ---------------------------------------------------------------------
 Center     Atomic      Atomic             Coordinates (Angstroms)
 Number     Number       Type             X           Y           Z
 ---------------------------------------------------------------------
      1          6           0        1.734990   -1.381540    0.272799
      2          6           0        0.274238   -1.050490    0.639081
      3          6           0        2.223160   -0.215838   -0.515912
      4          6           0        2.254290    1.098560    0.291851
      5          6           0        1.064580    1.915070    0.123768
      6          6           0       -2.049390   -1.346980   -0.152609
      7          6           0       -2.749710   -0.044405   -0.234957
      8          1           0       -1.292470    0.383864   -1.148210
      9          1           0       -2.429510   -2.088190   -0.795697
     10          1           0       -2.344960   -1.812630    0.895599
     11          1           0       -0.217259   -1.607360   -1.224070
     12          1           0       -0.165894    2.364490   -1.187110
     13          1           0        2.468450    0.982592    1.378720
     14          1           0        2.946260    1.804960   -0.181080
     15          1           0        3.293270   -0.399131   -0.846432
     16          1           0        1.727240   -0.197595   -1.564980
     17          1           0        2.142260   -1.465150    1.277980
     18          1           0        1.730010   -3.444540    0.107934
     19          1           0        2.923680   -2.729720   -0.666297
     20          7           0        1.944080   -2.612340   -0.556569
     21          7           0       -0.606254   -1.206580   -0.346118
     22          8           0       -0.070323   -0.566110    1.701700
     23          8           0        0.690646    2.784470    0.862582
     24          8           0        0.654852    1.923730   -1.192480
     25          8           0       -3.763990    0.140870    0.440600
     26          8           0       -2.093540    0.853862   -0.846357
 ---------------------------------------------------------------------

 SCF Done:  E(RHF) =  -758.673716171     A.U. after    2 cycles

 The electronic state is 1-A.
 Alpha  occ. eigenvalues --  -21.13975 -21.12301 -21.05270 -21.05214 -21.03305
 Alpha  occ. eigenvalues --  -15.79230 -15.78005 -11.55122 -11.54637 -11.53051
 Alpha  occ. eigenvalues --  -11.50945 -11.45475 -11.44559 -11.41544  -1.86583
 Alpha  occ. eigenvalues --   -1.83681  -1.73986  -1.65511  -1.64638  -1.44453
 Alpha  occ. eigenvalues --   -1.37585  -1.21929  -1.11735  -1.05502  -0.93790
 Alpha  occ. eigenvalues --   -0.83764  -0.80347  -0.78830  -0.75337  -0.73608
 Alpha  occ. eigenvalues --   -0.68828  -0.68443  -0.65742  -0.63638  -0.61829
 Alpha  occ. eigenvalues --   -0.59960  -0.59539  -0.56539  -0.55389  -0.54231
 Alpha  occ. eigenvalues --   -0.51977  -0.51818  -0.49444  -0.48484  -0.46411
 Alpha  occ. eigenvalues --   -0.45647  -0.44499  -0.41736  -0.36607  -0.33567
 Alpha  occ. eigenvalues --   -0.32829  -0.31001  -0.29115  -0.28463
 Alpha virt. eigenvalues --    0.02755   0.03459   0.03757   0.04181   0.04558
 Alpha virt. eigenvalues --    0.05234   0.06417   0.06823   0.07485   0.07673
 Alpha virt. eigenvalues --    0.08024   0.08347   0.09896   0.10699   0.11301

 Mulliken charges:
               1
     1  C   -0.942469
     2  C    7.160258
     3  C   -3.116116
     4  C   -4.483868
     5  C    7.712106
     6  C   -3.256882
     7  C    6.042597
     8  H    1.497599
     9  H    1.621751
    10  H    1.257998
    11  H    0.598996
    12  H    1.129174
    13  H    1.236227
    14  H    1.394009
    15  H    1.368232
    16  H    1.492711
    17  H    1.588636
    18  H    0.405565
    19  H    0.658986
    20  N   -3.221456
    21  N   -2.416574
    22  O   -3.942729
    23  O   -3.728986
    24  O   -3.363338
    25  O   -3.173530
    26  O   -3.518896
 Sum of Mulliken charges =  -0.00000

 Dipole moment (field-independent basis, Debye):
    X=              4.1394    Y=             -3.3357    Z=             -2.3169  Tot=              5.7991

 Test job not archived.
 1\1\GINC-SE086\SP\RHF\Aug-CC-pVDZ\C7H12N2O5\OHZDE\08-Apr-2025\0\\#t hf
  aug-cc-pvdz iop(5/13=1,5/36=2,99/5=2) pseudo=read geom=check guess=(r
 ead,tcheck) scf=(maxcycle=1)\\title\\0,1\C,0,1.73499,-1.38154,0.272799
 \C,0,0.274238,-1.05049,0.639081\C,0,2.22316,-0.215838,-0.515912\C,0,2.
 25429,1.09856,0.291851\C,0,1.06458,1.91507,0.123768\C,0,-2.04939,-1.34
 698,-0.152609\C,0,-2.74971,-0.0444057,-0.234957\H,0,-1.29247,0.383864,
 -1.14821\H,0,-2.42951,-2.08819,-0.795697\H,0,-2.34496,-1.81263,0.89559
 9\H,0,-0.217259,-1.60736,-1.22407\H,0,-0.165894,2.36449,-1.18711\H,0,2

 Normal termination of Gaussian 16 at Tue Apr  8 19:47:12 2025.
