 Gaussian 16, Revision C.01,

 ----------------------------------------------------------------------
 #t hf aug-cc-pvdz symm=none int=(grid=ultrafine) guess=(read,tcheck) s
 table=(opt,rrhf)
 ----------------------------------------------------------------------
 -----
 title
 -----
 Symbolic Z-matrix:
 Charge =  0 Multiplicity = 1

 SCF Done:  E(RHF) =  -369.094049392     A.U. after   13 cycles
 Normal termination of Gaussian 16 at Tue Apr  8 21:41:06 2025.
 Gaussian 16:  ES64L-G16RevC.01  3-Jul-2019

 ----------------------------------------------------------------------
 #t hf aug-cc-pvdz iop(5/13=1,5/36=2,99/5=2) pseudo=read geom=check gue
 ss=(read,tcheck) scf=(maxcycle=1)
 ----------------------------------------------------------------------
 -----
 title
 -----
 Structure from the checkpoint file:  "ANI1ccx_452_conf7_mol1.chk"
 Charge =  0 Multiplicity = 1

                         Standard orientation:
 ---------------------------------------------------------------------
 Center     Atomic      Atomic             Coordinates (Angstroms)
 Number     Number       Type             X           Y           Z
 ---------------------------------------------------------------------
      1          6           0       -0.054839   -0.345683   -0.111799
      2          1           0        1.723270    1.206538   -0.383611
      3          1           0        0.481444    1.902799   -1.263330
      4          1           0       -0.735500    1.290430    0.435449
      5          1           0       -1.538832   -1.621310   -0.643493
      6          1           0       -2.857890    0.720355   -0.085358
      7          1           0       -2.055151   -0.015162    1.206540
      8          1           0        2.807638   -1.518483    0.218020
      9          1           0        1.942159   -0.382388    1.173720
     10          7           0        0.882095    1.837508   -0.278141
     11          7           0        0.086334    0.853155    0.473162
     12          7           0       -1.459421   -0.675303   -0.491985
     13          7           0       -2.490951   -0.090430    0.300068
     14          7           0        0.875575   -1.136592   -0.170363
     15          7           0        2.186639   -0.718150    0.169098
 ---------------------------------------------------------------------

 SCF Done:  E(RHF) =  -370.815270394     A.U. after    2 cycles

 The electronic state is 1-A.
 Alpha  occ. eigenvalues --  -15.77981 -15.76844 -15.76723 -15.76679 -15.76031
 Alpha  occ. eigenvalues --  -15.72532 -11.45551  -1.59001  -1.45731  -1.42854
 Alpha  occ. eigenvalues --   -1.22142  -1.11458  -1.07373  -0.80190  -0.76410
 Alpha  occ. eigenvalues --   -0.71632  -0.66623  -0.64991  -0.62708  -0.60467
 Alpha  occ. eigenvalues --   -0.58139  -0.53426  -0.46252  -0.42020  -0.40361
 Alpha  occ. eigenvalues --   -0.38131  -0.33419  -0.29228
 Alpha virt. eigenvalues --    0.04053   0.04953   0.05591   0.06061   0.06342
 Alpha virt. eigenvalues --    0.07467   0.07852   0.08259   0.12632   0.12819
 Alpha virt. eigenvalues --    0.13283   0.15064   0.15157   0.16592   0.16817

 Mulliken charges:
               1
     1  C    5.301355
     2  H    0.657078
     3  H    0.560533
     4  H    0.886885
     5  H    0.793295
     6  H    0.795174
     7  H    0.735169
     8  H    0.790082
     9  H    0.446807
    10  N   -1.682941
    11  N   -1.689671
    12  N   -1.886674
    13  N   -1.993270
    14  N   -1.875941
    15  N   -1.837880
 Sum of Mulliken charges =  -0.00000

 Dipole moment (field-independent basis, Debye):
    X=             -0.6726    Y=              0.3040    Z=              0.4586  Tot=              0.8690

 Test job not archived.
 1\1\GINC-SE365\SP\RHF\Aug-CC-pVDZ\C1H8N6\OHZDE\08-Apr-2025\0\\#t hf au
 g-cc-pvdz iop(5/13=1,5/36=2,99/5=2) pseudo=read geom=check guess=(read
 ,tcheck) scf=(maxcycle=1)\\title\\0,1\C,0,-0.0548374,-0.345682,-0.1117
 99\H,0,1.72327,1.20654,-0.383611\H,0,0.481444,1.9028,-1.26333\H,0,-0.7
 355,1.29043,0.435449\H,0,-1.53883,-1.62131,-0.643493\H,0,-2.85789,0.72
 0354,-0.0853573\H,0,-2.05515,-0.0151628,1.20654\H,0,2.80764,-1.51848,0
 .21802\H,0,1.94216,-0.382386,1.17372\N,0,0.882095,1.83751,-0.278141\N,
 0,0.0863341,0.853156,0.473162\N,0,-1.45942,-0.675303,-0.491985\N,0,-2.

 Normal termination of Gaussian 16 at Tue Apr  8 21:41:10 2025.
