 Gaussian 16, Revision C.01,

 ----------------------------------------------------------------------
 #t hf aug-cc-pvdz symm=none int=(grid=ultrafine) guess=(read,tcheck) s
 table=(opt,rrhf)
 ----------------------------------------------------------------------
 -----
 title
 -----
 Symbolic Z-matrix:
 Charge =  0 Multiplicity = 1

 SCF Done:  E(RHF) =  -532.274691728     A.U. after   11 cycles
 Normal termination of Gaussian 16 at Tue Apr  8 21:12:16 2025.
 Gaussian 16:  ES64L-G16RevC.01  3-Jul-2019

 ----------------------------------------------------------------------
 #t hf aug-cc-pvdz iop(5/13=1,5/36=2,99/5=2) pseudo=read geom=check gue
 ss=(read,tcheck) scf=(maxcycle=1)
 ----------------------------------------------------------------------
 -----
 title
 -----
 Structure from the checkpoint file:  "ANI1ccx_1845_conf455_mol1.chk"
 Charge =  0 Multiplicity = 1

                         Standard orientation:
 ---------------------------------------------------------------------
 Center     Atomic      Atomic             Coordinates (Angstroms)
 Number     Number       Type             X           Y           Z
 ---------------------------------------------------------------------
      1          1           0       -3.396331    0.875252    0.311254
      2          1           0       -0.974477   -1.643511   -0.952628
      3          1           0        0.005198   -0.419950   -1.303370
      4          1           0       -2.842729   -1.321553    0.090805
      5          1           0       -1.794058   -2.034052    0.972345
      6          1           0       -2.092851    1.107728   -0.471746
      7          1           0       -1.735623    3.153559    0.335778
      8          1           0        0.535610    0.255422    0.806795
      9          1           0       -0.577422    2.146090    0.355787
     10          1           0        2.544832   -2.144597    0.950242
     11          1           0        2.140421   -1.442468   -0.310697
     12          1           0        3.964719    1.163834   -1.029310
     13          1           0        3.535080   -0.053948   -0.012153
     14          1           0        1.734959    1.192172    1.215190
     15          8           0       -2.755281    0.357230   -0.222680
     16          8           0        0.724129    1.164651    1.168760
     17          8           0       -2.357848   -2.171122    0.177302
     18          8           0        2.302951   -1.272348    0.565764
     19          8           0       -0.138333   -1.162630   -0.742173
     20          8           0       -1.256953    2.513099   -0.292541
     21          8           0        3.350419    0.466873   -0.774219
 ---------------------------------------------------------------------

 SCF Done:  E(RHF) =  -534.566392633     A.U. after    2 cycles

 The electronic state is 1-A.
 Alpha  occ. eigenvalues --  -21.10679 -21.09183 -21.08399 -21.07805 -21.06690
 Alpha  occ. eigenvalues --  -21.06209 -21.05015  -1.70207  -1.67648  -1.65539
 Alpha  occ. eigenvalues --   -1.64702  -1.64278  -1.62849  -1.60663  -0.68486
 Alpha  occ. eigenvalues --   -0.64771  -0.63588  -0.63425  -0.62339  -0.60783
 Alpha  occ. eigenvalues --   -0.59856  -0.51722  -0.50444  -0.48068  -0.45039
 Alpha  occ. eigenvalues --   -0.43963  -0.42808  -0.41901  -0.35872  -0.35767
 Alpha  occ. eigenvalues --   -0.35471  -0.33742  -0.32922  -0.32874  -0.30054
 Alpha virt. eigenvalues --    0.03629   0.04093   0.04761   0.06024   0.06795
 Alpha virt. eigenvalues --    0.07014   0.07358   0.08096   0.08963   0.09472
 Alpha virt. eigenvalues --    0.09885   0.10831   0.11154   0.11409   0.18591

 Mulliken charges:
               1
     1  H    0.862552
     2  H    1.298382
     3  H    0.893661
     4  H    1.470494
     5  H    0.840061
     6  H    1.546184
     7  H    0.744853
     8  H    1.227264
     9  H    1.439114
    10  H    0.741306
    11  H    1.114474
    12  H    0.901659
    13  H    1.213225
    14  H    1.027676
    15  O   -2.463006
    16  O   -2.600478
    17  O   -2.068331
    18  O   -1.840973
    19  O   -2.206235
    20  O   -2.143386
    21  O   -1.998497
 Sum of Mulliken charges =  -0.00000

 Dipole moment (field-independent basis, Debye):
    X=              1.7160    Y=              1.0775    Z=              0.7404  Tot=              2.1573

 Test job not archived.
 1\1\GINC-SE038\SP\RHF\Aug-CC-pVDZ\H14O7\OHZDE\08-Apr-2025\0\\#t hf aug
 -cc-pvdz iop(5/13=1,5/36=2,99/5=2) pseudo=read geom=check guess=(read,
 tcheck) scf=(maxcycle=1)\\title\\0,1\H,0,-3.39633,0.875255,0.311254\H,
 0,-0.974478,-1.64351,-0.952628\H,0,0.00519747,-0.41995,-1.30337\H,0,-2
 .84273,-1.32155,0.0908046\H,0,-1.79406,-2.03405,0.972345\H,0,-2.09285,
 1.10773,-0.471746\H,0,-1.73562,3.15356,0.335778\H,0,0.53561,0.255421,0
 .806795\H,0,-0.57742,2.14609,0.355787\H,0,2.54483,-2.1446,0.950242\H,0
 ,2.14042,-1.44247,-0.310697\H,0,3.96472,1.16383,-1.02931\H,0,3.53508,-

 Normal termination of Gaussian 16 at Tue Apr  8 21:12:24 2025.
