 Gaussian 16, Revision C.01,

 ----------------------------------------------------------------------
 #t hf aug-cc-pvdz symm=none int=(grid=ultrafine) guess=(read,tcheck) s
 table=(opt,rrhf)
 ----------------------------------------------------------------------
 -----
 title
 -----
 Symbolic Z-matrix:
 Charge =  0 Multiplicity = 1

 SCF Done:  E(RHF) =  -452.148414101     A.U. after   16 cycles
 Normal termination of Gaussian 16 at Tue Apr  8 22:02:44 2025.
 Gaussian 16:  ES64L-G16RevC.01  3-Jul-2019

 ----------------------------------------------------------------------
 #t hf aug-cc-pvdz iop(5/13=1,5/36=2,99/5=2) pseudo=read geom=check gue
 ss=(read,tcheck) scf=(maxcycle=1)
 ----------------------------------------------------------------------
 -----
 title
 -----
 Structure from the checkpoint file:  "ANI1ccx_859_conf1_mol2.chk"
 Charge =  0 Multiplicity = 1

                         Standard orientation:
 ---------------------------------------------------------------------
 Center     Atomic      Atomic             Coordinates (Angstroms)
 Number     Number       Type             X           Y           Z
 ---------------------------------------------------------------------
      1          6           0       -1.390280   -0.001117    0.024748
      2          6           0       -0.541223    1.269890    0.099043
      3          6           0        0.847451    0.763004   -0.067185
      4          6           0        0.746294   -0.762814   -0.011127
      5          1           0       -0.705509    1.849480    1.021940
      6          1           0       -0.924143    1.988720   -0.724724
      7          8           0       -2.575680   -0.117893   -0.080957
      8          8           0        1.922591    1.274778   -0.047035
      9          8           0        1.650879   -1.508042    0.015483
     10          8           0       -0.540765   -1.080340    0.041248
 ---------------------------------------------------------------------

 SCF Done:  E(RHF) =  -453.997806003     A.U. after    2 cycles

 The electronic state is 1-A.
 Alpha  occ. eigenvalues --  -21.16999 -21.12667 -21.11197 -21.10662 -11.59383
 Alpha  occ. eigenvalues --  -11.56845 -11.54083 -11.47337  -1.96093  -1.78044
 Alpha  occ. eigenvalues --   -1.76055  -1.70236  -1.23351  -1.01235  -0.88447
 Alpha  occ. eigenvalues --   -0.78946  -0.71141  -0.68495  -0.62114  -0.60545
 Alpha  occ. eigenvalues --   -0.58848  -0.55077  -0.53665  -0.51509  -0.45404
 Alpha  occ. eigenvalues --   -0.41694  -0.36742  -0.32917  -0.30929
 Alpha virt. eigenvalues --    0.02117   0.04588   0.06925   0.07619   0.09135
 Alpha virt. eigenvalues --    0.09768   0.09971   0.10083   0.11009   0.11510
 Alpha virt. eigenvalues --    0.11945   0.13265   0.13839   0.14211   0.14851

 Mulliken charges:
               1
     1  C    5.434308
     2  C   -3.840396
     3  C    3.904772
     4  C    4.449600
     5  H    1.318128
     6  H    1.290615
     7  O   -3.245926
     8  O   -3.279841
     9  O   -3.092483
    10  O   -2.938777
 Sum of Mulliken charges =   0.00000

 Dipole moment (field-independent basis, Debye):
    X=             -0.4146    Y=              1.6652    Z=              0.2295  Tot=              1.7313

 Test job not archived.
 1\1\GINC-SE252\SP\RHF\Aug-CC-pVDZ\C4H2O4\OHZDE\08-Apr-2025\0\\#t hf au
 g-cc-pvdz iop(5/13=1,5/36=2,99/5=2) pseudo=read geom=check guess=(read
 ,tcheck) scf=(maxcycle=1)\\title\\0,1\C,0,-1.39028,-0.0011167,0.024747
 7\C,0,-0.541224,1.26989,0.0990429\C,0,0.84745,0.763005,-0.0671846\C,0,
 0.746294,-0.762813,-0.0111269\H,0,-0.70551,1.84948,1.02194\H,0,-0.9241
 44,1.98872,-0.724724\O,0,-2.57568,-0.117894,-0.0809566\O,0,1.92259,1.2
 7478,-0.0470355\O,0,1.65088,-1.50804,0.0154825\O,0,-0.540765,-1.08034,
 0.0412482\\Version=ES64L-G16RevC.01\State=1-A\HF=-453.997806\RMSD=3.26

 Normal termination of Gaussian 16 at Tue Apr  8 22:02:48 2025.
