 Gaussian 16, Revision C.01,

 ----------------------------------------------------------------------
 #t hf aug-cc-pvdz symm=none int=(grid=ultrafine) guess=(read,tcheck) s
 table=(opt,rrhf)
 ----------------------------------------------------------------------
 -----
 title
 -----
 Symbolic Z-matrix:
 Charge =  0 Multiplicity = 1

 SCF Done:  E(RHF) =  -555.314240367     A.U. after   17 cycles
 Normal termination of Gaussian 16 at Tue Apr  8 22:09:20 2025.
 Gaussian 16:  ES64L-G16RevC.01  3-Jul-2019

 ----------------------------------------------------------------------
 #t hf aug-cc-pvdz iop(5/13=1,5/36=2,99/5=2) pseudo=read geom=check gue
 ss=(read,tcheck) scf=(maxcycle=1)
 ----------------------------------------------------------------------
 -----
 title
 -----
 Structure from the checkpoint file:  "ANI1ccx_886_conf9_mol1.chk"
 Charge =  0 Multiplicity = 1

                         Standard orientation:
 ---------------------------------------------------------------------
 Center     Atomic      Atomic             Coordinates (Angstroms)
 Number     Number       Type             X           Y           Z
 ---------------------------------------------------------------------
      1          6           0        1.279071    0.703386    0.000108
      2          6           0       -0.926477    0.727377    0.067602
      3          6           0       -0.939321   -0.717009   -0.022050
      4          6           0        1.281570   -0.674573    0.042017
      5          1           0        2.421222    2.317898   -0.213458
      6          1           0        3.290001    0.858320   -0.476474
      7          1           0        2.303279   -2.294812    0.206017
      8          1           0        3.275350   -0.980350    0.532629
      9          7           0        2.524051    1.324158   -0.010251
     10          7           0        0.199837    1.457509    0.023435
     11          7           0       -2.167929    1.119161    0.051556
     12          7           0       -2.153810   -1.133359   -0.086048
     13          7           0        0.194494   -1.416471    0.001242
     14          7           0        2.530460   -1.356882   -0.048316
     15          8           0       -2.918579   -0.011869   -0.012014
 ---------------------------------------------------------------------

 SCF Done:  E(RHF) =  -557.772895684     A.U. after    2 cycles

 The electronic state is 1-A.
 Alpha  occ. eigenvalues --  -21.14927 -15.80896 -15.80698 -15.79928 -15.79406
 Alpha  occ. eigenvalues --  -15.78303 -15.77942 -11.57723 -11.49857 -11.48580
 Alpha  occ. eigenvalues --  -11.43125  -1.96924  -1.59068  -1.43889  -1.40409
 Alpha  occ. eigenvalues --   -1.35212  -1.25649  -1.22772  -1.02446  -0.89628
 Alpha  occ. eigenvalues --   -0.88938  -0.79194  -0.71549  -0.69195  -0.68552
 Alpha  occ. eigenvalues --   -0.67660  -0.66628  -0.61750  -0.56829  -0.53727
 Alpha  occ. eigenvalues --   -0.52968  -0.50088  -0.46007  -0.45316  -0.44585
 Alpha  occ. eigenvalues --   -0.40874  -0.36276  -0.33789  -0.30617
 Alpha virt. eigenvalues --    0.02592   0.04039   0.05405   0.05574   0.06747
 Alpha virt. eigenvalues --    0.07840   0.09619   0.10040   0.10485   0.11918
 Alpha virt. eigenvalues --    0.12284   0.12704   0.13486   0.13602   0.14508

 Mulliken charges:
               1
     1  C    4.780124
     2  C    3.956845
     3  C    4.064215
     4  C    4.587464
     5  H    0.673943
     6  H    0.565207
     7  H    0.677989
     8  H    0.508158
     9  N   -3.332127
    10  N   -3.801068
    11  N   -1.387476
    12  N   -1.551061
    13  N   -4.034522
    14  N   -3.241729
    15  O   -2.465961
 Sum of Mulliken charges =  -0.00000

 Dipole moment (field-independent basis, Debye):
    X=              5.1463    Y=              0.0274    Z=              0.1462  Tot=              5.1484

 Test job not archived.
 1\1\GINC-SE082\SP\RHF\Aug-CC-pVDZ\C4H4N6O1\OHZDE\08-Apr-2025\0\\#t hf
 aug-cc-pvdz iop(5/13=1,5/36=2,99/5=2) pseudo=read geom=check guess=(re
 ad,tcheck) scf=(maxcycle=1)\\title\\0,1\C,0,1.27907,0.703387,0.0001083
 4\C,0,-0.926478,0.727377,0.067602\C,0,-0.939321,-0.717009,-0.0220496\C
 ,0,1.28157,-0.674572,0.042017\H,0,2.42122,2.3179,-0.213458\H,0,3.29,0.
 858322,-0.476474\H,0,2.30328,-2.29481,0.206017\H,0,3.27535,-0.980348,0
 .532629\N,0,2.52405,1.32416,-0.0102507\N,0,0.199836,1.45751,0.0234351\
 N,0,-2.16793,1.11916,0.0515565\N,0,-2.15381,-1.13336,-0.0860483\N,0,0.

 Normal termination of Gaussian 16 at Tue Apr  8 22:09:28 2025.
