 Gaussian 16, Revision C.01,

 ----------------------------------------------------------------------
 #t hf aug-cc-pvdz symm=none int=(grid=ultrafine) guess=(read,tcheck) s
 table=(opt,rrhf)
 ----------------------------------------------------------------------
 -----
 title
 -----
 Symbolic Z-matrix:
 Charge =  0 Multiplicity = 1

 SCF Done:  E(RHF) =  -585.784884155     A.U. after   14 cycles
 Normal termination of Gaussian 16 at Tue Apr  8 19:49:12 2025.
 Gaussian 16:  ES64L-G16RevC.01  3-Jul-2019

 ----------------------------------------------------------------------
 #t hf aug-cc-pvdz iop(5/13=1,5/36=2,99/5=2) pseudo=read geom=check gue
 ss=(read,tcheck) scf=(maxcycle=1)
 ----------------------------------------------------------------------
 -----
 title
 -----
 Structure from the checkpoint file:  "ANI1ccx_1424_conf1_mol2.chk"
 Charge =  0 Multiplicity = 1

                         Standard orientation:
 ---------------------------------------------------------------------
 Center     Atomic      Atomic             Coordinates (Angstroms)
 Number     Number       Type             X           Y           Z
 ---------------------------------------------------------------------
      1          6           0        1.015807    1.504062    0.040158
      2          6           0        2.280971   -0.609719   -0.243120
      3          6           0        1.726944   -2.086457   -0.335570
      4          6           0        0.768412   -2.107899    0.782692
      5          6           0        0.040851   -0.793076    0.600421
      6          6           0       -1.124549   -0.900915   -0.435639
      7          6           0       -2.412800   -0.080470   -0.228361
      8          1           0       -1.510583    1.315167    0.741881
      9          1           0       -0.742115   -0.586684   -1.474670
     10          1           0       -1.469897   -1.874703   -0.610837
     11          1           0       -0.349701   -0.317306    1.553220
     12          1           0        0.050756   -2.897810    0.772823
     13          1           0        1.328693   -1.946578    1.742250
     14          1           0        1.176344   -2.327478   -1.248240
     15          1           0        3.037821   -0.625447    0.581482
     16          1           0        2.818520   -0.299784   -1.156320
     17          1           0       -0.329858    2.982159    0.209708
     18          1           0        2.644976    1.876775   -1.239040
     19          1           0        1.862554    3.097833   -0.691299
     20          1           0        2.517435   -2.812805   -0.234013
     21          7           0        2.142365    2.189654   -0.402348
     22          7           0       -0.045479    2.049920    0.504553
     23          7           0        1.080609    0.150310    0.045504
     24          8           0       -2.427962    1.054825    0.516174
     25          8           0       -3.453439   -0.538036   -0.649221
 ---------------------------------------------------------------------

 SCF Done:  E(RHF) =  -588.495471610     A.U. after    2 cycles

 The electronic state is 1-A.
 Alpha  occ. eigenvalues --  -21.06204 -21.01193 -15.79367 -15.75146 -15.70521
 Alpha  occ. eigenvalues --  -11.51310 -11.50914 -11.49405 -11.47000 -11.43927
 Alpha  occ. eigenvalues --  -11.40873 -11.38654  -1.77558  -1.61224  -1.55161
 Alpha  occ. eigenvalues --   -1.40445  -1.26946  -1.19944  -1.14717  -1.02579
 Alpha  occ. eigenvalues --   -0.93709  -0.86794  -0.79217  -0.77269  -0.74594
 Alpha  occ. eigenvalues --   -0.71273  -0.68636  -0.65259  -0.63570  -0.63253
 Alpha  occ. eigenvalues --   -0.59898  -0.58303  -0.54841  -0.53255  -0.52408
 Alpha  occ. eigenvalues --   -0.50029  -0.47757  -0.47418  -0.46714  -0.45152
 Alpha  occ. eigenvalues --   -0.43752  -0.39128  -0.34781  -0.32426  -0.28618
 Alpha  occ. eigenvalues --   -0.25789
 Alpha virt. eigenvalues --    0.02710   0.03769   0.04270   0.04834   0.05059
 Alpha virt. eigenvalues --    0.05420   0.05858   0.06434   0.07033   0.07823
 Alpha virt. eigenvalues --    0.08527   0.09161   0.10151   0.10834   0.11540

 Mulliken charges:
               1
     1  C    4.880933
     2  C   -2.123344
     3  C   -3.389115
     4  C   -2.973408
     5  C   -1.274299
     6  C   -3.124749
     7  C    5.164200
     8  H    1.871169
     9  H    1.698470
    10  H    1.515376
    11  H    2.036228
    12  H    1.423135
    13  H    1.151908
    14  H    1.433391
    15  H    1.486306
    16  H    1.694137
    17  H    0.629260
    18  H    0.630626
    19  H    0.518671
    20  H    1.228224
    21  N   -2.991725
    22  N   -3.264741
    23  N   -1.382014
    24  O   -3.557503
    25  O   -3.281136
 Sum of Mulliken charges =  -0.00000

 Dipole moment (field-independent basis, Debye):
    X=              6.2667    Y=             -0.2493    Z=             -1.1418  Tot=              6.3747

 Test job not archived.
 1\1\GINC-SE132\SP\RHF\Aug-CC-pVDZ\C7H13N3O2\OHZDE\08-Apr-2025\0\\#t hf
  aug-cc-pvdz iop(5/13=1,5/36=2,99/5=2) pseudo=read geom=check guess=(r
 ead,tcheck) scf=(maxcycle=1)\\title\\0,1\C,0,1.01581,1.50406,0.0401583
 \C,0,2.28097,-0.609723,-0.24312\C,0,1.72694,-2.08646,-0.33557\C,0,0.76
 8408,-2.1079,0.782692\C,0,0.0408499,-0.793076,0.600421\C,0,-1.12455,-0
 .900913,-0.435639\C,0,-2.4128,-0.0804652,-0.228361\H,0,-1.51058,1.3151
 7,0.741881\H,0,-0.742116,-0.586682,-1.47467\H,0,-1.4699,-1.8747,-0.610
 837\H,0,-0.349701,-0.317305,1.55322\H,0,0.0507509,-2.89781,0.772823\H,

 Normal termination of Gaussian 16 at Tue Apr  8 19:49:33 2025.
