 Gaussian 16, Revision C.01,

 ----------------------------------------------------------------------
 #t hf aug-cc-pvdz symm=none int=(grid=ultrafine) guess=(read,tcheck) s
 table=(opt,rrhf)
 ----------------------------------------------------------------------
 -----
 title
 -----
 Symbolic Z-matrix:
 Charge =  0 Multiplicity = 1

 SCF Done:  E(RHF) =  -722.653395206     A.U. after   14 cycles
 Normal termination of Gaussian 16 at Tue Apr  8 22:07:36 2025.
 Gaussian 16:  ES64L-G16RevC.01  3-Jul-2019

 ----------------------------------------------------------------------
 #t hf aug-cc-pvdz iop(5/13=1,5/36=2,99/5=2) pseudo=read geom=check gue
 ss=(read,tcheck) scf=(maxcycle=1)
 ----------------------------------------------------------------------
 -----
 title
 -----
 Structure from the checkpoint file:  "ANI1ccx_67_conf9_mol1.chk"
 Charge =  0 Multiplicity = 1

                         Standard orientation:
 ---------------------------------------------------------------------
 Center     Atomic      Atomic             Coordinates (Angstroms)
 Number     Number       Type             X           Y           Z
 ---------------------------------------------------------------------
      1          6           0        1.885761   -1.062940   -0.159576
      2          6           0       -2.130289   -1.040971    1.440731
      3          6           0       -2.692389   -0.834725    0.082383
      4          6           0       -1.822280    1.590949   -0.119632
      5          6           0       -1.716240    0.155085   -0.744641
      6          6           0       -2.994769   -2.149231   -0.643894
      7          6           0        3.694140    0.276597    0.581904
      8          6           0        2.989351   -0.943618    0.876416
      9          6           0        0.595424   -0.286354    0.189531
     10          6           0        3.343920    0.755735   -0.773554
     11          1           0       -3.647330   -0.180387    0.006026
     12          1           0       -0.096388    1.512100    0.688370
     13          1           0       -3.720029   -2.754621   -0.053424
     14          1           0       -3.503799   -1.799691   -1.536529
     15          1           0       -2.151239   -2.794231   -0.822760
     16          1           0       -1.211019   -1.635861    1.272421
     17          1           0       -1.919490   -0.101221    1.861301
     18          1           0       -2.694809   -1.736931    2.040841
     19          1           0       -2.143800    0.155305   -1.797179
     20          1           0        4.284050    1.164321   -1.445219
     21          1           0        2.792650    1.704411   -0.827559
     22          1           0        3.216130    1.063491    1.187771
     23          1           0        4.828230    0.080003    0.563014
     24          1           0        2.562381   -0.911479    1.999431
     25          1           0        3.590491   -1.903189    0.758485
     26          1           0        1.635361   -2.120290   -0.511016
     27          1           0        1.914530   -0.076222   -2.037719
     28          1           0       -0.092488   -0.902312   -1.685929
     29          7           0        2.611870   -0.315724   -1.329179
     30          7           0       -0.308749   -0.311356   -0.865441
     31          8           0       -2.965490    2.062749   -0.261252
     32          8           0        0.502187    0.327232    1.214891
     33          8           0       -0.871828    2.217920    0.461867
 ---------------------------------------------------------------------

 SCF Done:  E(RHF) =  -726.029041114     A.U. after    2 cycles

 The electronic state is 1-A.
 Alpha  occ. eigenvalues --  -21.08674 -21.08262 -21.01143 -15.79789 -15.74061
 Alpha  occ. eigenvalues --  -11.59502 -11.53120 -11.52080 -11.48240 -11.46839
 Alpha  occ. eigenvalues --  -11.43809 -11.43174 -11.40345 -11.37309 -11.36933
 Alpha  occ. eigenvalues --   -1.82993  -1.77859  -1.61848  -1.47220  -1.41500
 Alpha  occ. eigenvalues --   -1.24555  -1.16400  -1.11575  -1.03901  -1.02440
 Alpha  occ. eigenvalues --   -0.91913  -0.83835  -0.83762  -0.81369  -0.77445
 Alpha  occ. eigenvalues --   -0.73249  -0.72878  -0.71468  -0.68124  -0.64827
 Alpha  occ. eigenvalues --   -0.63115  -0.61275  -0.59836  -0.57330  -0.55783
 Alpha  occ. eigenvalues --   -0.55265  -0.54317  -0.52802  -0.51854  -0.50843
 Alpha  occ. eigenvalues --   -0.49394  -0.49039  -0.47384  -0.46940  -0.45286
 Alpha  occ. eigenvalues --   -0.45205  -0.43975  -0.42163  -0.36942  -0.33483
 Alpha  occ. eigenvalues --   -0.30970  -0.28599  -0.26602
 Alpha virt. eigenvalues --    0.03053   0.03414   0.03712   0.04384   0.04949
 Alpha virt. eigenvalues --    0.04979   0.05916   0.06216   0.06573   0.06728
 Alpha virt. eigenvalues --    0.06883   0.07468   0.07749   0.08028   0.08967

 Mulliken charges:
               1
     1  C   -3.006416
     2  C   -4.929632
     3  C    0.072834
     4  C    6.376593
     5  C   -1.974300
     6  C   -4.592504
     7  C   -2.668190
     8  C   -2.539249
     9  C    7.526048
    10  C   -2.890442
    11  H    1.528403
    12  H    1.542749
    13  H    1.132874
    14  H    1.226175
    15  H    1.418472
    16  H    1.559105
    17  H    1.595089
    18  H    1.174363
    19  H    1.955923
    20  H    1.130042
    21  H    1.634824
    22  H    1.549370
    23  H    1.306805
    24  H    1.362872
    25  H    1.237798
    26  H    1.674108
    27  H    0.730816
    28  H    0.774796
    29  N   -1.934692
    30  N   -2.962127
    31  O   -3.287557
    32  O   -4.044836
    33  O   -3.680116
 Sum of Mulliken charges =  -0.00000

 Dipole moment (field-independent basis, Debye):
    X=              1.9447    Y=             -3.2275    Z=             -0.6988  Tot=              3.8324

 Test job not archived.
 1\1\GINC-SE095\SP\RHF\Aug-CC-pVDZ\C10H18N2O3\OHZDE\08-Apr-2025\0\\#t h
 f aug-cc-pvdz iop(5/13=1,5/36=2,99/5=2) pseudo=read geom=check guess=(
 read,tcheck) scf=(maxcycle=1)\\title\\0,1\C,0,1.88576,-1.06294,-0.1595
 77\C,0,-2.13029,-1.04097,1.44073\C,0,-2.69239,-0.834724,0.082382\C,0,-
 1.82228,1.59095,-0.119633\C,0,-1.71624,0.155086,-0.744642\C,0,-2.99477
 ,-2.14923,-0.643895\C,0,3.69414,0.276596,0.581903\C,0,2.98935,-0.94361
 9,0.876415\C,0,0.595424,-0.286354,0.18953\C,0,3.34392,0.755734,-0.7735
 55\H,0,-3.64733,-0.180386,0.00602527\H,0,-0.0963875,1.5121,0.688369\H,

 Normal termination of Gaussian 16 at Tue Apr  8 22:08:19 2025.
