 Gaussian 16, Revision C.01,

 ----------------------------------------------------------------------
 #t hf aug-cc-pvdz symm=none int=(grid=ultrafine) guess=(read,tcheck) s
 table=(opt,rrhf)
 ----------------------------------------------------------------------
 -----
 title
 -----
 Symbolic Z-matrix:
 Charge =  0 Multiplicity = 1

 SCF Done:  E(RHF) =  -486.380302789     A.U. after   14 cycles
 Normal termination of Gaussian 16 at Tue Apr  8 21:45:59 2025.
 Gaussian 16:  ES64L-G16RevC.01  3-Jul-2019

 ----------------------------------------------------------------------
 #t hf aug-cc-pvdz iop(5/13=1,5/36=2,99/5=2) pseudo=read geom=check gue
 ss=(read,tcheck) scf=(maxcycle=1)
 ----------------------------------------------------------------------
 -----
 title
 -----
 Structure from the checkpoint file:  "ANI1ccx_517_conf7_mol1.chk"
 Charge =  0 Multiplicity = 1

                         Standard orientation:
 ---------------------------------------------------------------------
 Center     Atomic      Atomic             Coordinates (Angstroms)
 Number     Number       Type             X           Y           Z
 ---------------------------------------------------------------------
      1          6           0        0.698476    0.375564   -0.026909
      2          6           0       -0.711409   -0.291024   -0.023843
      3          1           0        2.936570    0.721912    0.269987
      4          1           0        1.470771   -1.534901    0.188294
      5          1           0       -1.512270    1.538909    0.065160
      6          1           0       -3.028660   -0.767610    0.212823
      7          7           0        1.644420   -0.590466   -0.001617
      8          7           0       -1.704520    0.558140    0.135750
      9          8           0        2.971260   -0.243535    0.039478
     10          8           0        0.913198    1.559159   -0.101594
     11          8           0       -0.764063   -1.512731   -0.084033
     12          8           0       -3.041410    0.167198   -0.025186
 ---------------------------------------------------------------------

 SCF Done:  E(RHF) =  -488.408201919     A.U. after    2 cycles

 The electronic state is 1-A.
 Alpha  occ. eigenvalues --  -21.14952 -21.12805 -21.07369 -21.06463 -15.84348
 Alpha  occ. eigenvalues --  -15.82658 -11.55942 -11.51656  -1.86088  -1.83417
 Alpha  occ. eigenvalues --   -1.73736  -1.72116  -1.31600  -1.28149  -0.94994
 Alpha  occ. eigenvalues --   -0.85010  -0.80712  -0.67029  -0.66655  -0.63160
 Alpha  occ. eigenvalues --   -0.60167  -0.58893  -0.52400  -0.51364  -0.48992
 Alpha  occ. eigenvalues --   -0.45083  -0.42551  -0.39333  -0.31113  -0.29674
 Alpha  occ. eigenvalues --   -0.28101
 Alpha virt. eigenvalues --    0.03976   0.05757   0.06134   0.06643   0.10133
 Alpha virt. eigenvalues --    0.11093   0.11621   0.12020   0.12115   0.12415
 Alpha virt. eigenvalues --    0.14998   0.15884   0.16584   0.17092   0.17963

 Mulliken charges:
               1
     1  C    4.437070
     2  C    5.230918
     3  H    0.794729
     4  H    0.929591
     5  H    0.876113
     6  H    0.771533
     7  N   -0.365186
     8  N   -0.933634
     9  O   -2.746202
    10  O   -3.325853
    11  O   -3.299136
    12  O   -2.369942
 Sum of Mulliken charges =  -0.00000

 Dipole moment (field-independent basis, Debye):
    X=             -0.6514    Y=             -0.0506    Z=              0.5554  Tot=              0.8576

 Test job not archived.
 1\1\GINC-SE250\SP\RHF\Aug-CC-pVDZ\C2H4N2O4\OHZDE\08-Apr-2025\0\\#t hf
 aug-cc-pvdz iop(5/13=1,5/36=2,99/5=2) pseudo=read geom=check guess=(re
 ad,tcheck) scf=(maxcycle=1)\\title\\0,1\C,0,0.698476,0.375565,-0.02690
 85\C,0,-0.711409,-0.291023,-0.0238434\H,0,2.93657,0.721912,0.269987\H,
 0,1.47077,-1.5349,0.188294\H,0,-1.51227,1.53891,0.0651597\H,0,-3.02866
 ,-0.767608,0.212823\N,0,1.64442,-0.590465,-0.00161715\N,0,-1.70452,0.5
 58141,0.13575\O,0,2.97126,-0.243535,0.039478\O,0,0.913198,1.55916,-0.1
 01594\O,0,-0.764064,-1.51273,-0.0840325\O,0,-3.04141,0.1672,-0.0251862

 Normal termination of Gaussian 16 at Tue Apr  8 21:46:03 2025.
