 Gaussian 16, Revision C.01,

 ----------------------------------------------------------------------
 #t hf aug-cc-pvdz symm=none int=(grid=ultrafine) guess=(read,tcheck) s
 table=(opt,rrhf)
 ----------------------------------------------------------------------
 -----
 title
 -----
 Symbolic Z-matrix:
 Charge =  0 Multiplicity = 1

 SCF Done:  E(RHF) =  -578.785253268     A.U. after   14 cycles
 Normal termination of Gaussian 16 at Tue Apr  8 22:19:07 2025.
 Gaussian 16:  ES64L-G16RevC.01  3-Jul-2019

 ----------------------------------------------------------------------
 #t hf aug-cc-pvdz iop(5/13=1,5/36=2,99/5=2) pseudo=read geom=check gue
 ss=(read,tcheck) scf=(maxcycle=1)
 ----------------------------------------------------------------------
 -----
 title
 -----
 Structure from the checkpoint file:  "ANI1ccx_987_conf3_mol1.chk"
 Charge =  0 Multiplicity = 1

                         Standard orientation:
 ---------------------------------------------------------------------
 Center     Atomic      Atomic             Coordinates (Angstroms)
 Number     Number       Type             X           Y           Z
 ---------------------------------------------------------------------
      1          6           0        2.053090   -0.459495   -0.048600
      2          6           0        0.439126    1.149860    0.058760
      3          6           0       -1.816011    0.543051    0.824525
      4          6           0       -2.133740   -0.592485   -0.170915
      5          1           0       -0.399563   -1.350370   -0.060286
      6          1           0       -2.288360    0.295569    1.781220
      7          1           0       -2.306491    1.412610    0.479284
      8          1           0        0.605393    2.680740   -1.183610
      9          1           0        0.045406   -0.106732    1.537300
     10          1           0        1.770510   -2.308769    0.315098
     11          1           0        3.940180    0.237506   -0.446127
     12          1           0        3.767380   -1.487229   -0.230709
     13          1           0       -0.943030    2.672170   -0.288354
     14          7           0        3.423290   -0.563343   -0.026975
     15          7           0        1.239300   -1.432019    0.239446
     16          7           0        1.631339    0.836518   -0.286743
     17          7           0       -0.078613    2.221850   -0.640271
     18          7           0       -0.347450    0.639783    1.027680
     19          8           0       -1.284940   -1.582480   -0.480320
     20          8           0       -3.280220   -0.643846   -0.529480
 ---------------------------------------------------------------------

 SCF Done:  E(RHF) =  -581.381499158     A.U. after    2 cycles

 The electronic state is 1-A.
 Alpha  occ. eigenvalues --  -21.07899 -21.02316 -15.78741 -15.78255 -15.77779
 Alpha  occ. eigenvalues --  -15.70938 -15.70874 -11.52673 -11.51433 -11.49015
 Alpha  occ. eigenvalues --  -11.44672  -1.79757  -1.62966  -1.56315  -1.45531
 Alpha  occ. eigenvalues --   -1.34846  -1.26887  -1.23861  -1.07832  -0.91044
 Alpha  occ. eigenvalues --   -0.83345  -0.78975  -0.74009  -0.70477  -0.70230
 Alpha  occ. eigenvalues --   -0.67345  -0.65972  -0.65009  -0.60234  -0.58192
 Alpha  occ. eigenvalues --   -0.56968  -0.53491  -0.49878  -0.49531  -0.47757
 Alpha  occ. eigenvalues --   -0.40982  -0.39365  -0.37280  -0.35577  -0.32774
 Alpha  occ. eigenvalues --   -0.30598  -0.26794
 Alpha virt. eigenvalues --    0.03213   0.04045   0.05006   0.05090   0.05950
 Alpha virt. eigenvalues --    0.06838   0.07229   0.08667   0.08911   0.09807
 Alpha virt. eigenvalues --    0.11316   0.11633   0.12528   0.12933   0.13331

 Mulliken charges:
               1
     1  C    4.365692
     2  C    4.746981
     3  C   -2.844296
     4  C    5.851087
     5  H    1.975588
     6  H    1.337878
     7  H    1.496751
     8  H    0.675970
     9  H    0.675978
    10  H    0.669777
    11  H    0.653775
    12  H    0.564535
    13  H    0.606115
    14  N   -2.914929
    15  N   -2.742011
    16  N   -2.923168
    17  N   -3.029710
    18  N   -2.266103
    19  O   -3.608267
    20  O   -3.291642
 Sum of Mulliken charges =  -0.00000

 Dipole moment (field-independent basis, Debye):
    X=              3.1798    Y=              2.0929    Z=              1.0067  Tot=              3.9376

 Test job not archived.
 1\1\GINC-SE334\SP\RHF\Aug-CC-pVDZ\C4H9N5O2\OHZDE\08-Apr-2025\0\\#t hf
 aug-cc-pvdz iop(5/13=1,5/36=2,99/5=2) pseudo=read geom=check guess=(re
 ad,tcheck) scf=(maxcycle=1)\\title\\0,1\C,0,2.05309,-0.459496,-0.04860
 06\C,0,0.439127,1.14986,0.0587599\C,0,-1.81601,0.543051,0.824525\C,0,-
 2.13374,-0.592485,-0.170915\H,0,-0.399563,-1.35037,-0.0602866\H,0,-2.2
 8836,0.295569,1.78122\H,0,-2.30649,1.41261,0.479284\H,0,0.605394,2.680
 74,-1.18361\H,0,0.0454059,-0.106732,1.5373\H,0,1.77051,-2.30877,0.3150
 98\H,0,3.94018,0.237505,-0.446127\H,0,3.76738,-1.48723,-0.230709\H,0,-

 Normal termination of Gaussian 16 at Tue Apr  8 22:19:19 2025.
