 Gaussian 16, Revision C.01,

 ----------------------------------------------------------------------
 #t hf aug-cc-pvdz symm=none int=(grid=ultrafine) guess=(read,tcheck) s
 table=(opt,rrhf)
 ----------------------------------------------------------------------
 -----
 title
 -----
 Symbolic Z-matrix:
 Charge =  0 Multiplicity = 1

 SCF Done:  E(RHF) =  -637.023874057     A.U. after   17 cycles
 Normal termination of Gaussian 16 at Tue Apr  8 21:06:40 2025.
 Gaussian 16:  ES64L-G16RevC.01  3-Jul-2019

 ----------------------------------------------------------------------
 #t hf aug-cc-pvdz iop(5/13=1,5/36=2,99/5=2) pseudo=read geom=check gue
 ss=(read,tcheck) scf=(maxcycle=1)
 ----------------------------------------------------------------------
 -----
 title
 -----
 Structure from the checkpoint file:  "ANI1ccx_1814_conf1_mol2.chk"
 Charge =  0 Multiplicity = 1

                         Standard orientation:
 ---------------------------------------------------------------------
 Center     Atomic      Atomic             Coordinates (Angstroms)
 Number     Number       Type             X           Y           Z
 ---------------------------------------------------------------------
      1          6           0        1.606910    1.205431    0.023717
      2          6           0        2.970040    0.606597   -0.051494
      3          6           0        0.848448   -1.103119    0.006630
      4          6           0       -1.230669   -0.993998    0.000034
      5          6           0       -2.613169   -1.269921    0.000277
      6          6           0       -3.489949   -0.193699   -0.040970
      7          6           0       -3.014880    1.138789   -0.027927
      8          6           0       -1.662540    1.394980    0.003337
      9          6           0       -0.801106    0.336303    0.049690
     10          1           0       -1.339250    2.407810   -0.036339
     11          1           0       -3.664520    2.006779    0.124981
     12          1           0       -4.565709   -0.304945   -0.029194
     13          1           0        3.780730    1.308612   -0.062401
     14          1           0        2.430122   -2.436359    0.241147
     15          1           0       -2.967248   -2.286781    0.036442
     16          7           0        0.608610    0.224287    0.117231
     17          7           0        3.183451   -0.656679   -0.027652
     18          7           0        2.154651   -1.474579   -0.005510
     19          7           0       -0.192665   -1.882710   -0.061032
     20          8           0        1.296130    2.388061   -0.026957
 ---------------------------------------------------------------------

 SCF Done:  E(RHF) =  -639.896436987     A.U. after    2 cycles

 The electronic state is 1-A.
 Alpha  occ. eigenvalues --  -21.07184 -15.84604 -15.83905 -15.81922 -15.73713
 Alpha  occ. eigenvalues --  -11.55956 -11.53420 -11.52605 -11.46299 -11.45759
 Alpha  occ. eigenvalues --  -11.45159 -11.41986 -11.41338 -11.37544  -1.75445
 Alpha  occ. eigenvalues --   -1.66806  -1.55904  -1.35874  -1.31417  -1.24781
 Alpha  occ. eigenvalues --   -1.11882  -1.08541  -0.98340  -0.94415  -0.88500
 Alpha  occ. eigenvalues --   -0.86180  -0.78817  -0.74859  -0.71203  -0.70476
 Alpha  occ. eigenvalues --   -0.67187  -0.64285  -0.60981  -0.59727  -0.58719
 Alpha  occ. eigenvalues --   -0.56222  -0.54946  -0.53922  -0.48885  -0.48223
 Alpha  occ. eigenvalues --   -0.47657  -0.45749  -0.40635  -0.40187  -0.36246
 Alpha  occ. eigenvalues --   -0.32189  -0.30955  -0.27637
 Alpha virt. eigenvalues --    0.03157   0.04887   0.05314   0.05776   0.05978
 Alpha virt. eigenvalues --    0.07523   0.08602   0.08942   0.09546   0.09931
 Alpha virt. eigenvalues --    0.10575   0.11047   0.11503   0.11778   0.12248

 Mulliken charges:
               1
     1  C    5.500088
     2  C   -1.477364
     3  C    4.404902
     4  C    1.757885
     5  C   -1.526041
     6  C   -1.710894
     7  C   -2.777025
     8  C   -1.641259
     9  C    4.856137
    10  H    1.919571
    11  H    1.338231
    12  H    1.507417
    13  H    1.625870
    14  H    0.843478
    15  H    1.719113
    16  N   -3.942782
    17  N   -2.124711
    18  N   -2.284051
    19  N   -4.229888
    20  O   -3.758679
 Sum of Mulliken charges =   0.00000

 Dipole moment (field-independent basis, Debye):
    X=              1.1072    Y=             -0.3762    Z=              0.4921  Tot=              1.2687

 Test job not archived.
 1\1\GINC-SE393\SP\RHF\Aug-CC-pVDZ\C9H6N4O1\OHZDE\08-Apr-2025\0\\#t hf
 aug-cc-pvdz iop(5/13=1,5/36=2,99/5=2) pseudo=read geom=check guess=(re
 ad,tcheck) scf=(maxcycle=1)\\title\\0,1\C,0,1.60691,1.20543,0.0237172\
 C,0,2.97004,0.606595,-0.0514939\C,0,0.848447,-1.10312,0.00663044\C,0,-
 1.23067,-0.993998,0.000034\C,0,-2.61317,-1.26992,0.00027684\C,0,-3.489
 95,-0.193698,-0.0409704\C,0,-3.01488,1.13879,-0.027927\C,0,-1.66254,1.
 39498,0.0033366\C,0,-0.801107,0.336303,0.0496899\H,0,-1.33925,2.40781,
 -0.0363387\H,0,-3.66452,2.00678,0.124981\H,0,-4.56571,-0.304943,-0.029

 Normal termination of Gaussian 16 at Tue Apr  8 21:06:55 2025.
