 Gaussian 16, Revision C.01,

 ----------------------------------------------------------------------
 #t hf aug-cc-pvdz symm=none int=(grid=ultrafine) guess=(read,tcheck) s
 table=(opt,rrhf)
 ----------------------------------------------------------------------
 -----
 title
 -----
 Symbolic Z-matrix:
 Charge =  0 Multiplicity = 1

 SCF Done:  E(RHF) =  -301.624565551     A.U. after   14 cycles
 Normal termination of Gaussian 16 at Tue Apr  8 21:13:20 2025.
 Gaussian 16:  ES64L-G16RevC.01  3-Jul-2019

 ----------------------------------------------------------------------
 #t hf aug-cc-pvdz iop(5/13=1,5/36=2,99/5=2) pseudo=read geom=check gue
 ss=(read,tcheck) scf=(maxcycle=1)
 ----------------------------------------------------------------------
 -----
 title
 -----
 Structure from the checkpoint file:  "ANI1ccx_1884_conf2_mol2.chk"
 Charge =  0 Multiplicity = 1

                         Standard orientation:
 ---------------------------------------------------------------------
 Center     Atomic      Atomic             Coordinates (Angstroms)
 Number     Number       Type             X           Y           Z
 ---------------------------------------------------------------------
      1          1           0       -1.991610   -0.543937    0.402104
      2          1           0       -2.855340    0.680259    0.292470
      3          1           0       -0.054585    1.212990   -0.380707
      4          1           0        1.425030   -1.241100    0.906367
      5          8           0       -2.714740   -0.178890   -0.120528
      6          8           0        0.654722    1.130870    0.254239
      7          8           0        1.495210    0.152444   -0.337115
      8          8           0        0.999371   -1.117950    0.050875
 ---------------------------------------------------------------------

 SCF Done:  E(RHF) =  -302.847236464     A.U. after    2 cycles

 The electronic state is 1-A.
 Alpha  occ. eigenvalues --  -21.16350 -21.14678 -21.14514 -21.10556  -2.07557
 Alpha  occ. eigenvalues --   -1.70563  -1.66532  -1.29115  -0.69270  -0.63241
 Alpha  occ. eigenvalues --   -0.60888  -0.55397  -0.55194  -0.47586  -0.36624
 Alpha  occ. eigenvalues --   -0.35692  -0.34026  -0.32951
 Alpha virt. eigenvalues --    0.04097   0.05249   0.07076   0.08131   0.12759
 Alpha virt. eigenvalues --    0.14674   0.18417   0.18673   0.19530   0.20397
 Alpha virt. eigenvalues --    0.22131   0.23046   0.23925   0.24829   0.25903

 Mulliken charges:
               1
     1  H    0.931557
     2  H    0.839108
     3  H    0.976180
     4  H    0.894119
     5  O   -1.771646
     6  O   -1.034735
     7  O    0.082178
     8  O   -0.916761
 Sum of Mulliken charges =  -0.00000

 Dipole moment (field-independent basis, Debye):
    X=              0.0604    Y=              0.2179    Z=              1.0750  Tot=              1.0985

 Test job not archived.
 1\1\GINC-SE044\SP\RHF\Aug-CC-pVDZ\H4O4\OHZDE\08-Apr-2025\0\\#t hf aug-
 cc-pvdz iop(5/13=1,5/36=2,99/5=2) pseudo=read geom=check guess=(read,t
 check) scf=(maxcycle=1)\\title\\0,1\H,0,-1.99161,-0.543938,0.402104\H,
 0,-2.85534,0.680258,0.29247\H,0,-0.0545855,1.21299,-0.380707\H,0,1.425
 03,-1.2411,0.906367\O,0,-2.71474,-0.178891,-0.120528\O,0,0.654722,1.13
 087,0.254239\O,0,1.49521,0.152444,-0.337115\O,0,0.999371,-1.11795,0.05
 08749\\Version=ES64L-G16RevC.01\State=1-A\HF=-302.8472365\RMSD=3.411e-
 02\Dipole=0.0237784,0.0857418,0.4229349\Quadrupole=-1.6013896,0.975193

 Normal termination of Gaussian 16 at Tue Apr  8 21:13:22 2025.
