 Gaussian 16, Revision C.01,

 ----------------------------------------------------------------------
 #t hf aug-cc-pvdz symm=none int=(grid=ultrafine) guess=(read,tcheck) s
 table=(opt,rrhf)
 ----------------------------------------------------------------------
 -----
 title
 -----
 Symbolic Z-matrix:
 Charge =  0 Multiplicity = 1

 SCF Done:  E(RHF) =  -334.000146772     A.U. after   14 cycles
 Normal termination of Gaussian 16 at Tue Apr  8 21:40:50 2025.
 Gaussian 16:  ES64L-G16RevC.01  3-Jul-2019

 ----------------------------------------------------------------------
 #t hf aug-cc-pvdz iop(5/13=1,5/36=2,99/5=2) pseudo=read geom=check gue
 ss=(read,tcheck) scf=(maxcycle=1)
 ----------------------------------------------------------------------
 -----
 title
 -----
 Structure from the checkpoint file:  "ANI1ccx_431_conf11_mol1.chk"
 Charge =  0 Multiplicity = 1

                         Standard orientation:
 ---------------------------------------------------------------------
 Center     Atomic      Atomic             Coordinates (Angstroms)
 Number     Number       Type             X           Y           Z
 ---------------------------------------------------------------------
      1          6           0       -0.451066   -0.638337    0.029236
      2          1           0       -0.481204    1.619425    1.213510
      3          1           0        0.194926    2.069931   -0.190787
      4          1           0       -2.095514    0.498283   -0.391557
      5          1           0        1.256804   -1.533210    0.724696
      6          1           0        1.885211    1.091085    0.079369
      7          1           0        1.824180    0.060657   -1.225670
      8          7           0       -0.666814    1.806443    0.220571
      9          7           0       -1.030014    0.590648   -0.376195
     10          7           0        0.953166   -0.595891    0.406634
     11          7           0        1.998250    0.115704   -0.262439
     12          8           0       -1.082515   -1.674310   -0.038122
 ---------------------------------------------------------------------

 SCF Done:  E(RHF) =  -335.495872384     A.U. after    2 cycles

 The electronic state is 1-A.
 Alpha  occ. eigenvalues --  -21.04277 -15.79499 -15.78663 -15.77808 -15.77344
 Alpha  occ. eigenvalues --  -11.51067  -1.72710  -1.50711  -1.45804  -1.16637
 Alpha  occ. eigenvalues --   -1.11636  -0.84373  -0.71686  -0.71060  -0.67123
 Alpha  occ. eigenvalues --   -0.64234  -0.59917  -0.54215  -0.53402  -0.42922
 Alpha  occ. eigenvalues --   -0.42062  -0.37916  -0.33729  -0.29208
 Alpha virt. eigenvalues --    0.03758   0.05089   0.05266   0.05942   0.06786
 Alpha virt. eigenvalues --    0.07477   0.11802   0.12196   0.12541   0.14766
 Alpha virt. eigenvalues --    0.15520   0.16438   0.17038   0.17770   0.18410

 Mulliken charges:
               1
     1  C    5.241113
     2  H    0.583651
     3  H    0.777650
     4  H    0.619525
     5  H    0.665462
     6  H    0.709274
     7  H    0.672553
     8  N   -1.752941
     9  N   -1.477578
    10  N   -1.506225
    11  N   -1.615769
    12  O   -2.916713
 Sum of Mulliken charges =  -0.00000

 Dipole moment (field-independent basis, Debye):
    X=              1.1650    Y=              1.5860    Z=             -0.0085  Tot=              1.9679

 Test job not archived.
 1\1\GINC-SE044\SP\RHF\Aug-CC-pVDZ\C1H6N4O1\OHZDE\08-Apr-2025\0\\#t hf
 aug-cc-pvdz iop(5/13=1,5/36=2,99/5=2) pseudo=read geom=check guess=(re
 ad,tcheck) scf=(maxcycle=1)\\title\\0,1\C,0,-0.451072,-0.638332,0.0292
 36\H,0,-0.481191,1.61943,1.21351\H,0,0.194943,2.06993,-0.190787\H,0,-2
 .09551,0.498302,-0.391557\H,0,1.25679,-1.53322,0.724696\H,0,1.88522,1.
 09107,0.0793691\H,0,1.82418,0.060643,-1.22567\N,0,-0.666799,1.80645,0.
 220571\N,0,-1.03001,0.590658,-0.376195\N,0,0.95316,-0.595898,0.406634\
 N,0,1.99825,0.115688,-0.262439\O,0,-1.08253,-1.6743,-0.0381224\\Versio

 Normal termination of Gaussian 16 at Tue Apr  8 21:40:53 2025.
