 Gaussian 16, Revision C.01,

 ----------------------------------------------------------------------
 #t hf aug-cc-pvdz symm=none int=(grid=ultrafine) guess=(read,tcheck) s
 table=(opt,rrhf)
 ----------------------------------------------------------------------
 -----
 title
 -----
 Symbolic Z-matrix:
 Charge =  0 Multiplicity = 1

 SCF Done:  E(RHF) =  -982.108598181     A.U. after   14 cycles
 Normal termination of Gaussian 16 at Tue Apr  8 21:05:04 2025.
 Gaussian 16:  ES64L-G16RevC.01  3-Jul-2019

 ----------------------------------------------------------------------
 #t hf aug-cc-pvdz iop(5/13=1,5/36=2,99/5=2) pseudo=read geom=check gue
 ss=(read,tcheck) scf=(maxcycle=1)
 ----------------------------------------------------------------------
 -----
 title
 -----
 Structure from the checkpoint file:  "ANI1ccx_1743_conf3_mol1.chk"
 Charge =  0 Multiplicity = 1

                         Standard orientation:
 ---------------------------------------------------------------------
 Center     Atomic      Atomic             Coordinates (Angstroms)
 Number     Number       Type             X           Y           Z
 ---------------------------------------------------------------------
      1          6           0        1.319111   -1.780009    0.128115
      2          6           0       -0.020781   -1.102400   -0.370572
      3          6           0        2.489531   -1.394669   -0.841240
      4          6           0        2.857401    0.072789   -0.943950
      5          6           0        3.193580    0.691605    0.405471
      6          6           0       -1.463550    0.841359   -0.244928
      7          6           0       -1.199921    2.319019   -0.389460
      8          6           0       -2.533580    0.666168    0.866000
      9          6           0       -3.255959   -0.736613    0.613814
     10          1           0        0.089326    3.652740   -0.364850
     11          1           0       -4.256849   -1.633772   -0.746861
     12          1           0       -2.139250    0.620837    1.881630
     13          1           0       -3.198110    1.539978    0.718391
     14          1           0       -1.918880    0.477310   -1.174630
     15          1           0        0.431438    0.692791    0.620198
     16          1           0        4.579670    1.264042    1.479120
     17          1           0        3.686080    0.264425   -1.634610
     18          1           0        1.989570    0.596249   -1.331480
     19          1           0        2.254191   -1.840239   -1.802380
     20          1           0        3.354392   -1.950078   -0.453910
     21          1           0        1.603241   -1.377989    1.104430
     22          1           0        0.432507   -3.344780    0.756619
     23          1           0        0.851376   -3.426890   -0.769853
     24          7           0        1.247552   -3.236830    0.159864
     25          7           0       -0.195112    0.157129    0.028225
     26          8           0       -0.765978   -1.718621   -1.108390
     27          8           0        2.363480    0.993643    1.250420
     28          8           0        4.536460    0.863497    0.579370
     29          8           0       -2.026461    3.176989   -0.591816
     30          8           0       -3.202989   -1.699642    1.318970
     31          8           0       -3.928399   -0.724643   -0.584729
     32          8           0        0.093787    2.678750   -0.231071
 ---------------------------------------------------------------------

 SCF Done:  E(RHF) =  -986.374312053     A.U. after    2 cycles

 The electronic state is 1-A.
 Alpha  occ. eigenvalues --  -21.14708 -21.13982 -21.11751 -21.07839 -21.07097
 Alpha  occ. eigenvalues --  -21.06502 -21.03308 -15.77237 -15.73628 -11.56912
 Alpha  occ. eigenvalues --  -11.56089 -11.54134 -11.52613 -11.49937 -11.46788
 Alpha  occ. eigenvalues --  -11.44801 -11.43059 -11.39848  -1.85834  -1.84371
 Alpha  occ. eigenvalues --   -1.81586  -1.72167  -1.67703  -1.66789  -1.65823
 Alpha  occ. eigenvalues --   -1.43000  -1.36270  -1.20748  -1.18353  -1.04024
 Alpha  occ. eigenvalues --   -1.00698  -0.91302  -0.83580  -0.81718  -0.80947
 Alpha  occ. eigenvalues --   -0.79089  -0.72404  -0.69521  -0.67716  -0.65954
 Alpha  occ. eigenvalues --   -0.64724  -0.64227  -0.63555  -0.61703  -0.60233
 Alpha  occ. eigenvalues --   -0.59984  -0.59067  -0.57686  -0.55995  -0.54389
 Alpha  occ. eigenvalues --   -0.54010  -0.53062  -0.51343  -0.49825  -0.49375
 Alpha  occ. eigenvalues --   -0.48716  -0.47775  -0.47046  -0.45564  -0.43732
 Alpha  occ. eigenvalues --   -0.38343  -0.36199  -0.35682  -0.34723  -0.33399
 Alpha  occ. eigenvalues --   -0.32290  -0.30913  -0.29378  -0.28887
 Alpha virt. eigenvalues --    0.03513   0.04310   0.04504   0.05315   0.05417
 Alpha virt. eigenvalues --    0.05888   0.06389   0.06487   0.06840   0.07167
 Alpha virt. eigenvalues --    0.07642   0.08197   0.08970   0.09216   0.09912

 Mulliken charges:
               1
     1  C   -1.532507
     2  C    7.842428
     3  C   -3.283251
     4  C   -4.241339
     5  C    6.624680
     6  C   -3.150009
     7  C    7.370345
     8  C   -4.680671
     9  C    6.989529
    10  H    0.981963
    11  H    0.941049
    12  H    1.463962
    13  H    1.465318
    14  H    2.153393
    15  H    1.229294
    16  H    0.744603
    17  H    1.266299
    18  H    1.848616
    19  H    1.392632
    20  H    1.404480
    21  H    2.184219
    22  H    0.535118
    23  H    0.606131
    24  N   -2.961086
    25  N   -3.337286
    26  O   -4.077317
    27  O   -3.101869
    28  O   -3.285131
    29  O   -3.597087
    30  O   -3.433796
    31  O   -3.211775
    32  O   -3.150933
 Sum of Mulliken charges =   0.00000

 Dipole moment (field-independent basis, Debye):
    X=              2.3568    Y=              2.0125    Z=             -0.4211  Tot=              3.1276

 Test job not archived.
 1\1\GINC-SE221\SP\RHF\Aug-CC-pVDZ\C9H14N2O7\OHZDE\08-Apr-2025\0\\#t hf
  aug-cc-pvdz iop(5/13=1,5/36=2,99/5=2) pseudo=read geom=check guess=(r
 ead,tcheck) scf=(maxcycle=1)\\title\\0,1\C,0,1.31911,-1.78001,0.128115
 \C,0,-0.0207819,-1.1024,-0.370572\C,0,2.48953,-1.39467,-0.84124\C,0,2.
 8574,0.0727877,-0.94395\C,0,3.19358,0.691604,0.405471\C,0,-1.46355,0.8
 4136,-0.244928\C,0,-1.19992,2.31902,-0.38946\C,0,-2.53358,0.666169,0.8
 66\C,0,-3.25596,-0.736611,0.613814\H,0,0.0893277,3.65274,-0.36485\H,0,
 -4.25685,-1.63377,-0.746861\H,0,-2.13925,0.620838,1.88163\H,0,-3.19811

 Normal termination of Gaussian 16 at Tue Apr  8 21:05:53 2025.
