 Gaussian 16, Revision C.01,

 ----------------------------------------------------------------------
 #t hf aug-cc-pvdz symm=none int=(grid=ultrafine) guess=(read,tcheck) s
 table=(opt,rrhf)
 ----------------------------------------------------------------------
 -----
 title
 -----
 Symbolic Z-matrix:
 Charge =  0 Multiplicity = 1

 SCF Done:  E(RHF) =  -489.684035323     A.U. after   14 cycles
 Normal termination of Gaussian 16 at Tue Apr  8 22:16:09 2025.
 Gaussian 16:  ES64L-G16RevC.01  3-Jul-2019

 ----------------------------------------------------------------------
 #t hf aug-cc-pvdz iop(5/13=1,5/36=2,99/5=2) pseudo=read geom=check gue
 ss=(read,tcheck) scf=(maxcycle=1)
 ----------------------------------------------------------------------
 -----
 title
 -----
 Structure from the checkpoint file:  "ANI1ccx_957_conf60_mol1.chk"
 Charge =  0 Multiplicity = 1

                         Standard orientation:
 ---------------------------------------------------------------------
 Center     Atomic      Atomic             Coordinates (Angstroms)
 Number     Number       Type             X           Y           Z
 ---------------------------------------------------------------------
      1          6           0       -0.752040    0.617670   -0.699813
      2          6           0       -1.083609   -0.797309   -0.238386
      3          6           0        0.712117    0.818317   -0.895907
      4          6           0        1.628770    0.140381    0.132211
      5          1           0       -2.313519   -1.792491    0.912752
      6          1           0        1.920100    0.192020    2.213210
      7          1           0        0.959712    0.356226   -1.841530
      8          1           0        0.994475    1.907590   -0.997865
      9          1           0        0.512852    1.088820    1.619700
     10          1           0       -1.542070    2.374199   -0.523700
     11          1           0       -2.415610    1.408189    0.287485
     12          1           0       -1.035360    0.876949   -1.786180
     13          7           0       -1.447040    1.639809    0.135669
     14          7           0        1.304640    0.479312    1.441660
     15          8           0        2.477221   -0.650609   -0.284011
     16          8           0       -0.314403   -1.725750   -0.525688
     17          8           0       -2.052219   -0.863605    0.720475
 ---------------------------------------------------------------------

 SCF Done:  E(RHF) =  -491.831935762     A.U. after    2 cycles

 The electronic state is 1-A.
 Alpha  occ. eigenvalues --  -21.14095 -21.06147 -21.01582 -15.76901 -15.76037
 Alpha  occ. eigenvalues --  -11.55152 -11.51144 -11.48713 -11.40235  -1.82497
 Alpha  occ. eigenvalues --   -1.67849  -1.65850  -1.38370  -1.32592  -1.14536
 Alpha  occ. eigenvalues --   -0.97791  -0.84340  -0.77066  -0.71316  -0.69294
 Alpha  occ. eigenvalues --   -0.65785  -0.63711  -0.59784  -0.58621  -0.56325
 Alpha  occ. eigenvalues --   -0.51862  -0.50493  -0.48166  -0.47393  -0.44633
 Alpha  occ. eigenvalues --   -0.38974  -0.34702  -0.32457  -0.29409  -0.26655
 Alpha virt. eigenvalues --    0.03153   0.04341   0.04573   0.05085   0.05472
 Alpha virt. eigenvalues --    0.07235   0.07540   0.07872   0.09648   0.11395
 Alpha virt. eigenvalues --    0.12014   0.12676   0.12749   0.14017   0.14520

 Mulliken charges:
               1
     1  C   -1.373412
     2  C    6.019579
     3  C   -2.932134
     4  C    5.780796
     5  H    0.911308
     6  H    0.788899
     7  H    1.173344
     8  H    1.399560
     9  H    0.795573
    10  H    0.357031
    11  H    0.729588
    12  H    1.555141
    13  N   -2.539649
    14  N   -3.258879
    15  O   -3.356986
    16  O   -2.906240
    17  O   -3.143520
 Sum of Mulliken charges =  -0.00000

 Dipole moment (field-independent basis, Debye):
    X=             -3.1476    Y=              1.5722    Z=              0.8410  Tot=              3.6175

 Test job not archived.
 1\1\GINC-SE072\SP\RHF\Aug-CC-pVDZ\C4H8N2O3\OHZDE\08-Apr-2025\0\\#t hf
 aug-cc-pvdz iop(5/13=1,5/36=2,99/5=2) pseudo=read geom=check guess=(re
 ad,tcheck) scf=(maxcycle=1)\\title\\0,1\C,0,-0.75204,0.61767,-0.699813
 \C,0,-1.08361,-0.797308,-0.238386\C,0,0.712117,0.818317,-0.895907\C,0,
 1.62877,0.140381,0.132211\H,0,-2.31352,-1.79249,0.912752\H,0,1.9201,0.
 19202,2.21321\H,0,0.959712,0.356226,-1.84153\H,0,0.994475,1.90759,-0.9
 97865\H,0,0.512852,1.08882,1.6197\H,0,-1.54207,2.3742,-0.5237\H,0,-2.4
 1561,1.40819,0.287485\H,0,-1.03536,0.876949,-1.78618\N,0,-1.44704,1.63

 Normal termination of Gaussian 16 at Tue Apr  8 22:16:16 2025.
