 Gaussian 16, Revision C.01,

 ----------------------------------------------------------------------
 #t hf aug-cc-pvdz symm=none int=(grid=ultrafine) guess=(read,tcheck) s
 table=(opt,rrhf)
 ----------------------------------------------------------------------
 -----
 title
 -----
 Symbolic Z-matrix:
 Charge =  0 Multiplicity = 1

 SCF Done:  E(RHF) =  -538.485205096     A.U. after   16 cycles
 Normal termination of Gaussian 16 at Tue Apr  8 21:54:51 2025.
 Gaussian 16:  ES64L-G16RevC.01  3-Jul-2019

 ----------------------------------------------------------------------
 #t hf aug-cc-pvdz iop(5/13=1,5/36=2,99/5=2) pseudo=read geom=check gue
 ss=(read,tcheck) scf=(maxcycle=1)
 ----------------------------------------------------------------------
 -----
 title
 -----
 Structure from the checkpoint file:  "ANI1ccx_716_conf7_mol1.chk"
 Charge =  0 Multiplicity = 1

                         Standard orientation:
 ---------------------------------------------------------------------
 Center     Atomic      Atomic             Coordinates (Angstroms)
 Number     Number       Type             X           Y           Z
 ---------------------------------------------------------------------
      1          6           0       -0.699619    0.516035    0.397603
      2          6           0       -1.958949   -0.402580    0.013135
      3          6           0        0.660714    0.029739    0.037868
      4          1           0       -1.703269    2.205679    0.384171
      5          1           0       -0.897901    1.923969   -1.048940
      6          1           0       -0.750361    0.661366    1.474720
      7          1           0       -0.616332   -1.774481   -0.443148
      8          1           0        1.353141    1.752650   -0.627181
      9          7           0       -0.868362    1.871689   -0.074311
     10          7           0        1.271971   -1.134540    0.323536
     11          7           0        2.585661   -0.892149    0.202555
     12          7           0        2.842101    0.325166   -0.208225
     13          7           0        1.634721    0.873784   -0.221404
     14          8           0       -1.637189   -1.633411   -0.453142
     15          8           0       -3.070409    0.016412    0.129852
 ---------------------------------------------------------------------

 SCF Done:  E(RHF) =  -540.834071810     A.U. after    2 cycles

 The electronic state is 1-A.
 Alpha  occ. eigenvalues --  -21.13442 -21.08101 -15.86540 -15.83260 -15.81525
 Alpha  occ. eigenvalues --  -15.78910 -15.78784 -11.56194 -11.53823 -11.47206
 Alpha  occ. eigenvalues --   -1.83307  -1.77752  -1.68099  -1.43532  -1.39844
 Alpha  occ. eigenvalues --   -1.31037  -1.07653  -0.93862  -0.89956  -0.82602
 Alpha  occ. eigenvalues --   -0.79570  -0.73543  -0.70961  -0.69014  -0.62929
 Alpha  occ. eigenvalues --   -0.60281  -0.55862  -0.54177  -0.52071  -0.51011
 Alpha  occ. eigenvalues --   -0.45419  -0.43785  -0.42630  -0.40952  -0.40317
 Alpha  occ. eigenvalues --   -0.35424  -0.31321
 Alpha virt. eigenvalues --    0.02653   0.04396   0.05205   0.05693   0.07065
 Alpha virt. eigenvalues --    0.08956   0.10230   0.10403   0.11211   0.11807
 Alpha virt. eigenvalues --    0.12051   0.13312   0.13716   0.13860   0.14625

 Mulliken charges:
               1
     1  C   -1.740414
     2  C    5.884390
     3  C    4.538375
     4  H    0.589126
     5  H    0.660160
     6  H    1.550578
     7  H    1.219470
     8  H    0.859053
     9  N   -2.503943
    10  N   -1.972000
    11  N   -0.303652
    12  N   -0.545585
    13  N   -2.002216
    14  O   -3.075693
    15  O   -3.157647
 Sum of Mulliken charges =  -0.00000

 Dipole moment (field-independent basis, Debye):
    X=             -1.4438    Y=              3.4458    Z=             -1.0024  Tot=              3.8682

 Test job not archived.
 1\1\GINC-SE366\SP\RHF\Aug-CC-pVDZ\C3H5N5O2\OHZDE\08-Apr-2025\0\\#t hf
 aug-cc-pvdz iop(5/13=1,5/36=2,99/5=2) pseudo=read geom=check guess=(re
 ad,tcheck) scf=(maxcycle=1)\\title\\0,1\C,0,-0.69962,0.516036,0.397603
 \C,0,-1.95895,-0.402579,0.013135\C,0,0.660713,0.0297394,0.0378679\H,0,
 -1.70327,2.20568,0.384171\H,0,-0.897902,1.92397,-1.04894\H,0,-0.750362
 ,0.661367,1.47472\H,0,-0.616333,-1.77448,-0.443148\H,0,1.35314,1.75265
 ,-0.627181\N,0,-0.868363,1.87169,-0.0743111\N,0,1.27197,-1.13454,0.323
 536\N,0,2.58566,-0.892149,0.202555\N,0,2.8421,0.325166,-0.208225\N,0,1

 Normal termination of Gaussian 16 at Tue Apr  8 21:54:57 2025.
