 Gaussian 16, Revision C.01,

 ----------------------------------------------------------------------
 #t hf aug-cc-pvdz symm=none int=(grid=ultrafine) guess=(read,tcheck) s
 table=(opt,rrhf)
 ----------------------------------------------------------------------
 -----
 title
 -----
 Symbolic Z-matrix:
 Charge =  0 Multiplicity = 1

 SCF Done:  E(RHF) =  -298.823307025     A.U. after   14 cycles
 Normal termination of Gaussian 16 at Tue Apr  8 21:37:41 2025.
 Gaussian 16:  ES64L-G16RevC.01  3-Jul-2019

 ----------------------------------------------------------------------
 #t hf aug-cc-pvdz iop(5/13=1,5/36=2,99/5=2) pseudo=read geom=check gue
 ss=(read,tcheck) scf=(maxcycle=1)
 ----------------------------------------------------------------------
 -----
 title
 -----
 Structure from the checkpoint file:  "ANI1ccx_398_conf16_mol1.chk"
 Charge =  0 Multiplicity = 1

                         Standard orientation:
 ---------------------------------------------------------------------
 Center     Atomic      Atomic             Coordinates (Angstroms)
 Number     Number       Type             X           Y           Z
 ---------------------------------------------------------------------
      1          6           0       -0.461062    0.108445    0.020187
      2          1           0       -1.773940   -1.268121   -0.502991
      3          1           0       -2.416250    0.240603   -0.248592
      4          1           0        0.581715   -1.543781    0.552496
      5          1           0        1.516060    0.854963   -0.161416
      6          7           0       -1.742730   -0.444686    0.115679
      7          7           0        0.622911   -0.798138   -0.126239
      8          8           0       -0.228299    1.311289    0.007396
      9          8           0        1.815490   -0.090610    0.031766
 ---------------------------------------------------------------------

 SCF Done:  E(RHF) =  -300.099399889     A.U. after    2 cycles

 The electronic state is 1-A.
 Alpha  occ. eigenvalues --  -21.08526 -21.05562 -15.80362 -15.79923 -11.51813
 Alpha  occ. eigenvalues --   -1.82518  -1.70315  -1.38048  -1.21331  -0.83758
 Alpha  occ. eigenvalues --   -0.74725  -0.68968  -0.63712  -0.58894  -0.53424
 Alpha  occ. eigenvalues --   -0.47297  -0.44578  -0.37790  -0.32381  -0.28831
 Alpha virt. eigenvalues --    0.03242   0.05166   0.06027   0.07268   0.11193
 Alpha virt. eigenvalues --    0.11605   0.13259   0.14484   0.15662   0.16220
 Alpha virt. eigenvalues --    0.17064   0.17921   0.18956   0.19582   0.21303

 Mulliken charges:
               1
     1  C    5.171902
     2  H    0.609217
     3  H    0.480787
     4  H    0.739568
     5  H    0.795540
     6  N   -2.578320
     7  N   -0.377339
     8  O   -2.553866
     9  O   -2.287490
 Sum of Mulliken charges =  -0.00000

 Dipole moment (field-independent basis, Debye):
    X=             -1.4560    Y=             -1.2854    Z=             -0.2905  Tot=              1.9638

 Test job not archived.
 1\1\GINC-SE364\SP\RHF\Aug-CC-pVDZ\C1H4N2O2\OHZDE\08-Apr-2025\0\\#t hf
 aug-cc-pvdz iop(5/13=1,5/36=2,99/5=2) pseudo=read geom=check guess=(re
 ad,tcheck) scf=(maxcycle=1)\\title\\0,1\C,0,-0.461062,0.108446,0.02018
 73\H,0,-1.77394,-1.26812,-0.502991\H,0,-2.41625,0.240604,-0.248592\H,0
 ,0.581715,-1.54378,0.552496\H,0,1.51606,0.854964,-0.161416\N,0,-1.7427
 3,-0.444685,0.115679\N,0,0.622911,-0.798137,-0.126239\O,0,-0.228299,1.
 31129,0.00739557\O,0,1.81549,-0.0906094,0.0317664\\Version=ES64L-G16Re
 vC.01\State=1-A\HF=-300.0993999\RMSD=4.793e-02\Dipole=-0.5728316,-0.50

 Normal termination of Gaussian 16 at Tue Apr  8 21:37:43 2025.
