 Gaussian 16, Revision C.01,

 ----------------------------------------------------------------------
 #t hf aug-cc-pvdz symm=none int=(grid=ultrafine) guess=(read,tcheck) s
 table=(opt,rrhf)
 ----------------------------------------------------------------------
 -----
 title
 -----
 Symbolic Z-matrix:
 Charge =  0 Multiplicity = 1

 SCF Done:  E(RHF) =  -538.523326628     A.U. after   16 cycles
 Normal termination of Gaussian 16 at Tue Apr  8 21:54:55 2025.
 Gaussian 16:  ES64L-G16RevC.01  3-Jul-2019

 ----------------------------------------------------------------------
 #t hf aug-cc-pvdz iop(5/13=1,5/36=2,99/5=2) pseudo=read geom=check gue
 ss=(read,tcheck) scf=(maxcycle=1)
 ----------------------------------------------------------------------
 -----
 title
 -----
 Structure from the checkpoint file:  "ANI1ccx_716_conf1_mol2.chk"
 Charge =  0 Multiplicity = 1

                         Standard orientation:
 ---------------------------------------------------------------------
 Center     Atomic      Atomic             Coordinates (Angstroms)
 Number     Number       Type             X           Y           Z
 ---------------------------------------------------------------------
      1          6           0       -0.752724    0.541143    0.546278
      2          6           0       -1.796131   -0.451027   -0.066609
      3          6           0        0.652287    0.123743    0.210497
      4          1           0       -1.321032    2.485969    0.874767
      5          1           0       -1.752982    1.879208   -0.559885
      6          1           0       -0.878833    0.424682    1.624590
      7          1           0       -0.580335   -1.914241    0.242627
      8          1           0        1.532438    1.971330   -0.395109
      9          7           0       -0.992076    1.901689    0.107419
     10          7           0        1.184059   -1.067090    0.304797
     11          7           0        2.477689   -0.924808   -0.051026
     12          7           0        2.741749    0.278925   -0.376619
     13          7           0        1.602248    0.966653   -0.221508
     14          8           0       -1.514840   -1.750791    0.003006
     15          8           0       -2.824601   -0.026419   -0.536684
 ---------------------------------------------------------------------

 SCF Done:  E(RHF) =  -540.863085734     A.U. after    2 cycles

 The electronic state is 1-A.
 Alpha  occ. eigenvalues --  -21.13319 -21.07191 -15.85609 -15.82548 -15.81074
 Alpha  occ. eigenvalues --  -15.77879 -15.77781 -11.56228 -11.53802 -11.46796
 Alpha  occ. eigenvalues --   -1.84497  -1.77415  -1.67808  -1.41422  -1.39589
 Alpha  occ. eigenvalues --   -1.30697  -1.08543  -0.92657  -0.89845  -0.83015
 Alpha  occ. eigenvalues --   -0.77066  -0.75085  -0.69766  -0.68827  -0.61843
 Alpha  occ. eigenvalues --   -0.60815  -0.55967  -0.54307  -0.51623  -0.49969
 Alpha  occ. eigenvalues --   -0.43876  -0.43625  -0.42367  -0.40921  -0.39542
 Alpha  occ. eigenvalues --   -0.35098  -0.32134
 Alpha virt. eigenvalues --    0.02682   0.04398   0.04875   0.05947   0.07658
 Alpha virt. eigenvalues --    0.08897   0.09769   0.10954   0.11579   0.12049
 Alpha virt. eigenvalues --    0.13028   0.13158   0.13794   0.14366   0.14614

 Mulliken charges:
               1
     1  C   -1.422959
     2  C    6.187927
     3  C    4.763214
     4  H    0.534537
     5  H    0.563344
     6  H    1.608635
     7  H    1.276893
     8  H    0.881740
     9  N   -2.695783
    10  N   -2.091747
    11  N   -0.413237
    12  N   -0.468832
    13  N   -2.247676
    14  O   -3.340641
    15  O   -3.135414
 Sum of Mulliken charges =  -0.00000

 Dipole moment (field-independent basis, Debye):
    X=             -1.4847    Y=              3.7390    Z=              1.1675  Tot=              4.1890

 Test job not archived.
 1\1\GINC-SE273\SP\RHF\Aug-CC-pVDZ\C3H5N5O2\OHZDE\08-Apr-2025\0\\#t hf
 aug-cc-pvdz iop(5/13=1,5/36=2,99/5=2) pseudo=read geom=check guess=(re
 ad,tcheck) scf=(maxcycle=1)\\title\\0,1\C,0,-0.752723,0.541144,0.54627
 8\C,0,-1.79613,-0.451025,-0.066609\C,0,0.652288,0.123743,0.210497\H,0,
 -1.32103,2.48597,0.874767\H,0,-1.75298,1.87921,-0.559885\H,0,-0.878832
 ,0.424683,1.62459\H,0,-0.580335,-1.91424,0.242627\H,0,1.53244,1.97133,
 -0.395109\N,0,-0.992074,1.90169,0.107419\N,0,1.18406,-1.06709,0.304797
 \N,0,2.47769,-0.924809,-0.0510261\N,0,2.74175,0.278924,-0.376619\N,0,1

 Normal termination of Gaussian 16 at Tue Apr  8 21:55:03 2025.
