 Gaussian 16, Revision C.01,

 ----------------------------------------------------------------------
 #t hf aug-cc-pvdz symm=none int=(grid=ultrafine) guess=(read,tcheck) s
 table=(opt,rrhf)
 ----------------------------------------------------------------------
 -----
 title
 -----
 Symbolic Z-matrix:
 Charge =  0 Multiplicity = 1

 SCF Done:  E(RHF) =  -596.222644542     A.U. after   17 cycles
 Normal termination of Gaussian 16 at Tue Apr  8 22:07:53 2025.
 Gaussian 16:  ES64L-G16RevC.01  3-Jul-2019

 ----------------------------------------------------------------------
 #t hf aug-cc-pvdz iop(5/13=1,5/36=2,99/5=2) pseudo=read geom=check gue
 ss=(read,tcheck) scf=(maxcycle=1)
 ----------------------------------------------------------------------
 -----
 title
 -----
 Structure from the checkpoint file:  "ANI1ccx_883_conf4_mol2.chk"
 Charge =  0 Multiplicity = 1

                         Standard orientation:
 ---------------------------------------------------------------------
 Center     Atomic      Atomic             Coordinates (Angstroms)
 Number     Number       Type             X           Y           Z
 ---------------------------------------------------------------------
      1          6           0       -1.804760   -0.222203   -0.020303
      2          6           0        0.289945   -1.072089   -0.018133
      3          6           0        0.834350    0.196364   -0.077034
      4          6           0       -0.120552    1.234120   -0.005506
      5          1           0       -3.463829   -1.383573   -0.063617
      6          1           0       -3.700631    0.352117   -0.253788
      7          1           0        0.471103   -2.906869    0.173270
      8          1           0       -0.465668    2.986160    0.268365
      9          7           0       -3.103380   -0.434284    0.026617
     10          7           0       -1.009119   -1.282611    0.023572
     11          7           0        2.197679    0.618290   -0.042313
     12          7           0       -1.429951    1.058999   -0.018826
     13          8           0        1.096922   -2.140278    0.042766
     14          8           0        2.991140   -0.275031   -0.009562
     15          8           0        0.334253    2.466841    0.051580
 ---------------------------------------------------------------------

 SCF Done:  E(RHF) =  -598.790813633     A.U. after    2 cycles

 The electronic state is 1-A.
 Alpha  occ. eigenvalues --  -21.13498 -21.12806 -21.09272 -15.85028 -15.79720
 Alpha  occ. eigenvalues --  -15.74105 -15.73864 -11.55425 -11.54917 -11.50994
 Alpha  occ. eigenvalues --  -11.41009  -1.86125  -1.81671  -1.79202  -1.55962
 Alpha  occ. eigenvalues --   -1.35244  -1.31941  -1.20794  -1.00337  -0.92617
 Alpha  occ. eigenvalues --   -0.88056  -0.78023  -0.72918  -0.67301  -0.66612
 Alpha  occ. eigenvalues --   -0.64841  -0.63991  -0.57947  -0.56161  -0.54379
 Alpha  occ. eigenvalues --   -0.52297  -0.49589  -0.49038  -0.47924  -0.47265
 Alpha  occ. eigenvalues --   -0.38142  -0.37269  -0.34554  -0.30111  -0.25083
 Alpha virt. eigenvalues --    0.03103   0.04344   0.05079   0.06353   0.08662
 Alpha virt. eigenvalues --    0.09986   0.11263   0.11453   0.12100   0.12379
 Alpha virt. eigenvalues --    0.12974   0.13104   0.13318   0.14638   0.14702

 Mulliken charges:
               1
     1  C    3.760318
     2  C    6.078321
     3  C   -0.146562
     4  C    6.253407
     5  H    0.695125
     6  H    0.613929
     7  H    0.865663
     8  H    0.856812
     9  N   -2.875878
    10  N   -3.066046
    11  N    0.575691
    12  N   -3.208111
    13  O   -3.789490
    14  O   -2.606912
    15  O   -4.006265
 Sum of Mulliken charges =  -0.00000

 Dipole moment (field-independent basis, Debye):
    X=             -3.3576    Y=             -1.0976    Z=             -0.0837  Tot=              3.5334

 Test job not archived.
 1\1\GINC-SE220\SP\RHF\Aug-CC-pVDZ\C4H4N4O3\OHZDE\08-Apr-2025\0\\#t hf
 aug-cc-pvdz iop(5/13=1,5/36=2,99/5=2) pseudo=read geom=check guess=(re
 ad,tcheck) scf=(maxcycle=1)\\title\\0,1\C,0,-1.80476,-0.222201,-0.0203
 025\C,0,0.289944,-1.07209,-0.0181326\C,0,0.83435,0.196363,-0.0770341\C
 ,0,-0.12055,1.23412,-0.0055057\H,0,-3.46383,-1.38357,-0.0636171\H,0,-3
 .70063,0.352121,-0.253788\H,0,0.4711,-2.90687,0.17327\H,0,-0.465665,2.
 98616,0.268365\N,0,-3.10338,-0.434281,0.0266175\N,0,-1.00912,-1.28261,
 0.023572\N,0,2.19768,0.618287,-0.0423131\N,0,-1.42995,1.059,-0.0188261

 Normal termination of Gaussian 16 at Tue Apr  8 22:08:01 2025.
