 Gaussian 16, Revision C.01,

 ----------------------------------------------------------------------
 #t hf aug-cc-pvdz symm=none int=(grid=ultrafine) guess=(read,tcheck) s
 table=(opt,rrhf)
 ----------------------------------------------------------------------
 -----
 title
 -----
 Symbolic Z-matrix:
 Charge =  0 Multiplicity = 1

 SCF Done:  E(RHF) =  -404.780179250     A.U. after   15 cycles
 Normal termination of Gaussian 16 at Tue Apr  8 21:46:50 2025.
 Gaussian 16:  ES64L-G16RevC.01  3-Jul-2019

 ----------------------------------------------------------------------
 #t hf aug-cc-pvdz iop(5/13=1,5/36=2,99/5=2) pseudo=read geom=check gue
 ss=(read,tcheck) scf=(maxcycle=1)
 ----------------------------------------------------------------------
 -----
 title
 -----
 Structure from the checkpoint file:  "ANI1ccx_523_conf3_mol2.chk"
 Charge =  0 Multiplicity = 1

                         Standard orientation:
 ---------------------------------------------------------------------
 Center     Atomic      Atomic             Coordinates (Angstroms)
 Number     Number       Type             X           Y           Z
 ---------------------------------------------------------------------
      1          6           0       -1.071669   -0.268068   -0.068918
      2          6           0        1.092241   -0.274757    0.002617
      3          1           0       -2.420928   -1.840681    0.238394
      4          1           0       -3.100169   -0.231293    0.037658
      5          1           0        2.343012   -1.842609   -0.079289
      6          1           0        3.184321   -0.332316   -0.086470
      7          7           0       -2.318659   -0.859563    0.024497
      8          7           0       -1.135799    1.046580   -0.036193
      9          7           0       -0.007825    1.703420    0.019149
     10          7           0        1.134711    1.090801    0.037073
     11          7           0        2.300281   -0.860619    0.031879
     12          7           0        0.008767   -1.048640   -0.035331
 ---------------------------------------------------------------------

 SCF Done:  E(RHF) =  -406.597147571     A.U. after    2 cycles

 The electronic state is 1-A.
 Alpha  occ. eigenvalues --  -15.83313 -15.79386 -15.78063 -15.75758 -15.75205
 Alpha  occ. eigenvalues --  -15.74755 -11.52270 -11.48540  -1.67392  -1.45944
 Alpha  occ. eigenvalues --   -1.44579  -1.29044  -1.26521  -1.01080  -0.93134
 Alpha  occ. eigenvalues --   -0.77016  -0.74158  -0.68837  -0.66482  -0.63327
 Alpha  occ. eigenvalues --   -0.60120  -0.58460  -0.52629  -0.49306  -0.48768
 Alpha  occ. eigenvalues --   -0.38958  -0.36370  -0.34261  -0.32826
 Alpha virt. eigenvalues --    0.03370   0.04462   0.05929   0.06323   0.09925
 Alpha virt. eigenvalues --    0.10739   0.11245   0.12238   0.13264   0.13714
 Alpha virt. eigenvalues --    0.14286   0.14810   0.16194   0.16872   0.17420

 Mulliken charges:
               1
     1  C    4.586572
     2  C    4.562328
     3  H    0.684839
     4  H    0.667596
     5  H    0.643304
     6  H    0.692910
     7  N   -2.875565
     8  N   -1.688858
     9  N   -0.121898
    10  N   -1.503174
    11  N   -2.939406
    12  N   -2.708649
 Sum of Mulliken charges =  -0.00000

 Dipole moment (field-independent basis, Debye):
    X=              0.4287    Y=             -3.8457    Z=             -0.0288  Tot=              3.8696

 Test job not archived.
 1\1\GINC-SE086\SP\RHF\Aug-CC-pVDZ\C2H4N6\OHZDE\08-Apr-2025\0\\#t hf au
 g-cc-pvdz iop(5/13=1,5/36=2,99/5=2) pseudo=read geom=check guess=(read
 ,tcheck) scf=(maxcycle=1)\\title\\0,1\C,0,-1.07167,-0.268068,-0.068918
 1\C,0,1.09224,-0.274758,0.00261695\H,0,-2.42093,-1.84068,0.238394\H,0,
 -3.10017,-0.231292,0.0376582\H,0,2.34301,-1.84261,-0.0792894\H,0,3.184
 32,-0.332317,-0.0864696\N,0,-2.31866,-0.859562,0.0244973\N,0,-1.1358,1
 .04658,-0.0361928\N,0,-0.00782566,1.70342,0.0191486\N,0,1.13471,1.0908
 ,0.0370726\N,0,2.30028,-0.86062,0.0318789\N,0,0.00876508,-1.04864,-0.0

 Normal termination of Gaussian 16 at Tue Apr  8 21:46:56 2025.
