 Gaussian 16, Revision C.01,

 ----------------------------------------------------------------------
 #t hf aug-cc-pvdz symm=none int=(grid=ultrafine) guess=(read,tcheck) s
 table=(opt,rrhf)
 ----------------------------------------------------------------------
 -----
 title
 -----
 Symbolic Z-matrix:
 Charge =  0 Multiplicity = 1

 SCF Done:  E(RHF) =  -404.752197543     A.U. after   16 cycles
 Normal termination of Gaussian 16 at Tue Apr  8 21:46:00 2025.
 Gaussian 16:  ES64L-G16RevC.01  3-Jul-2019

 ----------------------------------------------------------------------
 #t hf aug-cc-pvdz iop(5/13=1,5/36=2,99/5=2) pseudo=read geom=check gue
 ss=(read,tcheck) scf=(maxcycle=1)
 ----------------------------------------------------------------------
 -----
 title
 -----
 Structure from the checkpoint file:  "ANI1ccx_523_conf2_mol1.chk"
 Charge =  0 Multiplicity = 1

                         Standard orientation:
 ---------------------------------------------------------------------
 Center     Atomic      Atomic             Coordinates (Angstroms)
 Number     Number       Type             X           Y           Z
 ---------------------------------------------------------------------
      1          6           0        1.117169   -0.210479   -0.057408
      2          6           0       -1.103511   -0.313297   -0.065391
      3          1           0        2.280648   -1.947990    0.277782
      4          1           0        3.192469   -0.541503    0.210072
      5          1           0       -2.439632   -1.945769    0.267692
      6          1           0       -3.180791   -0.367791    0.366439
      7          7           0        2.260769   -0.954263    0.074040
      8          7           0        1.165459    1.127910   -0.049239
      9          7           0       -0.034849    1.750770    0.028157
     10          7           0       -1.128101    1.115210    0.063250
     11          7           0       -2.290751   -0.933855   -0.015145
     12          7           0        0.036811   -0.970672   -0.156090
 ---------------------------------------------------------------------

 SCF Done:  E(RHF) =  -406.564270383     A.U. after    2 cycles

 The electronic state is 1-A.
 Alpha  occ. eigenvalues --  -15.83022 -15.80177 -15.77985 -15.76614 -15.74367
 Alpha  occ. eigenvalues --  -15.74138 -11.52299 -11.49220  -1.65173  -1.45570
 Alpha  occ. eigenvalues --   -1.43017  -1.27674  -1.25970  -0.99137  -0.93603
 Alpha  occ. eigenvalues --   -0.75089  -0.75026  -0.65938  -0.65191  -0.62654
 Alpha  occ. eigenvalues --   -0.60455  -0.58263  -0.52179  -0.49799  -0.47843
 Alpha  occ. eigenvalues --   -0.38340  -0.36398  -0.33207  -0.32415
 Alpha virt. eigenvalues --    0.02997   0.04161   0.05698   0.06364   0.10012
 Alpha virt. eigenvalues --    0.10896   0.11346   0.12036   0.13330   0.13383
 Alpha virt. eigenvalues --    0.14122   0.14683   0.15473   0.16658   0.16844

 Mulliken charges:
               1
     1  C    4.687549
     2  C    4.385009
     3  H    0.683314
     4  H    0.655080
     5  H    0.663024
     6  H    0.578144
     7  N   -2.867861
     8  N   -1.764987
     9  N   -0.177047
    10  N   -1.312040
    11  N   -2.907203
    12  N   -2.622981
 Sum of Mulliken charges =   0.00000

 Dipole moment (field-independent basis, Debye):
    X=             -0.6854    Y=             -4.4073    Z=              1.1731  Tot=              4.6119

 Test job not archived.
 1\1\GINC-SE460\SP\RHF\Aug-CC-pVDZ\C2H4N6\OHZDE\08-Apr-2025\0\\#t hf au
 g-cc-pvdz iop(5/13=1,5/36=2,99/5=2) pseudo=read geom=check guess=(read
 ,tcheck) scf=(maxcycle=1)\\title\\0,1\C,0,1.11717,-0.210479,-0.0574082
 \C,0,-1.10351,-0.313297,-0.0653908\H,0,2.28065,-1.94799,0.277782\H,0,3
 .19247,-0.541503,0.210072\H,0,-2.43963,-1.94577,0.267692\H,0,-3.18079,
 -0.367792,0.366439\N,0,2.26077,-0.954263,0.0740401\N,0,1.16546,1.12791
 ,-0.0492392\N,0,-0.0348478,1.75077,0.0281572\N,0,-1.1281,1.11521,0.063
 2502\N,0,-2.29075,-0.933856,-0.0151454\N,0,0.0368129,-0.970672,-0.1560

 Normal termination of Gaussian 16 at Tue Apr  8 21:46:05 2025.
