 Gaussian 16, Revision C.01,

 ----------------------------------------------------------------------
 #t hf aug-cc-pvdz symm=none int=(grid=ultrafine) guess=(read,tcheck) s
 table=(opt,rrhf)
 ----------------------------------------------------------------------
 -----
 title
 -----
 Symbolic Z-matrix:
 Charge =  0 Multiplicity = 1

 SCF Done:  E(RHF) =  -410.048126259     A.U. after   13 cycles
 Normal termination of Gaussian 16 at Tue Apr  8 21:41:07 2025.
 Gaussian 16:  ES64L-G16RevC.01  3-Jul-2019

 ----------------------------------------------------------------------
 #t hf aug-cc-pvdz iop(5/13=1,5/36=2,99/5=2) pseudo=read geom=check gue
 ss=(read,tcheck) scf=(maxcycle=1)
 ----------------------------------------------------------------------
 -----
 title
 -----
 Structure from the checkpoint file:  "ANI1ccx_451_conf1_mol1.chk"
 Charge =  0 Multiplicity = 1

                         Standard orientation:
 ---------------------------------------------------------------------
 Center     Atomic      Atomic             Coordinates (Angstroms)
 Number     Number       Type             X           Y           Z
 ---------------------------------------------------------------------
      1          6           0        0.559411   -0.241689    0.273472
      2          1           0       -3.726749   -1.248142    0.234931
      3          1           0       -2.776619   -0.309027   -0.576923
      4          1           0       -1.354340    1.679179   -0.720189
      5          1           0       -1.266040    1.547159    0.920522
      6          1           0        1.312540    1.723770    0.288458
      7          1           0        1.582971   -1.924710    0.145381
      8          1           0        2.423790    0.238270   -1.335240
      9          1           0        3.315310    0.114734    0.060272
     10          7           0       -0.713759    1.793529    0.098181
     11          7           0        0.543858    1.122439    0.005581
     12          7           0        1.634181   -0.909010    0.053979
     13          7           0        2.799661   -0.409770   -0.607563
     14          8           0       -3.660279   -0.677816   -0.533893
     15          8           0       -0.429084   -0.766112    0.845231
 ---------------------------------------------------------------------

 SCF Done:  E(RHF) =  -411.865397601     A.U. after    2 cycles

 The electronic state is 1-A.
 Alpha  occ. eigenvalues --  -21.07827 -21.01040 -15.80373 -15.79801 -15.78612
 Alpha  occ. eigenvalues --  -15.76710 -11.50736  -1.71861  -1.64112  -1.51483
 Alpha  occ. eigenvalues --   -1.45448  -1.19992  -1.12862  -0.85987  -0.73978
 Alpha  occ. eigenvalues --   -0.72296  -0.68173  -0.66137  -0.62643  -0.61417
 Alpha  occ. eigenvalues --   -0.55668  -0.51293  -0.43848  -0.43530  -0.38982
 Alpha  occ. eigenvalues --   -0.38276  -0.33472  -0.30820  -0.29674
 Alpha virt. eigenvalues --    0.03108   0.05028   0.05142   0.05543   0.06427
 Alpha virt. eigenvalues --    0.07015   0.07425   0.09211   0.11328   0.12872
 Alpha virt. eigenvalues --    0.14447   0.14930   0.15140   0.16176   0.16728

 Mulliken charges:
               1
     1  C    5.729356
     2  H    0.893181
     3  H    1.130024
     4  H    0.655894
     5  H    0.665124
     6  H    0.762790
     7  H    0.726647
     8  H    0.679639
     9  H    0.721859
    10  N   -1.782548
    11  N   -1.546695
    12  N   -1.944666
    13  N   -1.846255
    14  O   -2.038415
    15  O   -2.805935
 Sum of Mulliken charges =  -0.00000

 Dipole moment (field-independent basis, Debye):
    X=              3.1049    Y=              0.8380    Z=              0.2521  Tot=              3.2259

 Test job not archived.
 1\1\GINC-SE334\SP\RHF\Aug-CC-pVDZ\C1H8N4O2\OHZDE\08-Apr-2025\0\\#t hf
 aug-cc-pvdz iop(5/13=1,5/36=2,99/5=2) pseudo=read geom=check guess=(re
 ad,tcheck) scf=(maxcycle=1)\\title\\0,1\C,0,0.55941,-0.241688,0.273472
 \H,0,-3.72675,-1.24814,0.234931\H,0,-2.77662,-0.309025,-0.576923\H,0,-
 1.35434,1.67918,-0.720189\H,0,-1.26604,1.54716,0.920522\H,0,1.31254,1.
 72377,0.288458\H,0,1.58297,-1.92471,0.145381\H,0,2.42379,0.23827,-1.33
 524\H,0,3.31531,0.114734,0.0602721\N,0,-0.713759,1.79353,0.0981812\N,0
 ,0.543858,1.12244,0.00558115\N,0,1.63418,-0.90901,0.0539789\N,0,2.7996

 Normal termination of Gaussian 16 at Tue Apr  8 21:41:12 2025.
