 Gaussian 16, Revision C.01,

 ----------------------------------------------------------------------
 #t hf aug-cc-pvdz symm=none int=(grid=ultrafine) guess=(read,tcheck) s
 table=(opt,rrhf)
 ----------------------------------------------------------------------
 -----
 title
 -----
 Symbolic Z-matrix:
 Charge =  0 Multiplicity = 1

 SCF Done:  E(RHF) =  -443.087069774     A.U. after   20 cycles
 Normal termination of Gaussian 16 at Tue Apr  8 21:49:57 2025.
 Gaussian 16:  ES64L-G16RevC.01  3-Jul-2019

 ----------------------------------------------------------------------
 #t hf aug-cc-pvdz iop(5/13=1,5/36=2,99/5=2) pseudo=read geom=check gue
 ss=(read,tcheck) scf=(maxcycle=1)
 ----------------------------------------------------------------------
 -----
 title
 -----
 Structure from the checkpoint file:  "ANI1ccx_609_conf12_mol1.chk"
 Charge =  0 Multiplicity = 1

                         Standard orientation:
 ---------------------------------------------------------------------
 Center     Atomic      Atomic             Coordinates (Angstroms)
 Number     Number       Type             X           Y           Z
 ---------------------------------------------------------------------
      1          6           0        0.009364   -0.539132    0.214987
      2          6           0        0.004588    0.954143    0.147225
      3          7           0        2.256627   -0.670123   -0.020890
      4          7           0        1.218526   -1.128854    0.025035
      5          7           0       -1.239995   -1.177005   -0.133258
      6          7           0       -2.203653   -0.642897   -0.048933
      7          8           0       -1.202756    1.400215    0.038624
      8          8           0        1.164724    1.455047   -0.154493
 ---------------------------------------------------------------------

 SCF Done:  E(RHF) =  -444.951690735     A.U. after    2 cycles

 The electronic state is 1-A.
 Alpha  occ. eigenvalues --  -21.03190 -21.02817 -15.99151 -15.97962 -15.97666
 Alpha  occ. eigenvalues --  -15.96980 -11.54083 -11.48743  -1.77354  -1.68853
 Alpha  occ. eigenvalues --   -1.67499  -1.58375  -1.24807  -0.98227  -0.90896
 Alpha  occ. eigenvalues --   -0.75490  -0.73874  -0.72828  -0.68863  -0.67453
 Alpha  occ. eigenvalues --   -0.66117  -0.53766  -0.51574  -0.48579  -0.36842
 Alpha  occ. eigenvalues --   -0.32315  -0.28572  -0.27724
 Alpha virt. eigenvalues --    0.02828   0.05106   0.06856   0.07597   0.08591
 Alpha virt. eigenvalues --    0.09281   0.09546   0.11064   0.12638   0.13059
 Alpha virt. eigenvalues --    0.13361   0.15068   0.15490   0.15916   0.17891

 Mulliken charges:
               1
     1  C    1.866331
     2  C    5.682769
     3  N   -1.407350
     4  N   -0.089490
     5  N    0.031953
     6  N   -1.334783
     7  O   -2.344070
     8  O   -2.405362
 Sum of Mulliken charges =  -0.00000

 Dipole moment (field-independent basis, Debye):
    X=             -0.2780    Y=             -3.8733    Z=             -0.5180  Tot=              3.9176

 Test job not archived.
 1\1\GINC-SE227\SP\RHF\Aug-CC-pVDZ\C2N4O2\OHZDE\08-Apr-2025\0\\#t hf au
 g-cc-pvdz iop(5/13=1,5/36=2,99/5=2) pseudo=read geom=check guess=(read
 ,tcheck) scf=(maxcycle=1)\\title\\0,1\C,0,0.00936689,-0.539133,0.21498
 7\C,0,0.00458592,0.954142,0.147225\N,0,2.25663,-0.670116,-0.0208901\N,
 0,1.21853,-1.12885,0.0250348\N,0,-1.23999,-1.17701,-0.133258\N,0,-2.20
 365,-0.642905,-0.0489333\O,0,-1.20276,1.40021,0.0386244\O,0,1.16472,1.
 45505,-0.154493\\Version=ES64L-G16RevC.01\State=1-A\HF=-444.9516907\RM
 SD=2.078e-01\Dipole=-0.1093618,-1.5238623,-0.2038068\Quadrupole=0.6697

 Normal termination of Gaussian 16 at Tue Apr  8 21:50:00 2025.
