 Gaussian 16, Revision C.01,

 ----------------------------------------------------------------------
 #t hf aug-cc-pvdz symm=none int=(grid=ultrafine) guess=(read,tcheck) s
 table=(opt,rrhf)
 ----------------------------------------------------------------------
 -----
 title
 -----
 Symbolic Z-matrix:
 Charge =  0 Multiplicity = 1

 SCF Done:  E(RHF) =  -818.440749490     A.U. after   14 cycles
 Normal termination of Gaussian 16 at Tue Apr  8 21:59:57 2025.
 Gaussian 16:  ES64L-G16RevC.01  3-Jul-2019

 ----------------------------------------------------------------------
 #t hf aug-cc-pvdz iop(5/13=1,5/36=2,99/5=2) pseudo=read geom=check gue
 ss=(read,tcheck) scf=(maxcycle=1)
 ----------------------------------------------------------------------
 -----
 title
 -----
 Structure from the checkpoint file:  "ANI1ccx_298_conf3_mol1.chk"
 Charge =  0 Multiplicity = 1

                         Standard orientation:
 ---------------------------------------------------------------------
 Center     Atomic      Atomic             Coordinates (Angstroms)
 Number     Number       Type             X           Y           Z
 ---------------------------------------------------------------------
      1          6           0       -3.195360    0.131696   -1.726410
      2          6           0        2.317338   -2.474962    0.485976
      3          6           0        3.046389   -1.290643   -0.237146
      4          6           0        2.796921    0.889463   -1.289060
      5          6           0        0.881858    2.452099   -1.063650
      6          6           0        0.146122    2.246500    1.303310
      7          6           0        2.346432    2.215338   -0.828732
      8          6           0       -0.610139    0.157957    2.583040
      9          6           0       -1.703001   -0.752412    2.014070
     10          6           0       -2.486751   -1.541099   -0.111235
     11          6           0       -2.525431   -1.175508   -1.604450
     12          6           0       -0.826836    1.598630    2.282490
     13          1           0        2.569632    2.340698    0.242390
     14          1           0       -0.906702    1.739510   -0.331663
     15          1           0        0.561013    2.003909   -1.982390
     16          1           0        0.672037    3.527079   -1.114580
     17          1           0        2.977542    3.026027   -1.318330
     18          1           0        3.897131    0.811813   -1.246600
     19          1           0        0.668561   -2.358911   -0.757356
     20          1           0        1.260630   -0.391489   -0.412473
     21          1           0        2.504618   -2.518582    1.595470
     22          1           0        2.759308   -3.353302    0.071529
     23          1           0        0.309259   -2.795331    0.820426
     24          1           0       -0.132897    3.334580    1.217910
     25          1           0        2.608081    0.682942   -2.363510
     26          1           0        1.136932    2.159279    1.697740
     27          1           0        0.399683   -0.075907    2.145220
     28          1           0       -1.831219    1.626561    1.810850
     29          1           0       -5.264070   -0.480277   -1.822740
     30          1           0       -4.818420    0.503597   -0.517389
     31          1           0       -3.012530    0.491924   -2.794370
     32          1           0       -2.644189    0.782572   -1.057380
     33          1           0       -0.900772    2.216190    3.174900
     34          1           0       -3.067221   -1.903428   -2.239000
     35          1           0       -1.516631   -1.127529   -2.082850
     36          1           0       -2.021942   -2.486459   -0.011738
     37          1           0       -0.902169   -0.347828    0.164090
     38          1           0       -1.508301   -1.808059    2.345990
     39          1           0       -2.696360   -0.563108    2.480050
     40          1           0       -0.566138   -0.000589    3.693410
     41          1           0       -3.498671   -1.668008    0.329598
     42          7           0        0.901642   -2.237111    0.245568
     43          7           0       -4.578010    0.148899   -1.421830
     44          7           0       -1.787050   -0.499973    0.579884
     45          7           0        0.068565    1.732270   -0.093126
     46          7           0        2.231070   -0.201964   -0.501518
     47          8           0        4.248129   -1.338134   -0.531153
 ---------------------------------------------------------------------

 SCF Done:  E(RHF) =  -822.467905049     A.U. after    2 cycles

 The electronic state is 1-A.
 Alpha  occ. eigenvalues --  -21.00794 -15.74590 -15.73416 -15.71780 -15.70906
 Alpha  occ. eigenvalues --  -15.70158 -11.49732 -11.46393 -11.45514 -11.43913
 Alpha  occ. eigenvalues --  -11.43363 -11.42720 -11.41757 -11.41382 -11.39861
 Alpha  occ. eigenvalues --  -11.36294 -11.36065 -11.35646  -1.67787  -1.42637
 Alpha  occ. eigenvalues --   -1.41234  -1.38290  -1.33064  -1.32363  -1.21103
 Alpha  occ. eigenvalues --   -1.14764  -1.10998  -1.03169  -1.00194  -0.96093
 Alpha  occ. eigenvalues --   -0.93289  -0.90055  -0.84352  -0.82974  -0.80989
 Alpha  occ. eigenvalues --   -0.77546  -0.71952  -0.68669  -0.67809  -0.66456
 Alpha  occ. eigenvalues --   -0.66067  -0.65054  -0.63136  -0.62410  -0.61825
 Alpha  occ. eigenvalues --   -0.60770  -0.60268  -0.58930  -0.58558  -0.56615
 Alpha  occ. eigenvalues --   -0.55721  -0.54853  -0.53538  -0.51666  -0.50495
 Alpha  occ. eigenvalues --   -0.49051  -0.48223  -0.47591  -0.46956  -0.46079
 Alpha  occ. eigenvalues --   -0.45430  -0.44977  -0.44030  -0.43802  -0.42298
 Alpha  occ. eigenvalues --   -0.40073  -0.37760  -0.32853  -0.32026  -0.31046
 Alpha  occ. eigenvalues --   -0.29255  -0.26424
 Alpha virt. eigenvalues --    0.04129   0.04277   0.04403   0.04619   0.04825
 Alpha virt. eigenvalues --    0.04857   0.05060   0.05310   0.05664   0.05901
 Alpha virt. eigenvalues --    0.06113   0.06357   0.06551   0.06722   0.07244

 Mulliken charges:
               1
     1  C   -2.700247
     2  C   -3.757259
     3  C    5.520698
     4  C   -1.875923
     5  C   -3.359490
     6  C   -3.001069
     7  C   -3.952351
     8  C   -4.049904
     9  C   -3.191850
    10  C   -3.468753
    11  C   -3.222625
    12  C   -3.578146
    13  H    1.856864
    14  H    1.310705
    15  H    2.001690
    16  H    1.466174
    17  H    1.400800
    18  H    1.680257
    19  H    0.686123
    20  H    1.785442
    21  H    1.535090
    22  H    1.386117
    23  H    0.774932
    24  H    1.440193
    25  H    1.593637
    26  H    1.892816
    27  H    2.205224
    28  H    1.838534
    29  H    0.692836
    30  H    0.561450
    31  H    1.191724
    32  H    2.249501
    33  H    1.253085
    34  H    1.503171
    35  H    1.592827
    36  H    1.848494
    37  H    3.351184
    38  H    1.408529
    39  H    1.561377
    40  H    1.339144
    41  H    1.609058
    42  N   -2.311653
    43  N   -2.584512
    44  N   -1.859615
    45  N   -1.163761
    46  N   -2.890573
    47  O   -3.569945
 Sum of Mulliken charges =  -0.00000

 Dipole moment (field-independent basis, Debye):
    X=             -2.8091    Y=             -0.3005    Z=              0.7435  Tot=              2.9213

 Test job not archived.
 1\1\GINC-SE110\SP\RHF\Aug-CC-pVDZ\C12H29N5O1\OHZDE\08-Apr-2025\0\\#t h
 f aug-cc-pvdz iop(5/13=1,5/36=2,99/5=2) pseudo=read geom=check guess=(
 read,tcheck) scf=(maxcycle=1)\\title\\0,1\C,0,-3.19536,0.131694,-1.726
 41\C,0,2.31734,-2.47496,0.485976\C,0,3.04639,-1.29064,-0.237146\C,0,2.
 79692,0.889465,-1.28906\C,0,0.881856,2.4521,-1.06365\C,0,0.14612,2.246
 5,1.30331\C,0,2.34643,2.21534,-0.828732\C,0,-0.610139,0.157957,2.58304
 \C,0,-1.703,-0.752413,2.01407\C,0,-2.48675,-1.5411,-0.111235\C,0,-2.52
 543,-1.17551,-1.60445\C,0,-0.826837,1.59863,2.28249\H,0,2.56963,2.3407

 Normal termination of Gaussian 16 at Tue Apr  8 22:01:49 2025.
