 Gaussian 16, Revision C.01,

 ----------------------------------------------------------------------
 #t hf aug-cc-pvdz symm=none int=(grid=ultrafine) guess=(read,tcheck) s
 table=(opt,rrhf)
 ----------------------------------------------------------------------
 -----
 title
 -----
 Symbolic Z-matrix:
 Charge =  0 Multiplicity = 1

 SCF Done:  E(RHF) =  -522.609292185     A.U. after   14 cycles
 Normal termination of Gaussian 16 at Tue Apr  8 22:12:24 2025.
 Gaussian 16:  ES64L-G16RevC.01  3-Jul-2019

 ----------------------------------------------------------------------
 #t hf aug-cc-pvdz iop(5/13=1,5/36=2,99/5=2) pseudo=read geom=check gue
 ss=(read,tcheck) scf=(maxcycle=1)
 ----------------------------------------------------------------------
 -----
 title
 -----
 Structure from the checkpoint file:  "ANI1ccx_922_conf14_mol1.chk"
 Charge =  0 Multiplicity = 1

                         Standard orientation:
 ---------------------------------------------------------------------
 Center     Atomic      Atomic             Coordinates (Angstroms)
 Number     Number       Type             X           Y           Z
 ---------------------------------------------------------------------
      1          6           0       -1.900071    0.002090    0.321906
      2          6           0       -0.024590   -0.780587   -0.920901
      3          6           0        1.909139   -0.025818    0.281606
      4          6           0       -0.009932    0.821764   -0.923016
      5          1           0       -1.510911   -1.989420   -0.006866
      6          1           0        0.162098   -1.228220   -1.899960
      7          1           0        1.529319   -2.072050   -0.097514
      8          1           0        1.557960    2.031280   -0.182903
      9          1           0        0.134789    1.268060   -1.878190
     10          1           0       -1.409590    1.985140    0.196283
     11          7           0       -1.313551   -1.099040   -0.386337
     12          7           0        1.183229   -1.084640   -0.131619
     13          7           0        1.177600    1.118070   -0.114765
     14          7           0       -1.319720    1.108710   -0.325831
     15          8           0       -2.654591   -0.025575    1.235470
     16          8           0        2.854109   -0.024572    1.017210
 ---------------------------------------------------------------------

 SCF Done:  E(RHF) =  -524.887529466     A.U. after    2 cycles

 The electronic state is 1-A.
 Alpha  occ. eigenvalues --  -21.05452 -21.02910 -15.77348 -15.77044 -15.76877
 Alpha  occ. eigenvalues --  -15.76577 -11.58922 -11.52374 -11.51505 -11.45762
 Alpha  occ. eigenvalues --   -1.74727  -1.72937  -1.56310  -1.41288  -1.36036
 Alpha  occ. eigenvalues --   -1.26778  -1.07140  -0.91321  -0.89387  -0.83871
 Alpha  occ. eigenvalues --   -0.74936  -0.72732  -0.65900  -0.62710  -0.62367
 Alpha  occ. eigenvalues --   -0.59857  -0.58521  -0.58244  -0.51384  -0.50256
 Alpha  occ. eigenvalues --   -0.50224  -0.40514  -0.35863  -0.34861  -0.32067
 Alpha  occ. eigenvalues --   -0.30766  -0.29710
 Alpha virt. eigenvalues --    0.02752   0.04348   0.04439   0.05945   0.06055
 Alpha virt. eigenvalues --    0.06330   0.09067   0.10213   0.11021   0.11460
 Alpha virt. eigenvalues --    0.11774   0.12074   0.12317   0.13088   0.13160

 Mulliken charges:
               1
     1  C    5.028964
     2  C   -0.045114
     3  C    5.321542
     4  C   -0.388676
     5  H    0.566355
     6  H    1.797835
     7  H    0.670335
     8  H    0.669557
     9  H    1.847266
    10  H    0.525248
    11  N   -2.411069
    12  N   -2.386189
    13  N   -2.392174
    14  N   -2.266388
    15  O   -3.243825
    16  O   -3.293668
 Sum of Mulliken charges =  -0.00000

 Dipole moment (field-independent basis, Debye):
    X=              0.2265    Y=             -0.1790    Z=             -2.7724  Tot=              2.7874

 Test job not archived.
 1\1\GINC-SE227\SP\RHF\Aug-CC-pVDZ\C4H6N4O2\OHZDE\08-Apr-2025\0\\#t hf
 aug-cc-pvdz iop(5/13=1,5/36=2,99/5=2) pseudo=read geom=check guess=(re
 ad,tcheck) scf=(maxcycle=1)\\title\\0,1\C,0,-1.90007,0.00208944,0.3219
 06\C,0,-0.0245892,-0.780587,-0.920901\C,0,1.90914,-0.0258176,0.281606\
 C,0,-0.00993206,0.821764,-0.923016\H,0,-1.51091,-1.98942,-0.00686647\H
 ,0,0.162099,-1.22822,-1.89996\H,0,1.52932,-2.07205,-0.0975137\H,0,1.55
 796,2.03128,-0.182903\H,0,0.134789,1.26806,-1.87819\H,0,-1.40959,1.985
 14,0.196283\N,0,-1.31355,-1.09904,-0.386337\N,0,1.18323,-1.08464,-0.13

 Normal termination of Gaussian 16 at Tue Apr  8 22:12:32 2025.
