 Gaussian 16, Revision C.01,

 ----------------------------------------------------------------------
 #t hf aug-cc-pvdz symm=none int=(grid=ultrafine) guess=(read,tcheck) s
 table=(opt,rrhf)
 ----------------------------------------------------------------------
 -----
 title
 -----
 Symbolic Z-matrix:
 Charge =  0 Multiplicity = 1

 SCF Done:  E(RHF) =  -504.991285781     A.U. after   16 cycles
 Normal termination of Gaussian 16 at Tue Apr  8 21:42:12 2025.
 Gaussian 16:  ES64L-G16RevC.01  3-Jul-2019

 ----------------------------------------------------------------------
 #t hf aug-cc-pvdz iop(5/13=1,5/36=2,99/5=2) pseudo=read geom=check gue
 ss=(read,tcheck) scf=(maxcycle=1)
 ----------------------------------------------------------------------
 -----
 title
 -----
 Structure from the checkpoint file:  "ANI1ccx_471_conf32_mol1.chk"
 Charge =  0 Multiplicity = 1

                         Standard orientation:
 ---------------------------------------------------------------------
 Center     Atomic      Atomic             Coordinates (Angstroms)
 Number     Number       Type             X           Y           Z
 ---------------------------------------------------------------------
      1          6           0        1.407249   -0.109039   -0.088728
      2          6           0       -0.686872    0.813557    0.091216
      3          1           0       -2.227579   -1.606384    0.778543
      4          7           0       -0.706392   -0.616688    0.383382
      5          8           0       -1.877000   -1.117043   -0.115462
      6          8           0        0.590256   -1.161061   -0.326118
      7          8           0        2.628019    0.016684    0.167210
      8          8           0        0.582424    0.989586   -0.056047
      9          8           0       -1.567442    1.483847   -0.104227
 ---------------------------------------------------------------------

 SCF Done:  E(RHF) =  -507.021085941     A.U. after    2 cycles

 The electronic state is 1-A.
 Alpha  occ. eigenvalues --  -21.18243 -21.17389 -21.17086 -21.12578 -21.10656
 Alpha  occ. eigenvalues --  -15.88893 -11.61154 -11.59729  -2.04324  -1.86663
 Alpha  occ. eigenvalues --   -1.83418  -1.73361  -1.69901  -1.23675  -0.93068
 Alpha  occ. eigenvalues --   -0.85119  -0.76368  -0.70300  -0.66118  -0.64254
 Alpha  occ. eigenvalues --   -0.61889  -0.56499  -0.55504  -0.49960  -0.44310
 Alpha  occ. eigenvalues --   -0.42527  -0.38782  -0.36683  -0.34429  -0.33466
 Alpha virt. eigenvalues --    0.02992   0.07875   0.09175   0.09878   0.10166
 Alpha virt. eigenvalues --    0.10600   0.11424   0.11815   0.12766   0.13072
 Alpha virt. eigenvalues --    0.14355   0.15136   0.17758   0.19127   0.20172

 Mulliken charges:
               1
     1  C    5.393213
     2  C    5.500783
     3  H    0.730976
     4  N    1.447168
     5  O   -2.425598
     6  O   -2.186173
     7  O   -2.590720
     8  O   -2.924863
     9  O   -2.944787
 Sum of Mulliken charges =  -0.00000

 Dipole moment (field-independent basis, Debye):
    X=             -1.9857    Y=             -1.5772    Z=              0.0936  Tot=              2.5376

 Test job not archived.
 1\1\GINC-SE366\SP\RHF\Aug-CC-pVDZ\C2H1N1O5\OHZDE\08-Apr-2025\0\\#t hf
 aug-cc-pvdz iop(5/13=1,5/36=2,99/5=2) pseudo=read geom=check guess=(re
 ad,tcheck) scf=(maxcycle=1)\\title\\0,1\C,0,1.40725,-0.109038,-0.08872
 76\C,0,-0.686871,0.813559,0.0912156\H,0,-2.22758,-1.60638,0.778543\N,0
 ,-0.706392,-0.616686,0.383382\O,0,-1.877,-1.11704,-0.115462\O,0,0.5902
 56,-1.16106,-0.326118\O,0,2.62802,0.0166837,0.16721\O,0,0.582425,0.989
 587,-0.0560466\O,0,-1.56744,1.48385,-0.104227\\Version=ES64L-G16RevC.0
 1\State=1-A\HF=-507.0210859\RMSD=5.489e-02\Dipole=-0.7812162,-0.620536

 Normal termination of Gaussian 16 at Tue Apr  8 21:42:15 2025.
