 Gaussian 16, Revision C.01,

 ----------------------------------------------------------------------
 #t hf aug-cc-pvdz symm=none int=(grid=ultrafine) guess=(read,tcheck) s
 table=(opt,rrhf)
 ----------------------------------------------------------------------
 -----
 title
 -----
 Symbolic Z-matrix:
 Charge =  0 Multiplicity = 1

 SCF Done:  E(RHF) =  -963.587892760     A.U. after   15 cycles
 Normal termination of Gaussian 16 at Tue Apr  8 21:47:14 2025.
 Gaussian 16:  ES64L-G16RevC.01  3-Jul-2019

 ----------------------------------------------------------------------
 #t hf aug-cc-pvdz iop(5/13=1,5/36=2,99/5=2) pseudo=read geom=check gue
 ss=(read,tcheck) scf=(maxcycle=1)
 ----------------------------------------------------------------------
 -----
 title
 -----
 Structure from the checkpoint file:  "ANI1ccx_272_conf2_mol1.chk"
 Charge =  0 Multiplicity = 1

                         Standard orientation:
 ---------------------------------------------------------------------
 Center     Atomic      Atomic             Coordinates (Angstroms)
 Number     Number       Type             X           Y           Z
 ---------------------------------------------------------------------
      1          6           0        1.398384   -1.858107   -0.220065
      2          6           0       -2.470956    3.260215   -0.338326
      3          6           0       -1.685362    1.202486    1.012330
      4          6           0       -1.497100    0.169828   -0.050845
      5          6           0       -1.983895   -2.291484   -0.548368
      6          6           0       -1.646297   -1.268474    0.489465
      7          6           0       -1.491835    2.687647    0.686097
      8          6           0        3.313408    1.142257    0.552335
      9          6           0        2.686750    0.347972   -0.326102
     10          6           0        2.727313   -1.162334   -0.312511
     11          6           0        0.796524   -1.512699    1.206190
     12          6           0        2.587835    2.329775   -1.182660
     13          1           0       -1.034612    1.025878    1.858480
     14          1           0       -0.817546   -3.387892    0.434878
     15          1           0       -4.106384    2.059311   -0.004640
     16          1           0       -4.096327    3.536601    0.749065
     17          1           0       -2.265379    4.339115   -0.412524
     18          1           0       -2.230536    2.845085   -1.330320
     19          1           0       -1.596976    3.245076    1.627210
     20          1           0       -0.474883    2.857699    0.330583
     21          1           0       -2.689092    1.143984    1.417120
     22          1           0       -0.583439    0.289700   -0.682301
     23          1           0       -0.757737   -1.437822    2.367190
     24          1           0       -2.507047   -1.267975    1.123730
     25          1           0        0.903276   -0.878883   -1.935020
     26          1           0       -2.328820    0.298433   -0.780434
     27          1           0        1.691357   -2.908527   -0.101650
     28          1           0        3.297093   -1.458213    0.561692
     29          1           0        0.099371   -2.362860   -1.794200
     30          1           0        3.817868    0.929500    1.456380
     31          1           0        2.352614    3.218895   -1.735740
     32          1           0        3.720114    3.256738    0.242577
     33          1           0        3.280014   -1.513563   -1.210180
     34          7           0        0.490432   -1.564889   -1.287000
     35          7           0        2.178488    1.073664   -1.381860
     36          7           0        3.260875    2.422977   -0.005285
     37          7           0       -0.565654   -1.693621    1.425980
     38          7           0       -3.897236    3.029802   -0.116917
     39          8           0       -2.767965   -2.160556   -1.484340
     40          8           0        1.563633   -1.247737    2.087360
     41          8           0       -1.339402   -3.465243   -0.406970
 ---------------------------------------------------------------------

 SCF Done:  E(RHF) =  -968.048433561     A.U. after    2 cycles

 The electronic state is 1-A.
 Alpha  occ. eigenvalues --  -21.10884 -21.04512 -21.03797 -15.80787 -15.77659
 Alpha  occ. eigenvalues --  -15.72594 -15.72575 -15.72474 -11.55658 -11.53513
 Alpha  occ. eigenvalues --  -11.49018 -11.48438 -11.46257 -11.44792 -11.44262
 Alpha  occ. eigenvalues --  -11.43083 -11.42851 -11.39139 -11.38420 -11.35756
 Alpha  occ. eigenvalues --   -1.81860  -1.73672  -1.63686  -1.56885  -1.42605
 Alpha  occ. eigenvalues --   -1.36004  -1.34192  -1.27437  -1.21753  -1.15529
 Alpha  occ. eigenvalues --   -1.11252  -1.06602  -1.01258  -0.95044  -0.91052
 Alpha  occ. eigenvalues --   -0.86170  -0.83148  -0.81036  -0.78283  -0.76776
 Alpha  occ. eigenvalues --   -0.73660  -0.71372  -0.70234  -0.69691  -0.67769
 Alpha  occ. eigenvalues --   -0.65550  -0.63842  -0.62371  -0.60999  -0.60316
 Alpha  occ. eigenvalues --   -0.58600  -0.57619  -0.57029  -0.56509  -0.54099
 Alpha  occ. eigenvalues --   -0.53687  -0.52659  -0.51371  -0.50271  -0.49903
 Alpha  occ. eigenvalues --   -0.48303  -0.47113  -0.46602  -0.46309  -0.46156
 Alpha  occ. eigenvalues --   -0.44300  -0.41312  -0.39264  -0.37204  -0.36457
 Alpha  occ. eigenvalues --   -0.35159  -0.33804  -0.32706  -0.31253  -0.28567
 Alpha  occ. eigenvalues --   -0.27752
 Alpha virt. eigenvalues --    0.03126   0.04042   0.04087   0.04251   0.04952
 Alpha virt. eigenvalues --    0.05215   0.05540   0.05732   0.05870   0.06683
 Alpha virt. eigenvalues --    0.06841   0.07108   0.07552   0.07872   0.08111

 Mulliken charges:
               1
     1  C   -0.540791
     2  C   -2.278329
     3  C   -2.198414
     4  C   -2.825087
     5  C    7.381815
     6  C   -3.937150
     7  C   -3.564802
     8  C   -3.436287
     9  C    6.987459
    10  C   -4.018656
    11  C    5.532832
    12  C    0.473326
    13  H    1.625553
    14  H    1.231222
    15  H    0.653314
    16  H    0.543560
    17  H    1.240698
    18  H    1.681325
    19  H    1.195023
    20  H    1.745283
    21  H    1.650206
    22  H    2.589792
    23  H    0.448816
    24  H    2.204916
    25  H    0.656930
    26  H    1.675156
    27  H    1.704731
    28  H    1.429092
    29  H    0.726853
    30  H    1.380744
    31  H    1.805688
    32  H    0.939563
    33  H    1.051050
    34  N   -2.847820
    35  N   -3.990395
    36  N   -2.945986
    37  N   -2.155138
    38  N   -2.465224
    39  O   -3.824737
    40  O   -4.026040
    41  O   -3.500093
 Sum of Mulliken charges =   0.00000

 Dipole moment (field-independent basis, Debye):
    X=              4.0886    Y=              2.9441    Z=              2.3870  Tot=              5.5752

 Test job not archived.
 1\1\GINC-SE332\SP\RHF\Aug-CC-pVDZ\C12H21N5O3\OHZDE\08-Apr-2025\0\\#t h
 f aug-cc-pvdz iop(5/13=1,5/36=2,99/5=2) pseudo=read geom=check guess=(
 read,tcheck) scf=(maxcycle=1)\\title\\0,1\C,0,1.39838,-1.85811,-0.2200
 65\C,0,-2.47095,3.26022,-0.338326\C,0,-1.68536,1.20249,1.01233\C,0,-1.
 4971,0.169831,-0.0508449\C,0,-1.9839,-2.29148,-0.548368\C,0,-1.6463,-1
 .26847,0.489465\C,0,-1.49183,2.68765,0.686097\C,0,3.31341,1.14225,0.55
 2335\C,0,2.68675,0.347967,-0.326102\C,0,2.72731,-1.16234,-0.312511\C,0
 ,0.79652,-1.5127,1.20619\C,0,2.58784,2.32977,-1.18266\H,0,-1.03461,1.0

 Normal termination of Gaussian 16 at Tue Apr  8 21:48:32 2025.
