 Gaussian 16, Revision C.01,

 ----------------------------------------------------------------------
 #t hf aug-cc-pvdz symm=none int=(grid=ultrafine) guess=(read,tcheck) s
 table=(opt,rrhf)
 ----------------------------------------------------------------------
 -----
 title
 -----
 Symbolic Z-matrix:
 Charge =  0 Multiplicity = 1

 SCF Done:  E(RHF) =  -423.356066406     A.U. after   19 cycles
 Normal termination of Gaussian 16 at Tue Apr  8 21:43:43 2025.
 Gaussian 16:  ES64L-G16RevC.01  3-Jul-2019

 ----------------------------------------------------------------------
 #t hf aug-cc-pvdz iop(5/13=1,5/36=2,99/5=2) pseudo=read geom=check gue
 ss=(read,tcheck) scf=(maxcycle=1)
 ----------------------------------------------------------------------
 -----
 title
 -----
 Structure from the checkpoint file:  "ANI1ccx_477_conf6_mol1.chk"
 Charge =  0 Multiplicity = 1

                         Standard orientation:
 ---------------------------------------------------------------------
 Center     Atomic      Atomic             Coordinates (Angstroms)
 Number     Number       Type             X           Y           Z
 ---------------------------------------------------------------------
      1          6           0       -0.410529   -0.154361   -0.062240
      2          6           0        0.624308    0.798234   -0.011243
      3          1           0        2.714849    0.233871    0.088170
      4          7           0        1.407881   -1.335228    0.055265
      5          7           0        0.144902   -1.462510   -0.079203
      6          7           0       -1.716401   -0.030097   -0.036517
      7          7           0       -2.841101   -0.043493    0.086452
      8          7           0        1.749129   -0.021608    0.045142
      9          8           0        0.598950    2.019181   -0.018156
 ---------------------------------------------------------------------

 SCF Done:  E(RHF) =  -425.164319264     A.U. after    2 cycles

 The electronic state is 1-A.
 Alpha  occ. eigenvalues --  -21.04431 -15.99565 -15.93982 -15.84335 -15.82224
 Alpha  occ. eigenvalues --  -15.81241 -11.54408 -11.48550  -1.75931  -1.67527
 Alpha  occ. eigenvalues --   -1.64930  -1.34304  -1.24377  -1.03380  -0.91797
 Alpha  occ. eigenvalues --   -0.76830  -0.73191  -0.72248  -0.68554  -0.64610
 Alpha  occ. eigenvalues --   -0.63328  -0.55615  -0.49224  -0.48577  -0.44631
 Alpha  occ. eigenvalues --   -0.42136  -0.30036  -0.28224
 Alpha virt. eigenvalues --    0.04225   0.07141   0.07389   0.08172   0.09411
 Alpha virt. eigenvalues --    0.10438   0.10993   0.11613   0.12229   0.12316
 Alpha virt. eigenvalues --    0.13389   0.16049   0.16546   0.17280   0.17888

 Mulliken charges:
               1
     1  C    2.735826
     2  C    5.145500
     3  H    0.946857
     4  N   -0.069525
     5  N   -1.605363
     6  N    0.405446
     7  N   -1.779561
     8  N   -2.088699
     9  O   -3.690479
 Sum of Mulliken charges =  -0.00000

 Dipole moment (field-independent basis, Debye):
    X=             -0.1857    Y=              0.2504    Z=              0.1064  Tot=              0.3294

 Test job not archived.
 1\1\GINC-SE041\SP\RHF\Aug-CC-pVDZ\C2H1N5O1\OHZDE\08-Apr-2025\0\\#t hf
 aug-cc-pvdz iop(5/13=1,5/36=2,99/5=2) pseudo=read geom=check guess=(re
 ad,tcheck) scf=(maxcycle=1)\\title\\0,1\C,0,-0.410528,-0.154361,-0.062
 2398\C,0,0.624309,0.798233,-0.0112425\H,0,2.71485,0.233868,0.08817\N,0
 ,1.40788,-1.33523,0.0552648\N,0,0.144901,-1.46251,-0.0792033\N,0,-1.71
 64,-0.030095,-0.0365168\N,0,-2.8411,-0.0434907,0.0864518\N,0,1.74913,-
 0.0216099,0.0451419\O,0,0.598953,2.01918,-0.0181556\\Version=ES64L-G16
 RevC.01\State=1-A\HF=-425.1643193\RMSD=2.927e-01\Dipole=-0.0730709,0.0

 Normal termination of Gaussian 16 at Tue Apr  8 21:43:47 2025.
