 Gaussian 16, Revision C.01,

 ----------------------------------------------------------------------
 #t hf aug-cc-pvdz symm=none int=(grid=ultrafine) guess=(read,tcheck) s
 table=(opt,rrhf)
 ----------------------------------------------------------------------
 -----
 title
 -----
 Symbolic Z-matrix:
 Charge =  0 Multiplicity = 1

 SCF Done:  E(RHF) =  -603.087412184     A.U. after   14 cycles
 Normal termination of Gaussian 16 at Tue Apr  8 22:09:54 2025.
 Gaussian 16:  ES64L-G16RevC.01  3-Jul-2019

 ----------------------------------------------------------------------
 #t hf aug-cc-pvdz iop(5/13=1,5/36=2,99/5=2) pseudo=read geom=check gue
 ss=(read,tcheck) scf=(maxcycle=1)
 ----------------------------------------------------------------------
 -----
 title
 -----
 Structure from the checkpoint file:  "ANI1ccx_894_conf1_mol1.chk"
 Charge =  0 Multiplicity = 1

                         Standard orientation:
 ---------------------------------------------------------------------
 Center     Atomic      Atomic             Coordinates (Angstroms)
 Number     Number       Type             X           Y           Z
 ---------------------------------------------------------------------
      1          6           0       -1.924482    0.232518   -0.013358
      2          6           0       -0.570129   -0.365658    0.035352
      3          6           0        0.585636    0.338237    0.041616
      4          6           0        1.957768   -0.246766    0.057720
      5          1           0       -2.589152   -1.473879    0.001756
      6          1           0        0.282863   -2.029010    0.039385
      7          1           0       -0.365683    1.992880    0.097980
      8          1           0        2.533059    1.490388   -0.010553
      9          8           0       -2.950392   -0.575535   -0.014027
     10          8           0       -2.042681    1.436401   -0.011530
     11          8           0       -0.623090   -1.723790   -0.015658
     12          8           0        0.573935    1.726539   -0.003341
     13          8           0        2.933619    0.606460   -0.050178
     14          8           0        2.089378   -1.436371   -0.012335
 ---------------------------------------------------------------------

 SCF Done:  E(RHF) =  -605.559139090     A.U. after    2 cycles

 The electronic state is 1-A.
 Alpha  occ. eigenvalues --  -21.16197 -21.15887 -21.13768 -21.12349 -21.08273
 Alpha  occ. eigenvalues --  -21.08115 -11.58641 -11.57153 -11.53299 -11.48022
 Alpha  occ. eigenvalues --   -1.90841  -1.87574  -1.78984  -1.76931  -1.70705
 Alpha  occ. eigenvalues --   -1.69289  -1.15614  -1.02143  -0.86403  -0.81731
 Alpha  occ. eigenvalues --   -0.75875  -0.70234  -0.67473  -0.65503  -0.60189
 Alpha  occ. eigenvalues --   -0.58374  -0.57436  -0.54275  -0.52142  -0.51535
 Alpha  occ. eigenvalues --   -0.49454  -0.45886  -0.44894  -0.37252  -0.37113
 Alpha  occ. eigenvalues --   -0.35304  -0.31593  -0.27852
 Alpha virt. eigenvalues --    0.03402   0.06231   0.06600   0.07440   0.07819
 Alpha virt. eigenvalues --    0.08601   0.09766   0.10061   0.10325   0.11471
 Alpha virt. eigenvalues --    0.11716   0.13091   0.13315   0.14733   0.15372

 Mulliken charges:
               1
     1  C    5.137004
     2  C    3.234728
     3  C    3.003548
     4  C    5.195568
     5  H    0.984330
     6  H    0.983431
     7  H    1.058397
     8  H    1.004731
     9  O   -3.227301
    10  O   -3.116280
    11  O   -4.048291
    12  O   -3.909204
    13  O   -3.215247
    14  O   -3.085415
 Sum of Mulliken charges =  -0.00000

 Dipole moment (field-independent basis, Debye):
    X=             -0.1684    Y=             -0.1065    Z=             -0.0096  Tot=              0.1995

 Test job not archived.
 1\1\GINC-SE143\SP\RHF\Aug-CC-pVDZ\C4H4O6\OHZDE\08-Apr-2025\0\\#t hf au
 g-cc-pvdz iop(5/13=1,5/36=2,99/5=2) pseudo=read geom=check guess=(read
 ,tcheck) scf=(maxcycle=1)\\title\\0,1\C,0,-1.92448,0.232517,-0.0133579
 \C,0,-0.570127,-0.365658,0.0353524\C,0,0.585637,0.338238,0.0416159\C,0
 ,1.95777,-0.246765,0.0577203\H,0,-2.58915,-1.47388,0.00175565\H,0,0.28
 2866,-2.02901,0.039385\H,0,-0.365682,1.99288,0.0979799\H,0,2.53306,1.4
 9039,-0.0105533\O,0,-2.95039,-0.575536,-0.0140266\O,0,-2.04268,1.4364,
 -0.0115304\O,0,-0.623087,-1.72379,-0.0156584\O,0,0.573936,1.72654,-0.0

 Normal termination of Gaussian 16 at Tue Apr  8 22:10:00 2025.
