 Gaussian 16, Revision C.01,

 ----------------------------------------------------------------------
 #t hf aug-cc-pvdz symm=none int=(grid=ultrafine) guess=(read,tcheck) s
 table=(opt,rrhf)
 ----------------------------------------------------------------------
 -----
 title
 -----
 Symbolic Z-matrix:
 Charge =  0 Multiplicity = 1

 SCF Done:  E(RHF) =  -908.386228111     A.U. after   14 cycles
 Normal termination of Gaussian 16 at Tue Apr  8 21:15:34 2025.
 Gaussian 16:  ES64L-G16RevC.01  3-Jul-2019

 ----------------------------------------------------------------------
 #t hf aug-cc-pvdz iop(5/13=1,5/36=2,99/5=2) pseudo=read geom=check gue
 ss=(read,tcheck) scf=(maxcycle=1)
 ----------------------------------------------------------------------
 -----
 title
 -----
 Structure from the checkpoint file:  "ANI1ccx_1761_conf17_mol2.chk"
 Charge =  0 Multiplicity = 1

                         Standard orientation:
 ---------------------------------------------------------------------
 Center     Atomic      Atomic             Coordinates (Angstroms)
 Number     Number       Type             X           Y           Z
 ---------------------------------------------------------------------
      1          6           0        2.242319   -0.102119   -0.687529
      2          6           0       -2.934221    0.890069    0.900341
      3          6           0       -2.097951   -0.158961    1.577580
      4          6           0       -1.902172   -1.533119   -0.545730
      5          6           0       -2.214950    1.973191    0.095817
      6          6           0        3.978789   -0.702712    1.076740
      7          6           0        3.217419    0.393936    0.400478
      8          6           0        1.167508   -1.026150   -0.130999
      9          6           0       -1.178682   -1.054890    0.714471
     10          1           0       -0.901107   -1.958960    1.280910
     11          1           0       -3.146642   -2.709009   -1.161340
     12          1           0       -0.666996    2.997560    0.003719
     13          1           0       -3.580361    0.352940    0.188708
     14          1           0       -3.548801    1.459541    1.619220
     15          1           0       -2.767101   -0.881297    2.091720
     16          1           0       -1.448671    0.308978    2.339830
     17          1           0       -0.006896    0.538891    0.029259
     18          1           0        4.766349   -0.390522    1.781330
     19          1           0        4.515928   -1.297472    0.323090
     20          1           0        3.321088   -1.370851    1.640180
     21          1           0        4.722639    0.787999   -0.753184
     22          1           0        2.638929    0.978408    1.150880
     23          1           0        2.876959   -0.703357   -1.387030
     24          1           0        2.339109    1.728039   -1.551500
     25          1           0        1.092889    0.781931   -2.175190
     26          7           0        1.595669    1.083739   -1.340440
     27          7           0        0.054146   -0.384341    0.355862
     28          8           0        1.253568   -2.238910   -0.020139
     29          8           0        4.140419    1.330159   -0.195169
     30          8           0       -1.763622   -1.164399   -1.658870
     31          8           0       -2.711110    2.572161   -0.811564
     32          8           0       -1.010970    2.275190    0.581515
     33          8           0       -2.836332   -2.473459   -0.262714
 ---------------------------------------------------------------------

 SCF Done:  E(RHF) =  -912.393279424     A.U. after    2 cycles

 The electronic state is 1-A.
 Alpha  occ. eigenvalues --  -21.13137 -21.12334 -21.08083 -21.06604 -21.05769
 Alpha  occ. eigenvalues --  -21.02845 -15.75170 -15.74839 -11.55530 -11.53992
 Alpha  occ. eigenvalues --  -11.53732 -11.50000 -11.49280 -11.45246 -11.44314
 Alpha  occ. eigenvalues --  -11.41068 -11.38150  -1.85026  -1.84634  -1.73373
 Alpha  occ. eigenvalues --   -1.70334  -1.66411  -1.66300  -1.42155  -1.33995
 Alpha  occ. eigenvalues --   -1.22746  -1.15020  -1.08675  -1.00659  -0.94418
 Alpha  occ. eigenvalues --   -0.88126  -0.82950  -0.79814  -0.77874  -0.71356
 Alpha  occ. eigenvalues --   -0.68202  -0.67508  -0.66156  -0.65481  -0.63514
 Alpha  occ. eigenvalues --   -0.62879  -0.61117  -0.60296  -0.59709  -0.59000
 Alpha  occ. eigenvalues --   -0.57924  -0.55873  -0.53633  -0.52694  -0.52117
 Alpha  occ. eigenvalues --   -0.50722  -0.49638  -0.49052  -0.47532  -0.46731
 Alpha  occ. eigenvalues --   -0.46352  -0.44282  -0.41240  -0.38802  -0.35192
 Alpha  occ. eigenvalues --   -0.34270  -0.33517  -0.32035  -0.30396  -0.29953
 Alpha  occ. eigenvalues --   -0.28182
 Alpha virt. eigenvalues --    0.03675   0.04308   0.04638   0.04793   0.05173
 Alpha virt. eigenvalues --    0.05329   0.05906   0.06005   0.06358   0.06664
 Alpha virt. eigenvalues --    0.06921   0.07550   0.08455   0.09126   0.09797

 Mulliken charges:
               1
     1  C   -2.349560
     2  C   -4.274322
     3  C   -3.307290
     4  C    8.134595
     5  C    6.721653
     6  C   -4.300835
     7  C    1.392932
     8  C    7.124225
     9  C   -2.624149
    10  H    1.938888
    11  H    0.697845
    12  H    0.936273
    13  H    1.385552
    14  H    1.380823
    15  H    1.267318
    16  H    1.489279
    17  H    1.590443
    18  H    1.177935
    19  H    1.142994
    20  H    1.349171
    21  H    0.741878
    22  H    1.832376
    23  H    1.642099
    24  H    0.726559
    25  H    0.626368
    26  N   -3.046189
    27  N   -2.604391
    28  O   -4.129931
    29  O   -3.287320
    30  O   -3.407050
    31  O   -3.417469
    32  O   -3.313196
    33  O   -3.237501
 Sum of Mulliken charges =   0.00000

 Dipole moment (field-independent basis, Debye):
    X=              0.5383    Y=              0.8125    Z=              1.0936  Tot=              1.4649

 Test job not archived.
 1\1\GINC-SE060\SP\RHF\Aug-CC-pVDZ\C9H16N2O6\OHZDE\08-Apr-2025\0\\#t hf
  aug-cc-pvdz iop(5/13=1,5/36=2,99/5=2) pseudo=read geom=check guess=(r
 ead,tcheck) scf=(maxcycle=1)\\title\\0,1\C,0,2.24232,-0.102118,-0.6875
 29\C,0,-2.93422,0.890068,0.900341\C,0,-2.09795,-0.158962,1.57758\C,0,-
 1.90217,-1.53312,-0.54573\C,0,-2.21495,1.97319,0.095817\C,0,3.97879,-0
 .702711,1.07674\C,0,3.21742,0.393937,0.400478\C,0,1.16751,-1.02615,-0.
 130999\C,0,-1.17868,-1.05489,0.714471\H,0,-0.901105,-1.95896,1.28091\H
 ,0,-3.14664,-2.70901,-1.16134\H,0,-0.666996,2.99756,0.00371943\H,0,-3.

 Normal termination of Gaussian 16 at Tue Apr  8 21:16:23 2025.
