 Gaussian 16, Revision C.01,

 ----------------------------------------------------------------------
 #t hf aug-cc-pvdz symm=none int=(grid=ultrafine) guess=(read,tcheck) s
 table=(opt,rrhf)
 ----------------------------------------------------------------------
 -----
 title
 -----
 Symbolic Z-matrix:
 Charge =  0 Multiplicity = 1

 SCF Done:  E(RHF) =  -259.759815204     A.U. after   13 cycles
 Normal termination of Gaussian 16 at Tue Apr  8 21:11:17 2025.
 Gaussian 16:  ES64L-G16RevC.01  3-Jul-2019

 ----------------------------------------------------------------------
 #t hf aug-cc-pvdz iop(5/13=1,5/36=2,99/5=2) pseudo=read geom=check gue
 ss=(read,tcheck) scf=(maxcycle=1)
 ----------------------------------------------------------------------
 -----
 title
 -----
 Structure from the checkpoint file:  "ANI1ccx_1858_conf3_mol1.chk"
 Charge =  0 Multiplicity = 1

                         Standard orientation:
 ---------------------------------------------------------------------
 Center     Atomic      Atomic             Coordinates (Angstroms)
 Number     Number       Type             X           Y           Z
 ---------------------------------------------------------------------
      1          1           0       -0.530163    0.209624    0.314386
      2          1           0       -2.692210   -0.382590    0.733914
      3          7           0        1.730800   -0.098616   -0.052474
      4          7           0        2.804660   -0.068262    0.042294
      5          8           0       -1.354190    0.668046   -0.031029
      6          8           0       -2.211540   -0.500407   -0.091101
 ---------------------------------------------------------------------

 SCF Done:  E(RHF) =  -260.819326595     A.U. after    2 cycles

 The electronic state is 1-A.
 Alpha  occ. eigenvalues --  -21.12120 -21.11561 -15.88734 -15.88450  -1.91398
 Alpha  occ. eigenvalues --   -1.59135  -1.39750  -0.80285  -0.62627  -0.61042
 Alpha  occ. eigenvalues --   -0.59982  -0.59977  -0.58829  -0.45986  -0.34063
 Alpha  occ. eigenvalues --   -0.32821
 Alpha virt. eigenvalues --    0.05016   0.06989   0.10905   0.12686   0.12887
 Alpha virt. eigenvalues --    0.14028   0.14484   0.16531   0.18865   0.20205
 Alpha virt. eigenvalues --    0.21755   0.22269   0.23655   0.25437   0.26883

 Mulliken charges:
               1
     1  H    1.121475
     2  H    0.911240
     3  N   -0.311731
     4  N    0.314087
     5  O   -1.098147
     6  O   -0.936924
 Sum of Mulliken charges =   0.00000

 Dipole moment (field-independent basis, Debye):
    X=              0.5846    Y=             -0.2455    Z=              0.9164  Tot=              1.1144

 Test job not archived.
 1\1\GINC-SE362\SP\RHF\Aug-CC-pVDZ\H2N2O2\OHZDE\08-Apr-2025\0\\#t hf au
 g-cc-pvdz iop(5/13=1,5/36=2,99/5=2) pseudo=read geom=check guess=(read
 ,tcheck) scf=(maxcycle=1)\\title\\0,1\H,0,-0.530163,0.209624,0.314386\
 H,0,-2.69221,-0.38259,0.733914\N,0,1.7308,-0.0986159,-0.052474\N,0,2.8
 0466,-0.0682626,0.0422938\O,0,-1.35419,0.668046,-0.0310287\O,0,-2.2115
 4,-0.500407,-0.0911011\\Version=ES64L-G16RevC.01\State=1-A\HF=-260.819
 3266\RMSD=1.207e-01\Dipole=0.2300081,-0.0965701,0.3605472\Quadrupole=0
 .7284347,-0.8459621,0.1175274,0.4534399,-1.8881699,-0.289321\PG=C01 [X

 Normal termination of Gaussian 16 at Tue Apr  8 21:11:18 2025.
