 Gaussian 16, Revision C.01,

 ----------------------------------------------------------------------
 #t hf aug-cc-pvdz symm=none int=(grid=ultrafine) guess=(read,tcheck) s
 table=(opt,rrhf)
 ----------------------------------------------------------------------
 -----
 title
 -----
 Symbolic Z-matrix:
 Charge =  0 Multiplicity = 1

 SCF Done:  E(RHF) =  -810.391343642     A.U. after   14 cycles
 Normal termination of Gaussian 16 at Tue Apr  8 19:55:33 2025.
 Gaussian 16:  ES64L-G16RevC.01  3-Jul-2019

 ----------------------------------------------------------------------
 #t hf aug-cc-pvdz iop(5/13=1,5/36=2,99/5=2) pseudo=read geom=check gue
 ss=(read,tcheck) scf=(maxcycle=1)
 ----------------------------------------------------------------------
 -----
 title
 -----
 Structure from the checkpoint file:  "ANI1ccx_1427_conf36_mol1.chk"
 Charge =  0 Multiplicity = 1

                         Standard orientation:
 ---------------------------------------------------------------------
 Center     Atomic      Atomic             Coordinates (Angstroms)
 Number     Number       Type             X           Y           Z
 ---------------------------------------------------------------------
      1          6           0        2.198460   -0.599445    0.697639
      2          6           0        1.222760    0.260109   -0.021019
      3          6           0        3.398590   -1.105790   -0.288274
      4          6           0       -1.039080    0.708097   -0.515532
      5          6           0       -1.084170    2.014390    0.295048
      6          6           0       -2.519340    0.132061   -0.380631
      7          6           0       -2.556830   -1.407440   -0.165858
      8          1           0        0.128057    2.874480   -0.773065
      9          1           0       -3.649860   -1.812990   -1.847000
     10          1           0       -3.347290   -3.056540   -0.514230
     11          1           0       -3.078400    0.729294    0.395559
     12          1           0       -3.151540    0.201523   -1.296310
     13          1           0       -0.838252    1.148500   -1.554080
     14          1           0       -0.269421   -0.911943    0.680617
     15          1           0        3.634690    0.760718   -1.094910
     16          1           0        3.253350   -1.904900   -0.938559
     17          1           0        4.052890   -1.544040    0.459431
     18          1           0        2.478860    0.079812    1.508230
     19          1           0        2.025070   -2.591040    0.803363
     20          1           0        1.476090   -1.733230    2.180940
     21          7           0        1.555930   -1.808780    1.173920
     22          7           0       -0.053450   -0.156132    0.093840
     23          7           0       -3.424080   -2.089770   -0.911975
     24          8           0        1.580050    1.217240   -0.642191
     25          8           0        4.130360   -0.030957   -0.872066
     26          8           0       -1.850580    2.164460    1.248990
     27          8           0       -1.789620   -1.997930    0.555820
     28          8           0       -0.443382    3.163590   -0.069145
 ---------------------------------------------------------------------

 SCF Done:  E(RHF) =  -813.960282820     A.U. after    2 cycles

 The electronic state is 1-A.
 Alpha  occ. eigenvalues --  -21.11816 -21.05586 -21.04117 -21.03975 -21.03597
 Alpha  occ. eigenvalues --  -15.79238 -15.76786 -15.75039 -11.55424 -11.53947
 Alpha  occ. eigenvalues --  -11.52795 -11.48731 -11.45846 -11.43255 -11.42178
 Alpha  occ. eigenvalues --   -1.82019  -1.75506  -1.74422  -1.69141  -1.63390
 Alpha  occ. eigenvalues --   -1.44240  -1.37307  -1.35728  -1.16560  -1.06058
 Alpha  occ. eigenvalues --   -1.01726  -0.95341  -0.83555  -0.80280  -0.77784
 Alpha  occ. eigenvalues --   -0.74975  -0.72761  -0.69983  -0.69810  -0.67138
 Alpha  occ. eigenvalues --   -0.63343  -0.61593  -0.60131  -0.59266  -0.58280
 Alpha  occ. eigenvalues --   -0.57279  -0.54705  -0.52393  -0.51972  -0.50563
 Alpha  occ. eigenvalues --   -0.49087  -0.48935  -0.46258  -0.44460  -0.40460
 Alpha  occ. eigenvalues --   -0.37577  -0.36272  -0.33800  -0.32299  -0.31226
 Alpha  occ. eigenvalues --   -0.30288  -0.28831  -0.27688
 Alpha virt. eigenvalues --    0.02771   0.03973   0.04380   0.04937   0.05439
 Alpha virt. eigenvalues --    0.05618   0.06116   0.06372   0.06732   0.07545
 Alpha virt. eigenvalues --    0.08120   0.08460   0.09591   0.10494   0.10815

 Mulliken charges:
               1
     1  C   -2.196756
     2  C    6.243410
     3  C   -0.326021
     4  C   -1.336325
     5  C    6.636869
     6  C   -2.851896
     7  C    6.109943
     8  H    1.087083
     9  H    0.701416
    10  H    0.690761
    11  H    1.401478
    12  H    1.359206
    13  H    1.759139
    14  H    1.206231
    15  H    1.045312
    16  H    1.456271
    17  H    1.151724
    18  H    1.411543
    19  H    0.622702
    20  H    0.566385
    21  N   -2.664038
    22  N   -3.329238
    23  N   -3.524578
    24  O   -3.763143
    25  O   -3.138052
    26  O   -3.333005
    27  O   -3.514293
    28  O   -3.472128
 Sum of Mulliken charges =   0.00000

 Dipole moment (field-independent basis, Debye):
    X=             -1.0904    Y=             -3.4262    Z=             -1.2895  Tot=              3.8197

 Test job not archived.
 1\1\GINC-SE195\SP\RHF\Aug-CC-pVDZ\C7H13N3O5\OHZDE\08-Apr-2025\0\\#t hf
  aug-cc-pvdz iop(5/13=1,5/36=2,99/5=2) pseudo=read geom=check guess=(r
 ead,tcheck) scf=(maxcycle=1)\\title\\0,1\C,0,2.19846,-0.599445,0.69763
 9\C,0,1.22276,0.260109,-0.021019\C,0,3.39859,-1.10579,-0.288274\C,0,-1
 .03908,0.708097,-0.515532\C,0,-1.08417,2.01439,0.295048\C,0,-2.51934,0
 .132061,-0.380631\C,0,-2.55683,-1.40744,-0.165858\H,0,0.128057,2.87448
 ,-0.773065\H,0,-3.64986,-1.81299,-1.847\H,0,-3.34729,-3.05654,-0.51423
 \H,0,-3.0784,0.729294,0.395559\H,0,-3.15154,0.201523,-1.29631\H,0,-0.8

 Normal termination of Gaussian 16 at Tue Apr  8 19:56:04 2025.
