 Gaussian 16, Revision C.01,

 ----------------------------------------------------------------------
 #t hf aug-cc-pvdz symm=none int=(grid=ultrafine) guess=(read,tcheck) s
 table=(opt,rrhf)
 ----------------------------------------------------------------------
 -----
 title
 -----
 Symbolic Z-matrix:
 Charge =  0 Multiplicity = 1

 SCF Done:  E(RHF) =  -276.581205007     A.U. after   15 cycles
 Normal termination of Gaussian 16 at Tue Apr  8 21:32:30 2025.
 Gaussian 16:  ES64L-G16RevC.01  3-Jul-2019

 ----------------------------------------------------------------------
 #t hf aug-cc-pvdz iop(5/13=1,5/36=2,99/5=2) pseudo=read geom=check gue
 ss=(read,tcheck) scf=(maxcycle=1)
 ----------------------------------------------------------------------
 -----
 title
 -----
 Structure from the checkpoint file:  "ANI1ccx_370_conf76_mol1.chk"
 Charge =  0 Multiplicity = 1

                         Standard orientation:
 ---------------------------------------------------------------------
 Center     Atomic      Atomic             Coordinates (Angstroms)
 Number     Number       Type             X           Y           Z
 ---------------------------------------------------------------------
      1          6           0        1.048579    0.107585   -0.004295
      2          1           0        2.167439    0.016303    0.136062
      3          7           0        0.301805    1.150011   -0.035968
      4          7           0       -1.029951    0.590420    0.042510
      5          7           0       -0.969480   -0.676016   -0.018542
      6          8           0        0.428059   -1.014089   -0.003286
 ---------------------------------------------------------------------

 SCF Done:  E(RHF) =  -277.746046438     A.U. after    2 cycles

 The electronic state is 1-A.
 Alpha  occ. eigenvalues --  -21.17781 -15.87242 -15.85244 -15.79257 -11.50551
 Alpha  occ. eigenvalues --   -1.97709  -1.53616  -1.34330  -0.91617  -0.89736
 Alpha  occ. eigenvalues --   -0.74864  -0.69210  -0.58198  -0.51226  -0.47146
 Alpha  occ. eigenvalues --   -0.45494  -0.41360  -0.41015
 Alpha virt. eigenvalues --    0.03226   0.09191   0.09422   0.09923   0.13046
 Alpha virt. eigenvalues --    0.13421   0.14081   0.14338   0.16128   0.17102
 Alpha virt. eigenvalues --    0.18855   0.19967   0.20667   0.22696   0.24162

 Mulliken charges:
               1
     1  C    1.716101
     2  H    1.553639
     3  N   -1.887709
     4  N    0.612380
     5  N    0.385692
     6  O   -2.380103
 Sum of Mulliken charges =   0.00000

 Dipole moment (field-independent basis, Debye):
    X=              2.7439    Y=             -1.4070    Z=              0.1184  Tot=              3.0859

 Test job not archived.
 1\1\GINC-SE041\SP\RHF\Aug-CC-pVDZ\C1H1N3O1\OHZDE\08-Apr-2025\0\\#t hf
 aug-cc-pvdz iop(5/13=1,5/36=2,99/5=2) pseudo=read geom=check guess=(re
 ad,tcheck) scf=(maxcycle=1)\\title\\0,1\C,0,1.04858,0.107584,-0.004294
 79\H,0,2.16744,0.0163012,0.136062\N,0,0.301806,1.15001,-0.0359676\N,0,
 -1.02995,0.590419,0.0425097\N,0,-0.969479,-0.676017,-0.0185424\O,0,0.4
 2806,-1.01409,-0.00328646\\Version=ES64L-G16RevC.01\State=1-A\HF=-277.
 7460464\RMSD=8.382e-02\Dipole=1.07954,-0.5535664,0.0466017\Quadrupole=
 2.0637022,-2.76191,0.6982078,-0.645163,0.2363845,0.0116538\PG=C01 [X(C

 Normal termination of Gaussian 16 at Tue Apr  8 21:32:32 2025.
