 Gaussian 16, Revision C.01,

 ----------------------------------------------------------------------
 #t hf aug-cc-pvdz symm=none int=(grid=ultrafine) guess=(read,tcheck) s
 table=(opt,rrhf)
 ----------------------------------------------------------------------
 -----
 title
 -----
 Symbolic Z-matrix:
 Charge =  0 Multiplicity = 1

 SCF Done:  E(RHF) =  -717.515322063     A.U. after   14 cycles
 Normal termination of Gaussian 16 at Tue Apr  8 19:29:09 2025.
 Gaussian 16:  ES64L-G16RevC.01  3-Jul-2019

 ----------------------------------------------------------------------
 #t hf aug-cc-pvdz iop(5/13=1,5/36=2,99/5=2) pseudo=read geom=check gue
 ss=(read,tcheck) scf=(maxcycle=1)
 ----------------------------------------------------------------------
 -----
 title
 -----
 Structure from the checkpoint file:  "ANI1ccx_1215_conf13_mol2.chk"
 Charge =  0 Multiplicity = 1

                         Standard orientation:
 ---------------------------------------------------------------------
 Center     Atomic      Atomic             Coordinates (Angstroms)
 Number     Number       Type             X           Y           Z
 ---------------------------------------------------------------------
      1          6           0        1.374700    0.009688   -0.257318
      2          6           0        0.647772   -0.114016    1.133841
      3          6           0        2.593230   -0.827062   -0.143634
      4          6           0       -1.749010    0.344391    0.432901
      5          6           0       -2.128170   -0.924729   -0.366588
      6          6           0       -1.579221    1.441629   -0.572154
      7          1           0       -2.150079   -2.782302   -0.324227
      8          1           0        0.053688    2.443900   -0.223801
      9          1           0       -1.076951    1.090629   -1.476249
     10          1           0       -2.622531    1.712988   -0.867789
     11          1           0       -2.664980    0.535198    1.030941
     12          1           0       -0.914043    0.042348    2.313631
     13          1           0        2.373361   -1.855859    0.191830
     14          1           0        3.227940   -0.378915    0.618930
     15          1           0        0.825095   -0.379047   -1.086439
     16          1           0        2.232829    1.461881   -1.368849
     17          1           0        2.225549    1.790331    0.269088
     18          1           0        2.843910   -1.250459   -2.057089
     19          7           0        1.663599    1.404420   -0.504309
     20          7           0       -0.662308    0.198503    1.354401
     21          8           0       -0.902400    2.581299   -0.112252
     22          8           0        1.313420   -0.388959    2.092871
     23          8           0        3.312760   -0.808389   -1.362049
     24          8           0       -2.706200   -0.939030   -1.408299
     25          8           0       -1.807409   -2.098741    0.248121
 ---------------------------------------------------------------------

 SCF Done:  E(RHF) =  -720.650066581     A.U. after    2 cycles

 The electronic state is 1-A.
 Alpha  occ. eigenvalues --  -21.13767 -21.08484 -21.07483 -21.04802 -21.03832
 Alpha  occ. eigenvalues --  -15.77223 -15.76235 -11.55823 -11.53816 -11.49875
 Alpha  occ. eigenvalues --  -11.48828 -11.42298 -11.41855  -1.85280  -1.75557
 Alpha  occ. eigenvalues --   -1.71957  -1.70410  -1.67311  -1.41755  -1.37411
 Alpha  occ. eigenvalues --   -1.14009  -1.09639  -0.94856  -0.91907  -0.84016
 Alpha  occ. eigenvalues --   -0.79622  -0.73073  -0.71030  -0.68333  -0.67704
 Alpha  occ. eigenvalues --   -0.64837  -0.63138  -0.61292  -0.58756  -0.58676
 Alpha  occ. eigenvalues --   -0.56932  -0.54835  -0.53878  -0.52947  -0.50921
 Alpha  occ. eigenvalues --   -0.48423  -0.47406  -0.43321  -0.40824  -0.36788
 Alpha  occ. eigenvalues --   -0.35684  -0.35265  -0.34099  -0.31391  -0.29503
 Alpha  occ. eigenvalues --   -0.28586
 Alpha virt. eigenvalues --    0.03357   0.04119   0.05074   0.05330   0.05539
 Alpha virt. eigenvalues --    0.06067   0.06304   0.06498   0.07129   0.07986
 Alpha virt. eigenvalues --    0.08897   0.09605   0.10548   0.11350   0.11717

 Mulliken charges:
               1
     1  C   -1.177349
     2  C    5.730998
     3  C   -1.170696
     4  C   -2.846328
     5  C    6.904442
     6  C   -0.070216
     7  H    0.907266
     8  H    1.132046
     9  H    1.698442
    10  H    1.039645
    11  H    1.912810
    12  H    0.523439
    13  H    1.276486
    14  H    1.301243
    15  H    2.340475
    16  H    0.541784
    17  H    0.555166
    18  H    0.708144
    19  N   -2.572001
    20  N   -2.343555
    21  O   -3.396253
    22  O   -3.755608
    23  O   -2.743429
    24  O   -3.243796
    25  O   -3.253157
 Sum of Mulliken charges =  -0.00000

 Dipole moment (field-independent basis, Debye):
    X=              0.2799    Y=             -1.0691    Z=             -0.3189  Tot=              1.1502

 Test job not archived.
 1\1\GINC-SE340\SP\RHF\Aug-CC-pVDZ\C6H12N2O5\OHZDE\08-Apr-2025\0\\#t hf
  aug-cc-pvdz iop(5/13=1,5/36=2,99/5=2) pseudo=read geom=check guess=(r
 ead,tcheck) scf=(maxcycle=1)\\title\\0,1\C,0,1.3747,0.00968825,-0.2573
 19\C,0,0.647772,-0.114016,1.13384\C,0,2.59323,-0.827063,-0.143635\C,0,
 -1.74901,0.344392,0.4329\C,0,-2.12817,-0.924727,-0.366589\C,0,-1.57922
 ,1.44163,-0.572155\H,0,-2.15008,-2.7823,-0.324228\H,0,0.0536896,2.4439
 ,-0.223802\H,0,-1.07695,1.09063,-1.47625\H,0,-2.62253,1.71299,-0.86779
 \H,0,-2.66498,0.5352,1.03094\H,0,-0.914043,0.0423491,2.31363\H,0,2.373

 Normal termination of Gaussian 16 at Tue Apr  8 19:29:26 2025.
