 Gaussian 16, Revision C.01,

 ----------------------------------------------------------------------
 #t hf aug-cc-pvdz symm=none int=(grid=ultrafine) guess=(read,tcheck) s
 table=(opt,rrhf)
 ----------------------------------------------------------------------
 -----
 title
 -----
 Symbolic Z-matrix:
 Charge =  0 Multiplicity = 1

 SCF Done:  E(RHF) =  -446.831561865     A.U. after   13 cycles
 Normal termination of Gaussian 16 at Tue Apr  8 21:48:22 2025.
 Gaussian 16:  ES64L-G16RevC.01  3-Jul-2019

 ----------------------------------------------------------------------
 #t hf aug-cc-pvdz iop(5/13=1,5/36=2,99/5=2) pseudo=read geom=check gue
 ss=(read,tcheck) scf=(maxcycle=1)
 ----------------------------------------------------------------------
 -----
 title
 -----
 Structure from the checkpoint file:  "ANI1ccx_555_conf2_mol1.chk"
 Charge =  0 Multiplicity = 1

                         Standard orientation:
 ---------------------------------------------------------------------
 Center     Atomic      Atomic             Coordinates (Angstroms)
 Number     Number       Type             X           Y           Z
 ---------------------------------------------------------------------
      1          6           0        1.638711   -0.181298   -0.104713
      2          6           0       -1.744939   -0.033166    0.022916
      3          1           0        3.611541    0.347483   -0.431059
      4          1           0        2.666990    1.679761    0.330617
      5          1           0        0.664895    1.065710    1.247800
      6          1           0       -0.407193   -1.345121    0.842012
      7          1           0       -1.035220    1.786879   -0.848571
      8          1           0       -2.718430    1.572708   -0.851177
      9          7           0        2.771660    0.657667    0.060094
     10          7           0        0.501843    0.397540    0.484128
     11          7           0       -0.632030   -0.375006    0.697056
     12          7           0       -1.828690    1.254468   -0.484482
     13          8           0        1.649902   -1.309849   -0.616910
     14          8           0       -2.629239   -0.860566   -0.020142
 ---------------------------------------------------------------------

 SCF Done:  E(RHF) =  -448.776679537     A.U. after    2 cycles

 The electronic state is 1-A.
 Alpha  occ. eigenvalues --  -21.04751 -21.01058 -15.80060 -15.79475 -15.78707
 Alpha  occ. eigenvalues --  -15.77499 -11.53008 -11.50484  -1.73376  -1.71183
 Alpha  occ. eigenvalues --   -1.53018  -1.35915  -1.32330  -1.18310  -0.87246
 Alpha  occ. eigenvalues --   -0.85496  -0.73984  -0.72702  -0.72210  -0.64541
 Alpha  occ. eigenvalues --   -0.63529  -0.58623  -0.56882  -0.51651  -0.48781
 Alpha  occ. eigenvalues --   -0.42071  -0.38145  -0.34715  -0.32206  -0.30771
 Alpha  occ. eigenvalues --   -0.28865
 Alpha virt. eigenvalues --    0.02330   0.04153   0.04746   0.05518   0.06865
 Alpha virt. eigenvalues --    0.07543   0.11113   0.11441   0.12198   0.13273
 Alpha virt. eigenvalues --    0.13796   0.13970   0.14692   0.15742   0.17165

 Mulliken charges:
               1
     1  C    4.914219
     2  C    5.603833
     3  H    0.604589
     4  H    0.721688
     5  H    0.751315
     6  H    0.678580
     7  H    0.683763
     8  H    0.638651
     9  N   -2.629664
    10  N   -1.834023
    11  N   -1.690526
    12  N   -2.708280
    13  O   -2.771250
    14  O   -2.962895
 Sum of Mulliken charges =  -0.00000

 Dipole moment (field-independent basis, Debye):
    X=              2.8692    Y=              3.7365    Z=              0.2444  Tot=              4.7174

 Test job not archived.
 1\1\GINC-SE331\SP\RHF\Aug-CC-pVDZ\C2H6N4O2\OHZDE\08-Apr-2025\0\\#t hf
 aug-cc-pvdz iop(5/13=1,5/36=2,99/5=2) pseudo=read geom=check guess=(re
 ad,tcheck) scf=(maxcycle=1)\\title\\0,1\C,0,1.63871,-0.181299,-0.10471
 3\C,0,-1.74494,-0.0331642,0.0229158\H,0,3.61154,0.347481,-0.431059\H,0
 ,2.66699,1.67976,0.330617\H,0,0.664895,1.06571,1.2478\H,0,-0.407195,-1
 .34512,0.842012\H,0,-1.03522,1.78688,-0.848571\H,0,-2.71843,1.57271,-0
 .851177\N,0,2.77166,0.657666,0.0600944\N,0,0.501843,0.39754,0.484128\N
 ,0,-0.632031,-0.375005,0.697056\N,0,-1.82869,1.25447,-0.484482\O,0,1.6

 Normal termination of Gaussian 16 at Tue Apr  8 21:48:26 2025.
