 Gaussian 16, Revision C.01,

 ----------------------------------------------------------------------
 #t hf aug-cc-pvdz symm=none int=(grid=ultrafine) guess=(read,tcheck) s
 table=(opt,rrhf)
 ----------------------------------------------------------------------
 -----
 title
 -----
 Symbolic Z-matrix:
 Charge =  0 Multiplicity = 1

 SCF Done:  E(RHF) =  -298.814280860     A.U. after   14 cycles
 Normal termination of Gaussian 16 at Tue Apr  8 21:38:33 2025.
 Gaussian 16:  ES64L-G16RevC.01  3-Jul-2019

 ----------------------------------------------------------------------
 #t hf aug-cc-pvdz iop(5/13=1,5/36=2,99/5=2) pseudo=read geom=check gue
 ss=(read,tcheck) scf=(maxcycle=1)
 ----------------------------------------------------------------------
 -----
 title
 -----
 Structure from the checkpoint file:  "ANI1ccx_398_conf31_mol1.chk"
 Charge =  0 Multiplicity = 1

                         Standard orientation:
 ---------------------------------------------------------------------
 Center     Atomic      Atomic             Coordinates (Angstroms)
 Number     Number       Type             X           Y           Z
 ---------------------------------------------------------------------
      1          6           0       -0.468205    0.130533    0.034464
      2          1           0       -1.732581   -1.356961   -0.414908
      3          1           0       -2.564321    0.106410   -0.286092
      4          1           0        0.688045   -1.460890    0.820771
      5          1           0        1.562458    0.805537    0.294873
      6          7           0       -1.758741   -0.428251    0.027725
      7          7           0        0.601745   -0.798064   -0.003703
      8          8           0       -0.227963    1.313520    0.034070
      9          8           0        1.847289   -0.100156   -0.132768
 ---------------------------------------------------------------------

 SCF Done:  E(RHF) =  -300.092654328     A.U. after    2 cycles

 The electronic state is 1-A.
 Alpha  occ. eigenvalues --  -21.08981 -21.05422 -15.79692 -15.79352 -11.52264
 Alpha  occ. eigenvalues --   -1.80369  -1.69909  -1.36851  -1.20393  -0.83423
 Alpha  occ. eigenvalues --   -0.73785  -0.68832  -0.65862  -0.55682  -0.52806
 Alpha  occ. eigenvalues --   -0.47254  -0.41798  -0.36443  -0.32797  -0.30915
 Alpha virt. eigenvalues --    0.03292   0.04980   0.05901   0.07263   0.11280
 Alpha virt. eigenvalues --    0.11868   0.13115   0.14698   0.15481   0.16645
 Alpha virt. eigenvalues --    0.17294   0.17518   0.18956   0.19611   0.21075

 Mulliken charges:
               1
     1  C    5.019709
     2  H    0.596565
     3  H    0.591991
     4  H    0.673446
     5  H    0.731610
     6  N   -2.515000
     7  N   -0.469699
     8  O   -2.513707
     9  O   -2.114916
 Sum of Mulliken charges =  -0.00000

 Dipole moment (field-independent basis, Debye):
    X=             -1.4594    Y=             -1.2642    Z=              0.1298  Tot=              1.9352

 Test job not archived.
 1\1\GINC-SE038\SP\RHF\Aug-CC-pVDZ\C1H4N2O2\OHZDE\08-Apr-2025\0\\#t hf
 aug-cc-pvdz iop(5/13=1,5/36=2,99/5=2) pseudo=read geom=check guess=(re
 ad,tcheck) scf=(maxcycle=1)\\title\\0,1\C,0,-0.468204,0.130533,0.03446
 36\H,0,-1.73258,-1.35696,-0.414908\H,0,-2.56432,0.106411,-0.286092\H,0
 ,0.688046,-1.46089,0.820771\H,0,1.56246,0.805537,0.294873\N,0,-1.75874
 ,-0.42825,0.0277251\N,0,0.601746,-0.798064,-0.00370283\O,0,-0.227961,1
 .31352,0.0340698\O,0,1.84729,-0.100156,-0.132768\\Version=ES64L-G16Rev
 C.01\State=1-A\HF=-300.0926543\RMSD=4.470e-02\Dipole=-0.5741769,-0.497

 Normal termination of Gaussian 16 at Tue Apr  8 21:38:36 2025.
