 Gaussian 16, Revision C.01,

 ----------------------------------------------------------------------
 #t hf aug-cc-pvdz symm=none int=(grid=ultrafine) guess=(read,tcheck) s
 table=(opt,rrhf)
 ----------------------------------------------------------------------
 -----
 title
 -----
 Symbolic Z-matrix:
 Charge =  0 Multiplicity = 1

 SCF Done:  E(RHF) =  -369.546574503     A.U. after   16 cycles
 Normal termination of Gaussian 16 at Tue Apr  8 21:43:49 2025.
 Gaussian 16:  ES64L-G16RevC.01  3-Jul-2019

 ----------------------------------------------------------------------
 #t hf aug-cc-pvdz iop(5/13=1,5/36=2,99/5=2) pseudo=read geom=check gue
 ss=(read,tcheck) scf=(maxcycle=1)
 ----------------------------------------------------------------------
 -----
 title
 -----
 Structure from the checkpoint file:  "ANI1ccx_487_conf5_mol2.chk"
 Charge =  0 Multiplicity = 1

                         Standard orientation:
 ---------------------------------------------------------------------
 Center     Atomic      Atomic             Coordinates (Angstroms)
 Number     Number       Type             X           Y           Z
 ---------------------------------------------------------------------
      1          6           0        1.013719    0.088906    0.003214
      2          6           0       -1.027922    1.110969    0.002387
      3          1           0       -1.671573    1.986109    0.040082
      4          1           0        0.693865   -1.977300   -0.008290
      5          7           0        0.249539    1.250890    0.013606
      6          7           0       -1.757861   -0.075997   -0.029946
      7          7           0       -1.107261   -1.160341   -0.001469
      8          7           0        0.228894   -1.084610    0.033512
      9          8           0        2.221219    0.035293   -0.021914
 ---------------------------------------------------------------------

 SCF Done:  E(RHF) =  -371.134412589     A.U. after    2 cycles

 The electronic state is 1-A.
 Alpha  occ. eigenvalues --  -21.06174 -15.89662 -15.85498 -15.81336 -15.78536
 Alpha  occ. eigenvalues --  -11.54441 -11.49661  -1.76457  -1.67884  -1.42358
 Alpha  occ. eigenvalues --   -1.38050  -1.05934  -0.97835  -0.79847  -0.75245
 Alpha  occ. eigenvalues --   -0.71836  -0.69135  -0.55384  -0.53883  -0.53290
 Alpha  occ. eigenvalues --   -0.49589  -0.48794  -0.39582  -0.33425  -0.32135
 Alpha virt. eigenvalues --    0.03332   0.04910   0.05613   0.09387   0.09722
 Alpha virt. eigenvalues --    0.09799   0.11617   0.12120   0.12657   0.14094
 Alpha virt. eigenvalues --    0.14292   0.15344   0.15592   0.16775   0.17353

 Mulliken charges:
               1
     1  C    5.105490
     2  C    1.223443
     3  H    1.681466
     4  H    0.831411
     5  N   -2.674289
     6  N   -1.417944
     7  N   -0.035234
     8  N   -1.764468
     9  O   -2.949876
 Sum of Mulliken charges =   0.00000

 Dipole moment (field-independent basis, Debye):
    X=             -0.7592    Y=             -1.1641    Z=              0.0161  Tot=              1.3899

 Test job not archived.
 1\1\GINC-SE339\SP\RHF\Aug-CC-pVDZ\C2H2N4O1\OHZDE\08-Apr-2025\0\\#t hf
 aug-cc-pvdz iop(5/13=1,5/36=2,99/5=2) pseudo=read geom=check guess=(re
 ad,tcheck) scf=(maxcycle=1)\\title\\0,1\C,0,1.01372,0.088906,0.0032138
 4\C,0,-1.02792,1.11097,0.00238678\H,0,-1.67157,1.98611,0.0400816\H,0,0
 .693865,-1.9773,-0.00828978\N,0,0.249541,1.25089,0.0136058\N,0,-1.7578
 6,-0.075996,-0.029946\N,0,-1.10726,-1.16034,-0.00146934\N,0,0.228895,-
 1.08461,0.0335123\O,0,2.22122,0.0352917,-0.0219144\\Version=ES64L-G16R
 evC.01\State=1-A\HF=-371.1344126\RMSD=8.860e-02\Dipole=-0.2986849,-0.4

 Normal termination of Gaussian 16 at Tue Apr  8 21:43:52 2025.
