 Gaussian 16, Revision C.01,

 ----------------------------------------------------------------------
 #t hf aug-cc-pvdz symm=none int=(grid=ultrafine) guess=(read,tcheck) s
 table=(opt,rrhf)
 ----------------------------------------------------------------------
 -----
 title
 -----
 Symbolic Z-matrix:
 Charge =  0 Multiplicity = 1

 SCF Done:  E(RHF) =  -889.019061152     A.U. after   16 cycles
 Normal termination of Gaussian 16 at Tue Apr  8 21:45:19 2025.
 Gaussian 16:  ES64L-G16RevC.01  3-Jul-2019

 ----------------------------------------------------------------------
 #t hf aug-cc-pvdz iop(5/13=1,5/36=2,99/5=2) pseudo=read geom=check gue
 ss=(read,tcheck) scf=(maxcycle=1)
 ----------------------------------------------------------------------
 -----
 title
 -----
 Structure from the checkpoint file:  "ANI1ccx_317_conf7_mol1.chk"
 Charge =  0 Multiplicity = 1

                         Standard orientation:
 ---------------------------------------------------------------------
 Center     Atomic      Atomic             Coordinates (Angstroms)
 Number     Number       Type             X           Y           Z
 ---------------------------------------------------------------------
      1          6           0        1.029312    2.793769   -0.708574
      2          6           0       -4.017250    0.820625   -0.195322
      3          6           0       -3.146069    1.590553    0.475830
      4          6           0       -3.733741   -0.436757   -0.631174
      5          6           0       -2.514031   -1.002258   -0.125972
      6          6           0       -1.571311   -0.237300    0.626147
      7          6           0       -1.897900    1.146591    0.905460
      8          6           0       -0.398037   -1.010600    0.685489
      9          6           0        0.830600   -0.772389    1.505079
     10          6           0        2.641868   -1.406552   -0.144927
     11          6           0        2.191589   -0.373708    0.845856
     12          6           0        1.218231    1.276949   -0.639275
     13          6           0       -0.706949   -2.254140    0.203058
     14          1           0       -2.259483   -2.849198   -1.128591
     15          1           0        1.176309   -0.863797   -1.318621
     16          1           0       -4.936880    1.215824   -0.589108
     17          1           0       -3.452098    2.611113    0.587775
     18          1           0       -4.523082   -1.064146   -1.109861
     19          1           0       -1.276879    1.862891    1.438559
     20          1           0        0.038404   -3.009520    0.210076
     21          1           0        0.044044    3.034190   -0.214974
     22          1           0        0.993489   -1.616651    2.115169
     23          1           0        2.890279   -0.349040    1.663779
     24          1           0        2.573391    1.721498    0.688407
     25          1           0        0.907817    3.004009   -1.840481
     26          1           0        1.646063    4.275478    0.527350
     27          1           0        2.803153    3.865817   -0.433775
     28          1           0        0.563337    0.004399    2.153599
     29          7           0        2.063012    3.459368    0.087226
     30          7           0        2.117150    0.932726    0.258791
     31          7           0       -1.978653   -2.251048   -0.315195
     32          8           0        3.529828   -2.147263    0.054069
     33          8           0        0.716167    0.397554   -1.325161
     34          8           0        1.734468   -1.705152   -1.200801
 ---------------------------------------------------------------------

 SCF Done:  E(RHF) =  -893.101404650     A.U. after    2 cycles

 The electronic state is 1-A.
 Alpha  occ. eigenvalues --  -21.03712 -21.03309 -21.02239 -15.78491 -15.77506
 Alpha  occ. eigenvalues --  -15.77095 -11.55638 -11.52213 -11.51390 -11.48900
 Alpha  occ. eigenvalues --  -11.46143 -11.45452 -11.45039 -11.43198 -11.42879
 Alpha  occ. eigenvalues --  -11.41521 -11.40414 -11.38504 -11.35898  -1.79267
 Alpha  occ. eigenvalues --   -1.74275  -1.60769  -1.51247  -1.45985  -1.36557
 Alpha  occ. eigenvalues --   -1.28633  -1.21296  -1.12617  -1.06543  -1.05767
 Alpha  occ. eigenvalues --   -1.02874  -0.96360  -0.88066  -0.84577  -0.83071
 Alpha  occ. eigenvalues --   -0.78303  -0.76143  -0.72815  -0.71396  -0.70757
 Alpha  occ. eigenvalues --   -0.69661  -0.66078  -0.64927  -0.64781  -0.61514
 Alpha  occ. eigenvalues --   -0.60533  -0.58953  -0.57916  -0.56662  -0.56174
 Alpha  occ. eigenvalues --   -0.53886  -0.52472  -0.50612  -0.49865  -0.48519
 Alpha  occ. eigenvalues --   -0.47671  -0.46577  -0.45464  -0.44324  -0.43048
 Alpha  occ. eigenvalues --   -0.42056  -0.41282  -0.39171  -0.32873  -0.30176
 Alpha  occ. eigenvalues --   -0.28322  -0.26741  -0.25886  -0.24000
 Alpha virt. eigenvalues --    0.02296   0.03681   0.04036   0.04107   0.04898
 Alpha virt. eigenvalues --    0.05637   0.05800   0.05950   0.06924   0.06997
 Alpha virt. eigenvalues --    0.07220   0.08026   0.08506   0.09040   0.09509

 Mulliken charges:
               1
     1  C   -2.522511
     2  C   -1.279655
     3  C   -0.982202
     4  C   -4.608038
     5  C    2.433650
     6  C   -0.253536
     7  C   -1.259618
     8  C    6.101645
     9  C   -4.632311
    10  C    6.107315
    11  C   -1.252604
    12  C    5.374210
    13  C   -2.823455
    14  H    0.686376
    15  H    2.743431
    16  H    1.399402
    17  H    1.578158
    18  H    1.474016
    19  H    2.131733
    20  H    1.701303
    21  H    1.541094
    22  H    1.211900
    23  H    1.708864
    24  H    0.962525
    25  H    1.327535
    26  H    0.664896
    27  H    0.632402
    28  H    1.511453
    29  N   -2.468137
    30  N   -3.043576
    31  N   -4.904447
    32  O   -3.610356
    33  O   -4.428593
    34  O   -3.222868
 Sum of Mulliken charges =  -0.00000

 Dipole moment (field-independent basis, Debye):
    X=             -0.9663    Y=              4.1025    Z=             -0.1549  Tot=              4.2176

 Test job not archived.
 1\1\GINC-SE363\SP\RHF\Aug-CC-pVDZ\C13H15N3O3\OHZDE\08-Apr-2025\0\\#t h
 f aug-cc-pvdz iop(5/13=1,5/36=2,99/5=2) pseudo=read geom=check guess=(
 read,tcheck) scf=(maxcycle=1)\\title\\0,1\C,0,1.02931,2.79377,-0.70857
 3\C,0,-4.01725,0.820622,-0.195321\C,0,-3.14607,1.59055,0.475831\C,0,-3
 .73374,-0.43676,-0.631173\C,0,-2.51403,-1.00226,-0.125971\C,0,-1.57131
 ,-0.237301,0.626148\C,0,-1.8979,1.14659,0.905461\C,0,-0.398036,-1.0106
 ,0.68549\C,0,0.830601,-0.772388,1.50508\C,0,2.64187,-1.40655,-0.144926
 \C,0,2.19159,-0.373706,0.845857\C,0,1.21823,1.27695,-0.639274\C,0,-0.7

 Normal termination of Gaussian 16 at Tue Apr  8 21:46:23 2025.
