 Gaussian 16, Revision C.01,

 ----------------------------------------------------------------------
 #t hf aug-cc-pvdz symm=none int=(grid=ultrafine) guess=(read,tcheck) s
 table=(opt,rrhf)
 ----------------------------------------------------------------------
 -----
 title
 -----
 Symbolic Z-matrix:
 Charge =  0 Multiplicity = 1

 SCF Done:  E(RHF) =  -563.366386800     A.U. after   15 cycles
 Normal termination of Gaussian 16 at Tue Apr  8 22:11:08 2025.
 Gaussian 16:  ES64L-G16RevC.01  3-Jul-2019

 ----------------------------------------------------------------------
 #t hf aug-cc-pvdz iop(5/13=1,5/36=2,99/5=2) pseudo=read geom=check gue
 ss=(read,tcheck) scf=(maxcycle=1)
 ----------------------------------------------------------------------
 -----
 title
 -----
 Structure from the checkpoint file:  "ANI1ccx_918_conf14_mol1.chk"
 Charge =  0 Multiplicity = 1

                         Standard orientation:
 ---------------------------------------------------------------------
 Center     Atomic      Atomic             Coordinates (Angstroms)
 Number     Number       Type             X           Y           Z
 ---------------------------------------------------------------------
      1          6           0        1.160641   -0.038959    0.010232
      2          6           0       -0.815591    1.321739    0.067474
      3          6           0       -1.485479   -0.029948    0.528170
      4          6           0       -0.892027   -1.223791   -0.219457
      5          1           0        1.383031   -1.391021    1.563630
      6          1           0        1.751931    0.114685    1.997310
      7          1           0        2.817531   -0.827351   -0.787619
      8          1           0        2.493561    0.789810   -1.359230
      9          1           0       -1.487499   -0.107307    1.603000
     10          1           0       -2.521709   -0.025454    0.234336
     11          7           0        1.035941   -0.425749    1.430670
     12          7           0        2.431991    0.187698   -0.493666
     13          8           0        0.588479    1.285599   -0.095662
     14          8           0       -1.543459    2.307549   -0.306703
     15          8           0       -1.521799   -2.246131   -0.328255
     16          8           0        0.412077   -0.979675   -0.785502
 ---------------------------------------------------------------------

 SCF Done:  E(RHF) =  -565.789680598     A.U. after    2 cycles

 The electronic state is 1-A.
 Alpha  occ. eigenvalues --  -21.12333 -21.11939 -21.09316 -21.07337 -15.78169
 Alpha  occ. eigenvalues --  -15.77710 -11.56933 -11.56094 -11.55409 -11.44656
 Alpha  occ. eigenvalues --   -1.90331  -1.79084  -1.70994  -1.65371  -1.38467
 Alpha  occ. eigenvalues --   -1.29925  -1.16626  -0.93684  -0.86472  -0.77463
 Alpha  occ. eigenvalues --   -0.73108  -0.71718  -0.70234  -0.64908  -0.62564
 Alpha  occ. eigenvalues --   -0.60075  -0.56119  -0.52760  -0.52004  -0.50107
 Alpha  occ. eigenvalues --   -0.47266  -0.45183  -0.44395  -0.39709  -0.35846
 Alpha  occ. eigenvalues --   -0.33481  -0.32998  -0.29044
 Alpha virt. eigenvalues --    0.02951   0.04031   0.04695   0.05658   0.06384
 Alpha virt. eigenvalues --    0.06740   0.09436   0.10496   0.10791   0.11955
 Alpha virt. eigenvalues --    0.12389   0.13121   0.13458   0.13513   0.13905

 Mulliken charges:
               1
     1  C    8.319993
     2  C    4.527908
     3  C   -3.519520
     4  C    5.260143
     5  H    0.431995
     6  H    0.514159
     7  H    0.412234
     8  H    0.552779
     9  H    1.438682
    10  H    1.180277
    11  N   -2.773980
    12  N   -3.122311
    13  O   -3.344302
    14  O   -3.026889
    15  O   -3.405180
    16  O   -3.445988
 Sum of Mulliken charges =  -0.00000

 Dipole moment (field-independent basis, Debye):
    X=              3.1396    Y=             -1.0881    Z=              0.4827  Tot=              3.3577

 Test job not archived.
 1\1\GINC-SE435\SP\RHF\Aug-CC-pVDZ\C4H6N2O4\OHZDE\08-Apr-2025\0\\#t hf
 aug-cc-pvdz iop(5/13=1,5/36=2,99/5=2) pseudo=read geom=check guess=(re
 ad,tcheck) scf=(maxcycle=1)\\title\\0,1\C,0,1.16064,-0.0389586,0.01023
 21\C,0,-0.815592,1.32174,0.067474\C,0,-1.48548,-0.0299467,0.52817\C,0,
 -0.892028,-1.22379,-0.219457\H,0,1.38303,-1.39102,1.56363\H,0,1.75193,
 0.114686,1.99731\H,0,2.81753,-0.82735,-0.787619\H,0,2.49356,0.789811,-
 1.35923\H,0,-1.4875,-0.107306,1.603\H,0,-2.52171,-0.0254528,0.234336\N
 ,0,1.03594,-0.425748,1.43067\N,0,2.43199,0.187699,-0.493666\O,0,0.5884

 Normal termination of Gaussian 16 at Tue Apr  8 22:11:16 2025.
