 Gaussian 16, Revision C.01,

 ----------------------------------------------------------------------
 #t hf aug-cc-pvdz symm=none int=(grid=ultrafine) guess=(read,tcheck) s
 table=(opt,rrhf)
 ----------------------------------------------------------------------
 -----
 title
 -----
 Symbolic Z-matrix:
 Charge =  0 Multiplicity = 1

 SCF Done:  E(RHF) =  -205.845350481     A.U. after   15 cycles
 Normal termination of Gaussian 16 at Tue Apr  8 21:12:18 2025.
 Gaussian 16:  ES64L-G16RevC.01  3-Jul-2019

 ----------------------------------------------------------------------
 #t hf aug-cc-pvdz iop(5/13=1,5/36=2,99/5=2) pseudo=read geom=check gue
 ss=(read,tcheck) scf=(maxcycle=1)
 ----------------------------------------------------------------------
 -----
 title
 -----
 Structure from the checkpoint file:  "ANI1ccx_1869_conf21_mol1.chk"
 Charge =  0 Multiplicity = 1

                         Standard orientation:
 ---------------------------------------------------------------------
 Center     Atomic      Atomic             Coordinates (Angstroms)
 Number     Number       Type             X           Y           Z
 ---------------------------------------------------------------------
      1          1           0       -1.288800   -0.422812    0.525188
      2          1           0       -1.681850    0.530981   -0.580186
      3          1           0        2.009290   -0.957894    0.459451
      4          7           0        1.275280   -0.532245   -0.164808
      5          8           0       -2.094060   -0.078258    0.022466
      6          8           0        1.098360    0.650188    0.071185
 ---------------------------------------------------------------------

 SCF Done:  E(RHF) =  -206.697074260     A.U. after    2 cycles

 The electronic state is 1-A.
 Alpha  occ. eigenvalues --  -21.16900 -21.08553 -15.90002  -1.87021  -1.64106
 Alpha  occ. eigenvalues --   -1.06282  -0.68598  -0.60874  -0.57062  -0.53807
 Alpha  occ. eigenvalues --   -0.45679  -0.34192  -0.31975
 Alpha virt. eigenvalues --    0.03342   0.06480   0.07309   0.09392   0.11693
 Alpha virt. eigenvalues --    0.15390   0.17892   0.19742   0.20174   0.22381
 Alpha virt. eigenvalues --    0.24148   0.24825   0.26238   0.26832   0.27569

 Mulliken charges:
               1
     1  H    0.884414
     2  H    0.936957
     3  H    0.839321
     4  N    0.803779
     5  O   -1.849190
     6  O   -1.615282
 Sum of Mulliken charges =   0.00000

 Dipole moment (field-independent basis, Debye):
    X=              2.0860    Y=              0.2635    Z=              0.6054  Tot=              2.1880

 Test job not archived.
 1\1\GINC-SE044\SP\RHF\Aug-CC-pVDZ\H3N1O2\OHZDE\08-Apr-2025\0\\#t hf au
 g-cc-pvdz iop(5/13=1,5/36=2,99/5=2) pseudo=read geom=check guess=(read
 ,tcheck) scf=(maxcycle=1)\\title\\0,1\H,0,-1.2888,-0.422812,0.525188\H
 ,0,-1.68185,0.530981,-0.580186\H,0,2.00929,-0.957894,0.459451\N,0,1.27
 528,-0.532245,-0.164808\O,0,-2.09406,-0.0782578,0.0224655\O,0,1.09836,
 0.650188,0.0711846\\Version=ES64L-G16RevC.01\State=1-A\HF=-206.6970743
 \RMSD=4.897e-02\Dipole=0.8206912,0.103672,0.2381701\Quadrupole=-0.5656
 457,0.2953347,0.2703111,-1.3758759,0.9963172,-2.0609366\PG=C01 [X(H3N1

 Normal termination of Gaussian 16 at Tue Apr  8 21:12:19 2025.
