 Gaussian 16, Revision C.01,

 ----------------------------------------------------------------------
 #t hf aug-cc-pvdz symm=none int=(grid=ultrafine) guess=(read,tcheck) s
 table=(opt,rrhf)
 ----------------------------------------------------------------------
 -----
 title
 -----
 Symbolic Z-matrix:
 Charge =  0 Multiplicity = 1

 SCF Done:  E(RHF) =  -578.469513505     A.U. after   16 cycles
 Normal termination of Gaussian 16 at Tue Apr  8 19:37:58 2025.
 Gaussian 16:  ES64L-G16RevC.01  3-Jul-2019

 ----------------------------------------------------------------------
 #t hf aug-cc-pvdz iop(5/13=1,5/36=2,99/5=2) pseudo=read geom=check gue
 ss=(read,tcheck) scf=(maxcycle=1)
 ----------------------------------------------------------------------
 -----
 title
 -----
 Structure from the checkpoint file:  "ANI1ccx_1340_conf12_mol2.chk"
 Charge =  0 Multiplicity = 1

                         Standard orientation:
 ---------------------------------------------------------------------
 Center     Atomic      Atomic             Coordinates (Angstroms)
 Number     Number       Type             X           Y           Z
 ---------------------------------------------------------------------
      1          6           0        2.739178   -1.607152   -0.020693
      2          6           0        2.349490    0.895690    0.010596
      3          6           0        0.247668    0.983504    0.002836
      4          6           0        0.564940   -0.355443    0.006267
      5          6           0       -1.673451   -0.945712   -0.022395
      6          6           0       -1.166339    1.416932    0.003358
      7          1           0       -2.395153   -2.818547   -0.447949
      8          1           0       -3.500212   -1.571666   -0.145478
      9          1           0       -0.094911   -2.285029    0.216751
     10          1           0        3.422221    1.095268   -0.050128
     11          1           0        2.723708   -2.104152    0.963102
     12          1           0        2.432437   -2.283892   -0.800330
     13          1           0        3.750688   -1.254353   -0.238067
     14          7           0        1.927049   -0.410794    0.024353
     15          7           0        1.384191    1.782139   -0.008601
     16          7           0       -0.356269   -1.343189   -0.004935
     17          7           0       -2.582992   -1.964747    0.088076
     18          7           0       -2.076030    0.301882   -0.004060
     19          8           0       -1.597418    2.542302   -0.005194
 ---------------------------------------------------------------------

 SCF Done:  E(RHF) =  -581.070918084     A.U. after    2 cycles

 The electronic state is 1-A.
 Alpha  occ. eigenvalues --  -21.00465 -15.82695 -15.80970 -15.79416 -15.73638
 Alpha  occ. eigenvalues --  -15.70920 -11.52352 -11.51628 -11.49717 -11.45691
 Alpha  occ. eigenvalues --  -11.44167 -11.39394  -1.68604  -1.62100  -1.52901
 Alpha  occ. eigenvalues --   -1.36674  -1.33238  -1.27809  -1.11256  -1.06024
 Alpha  occ. eigenvalues --   -0.91319  -0.90435  -0.84927  -0.74869  -0.74464
 Alpha  occ. eigenvalues --   -0.70086  -0.69654  -0.64816  -0.63829  -0.62943
 Alpha  occ. eigenvalues --   -0.59393  -0.57138  -0.56607  -0.55438  -0.49023
 Alpha  occ. eigenvalues --   -0.47513  -0.45387  -0.39906  -0.37680  -0.36182
 Alpha  occ. eigenvalues --   -0.33082  -0.26445  -0.25662
 Alpha virt. eigenvalues --    0.01439   0.03006   0.04051   0.04189   0.05501
 Alpha virt. eigenvalues --    0.05949   0.06782   0.07974   0.09740   0.09951
 Alpha virt. eigenvalues --    0.11080   0.11317   0.11721   0.12861   0.13522

 Mulliken charges:
               1
     1  C   -3.723548
     2  C    0.397988
     3  C    2.043216
     4  C    4.104343
     5  C    3.976226
     6  C    5.494079
     7  H    0.562398
     8  H    0.585542
     9  H    0.871988
    10  H    1.670216
    11  H    1.515043
    12  H    1.487694
    13  H    1.508300
    14  N   -4.090850
    15  N   -3.691358
    16  N   -2.997815
    17  N   -3.041744
    18  N   -2.913939
    19  O   -3.757779
 Sum of Mulliken charges =  -0.00000

 Dipole moment (field-independent basis, Debye):
    X=              3.9604    Y=             -9.1372    Z=             -0.7058  Tot=              9.9836

 Test job not archived.
 1\1\GINC-SE187\SP\RHF\Aug-CC-pVDZ\C6H7N5O1\OHZDE\08-Apr-2025\0\\#t hf
 aug-cc-pvdz iop(5/13=1,5/36=2,99/5=2) pseudo=read geom=check guess=(re
 ad,tcheck) scf=(maxcycle=1)\\title\\0,1\C,0,2.73918,-1.60715,-0.020693
 3\C,0,2.34949,0.895691,0.0105963\C,0,0.247668,0.983504,0.00283647\C,0,
 0.564941,-0.355443,0.00626708\C,0,-1.67345,-0.945714,-0.0223946\C,0,-1
 .16634,1.41693,0.00335774\H,0,-2.39515,-2.81855,-0.447949\H,0,-3.50021
 ,-1.57167,-0.145478\H,0,-0.094908,-2.28503,0.216751\H,0,3.42222,1.0952
 7,-0.0501278\H,0,2.72371,-2.10415,0.963102\H,0,2.43244,-2.28389,-0.800

 Normal termination of Gaussian 16 at Tue Apr  8 19:38:11 2025.
