 Gaussian 16, Revision C.01,

 ----------------------------------------------------------------------
 #t hf aug-cc-pvdz symm=none int=(grid=ultrafine) guess=(read,tcheck) s
 table=(opt,rrhf)
 ----------------------------------------------------------------------
 -----
 title
 -----
 Symbolic Z-matrix:
 Charge =  0 Multiplicity = 1

 SCF Done:  E(RHF) =  -959.292309318     A.U. after   14 cycles
 Normal termination of Gaussian 16 at Tue Apr  8 22:03:13 2025.
 Gaussian 16:  ES64L-G16RevC.01  3-Jul-2019

 ----------------------------------------------------------------------
 #t hf aug-cc-pvdz iop(5/13=1,5/36=2,99/5=2) pseudo=read geom=check gue
 ss=(read,tcheck) scf=(maxcycle=1)
 ----------------------------------------------------------------------
 -----
 title
 -----
 Structure from the checkpoint file:  "ANI1ccx_47_conf1_mol2.chk"
 Charge =  0 Multiplicity = 1

                         Standard orientation:
 ---------------------------------------------------------------------
 Center     Atomic      Atomic             Coordinates (Angstroms)
 Number     Number       Type             X           Y           Z
 ---------------------------------------------------------------------
      1          6           0       -1.957660    0.227491    0.889157
      2          6           0        1.947979    2.791530   -0.046283
      3          6           0        2.072010    0.874543   -0.881287
      4          6           0        1.620550   -0.486775   -1.363660
      5          6           0        2.370680   -1.861150    0.603131
      6          6           0        3.321000    1.269660   -0.678036
      7          6           0       -4.277880    0.139811   -0.147486
      8          6           0       -3.006890    0.994337    0.056235
      9          6           0       -1.128400   -0.723246    0.045690
     10          6           0        1.187240   -1.511361   -0.292030
     11          1           0        2.431580   -0.920809   -1.955590
     12          1           0        3.915810   -2.876040    0.676557
     13          1           0        3.988839    3.145680    0.250449
     14          1           0        1.592809    3.768320    0.230226
     15          1           0        4.259170    0.795943   -0.898736
     16          1           0        0.725590   -0.369190   -2.002640
     17          1           0        0.913966   -2.409481   -0.834893
     18          1           0       -3.313710   -1.043041   -1.609890
     19          1           0       -5.032910   -1.322102   -1.335420
     20          1           0       -2.601840    1.263659   -0.929738
     21          1           0       -3.282471    1.902599    0.618066
     22          1           0       -2.530790   -0.307308    1.633000
     23          1           0       -0.438138    1.507699    0.859408
     24          1           0       -1.555021    1.888169    2.044590
     25          1           0        0.424706   -0.298949    1.257420
     26          7           0       -1.083990    1.133589    1.541420
     27          7           0       -4.220740   -0.721936   -1.234330
     28          7           0        0.098222   -0.958675    0.542178
     29          7           0        1.153739    1.818089   -0.419571
     30          7           0        3.259249    2.516100   -0.086054
     31          8           0        2.562690   -1.516090    1.726480
     32          8           0       -1.485740   -1.204691   -1.030930
     33          8           0       -5.208320    0.202826    0.623194
     34          8           0        3.277030   -2.672590   -0.008857
 ---------------------------------------------------------------------

 SCF Done:  E(RHF) =  -963.580248970     A.U. after    2 cycles

 The electronic state is 1-A.
 Alpha  occ. eigenvalues --  -21.13235 -21.06940 -21.02901 -21.00946 -15.82171
 Alpha  occ. eigenvalues --  -15.76032 -15.73822 -15.73552 -15.72503 -11.55961
 Alpha  occ. eigenvalues --  -11.54182 -11.50006 -11.49165 -11.47566 -11.45994
 Alpha  occ. eigenvalues --  -11.45665 -11.44489 -11.39948 -11.38938  -1.84958
 Alpha  occ. eigenvalues --   -1.72123  -1.68488  -1.66818  -1.59549  -1.43216
 Alpha  occ. eigenvalues --   -1.36029  -1.30215  -1.29779  -1.19070  -1.10875
 Alpha  occ. eigenvalues --   -1.09842  -0.99402  -0.94737  -0.87082  -0.82707
 Alpha  occ. eigenvalues --   -0.81865  -0.79656  -0.76981  -0.75541  -0.73300
 Alpha  occ. eigenvalues --   -0.68288  -0.66512  -0.66013  -0.64277  -0.61980
 Alpha  occ. eigenvalues --   -0.61689  -0.61428  -0.60026  -0.59569  -0.58518
 Alpha  occ. eigenvalues --   -0.56121  -0.55643  -0.53903  -0.52400  -0.51931
 Alpha  occ. eigenvalues --   -0.50709  -0.48024  -0.47575  -0.46727  -0.46187
 Alpha  occ. eigenvalues --   -0.45016  -0.41779  -0.38772  -0.35470  -0.34618
 Alpha  occ. eigenvalues --   -0.34015  -0.32158  -0.31233  -0.30306  -0.28749
 Alpha  occ. eigenvalues --   -0.25874
 Alpha virt. eigenvalues --    0.02470   0.03709   0.03992   0.04853   0.05252
 Alpha virt. eigenvalues --    0.05481   0.06244   0.06412   0.07004   0.07433
 Alpha virt. eigenvalues --    0.07471   0.08639   0.08770   0.09777   0.10024

 Mulliken charges:
               1
     1  C   -2.139741
     2  C    0.722587
     3  C    6.044095
     4  C   -3.970395
     5  C    7.457949
     6  C   -2.616190
     7  C    5.922416
     8  C   -3.862490
     9  C    7.895778
    10  C   -2.726921
    11  H    1.358951
    12  H    0.956390
    13  H    0.940476
    14  H    1.833062
    15  H    1.291870
    16  H    1.363541
    17  H    1.874605
    18  H    0.917595
    19  H    0.735782
    20  H    1.547245
    21  H    1.451306
    22  H    2.142406
    23  H    1.273831
    24  H    0.426080
    25  H    0.667994
    26  N   -2.737718
    27  N   -3.291486
    28  N   -3.173561
    29  N   -4.283921
    30  N   -3.412116
    31  O   -3.394537
    32  O   -4.039760
    33  O   -3.629280
    34  O   -3.545842
 Sum of Mulliken charges =   0.00000

 Dipole moment (field-independent basis, Debye):
    X=              7.6766    Y=              2.3500    Z=             -0.5787  Tot=              8.0491

 Test job not archived.
 1\1\GINC-SE092\SP\RHF\Aug-CC-pVDZ\C10H15N5O4\OHZDE\08-Apr-2025\0\\#t h
 f aug-cc-pvdz iop(5/13=1,5/36=2,99/5=2) pseudo=read geom=check guess=(
 read,tcheck) scf=(maxcycle=1)\\title\\0,1\C,0,-1.95766,0.227492,0.8891
 57\C,0,1.94798,2.79153,-0.0462827\C,0,2.07201,0.874543,-0.881287\C,0,1
 .62055,-0.486775,-1.36366\C,0,2.37068,-1.86115,0.603131\C,0,3.321,1.26
 966,-0.678036\C,0,-4.27788,0.139813,-0.147486\C,0,-3.00689,0.994338,0.
 0562351\C,0,-1.1284,-0.723245,0.0456903\C,0,1.18724,-1.51136,-0.29203\
 H,0,2.43158,-0.920809,-1.95559\H,0,3.91581,-2.87604,0.676557\H,0,3.988

 Normal termination of Gaussian 16 at Tue Apr  8 22:04:13 2025.
