 Gaussian 16, Revision C.01,

 ----------------------------------------------------------------------
 #t hf aug-cc-pvdz symm=none int=(grid=ultrafine) guess=(read,tcheck) s
 table=(opt,rrhf)
 ----------------------------------------------------------------------
 -----
 title
 -----
 Symbolic Z-matrix:
 Charge =  0 Multiplicity = 1

 SCF Done:  E(RHF) =  -528.734217804     A.U. after   14 cycles
 Normal termination of Gaussian 16 at Tue Apr  8 22:20:36 2025.
 Gaussian 16:  ES64L-G16RevC.01  3-Jul-2019

 ----------------------------------------------------------------------
 #t hf aug-cc-pvdz iop(5/13=1,5/36=2,99/5=2) pseudo=read geom=check gue
 ss=(read,tcheck) scf=(maxcycle=1)
 ----------------------------------------------------------------------
 -----
 title
 -----
 Structure from the checkpoint file:  "ANI1ccx_998_conf9_mol1.chk"
 Charge =  0 Multiplicity = 1

                         Standard orientation:
 ---------------------------------------------------------------------
 Center     Atomic      Atomic             Coordinates (Angstroms)
 Number     Number       Type             X           Y           Z
 ---------------------------------------------------------------------
      1          6           0        0.933949    0.044313    0.382503
      2          6           0        2.410671   -0.270809   -0.091200
      3          6           0       -0.113575   -0.984996   -0.008143
      4          6           0       -1.450149   -0.786933    0.805858
      5          6           0       -2.583849   -0.047421    0.030575
      6          1           0        2.979960    1.131831    1.172180
      7          1           0       -2.863240    1.654340   -1.045110
      8          1           0       -1.743019   -1.755269    1.169410
      9          1           0       -1.330909   -0.149132    1.695310
     10          1           0       -1.508650    1.686711   -0.023367
     11          1           0        1.410320    1.992601   -0.110101
     12          1           0        0.429309    1.216181   -1.252510
     13          1           0        0.986644    0.235870    1.475330
     14          1           0       -0.236656   -1.044589   -1.086050
     15          1           0        0.312722   -2.026909    0.192859
     16          7           0        0.639931    1.347911   -0.248181
     17          7           0       -2.394270    1.272451   -0.222842
     18          8           0       -3.650339   -0.586744   -0.277077
     19          8           0        2.715671   -1.164649   -0.842265
     20          8           0        3.267370    0.625256    0.418297
 ---------------------------------------------------------------------

 SCF Done:  E(RHF) =  -531.087933686     A.U. after    2 cycles

 The electronic state is 1-A.
 Alpha  occ. eigenvalues --  -21.14688 -21.07069 -21.01697 -15.77021 -15.76605
 Alpha  occ. eigenvalues --  -11.54850 -11.50514 -11.49075 -11.44427 -11.40406
 Alpha  occ. eigenvalues --   -1.84560  -1.68757  -1.67740  -1.39107  -1.33796
 Alpha  occ. eigenvalues --   -1.18320  -1.03878  -0.93166  -0.82377  -0.80050
 Alpha  occ. eigenvalues --   -0.73237  -0.71683  -0.68976  -0.65001  -0.62078
 Alpha  occ. eigenvalues --   -0.58945  -0.57044  -0.56030  -0.55272  -0.50980
 Alpha  occ. eigenvalues --   -0.49128  -0.48724  -0.46565  -0.43484  -0.41642
 Alpha  occ. eigenvalues --   -0.36170  -0.31903  -0.29850  -0.26997
 Alpha virt. eigenvalues --    0.02650   0.03640   0.04259   0.05388   0.05718
 Alpha virt. eigenvalues --    0.06067   0.06376   0.07064   0.08356   0.08746
 Alpha virt. eigenvalues --    0.10660   0.10716   0.11538   0.11837   0.12237

 Mulliken charges:
               1
     1  C   -0.439768
     2  C    5.826565
     3  C   -2.797412
     4  C   -3.756545
     5  C    5.369607
     6  H    1.065213
     7  H    0.663422
     8  H    1.285542
     9  H    1.481297
    10  H    0.864899
    11  H    0.583200
    12  H    0.581585
    13  H    1.780444
    14  H    1.459119
    15  H    1.270346
    16  N   -2.395661
    17  N   -3.085902
    18  O   -3.322151
    19  O   -3.272289
    20  O   -3.161513
 Sum of Mulliken charges =   0.00000

 Dipole moment (field-independent basis, Debye):
    X=              2.3442    Y=              2.3310    Z=              0.8338  Tot=              3.4093

 Test job not archived.
 1\1\GINC-SE015\SP\RHF\Aug-CC-pVDZ\C5H10N2O3\OHZDE\08-Apr-2025\0\\#t hf
  aug-cc-pvdz iop(5/13=1,5/36=2,99/5=2) pseudo=read geom=check guess=(r
 ead,tcheck) scf=(maxcycle=1)\\title\\0,1\C,0,0.933948,0.0443115,0.3825
 03\C,0,2.41067,-0.27081,-0.0911997\C,0,-0.113576,-0.984997,-0.00814358
 \C,0,-1.45015,-0.786934,0.805858\C,0,-2.58385,-0.0474218,0.030575\H,0,
 2.97996,1.13183,1.17218\H,0,-2.86324,1.65434,-1.04511\H,0,-1.74302,-1.
 75527,1.16941\H,0,-1.33091,-0.149133,1.69531\H,0,-1.50865,1.68671,-0.0
 233667\H,0,1.41032,1.9926,-0.110101\H,0,0.429309,1.21618,-1.25251\H,0,

 Normal termination of Gaussian 16 at Tue Apr  8 22:20:49 2025.
