 Gaussian 16, Revision C.01,

 ----------------------------------------------------------------------
 #t hf aug-cc-pvdz symm=none int=(grid=ultrafine) guess=(read,tcheck) s
 table=(opt,rrhf)
 ----------------------------------------------------------------------
 -----
 title
 -----
 Symbolic Z-matrix:
 Charge =  0 Multiplicity = 1

 SCF Done:  E(RHF) =  -585.406046199     A.U. after   15 cycles
 Normal termination of Gaussian 16 at Tue Apr  8 22:18:08 2025.
 Gaussian 16:  ES64L-G16RevC.01  3-Jul-2019

 ----------------------------------------------------------------------
 #t hf aug-cc-pvdz iop(5/13=1,5/36=2,99/5=2) pseudo=read geom=check gue
 ss=(read,tcheck) scf=(maxcycle=1)
 ----------------------------------------------------------------------
 -----
 title
 -----
 Structure from the checkpoint file:  "ANI1ccx_978_conf1_mol1.chk"
 Charge =  0 Multiplicity = 1

                         Standard orientation:
 ---------------------------------------------------------------------
 Center     Atomic      Atomic             Coordinates (Angstroms)
 Number     Number       Type             X           Y           Z
 ---------------------------------------------------------------------
      1          6           0        0.361061   -1.482561   -0.279489
      2          6           0       -0.230652   -0.245011    0.373484
      3          6           0       -1.653300   -0.353289    0.872991
      4          6           0        0.736827    0.276564    1.460730
      5          1           0        2.208180   -0.014664    0.357781
      6          1           0        0.811437   -0.566394    2.195830
      7          1           0        0.290048    1.090370    1.995140
      8          1           0       -1.871099    0.627631    1.193770
      9          1           0       -3.419551   -0.823750    0.072567
     10          1           0        0.218250   -2.337940    0.417266
     11          1           0       -0.235135   -1.647440   -1.172080
     12          1           0        1.666239   -0.767980   -1.408220
     13          1           0       -1.693851   -1.098868    1.702520
     14          7           0       -0.194377    0.896935   -0.694158
     15          8           0        0.398738    0.675573   -1.727620
     16          8           0        1.749069   -1.403992   -0.655147
     17          8           0       -2.510820   -0.674599   -0.210807
     18          8           0        1.965191    0.682111    0.996756
     19          8           0       -0.589364    1.981691   -0.285904
 ---------------------------------------------------------------------

 SCF Done:  E(RHF) =  -587.948926690     A.U. after    2 cycles

 The electronic state is 1-A.
 Alpha  occ. eigenvalues --  -21.10950 -21.10256 -21.10178 -21.09353 -21.06892
 Alpha  occ. eigenvalues --  -15.99457 -11.51642 -11.49681 -11.48117 -11.42494
 Alpha  occ. eigenvalues --   -2.00796  -1.76513  -1.73857  -1.72366  -1.70329
 Alpha  occ. eigenvalues --   -1.28170  -1.02066  -1.00268  -0.99006  -0.80207
 Alpha  occ. eigenvalues --   -0.75996  -0.71882  -0.68890  -0.66531  -0.64530
 Alpha  occ. eigenvalues --   -0.62539  -0.60830  -0.59196  -0.55942  -0.53957
 Alpha  occ. eigenvalues --   -0.53635  -0.47292  -0.45239  -0.42586  -0.36183
 Alpha  occ. eigenvalues --   -0.34618  -0.33574  -0.32726  -0.31741  -0.31299
 Alpha virt. eigenvalues --    0.03128   0.04253   0.04797   0.05032   0.05640
 Alpha virt. eigenvalues --    0.06093   0.07216   0.07749   0.08887   0.11043
 Alpha virt. eigenvalues --    0.11888   0.12323   0.12610   0.13828   0.14163

 Mulliken charges:
               1
     1  C    0.687673
     2  C   -1.247251
     3  C   -0.565538
     4  C    0.501643
     5  H    1.110990
     6  H    1.123853
     7  H    1.459189
     8  H    1.503531
     9  H    0.782936
    10  H    1.165866
    11  H    1.348840
    12  H    0.752905
    13  H    1.330852
    14  N    4.803605
    15  O   -3.042998
    16  O   -2.598197
    17  O   -2.836790
    18  O   -3.081971
    19  O   -3.199136
 Sum of Mulliken charges =   0.00000

 Dipole moment (field-independent basis, Debye):
    X=             -1.6076    Y=             -1.7544    Z=              1.2372  Tot=              2.6819

 Test job not archived.
 1\1\GINC-SE059\SP\RHF\Aug-CC-pVDZ\C4H9N1O5\OHZDE\08-Apr-2025\0\\#t hf
 aug-cc-pvdz iop(5/13=1,5/36=2,99/5=2) pseudo=read geom=check guess=(re
 ad,tcheck) scf=(maxcycle=1)\\title\\0,1\C,0,0.361062,-1.48256,-0.27948
 9\C,0,-0.230652,-0.245011,0.373484\C,0,-1.6533,-0.353291,0.872991\C,0,
 0.736826,0.276565,1.46073\H,0,2.20818,-0.0146615,0.357781\H,0,0.811437
 ,-0.566393,2.19583\H,0,0.290046,1.09037,1.99514\H,0,-1.8711,0.627629,1
 .19377\H,0,-3.41955,-0.823754,0.0725673\H,0,0.218252,-2.33794,0.417266
 \H,0,-0.235133,-1.64744,-1.17208\H,0,1.66624,-0.767978,-1.40822\H,0,-1

 Normal termination of Gaussian 16 at Tue Apr  8 22:18:19 2025.
