 Gaussian 16, Revision C.01,

 ----------------------------------------------------------------------
 #t hf aug-cc-pvdz symm=none int=(grid=ultrafine) guess=(read,tcheck) s
 table=(opt,rrhf)
 ----------------------------------------------------------------------
 -----
 title
 -----
 Symbolic Z-matrix:
 Charge =  0 Multiplicity = 1

 SCF Done:  E(RHF) =  -313.639245105     A.U. after   14 cycles
 Normal termination of Gaussian 16 at Tue Apr  8 21:11:18 2025.
 Gaussian 16:  ES64L-G16RevC.01  3-Jul-2019

 ----------------------------------------------------------------------
 #t hf aug-cc-pvdz iop(5/13=1,5/36=2,99/5=2) pseudo=read geom=check gue
 ss=(read,tcheck) scf=(maxcycle=1)
 ----------------------------------------------------------------------
 -----
 title
 -----
 Structure from the checkpoint file:  "ANI1ccx_1854_conf5_mol2.chk"
 Charge =  0 Multiplicity = 1

                         Standard orientation:
 ---------------------------------------------------------------------
 Center     Atomic      Atomic             Coordinates (Angstroms)
 Number     Number       Type             X           Y           Z
 ---------------------------------------------------------------------
      1          1           0        0.191350    0.978584    0.415470
      2          7           0       -3.222512   -0.316853   -0.259728
      3          7           0       -2.322282    0.033500    0.276351
      4          7           0        1.569388   -0.212867    0.401579
      5          8           0        0.931462    0.843993   -0.202371
      6          8           0        2.523098   -0.532123   -0.215489
 ---------------------------------------------------------------------

 SCF Done:  E(RHF) =  -314.914893156     A.U. after    2 cycles

 The electronic state is 1-A.
 Alpha  occ. eigenvalues --  -21.14539 -21.14441 -15.93585 -15.89247 -15.88970
 Alpha  occ. eigenvalues --   -1.98270  -1.71536  -1.57886  -0.95633  -0.80945
 Alpha  occ. eigenvalues --   -0.72568  -0.61563  -0.60685  -0.59946  -0.59118
 Alpha  occ. eigenvalues --   -0.59108  -0.48703  -0.36854  -0.30637
 Alpha virt. eigenvalues --    0.05456   0.10357   0.11385   0.12581   0.12818
 Alpha virt. eigenvalues --    0.13257   0.13320   0.14879   0.16292   0.16519
 Alpha virt. eigenvalues --    0.18720   0.20067   0.21143   0.22165   0.23341

 Mulliken charges:
               1
     1  H    0.992963
     2  N    0.261819
     3  N   -0.238266
     4  N    2.810005
     5  O   -2.079207
     6  O   -1.747315
 Sum of Mulliken charges =  -0.00000

 Dipole moment (field-independent basis, Debye):
    X=             -1.1259    Y=              0.6840    Z=             -0.0239  Tot=              1.3177

 Test job not archived.
 1\1\GINC-SE221\SP\RHF\Aug-CC-pVDZ\H1N3O2\OHZDE\08-Apr-2025\0\\#t hf au
 g-cc-pvdz iop(5/13=1,5/36=2,99/5=2) pseudo=read geom=check guess=(read
 ,tcheck) scf=(maxcycle=1)\\title\\0,1\H,0,0.191352,0.978584,0.41547\N,
 0,-3.22251,-0.316853,-0.259728\N,0,-2.32228,0.0335004,0.276351\N,0,1.5
 6939,-0.212867,0.401579\O,0,0.931464,0.843993,-0.202371\O,0,2.5231,-0.
 532123,-0.215489\\Version=ES64L-G16RevC.01\State=1-A\HF=-314.9148932\R
 MSD=1.013e-01\Dipole=-0.442982,0.2691163,-0.0093955\Quadrupole=-0.1951
 343,0.3744416,-0.1793073,0.1791507,-0.5977628,0.9515954\PG=C01 [X(H1N3

 Normal termination of Gaussian 16 at Tue Apr  8 21:11:19 2025.
