 Gaussian 16, Revision C.01,

 ----------------------------------------------------------------------
 #t hf aug-cc-pvdz symm=none int=(grid=ultrafine) guess=(read,tcheck) s
 table=(opt,rrhf)
 ----------------------------------------------------------------------
 -----
 title
 -----
 Symbolic Z-matrix:
 Charge =  0 Multiplicity = 1

 SCF Done:  E(RHF) =  -578.775166001     A.U. after   14 cycles
 Normal termination of Gaussian 16 at Tue Apr  8 22:19:12 2025.
 Gaussian 16:  ES64L-G16RevC.01  3-Jul-2019

 ----------------------------------------------------------------------
 #t hf aug-cc-pvdz iop(5/13=1,5/36=2,99/5=2) pseudo=read geom=check gue
 ss=(read,tcheck) scf=(maxcycle=1)
 ----------------------------------------------------------------------
 -----
 title
 -----
 Structure from the checkpoint file:  "ANI1ccx_987_conf7_mol1.chk"
 Charge =  0 Multiplicity = 1

                         Standard orientation:
 ---------------------------------------------------------------------
 Center     Atomic      Atomic             Coordinates (Angstroms)
 Number     Number       Type             X           Y           Z
 ---------------------------------------------------------------------
      1          6           0        2.063010   -0.487135    0.006382
      2          6           0        0.421987    1.218280    0.107057
      3          6           0       -1.823640    0.531802    0.752249
      4          6           0       -2.206800   -0.607836   -0.228732
      5          1           0       -0.418092   -1.448350    0.192964
      6          1           0       -2.289800    0.321026    1.743790
      7          1           0       -2.326750    1.456780    0.363015
      8          1           0        0.741956    2.762400   -1.106440
      9          1           0        0.024469    0.079603    1.639930
     10          1           0        2.001350   -2.337430    0.503206
     11          1           0        3.698660    0.276864   -0.755092
     12          1           0        3.490960   -1.422580   -0.898980
     13          1           0       -0.563357    2.927550   -0.078901
     14          7           0        3.382830   -0.585777   -0.355809
     15          7           0        1.371100   -1.511810    0.446714
     16          7           0        1.666990    0.815597   -0.065005
     17          7           0       -0.013042    2.274540   -0.626041
     18          7           0       -0.443492    0.705611    1.008470
     19          8           0       -1.322960   -1.708940   -0.241424
     20          8           0       -3.281720   -0.595267   -0.794020
 ---------------------------------------------------------------------

 SCF Done:  E(RHF) =  -581.370522904     A.U. after    2 cycles

 The electronic state is 1-A.
 Alpha  occ. eigenvalues --  -21.07536 -21.04885 -15.80474 -15.79313 -15.76683
 Alpha  occ. eigenvalues --  -15.71161 -15.70619 -11.53724 -11.52798 -11.48428
 Alpha  occ. eigenvalues --  -11.44535  -1.76479  -1.62941  -1.56777  -1.46687
 Alpha  occ. eigenvalues --   -1.36453  -1.26823  -1.23169  -1.07374  -0.91434
 Alpha  occ. eigenvalues --   -0.83049  -0.79191  -0.73113  -0.70933  -0.70213
 Alpha  occ. eigenvalues --   -0.67331  -0.65065  -0.64602  -0.59331  -0.58611
 Alpha  occ. eigenvalues --   -0.56137  -0.54121  -0.50329  -0.49085  -0.45492
 Alpha  occ. eigenvalues --   -0.42011  -0.38890  -0.37238  -0.36718  -0.33000
 Alpha  occ. eigenvalues --   -0.31345  -0.27677
 Alpha virt. eigenvalues --    0.02886   0.04240   0.04675   0.05183   0.05999
 Alpha virt. eigenvalues --    0.06436   0.06982   0.08289   0.09109   0.09715
 Alpha virt. eigenvalues --    0.10869   0.11803   0.12125   0.12316   0.12700

 Mulliken charges:
               1
     1  C    4.442936
     2  C    4.983128
     3  C   -2.905601
     4  C    5.506888
     5  H    1.802271
     6  H    1.426359
     7  H    1.423390
     8  H    0.611884
     9  H    0.599071
    10  H    0.645052
    11  H    0.660141
    12  H    0.495126
    13  H    0.529223
    14  N   -2.790359
    15  N   -2.689540
    16  N   -2.807908
    17  N   -3.082682
    18  N   -2.234512
    19  O   -3.420824
    20  O   -3.194042
 Sum of Mulliken charges =   0.00000

 Dipole moment (field-independent basis, Debye):
    X=              2.1653    Y=              3.1409    Z=              0.5709  Tot=              3.8575

 Test job not archived.
 1\1\GINC-SE252\SP\RHF\Aug-CC-pVDZ\C4H9N5O2\OHZDE\08-Apr-2025\0\\#t hf
 aug-cc-pvdz iop(5/13=1,5/36=2,99/5=2) pseudo=read geom=check guess=(re
 ad,tcheck) scf=(maxcycle=1)\\title\\0,1\C,0,2.06301,-0.487135,0.006381
 74\C,0,0.421987,1.21828,0.107057\C,0,-1.82364,0.531802,0.752249\C,0,-2
 .2068,-0.607836,-0.228732\H,0,-0.418092,-1.44835,0.192964\H,0,-2.2898,
 0.321026,1.74379\H,0,-2.32675,1.45678,0.363015\H,0,0.741956,2.7624,-1.
 10644\H,0,0.0244692,0.0796025,1.63993\H,0,2.00135,-2.33743,0.503206\H,
 0,3.69866,0.276864,-0.755092\H,0,3.49096,-1.42258,-0.89898\H,0,-0.5633

 Normal termination of Gaussian 16 at Tue Apr  8 22:19:24 2025.
