 Gaussian 16, Revision C.01,

 ----------------------------------------------------------------------
 #t hf aug-cc-pvdz symm=none int=(grid=ultrafine) guess=(read,tcheck) s
 table=(opt,rrhf)
 ----------------------------------------------------------------------
 -----
 title
 -----
 Symbolic Z-matrix:
 Charge =  0 Multiplicity = 1

 SCF Done:  E(RHF) =  -761.795511718     A.U. after   14 cycles
 Normal termination of Gaussian 16 at Tue Apr  8 21:36:38 2025.
 Gaussian 16:  ES64L-G16RevC.01  3-Jul-2019

 ----------------------------------------------------------------------
 #t hf aug-cc-pvdz iop(5/13=1,5/36=2,99/5=2) pseudo=read geom=check gue
 ss=(read,tcheck) scf=(maxcycle=1)
 ----------------------------------------------------------------------
 -----
 title
 -----
 Structure from the checkpoint file:  "ANI1ccx_190_conf5_mol1.chk"
 Charge =  0 Multiplicity = 1

                         Standard orientation:
 ---------------------------------------------------------------------
 Center     Atomic      Atomic             Coordinates (Angstroms)
 Number     Number       Type             X           Y           Z
 ---------------------------------------------------------------------
      1          6           0       -2.297160    0.147944    0.910671
      2          6           0        2.283791   -1.168469   -1.407780
      3          6           0        1.722321   -2.308519    0.746974
      4          6           0        2.304481   -1.035669    0.129319
      5          6           0        2.170530    1.481761    0.068834
      6          6           0        0.906993   -1.349959   -2.070220
      7          6           0       -3.435140    0.977683   -0.987095
      8          6           0       -3.190999   -0.535432   -1.252660
      9          6           0       -2.787879   -1.118151    0.126078
     10          6           0       -0.849291   -0.054980    1.426930
     11          6           0        1.517050    0.247609    0.621500
     12          1           0        1.704051   -2.352119    1.837240
     13          1           0        1.892429    3.073621   -0.774760
     14          1           0        0.276661   -2.153510   -1.674460
     15          1           0        1.071111   -1.544259   -3.138200
     16          1           0        0.431829   -0.370266   -2.044050
     17          1           0        2.764621   -0.271520   -1.821020
     18          1           0        2.899531   -2.044449   -1.654550
     19          1           0        2.286002   -3.175999    0.410038
     20          1           0        0.677113   -2.468200    0.445670
     21          1           0        3.367421   -0.848071    0.465975
     22          1           0       -4.414480    1.168578   -0.540450
     23          1           0       -0.296153    0.979693   -0.141363
     24          1           0       -3.383390    1.618619   -1.894720
     25          1           0       -2.367439   -0.642604   -1.966840
     26          1           0       -4.070099   -1.037991   -1.650350
     27          1           0       -3.704519   -1.507351    0.573516
     28          1           0       -2.078949   -1.946571    0.127764
     29          1           0       -2.957330    0.361888    1.736560
     30          1           0       -2.487740    2.151979    0.409352
     31          1           0        1.681730    0.240109    1.706000
     32          7           0       -2.353520    1.271879   -0.057349
     33          7           0        0.084252    0.237811    0.451713
     34          8           0        3.333920    1.793071    0.117193
     35          8           0       -0.570983   -0.542221    2.506510
     36          8           0        1.302600    2.311361   -0.504598
 ---------------------------------------------------------------------

 SCF Done:  E(RHF) =  -765.355891690     A.U. after    2 cycles

 The electronic state is 1-A.
 Alpha  occ. eigenvalues --  -21.12808 -21.05381 -21.02572 -15.74164 -15.73081
 Alpha  occ. eigenvalues --  -11.55433 -11.53457 -11.50094 -11.47238 -11.43756
 Alpha  occ. eigenvalues --  -11.43166 -11.41036 -11.40860 -11.37547 -11.37316
 Alpha  occ. eigenvalues --  -11.35666  -1.85401  -1.70183  -1.65376  -1.45393
 Alpha  occ. eigenvalues --   -1.39328  -1.24506  -1.14761  -1.11473  -1.07725
 Alpha  occ. eigenvalues --   -1.03702  -0.92509  -0.88781  -0.85516  -0.83968
 Alpha  occ. eigenvalues --   -0.79098  -0.76798  -0.72400  -0.69713  -0.67817
 Alpha  occ. eigenvalues --   -0.65341  -0.62604  -0.61530  -0.60002  -0.59065
 Alpha  occ. eigenvalues --   -0.57856  -0.57163  -0.55329  -0.54882  -0.53087
 Alpha  occ. eigenvalues --   -0.51954  -0.51223  -0.51044  -0.48664  -0.47685
 Alpha  occ. eigenvalues --   -0.46811  -0.46631  -0.45580  -0.45291  -0.43499
 Alpha  occ. eigenvalues --   -0.42458  -0.40261  -0.35377  -0.34589  -0.32092
 Alpha  occ. eigenvalues --   -0.28644  -0.27596
 Alpha virt. eigenvalues --    0.03625   0.04215   0.04519   0.04620   0.04835
 Alpha virt. eigenvalues --    0.05225   0.05919   0.06143   0.06199   0.06392
 Alpha virt. eigenvalues --    0.06907   0.06995   0.07409   0.07728   0.08668

 Mulliken charges:
               1
     1  C   -3.203215
     2  C   -3.665691
     3  C   -5.037152
     4  C    0.297714
     5  C    8.387635
     6  C   -4.794897
     7  C   -3.516130
     8  C   -2.809504
     9  C   -2.944784
    10  C    7.547710
    11  C   -4.725156
    12  H    1.318379
    13  H    0.921842
    14  H    1.567799
    15  H    1.032730
    16  H    1.861447
    17  H    1.445233
    18  H    1.334123
    19  H    1.016865
    20  H    2.144948
    21  H    1.589000
    22  H    1.580094
    23  H    1.102274
    24  H    1.411624
    25  H    1.783472
    26  H    1.283527
    27  H    1.282601
    28  H    1.606165
    29  H    1.462868
    30  H    0.636667
    31  H    1.808472
    32  N   -1.157168
    33  N   -1.339314
    34  O   -3.738046
    35  O   -4.101109
    36  O   -3.391023
 Sum of Mulliken charges =   0.00000

 Dipole moment (field-independent basis, Debye):
    X=             -2.5510    Y=              0.9374    Z=             -1.8898  Tot=              3.3103

 Test job not archived.
 1\1\GINC-SE099\SP\RHF\Aug-CC-pVDZ\C11H20N2O3\OHZDE\08-Apr-2025\0\\#t h
 f aug-cc-pvdz iop(5/13=1,5/36=2,99/5=2) pseudo=read geom=check guess=(
 read,tcheck) scf=(maxcycle=1)\\title\\0,1\C,0,-2.29716,0.147945,0.9106
 71\C,0,2.28379,-1.16847,-1.40778\C,0,1.72232,-2.30852,0.746974\C,0,2.3
 0448,-1.03567,0.129319\C,0,2.17053,1.48176,0.0688343\C,0,0.906992,-1.3
 4996,-2.07022\C,0,-3.43514,0.977684,-0.987095\C,0,-3.191,-0.535431,-1.
 25266\C,0,-2.78788,-1.11815,0.126078\C,0,-0.849291,-0.0549803,1.42693\
 C,0,1.51705,0.247608,0.6215\H,0,1.70405,-2.35212,1.83724\H,0,1.89243,3

 Normal termination of Gaussian 16 at Tue Apr  8 21:37:36 2025.
