 Gaussian 16, Revision C.01,

 ----------------------------------------------------------------------
 #t hf aug-cc-pvdz symm=none int=(grid=ultrafine) guess=(read,tcheck) s
 table=(opt,rrhf)
 ----------------------------------------------------------------------
 -----
 title
 -----
 Symbolic Z-matrix:
 Charge =  0 Multiplicity = 1

 SCF Done:  E(RHF) =  -522.615645047     A.U. after   13 cycles
 Normal termination of Gaussian 16 at Tue Apr  8 22:12:25 2025.
 Gaussian 16:  ES64L-G16RevC.01  3-Jul-2019

 ----------------------------------------------------------------------
 #t hf aug-cc-pvdz iop(5/13=1,5/36=2,99/5=2) pseudo=read geom=check gue
 ss=(read,tcheck) scf=(maxcycle=1)
 ----------------------------------------------------------------------
 -----
 title
 -----
 Structure from the checkpoint file:  "ANI1ccx_922_conf6_mol1.chk"
 Charge =  0 Multiplicity = 1

                         Standard orientation:
 ---------------------------------------------------------------------
 Center     Atomic      Atomic             Coordinates (Angstroms)
 Number     Number       Type             X           Y           Z
 ---------------------------------------------------------------------
      1          6           0        1.969631   -0.010663   -0.232393
      2          6           0        0.012145   -0.735624    0.793408
      3          6           0       -1.941499   -0.029795   -0.301420
      4          6           0       -0.003498    0.791501    0.771158
      5          1           0        1.594272   -2.014649   -0.116781
      6          1           0       -0.074599   -1.043510    1.842100
      7          1           0       -1.633818   -1.988430    0.227068
      8          1           0       -1.670909    2.034950    0.087164
      9          1           0       -0.062664    1.138540    1.828070
     10          1           0        1.347031    2.032801   -0.352232
     11          7           0        1.299642   -1.090429    0.281769
     12          7           0       -1.119108   -1.144380   -0.018905
     13          7           0       -1.253689    1.131210    0.091615
     14          7           0        1.242321    1.153091    0.145649
     15          8           0        2.971051   -0.010805   -0.893118
     16          8           0       -3.084069   -0.064027   -0.756981
 ---------------------------------------------------------------------

 SCF Done:  E(RHF) =  -524.887302157     A.U. after    2 cycles

 The electronic state is 1-A.
 Alpha  occ. eigenvalues --  -21.03756 -21.03298 -15.78255 -15.77961 -15.77366
 Alpha  occ. eigenvalues --  -15.76756 -11.60399 -11.52444 -11.51341 -11.45253
 Alpha  occ. eigenvalues --   -1.73614  -1.71526  -1.57312  -1.41388  -1.36796
 Alpha  occ. eigenvalues --   -1.27545  -1.08183  -0.90960  -0.89773  -0.83845
 Alpha  occ. eigenvalues --   -0.76646  -0.72953  -0.64834  -0.63813  -0.63391
 Alpha  occ. eigenvalues --   -0.60405  -0.58615  -0.57134  -0.52431  -0.50336
 Alpha  occ. eigenvalues --   -0.48884  -0.38828  -0.37798  -0.33610  -0.32070
 Alpha  occ. eigenvalues --   -0.30667  -0.29467
 Alpha virt. eigenvalues --    0.02719   0.04316   0.04500   0.05781   0.05962
 Alpha virt. eigenvalues --    0.06295   0.09156   0.10069   0.11050   0.11381
 Alpha virt. eigenvalues --    0.11794   0.12330   0.12445   0.13022   0.13073

 Mulliken charges:
               1
     1  C    5.271798
     2  C    0.280646
     3  C    5.034785
     4  C   -0.241428
     5  H    0.551704
     6  H    1.726884
     7  H    0.597624
     8  H    0.673781
     9  H    1.623396
    10  H    0.566878
    11  N   -2.385388
    12  N   -2.548343
    13  N   -2.316547
    14  N   -2.330471
    15  O   -3.324703
    16  O   -3.180616
 Sum of Mulliken charges =   0.00000

 Dipole moment (field-independent basis, Debye):
    X=             -0.7917    Y=              0.1376    Z=              2.5156  Tot=              2.6408

 Test job not archived.
 1\1\GINC-SE109\SP\RHF\Aug-CC-pVDZ\C4H6N4O2\OHZDE\08-Apr-2025\0\\#t hf
 aug-cc-pvdz iop(5/13=1,5/36=2,99/5=2) pseudo=read geom=check guess=(re
 ad,tcheck) scf=(maxcycle=1)\\title\\0,1\C,0,1.96963,-0.0106641,-0.2323
 93\C,0,0.0121435,-0.735625,0.793408\C,0,-1.9415,-0.0297946,-0.30142\C,
 0,-0.00349924,0.7915,0.771158\H,0,1.59427,-2.01465,-0.116781\H,0,-0.07
 4601,-1.04351,1.8421\H,0,-1.63382,-1.98843,0.227068\H,0,-1.67091,2.034
 95,0.087164\H,0,-0.0626647,1.13854,1.82807\H,0,1.34703,2.0328,-0.35223
 2\N,0,1.29964,-1.09043,0.281769\N,0,-1.11911,-1.14438,-0.0189046\N,0,-

 Normal termination of Gaussian 16 at Tue Apr  8 22:12:33 2025.
