 Gaussian 16, Revision C.01,

 ----------------------------------------------------------------------
 #t hf aug-cc-pvdz symm=none int=(grid=ultrafine) guess=(read,tcheck) s
 table=(opt,rrhf)
 ----------------------------------------------------------------------
 -----
 title
 -----
 Symbolic Z-matrix:
 Charge =  0 Multiplicity = 1

 SCF Done:  E(RHF) =  -598.342084964     A.U. after   16 cycles
 Normal termination of Gaussian 16 at Tue Apr  8 19:33:21 2025.
 Gaussian 16:  ES64L-G16RevC.01  3-Jul-2019

 ----------------------------------------------------------------------
 #t hf aug-cc-pvdz iop(5/13=1,5/36=2,99/5=2) pseudo=read geom=check gue
 ss=(read,tcheck) scf=(maxcycle=1)
 ----------------------------------------------------------------------
 -----
 title
 -----
 Structure from the checkpoint file:  "ANI1ccx_1320_conf7_mol1.chk"
 Charge =  0 Multiplicity = 1

                         Standard orientation:
 ---------------------------------------------------------------------
 Center     Atomic      Atomic             Coordinates (Angstroms)
 Number     Number       Type             X           Y           Z
 ---------------------------------------------------------------------
      1          6           0        1.524151   -2.203578    0.180361
      2          6           0       -0.416579   -0.775271   -0.038168
      3          6           0       -2.482050   -1.227402   -0.121151
      4          6           0       -1.084531    0.432905    0.082830
      5          6           0       -0.286671    1.723670    0.041970
      6          6           0        1.771279    0.232193   -0.055996
      7          1           0        1.715867    2.274112   -0.161130
      8          1           0       -3.227971    0.747442   -0.041250
      9          1           0       -3.385479   -1.803222   -0.209981
     10          1           0        2.189461   -2.286778   -0.655856
     11          1           0        0.733510   -2.976009    0.145474
     12          1           0        2.105571   -2.292858    1.124380
     13          7           0        0.930267   -0.860721    0.093975
     14          7           0       -1.286989   -1.788291   -0.165170
     15          7           0       -2.428011    0.130260    0.110670
     16          7           0        1.072598    1.489811   -0.121483
     17          8           0       -0.737789    2.844450    0.093670
     18          8           0        2.950339    0.211149   -0.114501
 ---------------------------------------------------------------------

 SCF Done:  E(RHF) =  -600.976764219     A.U. after    2 cycles

 The electronic state is 1-A.
 Alpha  occ. eigenvalues --  -21.05285 -21.04214 -15.83296 -15.79025 -15.78628
 Alpha  occ. eigenvalues --  -15.75155 -11.54835 -11.54068 -11.50873 -11.47221
 Alpha  occ. eigenvalues --  -11.42330 -11.41292  -1.76566  -1.72432  -1.61071
 Alpha  occ. eigenvalues --   -1.47309  -1.37705  -1.30062  -1.13181  -1.03761
 Alpha  occ. eigenvalues --   -0.95006  -0.89735  -0.85242  -0.78500  -0.73995
 Alpha  occ. eigenvalues --   -0.69308  -0.67466  -0.62842  -0.62357  -0.60295
 Alpha  occ. eigenvalues --   -0.58440  -0.57492  -0.55320  -0.53935  -0.50928
 Alpha  occ. eigenvalues --   -0.50092  -0.44296  -0.42339  -0.38393  -0.34437
 Alpha  occ. eigenvalues --   -0.32996  -0.29140  -0.26974
 Alpha virt. eigenvalues --    0.02800   0.04639   0.05280   0.06568   0.06768
 Alpha virt. eigenvalues --    0.07019   0.08231   0.08707   0.10159   0.10531
 Alpha virt. eigenvalues --    0.10897   0.11670   0.12011   0.12530   0.13151

 Mulliken charges:
               1
     1  C   -3.908950
     2  C    4.511700
     3  C    0.163649
     4  C    1.315411
     5  C    5.952307
     6  C    5.052898
     7  H    0.588906
     8  H    0.817140
     9  H    1.633813
    10  H    1.433019
    11  H    1.323510
    12  H    1.397152
    13  N   -3.370956
    14  N   -3.607595
    15  N   -3.542261
    16  N   -2.619162
    17  O   -3.788952
    18  O   -3.351629
 Sum of Mulliken charges =   0.00000

 Dipole moment (field-independent basis, Debye):
    X=             -2.8516    Y=             -1.3010    Z=             -0.0326  Tot=              3.1345

 Test job not archived.
 1\1\GINC-SE365\SP\RHF\Aug-CC-pVDZ\C6H6N4O2\OHZDE\08-Apr-2025\0\\#t hf
 aug-cc-pvdz iop(5/13=1,5/36=2,99/5=2) pseudo=read geom=check guess=(re
 ad,tcheck) scf=(maxcycle=1)\\title\\0,1\C,0,1.52415,-2.20358,0.180361\
 C,0,-0.416579,-0.775271,-0.0381684\C,0,-2.48205,-1.2274,-0.121151\C,0,
 -1.08453,0.432906,0.0828295\C,0,-0.286669,1.72367,0.0419695\C,0,1.7712
 8,0.232191,-0.0559965\H,0,1.71587,2.27411,-0.16113\H,0,-3.22797,0.7474
 44,-0.0412505\H,0,-3.38548,-1.80322,-0.209981\H,0,2.18946,-2.28678,-0.
 655856\H,0,0.733508,-2.97601,0.145474\H,0,2.10557,-2.29286,1.12438\N,0

 Normal termination of Gaussian 16 at Tue Apr  8 19:33:36 2025.
