 Gaussian 16, Revision C.01,

 ----------------------------------------------------------------------
 #t hf aug-cc-pvdz symm=none int=(grid=ultrafine) guess=(read,tcheck) s
 table=(opt,rrhf)
 ----------------------------------------------------------------------
 -----
 title
 -----
 Symbolic Z-matrix:
 Charge =  0 Multiplicity = 1

 SCF Done:  E(RHF) =  -456.252470983     A.U. after   11 cycles
 Normal termination of Gaussian 16 at Tue Apr  8 21:08:41 2025.
 Gaussian 16:  ES64L-G16RevC.01  3-Jul-2019

 ----------------------------------------------------------------------
 #t hf aug-cc-pvdz iop(5/13=1,5/36=2,99/5=2) pseudo=read geom=check gue
 ss=(read,tcheck) scf=(maxcycle=1)
 ----------------------------------------------------------------------
 -----
 title
 -----
 Structure from the checkpoint file:  "ANI1ccx_1844_conf225_mol1.chk"
 Charge =  0 Multiplicity = 1

                         Standard orientation:
 ---------------------------------------------------------------------
 Center     Atomic      Atomic             Coordinates (Angstroms)
 Number     Number       Type             X           Y           Z
 ---------------------------------------------------------------------
      1          1           0        1.268552    2.401139    1.524560
      2          1           0        2.166605   -0.748117   -0.273785
      3          1           0        3.291218    0.255500   -0.738330
      4          1           0       -1.779450   -1.393564    0.464532
      5          1           0       -0.700710   -1.633106    1.578160
      6          1           0        0.228439   -1.961479   -0.265366
      7          1           0        1.632450    1.331932    0.333704
      8          1           0        1.333273   -3.068580   -0.441490
      9          1           0       -1.426432    2.900759   -0.631374
     10          1           0       -0.300744    2.015517   -0.167931
     11          1           0       -2.175506    0.723534   -0.182849
     12          1           0       -3.001367   -0.402247   -0.946865
     13          8           0       -1.104315   -2.072109    0.704466
     14          8           0       -1.171425    2.001201   -0.622438
     15          8           0        2.726029    0.044713    0.025434
     16          8           0        1.148216   -2.121912   -0.673092
     17          8           0        1.106574    2.159888    0.541315
     18          8           0       -2.772120   -0.064442   -0.007305
 ---------------------------------------------------------------------

 SCF Done:  E(RHF) =  -458.248279693     A.U. after    2 cycles

 The electronic state is 1-A.
 Alpha  occ. eigenvalues --  -21.08414 -21.08178 -21.08123 -21.07792 -21.07063
 Alpha  occ. eigenvalues --  -21.07017  -1.69208  -1.67055  -1.66479  -1.63374
 Alpha  occ. eigenvalues --   -1.63029  -1.61592  -0.65386  -0.64201  -0.63966
 Alpha  occ. eigenvalues --   -0.63831  -0.62665  -0.60771  -0.53263  -0.50984
 Alpha  occ. eigenvalues --   -0.49468  -0.44558  -0.43432  -0.40597  -0.35910
 Alpha  occ. eigenvalues --   -0.35185  -0.34324  -0.33612  -0.33456  -0.33084
 Alpha virt. eigenvalues --    0.03741   0.04877   0.05225   0.05531   0.06337
 Alpha virt. eigenvalues --    0.06755   0.08770   0.09065   0.09454   0.10075
 Alpha virt. eigenvalues --    0.11067   0.11349   0.18298   0.19339   0.19544

 Mulliken charges:
               1
     1  H    0.793907
     2  H    1.490023
     3  H    0.774309
     4  H    1.610032
     5  H    0.696547
     6  H    1.640159
     7  H    1.626770
     8  H    0.819772
     9  H    0.831998
    10  H    1.747926
    11  H    1.679583
    12  H    0.734958
    13  O   -2.452010
    14  O   -2.442398
    15  O   -2.268147
    16  O   -2.420262
    17  O   -2.599926
    18  O   -2.263239
 Sum of Mulliken charges =  -0.00000

 Dipole moment (field-independent basis, Debye):
    X=              0.6470    Y=              0.5844    Z=              0.2225  Tot=              0.8998

 Test job not archived.
 1\1\GINC-SE030\SP\RHF\Aug-CC-pVDZ\H12O6\OHZDE\08-Apr-2025\0\\#t hf aug
 -cc-pvdz iop(5/13=1,5/36=2,99/5=2) pseudo=read geom=check guess=(read,
 tcheck) scf=(maxcycle=1)\\title\\0,1\H,0,1.26857,2.40113,1.52456\H,0,2
 .1666,-0.748133,-0.273785\H,0,3.29122,0.255476,-0.73833\H,0,-1.77946,-
 1.39355,0.464532\H,0,-0.700722,-1.6331,1.57816\H,0,0.228424,-1.96148,-
 0.265366\H,0,1.63246,1.33192,0.333704\H,0,1.33325,-3.06859,-0.44149\H,
 0,-1.42641,2.90077,-0.631374\H,0,-0.300729,2.01552,-0.167931\H,0,-2.17
 55,0.723551,-0.182849\H,0,-3.00137,-0.402224,-0.946865\O,0,-1.10433,-2

 Normal termination of Gaussian 16 at Tue Apr  8 21:08:46 2025.
