 Gaussian 16, Revision C.01,

 ----------------------------------------------------------------------
 #t hf aug-cc-pvdz symm=none int=(grid=ultrafine) guess=(read,tcheck) s
 table=(opt,rrhf)
 ----------------------------------------------------------------------
 -----
 title
 -----
 Symbolic Z-matrix:
 Charge =  0 Multiplicity = 1

 SCF Done:  E(RHF) =  -480.055060370     A.U. after   16 cycles
 Normal termination of Gaussian 16 at Tue Apr  8 21:42:13 2025.
 Gaussian 16:  ES64L-G16RevC.01  3-Jul-2019

 ----------------------------------------------------------------------
 #t hf aug-cc-pvdz iop(5/13=1,5/36=2,99/5=2) pseudo=read geom=check gue
 ss=(read,tcheck) scf=(maxcycle=1)
 ----------------------------------------------------------------------
 -----
 title
 -----
 Structure from the checkpoint file:  "ANI1ccx_456_conf2_mol1.chk"
 Charge =  0 Multiplicity = 1

                         Standard orientation:
 ---------------------------------------------------------------------
 Center     Atomic      Atomic             Coordinates (Angstroms)
 Number     Number       Type             X           Y           Z
 ---------------------------------------------------------------------
      1          6           0       -0.043549    0.127747   -0.094268
      2          7           0        1.402961   -0.007477   -0.005537
      3          7           0       -0.836459    1.167290    0.080981
      4          7           0       -2.065438    0.583172    0.080927
      5          7           0       -2.020479   -0.657221   -0.024349
      6          8           0        1.814411   -1.122712    0.135315
      7          8           0        1.963962    1.082808   -0.075786
      8          8           0       -0.666223   -1.005950   -0.104347
 ---------------------------------------------------------------------

 SCF Done:  E(RHF) =  -482.041337758     A.U. after    2 cycles

 The electronic state is 1-A.
 Alpha  occ. eigenvalues --  -21.22226 -21.16963 -21.15313 -16.07482 -15.90006
 Alpha  occ. eigenvalues --  -15.87549 -15.84429 -11.57674  -2.08893  -2.02060
 Alpha  occ. eigenvalues --   -1.76958  -1.60640  -1.39723  -1.14721  -0.95835
 Alpha  occ. eigenvalues --   -0.86590  -0.80086  -0.78339  -0.70469  -0.67253
 Alpha  occ. eigenvalues --   -0.66777  -0.55596  -0.49426  -0.48517  -0.46571
 Alpha  occ. eigenvalues --   -0.45757  -0.39859  -0.37464  -0.36833
 Alpha virt. eigenvalues --    0.05533   0.06976   0.09532   0.10142   0.10803
 Alpha virt. eigenvalues --    0.12305   0.12692   0.12965   0.13944   0.15461
 Alpha virt. eigenvalues --    0.16693   0.17533   0.18547   0.19125   0.20024

 Mulliken charges:
               1
     1  C    4.662215
     2  N    3.970850
     3  N   -1.905141
     4  N    0.892382
     5  N    0.475704
     6  O   -2.817294
     7  O   -2.786921
     8  O   -2.491795
 Sum of Mulliken charges =   0.00000

 Dipole moment (field-independent basis, Debye):
    X=              0.8833    Y=             -1.4129    Z=             -0.1988  Tot=              1.6781

 Test job not archived.
 1\1\GINC-SE186\SP\RHF\Aug-CC-pVDZ\C1N4O3\OHZDE\08-Apr-2025\0\\#t hf au
 g-cc-pvdz iop(5/13=1,5/36=2,99/5=2) pseudo=read geom=check guess=(read
 ,tcheck) scf=(maxcycle=1)\\title\\0,1\C,0,-0.0435503,0.127748,-0.09426
 81\N,0,1.40296,-0.00747506,-0.00553697\N,0,-0.836461,1.16729,0.0809807
 \N,0,-2.06544,0.583171,0.0809271\N,0,-2.02048,-0.657222,-0.0243495\O,0
 ,1.81441,-1.12271,0.135315\O,0,1.96396,1.08281,-0.0757856\O,0,-0.66622
 4,-1.00595,-0.104347\\Version=ES64L-G16RevC.01\State=1-A\HF=-482.04133
 78\RMSD=9.841e-02\Dipole=0.3475265,-0.5558781,-0.0782262\Quadrupole=-2

 Normal termination of Gaussian 16 at Tue Apr  8 21:42:17 2025.
