 Gaussian 16, Revision C.01,

 ----------------------------------------------------------------------
 #t hf aug-cc-pvdz symm=none int=(grid=ultrafine) guess=(read,tcheck) s
 table=(opt,rrhf)
 ----------------------------------------------------------------------
 -----
 title
 -----
 Symbolic Z-matrix:
 Charge =  0 Multiplicity = 1

 SCF Done:  E(RHF) =  -408.776416157     A.U. after   13 cycles
 Normal termination of Gaussian 16 at Tue Apr  8 21:41:01 2025.
 Gaussian 16:  ES64L-G16RevC.01  3-Jul-2019

 ----------------------------------------------------------------------
 #t hf aug-cc-pvdz iop(5/13=1,5/36=2,99/5=2) pseudo=read geom=check gue
 ss=(read,tcheck) scf=(maxcycle=1)
 ----------------------------------------------------------------------
 -----
 title
 -----
 Structure from the checkpoint file:  "ANI1ccx_432_conf2_mol1.chk"
 Charge =  0 Multiplicity = 1

                         Standard orientation:
 ---------------------------------------------------------------------
 Center     Atomic      Atomic             Coordinates (Angstroms)
 Number     Number       Type             X           Y           Z
 ---------------------------------------------------------------------
      1          6           0       -0.274051   -0.247492    0.097193
      2          1           0        1.119748    1.808711    1.216250
      3          1           0        1.454827    2.452252   -0.291089
      4          1           0       -0.735078    1.602719   -0.416263
      5          1           0        0.524862   -2.069160    0.499029
      6          1           0        2.484611   -0.532257   -0.015462
      7          1           0       -3.242249   -0.202595   -0.053072
      8          7           0        1.247498    1.583112    0.223608
      9          7           0        0.044876    0.992276   -0.238579
     10          7           0        0.776427   -1.119799    0.437897
     11          7           0       -1.437698   -0.759465    0.180378
     12          8           0        1.829212   -1.013078   -0.522430
     13          8           0       -2.376730    0.207130   -0.195781
 ---------------------------------------------------------------------

 SCF Done:  E(RHF) =  -410.557031545     A.U. after    2 cycles

 The electronic state is 1-A.
 Alpha  occ. eigenvalues --  -21.08782 -21.07797 -15.78469 -15.77637 -15.77577
 Alpha  occ. eigenvalues --  -15.73031 -11.46371  -1.79339  -1.76208  -1.51494
 Alpha  occ. eigenvalues --   -1.32793  -1.15536  -1.10282  -0.84384  -0.70321
 Alpha  occ. eigenvalues --   -0.69862  -0.65790  -0.62571  -0.60801  -0.56249
 Alpha  occ. eigenvalues --   -0.55396  -0.50808  -0.45359  -0.38809  -0.35623
 Alpha  occ. eigenvalues --   -0.35070  -0.32218  -0.24287
 Alpha virt. eigenvalues --    0.03563   0.05300   0.05527   0.06090   0.06802
 Alpha virt. eigenvalues --    0.07515   0.12321   0.13122   0.14037   0.14552
 Alpha virt. eigenvalues --    0.15674   0.16545   0.17915   0.18021   0.18733

 Mulliken charges:
               1
     1  C    5.199578
     2  H    0.579563
     3  H    0.719141
     4  H    0.712111
     5  H    0.754221
     6  H    0.817429
     7  H    0.895071
     8  N   -1.959970
     9  N   -1.555913
    10  N   -0.756996
    11  N   -0.657706
    12  O   -2.260462
    13  O   -2.486067
 Sum of Mulliken charges =   0.00000

 Dipole moment (field-independent basis, Debye):
    X=              0.9309    Y=              2.7882    Z=              0.2244  Tot=              2.9481

 Test job not archived.
 1\1\GINC-SE094\SP\RHF\Aug-CC-pVDZ\C1H6N4O2\OHZDE\08-Apr-2025\0\\#t hf
 aug-cc-pvdz iop(5/13=1,5/36=2,99/5=2) pseudo=read geom=check guess=(re
 ad,tcheck) scf=(maxcycle=1)\\title\\0,1\C,0,-0.274052,-0.247491,0.0971
 933\H,0,1.11975,1.80871,1.21625\H,0,1.45483,2.45225,-0.291089\H,0,-0.7
 35076,1.60272,-0.416263\H,0,0.524858,-2.06916,0.499029\H,0,2.48461,-0.
 53226,-0.0154626\H,0,-3.24225,-0.20259,-0.0530721\N,0,1.2475,1.58311,0
 .223608\N,0,0.0448772,0.992276,-0.238579\N,0,0.776425,-1.1198,0.437897
 \N,0,-1.4377,-0.759463,0.180378\O,0,1.82921,-1.01308,-0.52243\O,0,-2.3

 Normal termination of Gaussian 16 at Tue Apr  8 21:41:05 2025.
