 Gaussian 16, Revision C.01,

 ----------------------------------------------------------------------
 #t hf aug-cc-pvdz symm=none int=(grid=ultrafine) guess=(read,tcheck) s
 table=(opt,rrhf)
 ----------------------------------------------------------------------
 -----
 title
 -----
 Symbolic Z-matrix:
 Charge =  0 Multiplicity = 1

 SCF Done:  E(RHF) =  -689.302737940     A.U. after   15 cycles
 Normal termination of Gaussian 16 at Tue Apr  8 21:57:57 2025.
 Gaussian 16:  ES64L-G16RevC.01  3-Jul-2019

 ----------------------------------------------------------------------
 #t hf aug-cc-pvdz iop(5/13=1,5/36=2,99/5=2) pseudo=read geom=check gue
 ss=(read,tcheck) scf=(maxcycle=1)
 ----------------------------------------------------------------------
 -----
 title
 -----
 Structure from the checkpoint file:  "ANI1ccx_756_conf7_mol1.chk"
 Charge =  0 Multiplicity = 1

                         Standard orientation:
 ---------------------------------------------------------------------
 Center     Atomic      Atomic             Coordinates (Angstroms)
 Number     Number       Type             X           Y           Z
 ---------------------------------------------------------------------
      1          6           0       -2.714811   -0.165223   -0.189138
      2          6           0        0.180157    1.572510    0.561286
      3          6           0        1.877559    0.177695    0.001150
      4          1           0        3.969899    0.884963    0.498860
      5          1           0       -0.211940    2.446069    1.102330
      6          1           0       -0.228698    0.259385   -0.965391
      7          1           0        3.241050   -1.606389   -0.607632
      8          1           0       -2.643130   -2.051602    0.376313
      9          1           0       -0.167888   -1.292981    0.556620
     10          1           0       -2.446412    1.629558   -1.102370
     11          7           0       -2.034170   -1.261122    0.256145
     12          7           0       -2.035961    1.089498   -0.313422
     13          7           0       -0.670053    1.000099   -0.393750
     14          7           0        1.414729    1.248640    0.726056
     15          7           0        3.203859    0.289467   -0.227332
     16          8           0        1.293430   -0.854907   -0.405221
     17          8           0       -1.009940   -1.273911    1.165100
     18          8           0       -3.834891   -0.209729   -0.597375
     19          8           0        3.961510   -0.954576   -0.466556
 ---------------------------------------------------------------------

 SCF Done:  E(RHF) =  -692.263578977     A.U. after    2 cycles

 The electronic state is 1-A.
 Alpha  occ. eigenvalues --  -21.11622 -21.10244 -21.06681 -21.04098 -15.81890
 Alpha  occ. eigenvalues --  -15.80978 -15.80414 -15.80284 -15.75893 -11.53989
 Alpha  occ. eigenvalues --  -11.52248 -11.51324  -1.82012  -1.80168  -1.73924
 Alpha  occ. eigenvalues --   -1.71675  -1.56412  -1.42898  -1.27822  -1.24422
 Alpha  occ. eigenvalues --   -1.16503  -0.95058  -0.87777  -0.82590  -0.75102
 Alpha  occ. eigenvalues --   -0.73501  -0.69149  -0.66288  -0.64649  -0.63676
 Alpha  occ. eigenvalues --   -0.62537  -0.62035  -0.56792  -0.54699  -0.52194
 Alpha  occ. eigenvalues --   -0.50469  -0.48244  -0.45005  -0.44023  -0.39494
 Alpha  occ. eigenvalues --   -0.37694  -0.35582  -0.34402  -0.31255  -0.30076
 Alpha  occ. eigenvalues --   -0.29261
 Alpha virt. eigenvalues --    0.03673   0.04837   0.05191   0.05913   0.06005
 Alpha virt. eigenvalues --    0.06919   0.08296   0.08720   0.10110   0.10743
 Alpha virt. eigenvalues --    0.11524   0.12412   0.13016   0.13215   0.13944

 Mulliken charges:
               1
     1  C    5.435253
     2  C    1.565794
     3  C    5.185855
     4  H    0.604452
     5  H    1.878031
     6  H    0.733458
     7  H    0.895549
     8  H    0.713414
     9  H    1.201368
    10  H    0.593834
    11  N   -0.304119
    12  N   -1.448710
    13  N   -2.122940
    14  N   -3.173057
    15  N   -1.307979
    16  O   -2.587777
    17  O   -2.787696
    18  O   -3.070048
    19  O   -2.004682
 Sum of Mulliken charges =  -0.00000

 Dipole moment (field-independent basis, Debye):
    X=              1.1605    Y=              0.4767    Z=              0.1646  Tot=              1.2654

 Test job not archived.
 1\1\GINC-SE453\SP\RHF\Aug-CC-pVDZ\C3H7N5O4\OHZDE\08-Apr-2025\0\\#t hf
 aug-cc-pvdz iop(5/13=1,5/36=2,99/5=2) pseudo=read geom=check guess=(re
 ad,tcheck) scf=(maxcycle=1)\\title\\0,1\C,0,-2.71481,-0.165221,-0.1891
 38\C,0,0.180159,1.57251,0.561286\C,0,1.87756,0.177695,0.00114999\H,0,3
 .9699,0.884962,0.49886\H,0,-0.211938,2.44607,1.10233\H,0,-0.228697,0.2
 59386,-0.965391\H,0,3.24105,-1.60639,-0.607632\H,0,-2.64313,-2.0516,0.
 376313\H,0,-0.167888,-1.29298,0.55662\H,0,-2.44641,1.62956,-1.10237\N,
 0,-2.03417,-1.26112,0.256145\N,0,-2.03596,1.0895,-0.313422\N,0,-0.6700

 Normal termination of Gaussian 16 at Tue Apr  8 21:58:08 2025.
