 Gaussian 16, Revision C.01,

 ----------------------------------------------------------------------
 #t hf aug-cc-pvdz symm=none int=(grid=ultrafine) guess=(read,tcheck) s
 table=(opt,rrhf)
 ----------------------------------------------------------------------
 -----
 title
 -----
 Symbolic Z-matrix:
 Charge =  0 Multiplicity = 1

 SCF Done:  E(RHF) =  -510.378366596     A.U. after   14 cycles
 Normal termination of Gaussian 16 at Tue Apr  8 19:35:39 2025.
 Gaussian 16:  ES64L-G16RevC.01  3-Jul-2019

 ----------------------------------------------------------------------
 #t hf aug-cc-pvdz iop(5/13=1,5/36=2,99/5=2) pseudo=read geom=check gue
 ss=(read,tcheck) scf=(maxcycle=1)
 ----------------------------------------------------------------------
 -----
 title
 -----
 Structure from the checkpoint file:  "ANI1ccx_1332_conf4_mol2.chk"
 Charge =  0 Multiplicity = 1

                         Standard orientation:
 ---------------------------------------------------------------------
 Center     Atomic      Atomic             Coordinates (Angstroms)
 Number     Number       Type             X           Y           Z
 ---------------------------------------------------------------------
      1          6           0       -1.064906    1.136552    0.076892
      2          6           0       -1.105893   -1.110688   -0.072079
      3          6           0        0.316978   -0.657242   -0.365429
      4          6           0        1.634617   -1.252855    0.044169
      5          6           0        1.684194    1.201654   -0.007163
      6          6           0        0.323990    0.677940    0.384891
      7          1           0        0.351257    0.497287    1.461730
      8          1           0        1.614415    1.664275   -1.015020
      9          1           0        2.078666    1.959903    0.671241
     10          1           0        1.675306   -1.572876    1.084720
     11          1           0        1.965754   -2.071976   -0.615199
     12          1           0        0.340581   -0.428407   -1.455220
     13          1           0        3.296240   -0.048339    0.470721
     14          7           0        2.479230   -0.040827   -0.134422
     15          8           0       -1.864400    0.009511   -0.007535
     16          8           0       -1.495273    2.222704   -0.116655
     17          8           0       -1.566666   -2.192996    0.120476
 ---------------------------------------------------------------------

 SCF Done:  E(RHF) =  -512.604036732     A.U. after    2 cycles

 The electronic state is 1-A.
 Alpha  occ. eigenvalues --  -21.13669 -21.08650 -21.07927 -15.74099 -11.56806
 Alpha  occ. eigenvalues --  -11.56059 -11.49558 -11.49024 -11.45919 -11.41524
 Alpha  occ. eigenvalues --   -1.92643  -1.74816  -1.67355  -1.47113  -1.22058
 Alpha  occ. eigenvalues --   -1.11813  -0.97673  -0.93238  -0.84703  -0.79333
 Alpha  occ. eigenvalues --   -0.74356  -0.67037  -0.65276  -0.62151  -0.60134
 Alpha  occ. eigenvalues --   -0.57769  -0.55404  -0.54313  -0.52960  -0.51366
 Alpha  occ. eigenvalues --   -0.50607  -0.45937  -0.44466  -0.35091  -0.34281
 Alpha  occ. eigenvalues --   -0.32300  -0.29989
 Alpha virt. eigenvalues --    0.03176   0.04178   0.04741   0.05058   0.05588
 Alpha virt. eigenvalues --    0.06026   0.07228   0.09320   0.09970   0.11397
 Alpha virt. eigenvalues --    0.11584   0.11948   0.11990   0.12767   0.13257

 Mulliken charges:
               1
     1  C    6.766810
     2  C    6.693298
     3  C   -1.703067
     4  C   -2.899889
     5  C   -2.584292
     6  C   -2.060719
     7  H    1.372431
     8  H    1.206225
     9  H    1.227207
    10  H    1.311894
    11  H    1.210487
    12  H    1.427969
    13  H    0.552825
    14  N   -1.741550
    15  O   -3.472236
    16  O   -3.681999
    17  O   -3.625395
 Sum of Mulliken charges =  -0.00000

 Dipole moment (field-independent basis, Debye):
    X=              2.8353    Y=              0.0361    Z=              0.9166  Tot=              2.9800

 Test job not archived.
 1\1\GINC-SE365\SP\RHF\Aug-CC-pVDZ\C6H7N1O3\OHZDE\08-Apr-2025\0\\#t hf
 aug-cc-pvdz iop(5/13=1,5/36=2,99/5=2) pseudo=read geom=check guess=(re
 ad,tcheck) scf=(maxcycle=1)\\title\\0,1\C,0,-1.06491,1.13655,0.0768919
 \C,0,-1.10589,-1.11069,-0.0720794\C,0,0.316979,-0.65724,-0.365429\C,0,
 1.63462,-1.25285,0.0441689\C,0,1.68419,1.20166,-0.00716303\C,0,0.32398
 8,0.677942,0.384891\H,0,0.351255,0.497289,1.46173\H,0,1.61441,1.66428,
 -1.01502\H,0,2.07866,1.95991,0.671241\H,0,1.67531,-1.57287,1.08472\H,0
 ,1.96576,-2.07197,-0.615199\H,0,0.340582,-0.428405,-1.45522\H,0,3.2962

 Normal termination of Gaussian 16 at Tue Apr  8 19:35:50 2025.
