 Gaussian 16, Revision C.01,

 ----------------------------------------------------------------------
 #t hf aug-cc-pvdz symm=none int=(grid=ultrafine) guess=(read,tcheck) s
 table=(opt,rrhf)
 ----------------------------------------------------------------------
 -----
 title
 -----
 Symbolic Z-matrix:
 Charge =  0 Multiplicity = 1

 SCF Done:  E(RHF) =  -318.603719696     A.U. after   17 cycles
 Normal termination of Gaussian 16 at Tue Apr  8 21:36:39 2025.
 Gaussian 16:  ES64L-G16RevC.01  3-Jul-2019

 ----------------------------------------------------------------------
 #t hf aug-cc-pvdz iop(5/13=1,5/36=2,99/5=2) pseudo=read geom=check gue
 ss=(read,tcheck) scf=(maxcycle=1)
 ----------------------------------------------------------------------
 -----
 title
 -----
 Structure from the checkpoint file:  "ANI1ccx_387_conf4_mol2.chk"
 Charge =  0 Multiplicity = 1

                         Standard orientation:
 ---------------------------------------------------------------------
 Center     Atomic      Atomic             Coordinates (Angstroms)
 Number     Number       Type             X           Y           Z
 ---------------------------------------------------------------------
      1          6           0        1.676950   -0.223247   -0.061301
      2          1           0        0.298376    1.079970    0.030350
      3          1           0        0.855857   -0.967969   -0.113815
      4          1           0       -2.429910   -1.099300    0.899980
      5          7           0       -2.243820   -0.232881    0.300322
      6          8           0        1.260050    1.015630    0.114356
      7          8           0        2.824670   -0.563222   -0.097246
      8          8           0       -3.219630    0.042209   -0.335981
 ---------------------------------------------------------------------

 SCF Done:  E(RHF) =  -319.904209546     A.U. after    2 cycles

 The electronic state is 1-A.
 Alpha  occ. eigenvalues --  -21.17923 -21.13937 -21.05935 -15.91086 -11.51296
 Alpha  occ. eigenvalues --   -1.89461  -1.83511  -1.66311  -1.06122  -0.86593
 Alpha  occ. eigenvalues --   -0.74203  -0.70008  -0.58583  -0.55467  -0.55282
 Alpha  occ. eigenvalues --   -0.53977  -0.47696  -0.34319  -0.32763  -0.31226
 Alpha virt. eigenvalues --    0.02923   0.05366   0.05711   0.08801   0.10071
 Alpha virt. eigenvalues --    0.12295   0.12511   0.13639   0.14849   0.16685
 Alpha virt. eigenvalues --    0.17418   0.17974   0.19289   0.20378   0.21248

 Mulliken charges:
               1
     1  C    2.581233
     2  H    1.065452
     3  H    1.375762
     4  H    0.827884
     5  N    0.844262
     6  O   -2.574212
     7  O   -2.486442
     8  O   -1.633939
 Sum of Mulliken charges =  -0.00000

 Dipole moment (field-independent basis, Debye):
    X=             -3.4187    Y=             -0.4560    Z=              0.4124  Tot=              3.4736

 Test job not archived.
 1\1\GINC-SE457\SP\RHF\Aug-CC-pVDZ\C1H3N1O3\OHZDE\08-Apr-2025\0\\#t hf
 aug-cc-pvdz iop(5/13=1,5/36=2,99/5=2) pseudo=read geom=check guess=(re
 ad,tcheck) scf=(maxcycle=1)\\title\\0,1\C,0,1.67695,-0.223247,-0.06130
 12\H,0,0.298376,1.07997,0.0303498\H,0,0.855857,-0.967969,-0.113815\H,0
 ,-2.42991,-1.0993,0.89998\N,0,-2.24382,-0.232881,0.300322\O,0,1.26005,
 1.01563,0.114356\O,0,2.82467,-0.563222,-0.0972462\O,0,-3.21963,0.04220
 93,-0.335981\\Version=ES64L-G16RevC.01\State=1-A\HF=-319.9042095\RMSD=
 4.894e-02\Dipole=-1.3450259,-0.1793863,0.162266\Quadrupole=-2.3810947,

 Normal termination of Gaussian 16 at Tue Apr  8 21:36:41 2025.
