 Gaussian 16, Revision C.01,

 ----------------------------------------------------------------------
 #t hf aug-cc-pvdz symm=none int=(grid=ultrafine) guess=(read,tcheck) s
 table=(opt,rrhf)
 ----------------------------------------------------------------------
 -----
 title
 -----
 Symbolic Z-matrix:
 Charge =  0 Multiplicity = 1

 SCF Done:  E(RHF) =  -276.588020690     A.U. after   14 cycles
 Normal termination of Gaussian 16 at Tue Apr  8 21:31:33 2025.
 Gaussian 16:  ES64L-G16RevC.01  3-Jul-2019

 ----------------------------------------------------------------------
 #t hf aug-cc-pvdz iop(5/13=1,5/36=2,99/5=2) pseudo=read geom=check gue
 ss=(read,tcheck) scf=(maxcycle=1)
 ----------------------------------------------------------------------
 -----
 title
 -----
 Structure from the checkpoint file:  "ANI1ccx_370_conf72_mol1.chk"
 Charge =  0 Multiplicity = 1

                         Standard orientation:
 ---------------------------------------------------------------------
 Center     Atomic      Atomic             Coordinates (Angstroms)
 Number     Number       Type             X           Y           Z
 ---------------------------------------------------------------------
      1          6           0       -1.038050    0.041808   -0.012857
      2          1           0       -2.132620   -0.014793    0.091737
      3          7           0       -0.357623    1.146057    0.013492
      4          7           0        0.953083    0.642272   -0.031593
      5          7           0        0.946961   -0.578848    0.045004
      6          8           0       -0.304502   -1.087802   -0.025365
 ---------------------------------------------------------------------

 SCF Done:  E(RHF) =  -277.753576339     A.U. after    2 cycles

 The electronic state is 1-A.
 Alpha  occ. eigenvalues --  -21.19189 -15.85737 -15.83558 -15.79954 -11.50197
 Alpha  occ. eigenvalues --   -2.01048  -1.56014  -1.34249  -0.91945  -0.89988
 Alpha  occ. eigenvalues --   -0.76485  -0.70876  -0.59418  -0.49971  -0.46726
 Alpha  occ. eigenvalues --   -0.44351  -0.43018  -0.41781
 Alpha virt. eigenvalues --    0.03209   0.09006   0.09390   0.09861   0.13231
 Alpha virt. eigenvalues --    0.13755   0.14620   0.14702   0.15944   0.17032
 Alpha virt. eigenvalues --    0.18650   0.19881   0.20491   0.22653   0.24952

 Mulliken charges:
               1
     1  C    1.403257
     2  H    1.581181
     3  N   -1.851956
     4  N    0.746286
     5  N    0.699963
     6  O   -2.578732
 Sum of Mulliken charges =  -0.00000

 Dipole moment (field-independent basis, Debye):
    X=             -2.6136    Y=             -1.6777    Z=              0.0266  Tot=              3.1059

 Test job not archived.
 1\1\GINC-SE404\SP\RHF\Aug-CC-pVDZ\C1H1N3O1\OHZDE\08-Apr-2025\0\\#t hf
 aug-cc-pvdz iop(5/13=1,5/36=2,99/5=2) pseudo=read geom=check guess=(re
 ad,tcheck) scf=(maxcycle=1)\\title\\0,1\C,0,-1.03805,0.0418153,-0.0128
 573\H,0,-2.13262,-0.0147787,0.0917373\N,0,-0.357616,1.14606,0.0134921\
 N,0,0.953087,0.642266,-0.0315927\N,0,0.946957,-0.578854,0.0450043\O,0,
 -0.304509,-1.0878,-0.025365\\Version=ES64L-G16RevC.01\State=1-A\HF=-27
 7.7535763\RMSD=1.025e-01\Dipole=-1.0282843,-0.6600446,0.0104639\Quadru
 pole=1.2847119,-2.1044884,0.8197765,0.781535,-0.1537137,0.0396244\PG=C

 Normal termination of Gaussian 16 at Tue Apr  8 21:31:34 2025.
