 Gaussian 16, Revision C.01,

 ----------------------------------------------------------------------
 #t hf aug-cc-pvdz symm=none int=(grid=ultrafine) guess=(read,tcheck) s
 table=(opt,rrhf)
 ----------------------------------------------------------------------
 -----
 title
 -----
 Symbolic Z-matrix:
 Charge =  0 Multiplicity = 1

 SCF Done:  E(RHF) =  -429.708705768     A.U. after   13 cycles
 Normal termination of Gaussian 16 at Tue Apr  8 21:54:03 2025.
 Gaussian 16:  ES64L-G16RevC.01  3-Jul-2019

 ----------------------------------------------------------------------
 #t hf aug-cc-pvdz iop(5/13=1,5/36=2,99/5=2) pseudo=read geom=check gue
 ss=(read,tcheck) scf=(maxcycle=1)
 ----------------------------------------------------------------------
 -----
 title
 -----
 Structure from the checkpoint file:  "ANI1ccx_712_conf2_mol2.chk"
 Charge =  0 Multiplicity = 1

                         Standard orientation:
 ---------------------------------------------------------------------
 Center     Atomic      Atomic             Coordinates (Angstroms)
 Number     Number       Type             X           Y           Z
 ---------------------------------------------------------------------
      1          6           0       -1.265110   -0.410083   -0.015821
      2          6           0        0.028708    1.697720    0.209296
      3          6           0        1.258690   -0.417779   -0.032553
      4          1           0       -2.064878    1.427223   -0.198636
      5          1           0        0.063838    1.824140    1.295520
      6          1           0       -0.012454    2.675860   -0.267071
      7          1           0        2.071912    1.399607   -0.111626
      8          1           0        0.009638   -2.022410    0.129969
      9          7           0       -1.202509    0.964325   -0.098258
     10          7           0        1.168071    0.957918   -0.266508
     11          7           0        0.001923   -1.023130    0.145581
     12          8           0       -2.293591   -1.052697   -0.049431
     13          8           0        2.296819   -1.049473    0.014507
 ---------------------------------------------------------------------

 SCF Done:  E(RHF) =  -431.569217968     A.U. after    2 cycles

 The electronic state is 1-A.
 Alpha  occ. eigenvalues --  -21.04884 -21.04209 -15.79455 -15.78551 -15.78509
 Alpha  occ. eigenvalues --  -11.54001 -11.52780 -11.47121  -1.74693  -1.72746
 Alpha  occ. eigenvalues --   -1.50991  -1.36295  -1.34183  -1.02562  -0.91871
 Alpha  occ. eigenvalues --   -0.84442  -0.71987  -0.71436  -0.68210  -0.62714
 Alpha  occ. eigenvalues --   -0.61555  -0.58918  -0.54837  -0.53047  -0.49868
 Alpha  occ. eigenvalues --   -0.38130  -0.35445  -0.34450  -0.31876  -0.29896
 Alpha virt. eigenvalues --    0.02595   0.04783   0.04929   0.05769   0.06959
 Alpha virt. eigenvalues --    0.09167   0.10481   0.10885   0.10978   0.12588
 Alpha virt. eigenvalues --    0.13555   0.13757   0.14574   0.14857   0.16109

 Mulliken charges:
               1
     1  C    5.038517
     2  C   -1.832082
     3  C    5.254095
     4  H    0.606142
     5  H    1.590778
     6  H    1.465652
     7  H    0.541794
     8  H    0.498335
     9  N   -2.220482
    10  N   -2.337520
    11  N   -2.426919
    12  O   -3.093282
    13  O   -3.085029
 Sum of Mulliken charges =  -0.00000

 Dipole moment (field-independent basis, Debye):
    X=              0.0724    Y=              3.4681    Z=              0.4891  Tot=              3.5031

 Test job not archived.
 1\1\GINC-SE126\SP\RHF\Aug-CC-pVDZ\C3H5N3O2\OHZDE\08-Apr-2025\0\\#t hf
 aug-cc-pvdz iop(5/13=1,5/36=2,99/5=2) pseudo=read geom=check guess=(re
 ad,tcheck) scf=(maxcycle=1)\\title\\0,1\C,0,-1.26511,-0.410085,-0.0158
 213\C,0,0.0287056,1.69772,0.209296\C,0,1.25869,-0.417777,-0.0325527\H,
 0,-2.06488,1.42722,-0.198636\H,0,0.063836,1.82414,1.29552\H,0,-0.01245
 69,2.67586,-0.267071\H,0,2.07191,1.39961,-0.111626\H,0,0.00964088,-2.0
 2241,0.129969\N,0,-1.20251,0.964324,-0.0982583\N,0,1.16807,0.957919,-0
 .266508\N,0,0.00192455,-1.02313,0.145581\O,0,-2.29359,-1.0527,-0.04943

 Normal termination of Gaussian 16 at Tue Apr  8 21:54:08 2025.
