 Gaussian 16, Revision C.01,

 ----------------------------------------------------------------------
 #t hf aug-cc-pvdz symm=none int=(grid=ultrafine) guess=(read,tcheck) s
 table=(opt,rrhf)
 ----------------------------------------------------------------------
 -----
 title
 -----
 Symbolic Z-matrix:
 Charge =  0 Multiplicity = 1

 SCF Done:  E(RHF) =  -506.644507681     A.U. after   17 cycles
 Normal termination of Gaussian 16 at Tue Apr  8 21:59:50 2025.
 Gaussian 16:  ES64L-G16RevC.01  3-Jul-2019

 ----------------------------------------------------------------------
 #t hf aug-cc-pvdz iop(5/13=1,5/36=2,99/5=2) pseudo=read geom=check gue
 ss=(read,tcheck) scf=(maxcycle=1)
 ----------------------------------------------------------------------
 -----
 title
 -----
 Structure from the checkpoint file:  "ANI1ccx_787_conf15_mol2.chk"
 Charge =  0 Multiplicity = 1

                         Standard orientation:
 ---------------------------------------------------------------------
 Center     Atomic      Atomic             Coordinates (Angstroms)
 Number     Number       Type             X           Y           Z
 ---------------------------------------------------------------------
      1          6           0        0.410628    1.635450   -0.647593
      2          6           0        1.180380    0.061843    1.161280
      3          6           0        1.993880   -0.909511    0.335659
      4          1           0       -1.820521   -1.146430   -0.991687
      5          1           0        3.150770   -0.776667   -1.244860
      6          1           0        2.676689   -1.433301    1.000210
      7          1           0        0.720190   -0.464160    2.034610
      8          1           0        1.305739   -1.654081   -0.092279
      9          1           0       -0.499587    2.183990   -0.894050
     10          1           0        1.191140    2.302769   -0.266993
     11          1           0        0.812989    1.124270   -1.510400
     12          1           0        1.831510    0.856583    1.518770
     13          7           0        0.086595    0.706180    0.439568
     14          7           0       -0.959691   -0.124413    0.195990
     15          7           0       -2.181270    0.278887    0.519017
     16          8           0       -0.868158   -0.963794   -0.885729
     17          8           0        2.729340   -0.152027   -0.619160
     18          8           0       -3.048390   -0.352209   -0.086540
 ---------------------------------------------------------------------

 SCF Done:  E(RHF) =  -508.892922103     A.U. after    2 cycles

 The electronic state is 1-A.
 Alpha  occ. eigenvalues --  -21.11393 -21.09058 -21.07679 -15.89524 -15.84099
 Alpha  occ. eigenvalues --  -15.75461 -11.46330 -11.39646 -11.39318  -1.94266
 Alpha  occ. eigenvalues --   -1.78779  -1.71854  -1.51357  -1.27455  -1.11412
 Alpha  occ. eigenvalues --   -1.00197  -0.91342  -0.79792  -0.74777  -0.70585
 Alpha  occ. eigenvalues --   -0.70495  -0.65192  -0.64309  -0.59201  -0.57935
 Alpha  occ. eigenvalues --   -0.56237  -0.53078  -0.50971  -0.49799  -0.46398
 Alpha  occ. eigenvalues --   -0.44030  -0.42220  -0.35333  -0.32568  -0.30245
 Alpha  occ. eigenvalues --   -0.28247
 Alpha virt. eigenvalues --    0.03817   0.05197   0.05329   0.05592   0.06001
 Alpha virt. eigenvalues --    0.06371   0.06709   0.07535   0.08437   0.12074
 Alpha virt. eigenvalues --    0.12373   0.12901   0.13456   0.13771   0.14331

 Mulliken charges:
               1
     1  C   -3.742129
     2  C   -2.631127
     3  C   -0.598035
     4  H    1.092842
     5  H    0.770927
     6  H    1.327335
     7  H    1.447237
     8  H    1.661453
     9  H    1.350112
    10  H    1.323240
    11  H    1.685330
    12  H    1.577233
    13  N   -0.767826
    14  N    2.373892
    15  N    1.261934
    16  O   -3.229085
    17  O   -2.628008
    18  O   -2.275324
 Sum of Mulliken charges =  -0.00000

 Dipole moment (field-independent basis, Debye):
    X=              2.7811    Y=             -0.6571    Z=             -1.0080  Tot=              3.0302

 Test job not archived.
 1\1\GINC-SE058\SP\RHF\Aug-CC-pVDZ\C3H9N3O3\OHZDE\08-Apr-2025\0\\#t hf
 aug-cc-pvdz iop(5/13=1,5/36=2,99/5=2) pseudo=read geom=check guess=(re
 ad,tcheck) scf=(maxcycle=1)\\title\\0,1\C,0,0.410628,1.63545,-0.647593
 \C,0,1.18038,0.0618436,1.16128\C,0,1.99388,-0.90951,0.335659\H,0,-1.82
 052,-1.14643,-0.991687\H,0,3.15077,-0.776666,-1.24486\H,0,2.67669,-1.4
 333,1.00021\H,0,0.72019,-0.46416,2.03461\H,0,1.30574,-1.65408,-0.09227
 9\H,0,-0.499587,2.18399,-0.89405\H,0,1.19114,2.30277,-0.266993\H,0,0.8
 12989,1.12427,-1.5104\H,0,1.83151,0.856584,1.51877\N,0,0.0865952,0.706

 Normal termination of Gaussian 16 at Tue Apr  8 21:59:58 2025.
