 Gaussian 16, Revision C.01,

 ----------------------------------------------------------------------
 #t hf aug-cc-pvdz symm=none int=(grid=ultrafine) guess=(read,tcheck) s
 table=(opt,rrhf)
 ----------------------------------------------------------------------
 -----
 title
 -----
 Symbolic Z-matrix:
 Charge =  0 Multiplicity = 1

 SCF Done:  E(RHF) =  -986.105637358     A.U. after   16 cycles
 Normal termination of Gaussian 16 at Tue Apr  8 21:44:39 2025.
 Gaussian 16:  ES64L-G16RevC.01  3-Jul-2019

 ----------------------------------------------------------------------
 #t hf aug-cc-pvdz iop(5/13=1,5/36=2,99/5=2) pseudo=read geom=check gue
 ss=(read,tcheck) scf=(maxcycle=1)
 ----------------------------------------------------------------------
 -----
 title
 -----
 Structure from the checkpoint file:  "ANI1ccx_325_conf2_mol1.chk"
 Charge =  0 Multiplicity = 1

                         Standard orientation:
 ---------------------------------------------------------------------
 Center     Atomic      Atomic             Coordinates (Angstroms)
 Number     Number       Type             X           Y           Z
 ---------------------------------------------------------------------
      1          6           0       -0.633174   -1.461450    0.696810
      2          6           0       -4.469100    1.431519    0.272427
      3          6           0       -3.223770    0.529170    0.234484
      4          6           0       -2.082790    0.976012   -0.694874
      5          6           0        3.998860    0.655241   -0.118859
      6          6           0        3.626900   -0.374217   -0.957741
      7          6           0       -1.183090    1.976020   -0.036651
      8          6           0        2.529581   -1.182160   -0.613341
      9          6           0        2.397730   -0.067567    1.516850
     10          6           0        1.881291   -1.035730    0.621552
     11          6           0        0.773109   -1.941370    1.053330
     12          6           0       -0.805343   -1.330620   -0.781873
     13          6           0        3.424010    0.805559    1.108440
     14          1           0       -1.616130   -0.378291   -2.282730
     15          1           0        0.435259    1.288900   -0.983170
     16          1           0       -4.169980    2.468289    0.477125
     17          1           0       -5.194780    1.115939    0.991387
     18          1           0       -4.953990    1.412039   -0.719826
     19          1           0       -4.133409   -0.657968   -1.068220
     20          1           0       -2.846250    0.345405    1.294500
     21          1           0       -2.571380    1.483449   -1.586890
     22          1           0        5.164520    1.534941   -1.412520
     23          1           0        1.902080    0.137588    2.456280
     24          1           0        3.746810    1.540480    1.875350
     25          1           0        2.053341   -1.917980   -1.275190
     26          1           0        0.960578   -2.921310    0.606932
     27          1           0        0.855638   -2.136180    2.118220
     28          1           0       -0.793648   -0.468325    1.168290
     29          1           0       -2.515289   -2.079781    1.161130
     30          1           0       -1.583059   -3.281300    0.709319
     31          1           0        4.115071   -0.539837   -1.922720
     32          7           0       -1.590279   -2.407310    1.232360
     33          7           0       -1.404130   -0.171951   -1.328250
     34          8           0       -3.693179   -0.767099   -0.191662
     35          8           0       -0.450721   -2.225360   -1.541880
     36          8           0        4.938210    1.611921   -0.482719
     37          8           0       -1.608820    2.861000    0.672104
     38          8           0        0.152034    1.922830   -0.298267
 ---------------------------------------------------------------------

 SCF Done:  E(RHF) =  -990.561985082     A.U. after    2 cycles

 The electronic state is 1-A.
 Alpha  occ. eigenvalues --  -21.12616 -21.09559 -21.08724 -21.06547 -21.04228
 Alpha  occ. eigenvalues --  -15.78108 -15.73589 -11.57460 -11.56639 -11.53374
 Alpha  occ. eigenvalues --  -11.52188 -11.48005 -11.46919 -11.45644 -11.43683
 Alpha  occ. eigenvalues --  -11.42922 -11.41071 -11.40440 -11.40192 -11.36868
 Alpha  occ. eigenvalues --   -1.82964  -1.74342  -1.73731  -1.72209  -1.66226
 Alpha  occ. eigenvalues --   -1.41482  -1.37450  -1.31626  -1.17531  -1.14716
 Alpha  occ. eigenvalues --   -1.09177  -1.07227  -1.04029  -0.95199  -0.90201
 Alpha  occ. eigenvalues --   -0.87948  -0.84011  -0.81842  -0.77473  -0.73611
 Alpha  occ. eigenvalues --   -0.71496  -0.70318  -0.69108  -0.67047  -0.64485
 Alpha  occ. eigenvalues --   -0.63476  -0.62911  -0.60668  -0.59171  -0.58520
 Alpha  occ. eigenvalues --   -0.57686  -0.57050  -0.55995  -0.54644  -0.54030
 Alpha  occ. eigenvalues --   -0.52699  -0.52272  -0.51946  -0.51548  -0.48584
 Alpha  occ. eigenvalues --   -0.47842  -0.46091  -0.44888  -0.43804  -0.41850
 Alpha  occ. eigenvalues --   -0.41479  -0.40264  -0.37445  -0.35497  -0.34673
 Alpha  occ. eigenvalues --   -0.33048  -0.32628  -0.30898  -0.29088  -0.26773
 Alpha virt. eigenvalues --    0.02941   0.03748   0.04065   0.04555   0.05100
 Alpha virt. eigenvalues --    0.05385   0.05828   0.06182   0.06683   0.06715
 Alpha virt. eigenvalues --    0.07026   0.07176   0.07529   0.08257   0.08498

 Mulliken charges:
               1
     1  C    1.847426
     2  C   -5.783874
     3  C    1.885171
     4  C   -2.775851
     5  C    6.510152
     6  C   -3.544713
     7  C    7.389049
     8  C   -3.623075
     9  C   -3.504805
    10  C    4.918348
    11  C   -6.125187
    12  C    6.922770
    13  C   -2.903985
    14  H    0.380258
    15  H    1.059280
    16  H    1.270791
    17  H    1.319221
    18  H    1.188903
    19  H    0.764722
    20  H    1.907458
    21  H    2.108037
    22  H    1.028741
    23  H    1.788155
    24  H    1.724124
    25  H    1.786996
    26  H    1.126502
    27  H    1.126969
    28  H    2.593237
    29  H    0.720835
    30  H    0.555820
    31  H    1.683308
    32  N   -3.580934
    33  N   -2.518698
    34  O   -3.222090
    35  O   -4.419743
    36  O   -4.368957
    37  O   -3.600759
    38  O   -3.633600
 Sum of Mulliken charges =   0.00000

 Dipole moment (field-independent basis, Debye):
    X=             -1.6484    Y=              0.2401    Z=             -2.0020  Tot=              2.6044

 Test job not archived.
 1\1\GINC-SE368\SP\RHF\Aug-CC-pVDZ\C13H18N2O5\OHZDE\08-Apr-2025\0\\#t h
 f aug-cc-pvdz iop(5/13=1,5/36=2,99/5=2) pseudo=read geom=check guess=(
 read,tcheck) scf=(maxcycle=1)\\title\\0,1\C,0,-0.633175,-1.46145,0.696
 81\C,0,-4.4691,1.43152,0.272427\C,0,-3.22377,0.529171,0.234484\C,0,-2.
 08279,0.976013,-0.694874\C,0,3.99886,0.655241,-0.118859\C,0,3.6269,-0.
 374217,-0.957741\C,0,-1.18309,1.97602,-0.0366508\C,0,2.52958,-1.18216,
 -0.613341\C,0,2.39773,-0.0675676,1.51685\C,0,1.88129,-1.03573,0.621552
 \C,0,0.773108,-1.94137,1.05333\C,0,-0.805344,-1.33062,-0.781873\C,0,3.

 Normal termination of Gaussian 16 at Tue Apr  8 21:45:45 2025.
