 Gaussian 16, Revision C.01,

 ----------------------------------------------------------------------
 #t hf aug-cc-pvdz symm=none int=(grid=ultrafine) guess=(read,tcheck) s
 table=(opt,rrhf)
 ----------------------------------------------------------------------
 -----
 title
 -----
 Symbolic Z-matrix:
 Charge =  0 Multiplicity = 1

 SCF Done:  E(RHF) =  -456.270917405     A.U. after   11 cycles
 Normal termination of Gaussian 16 at Tue Apr  8 21:10:51 2025.
 Gaussian 16:  ES64L-G16RevC.01  3-Jul-2019

 ----------------------------------------------------------------------
 #t hf aug-cc-pvdz iop(5/13=1,5/36=2,99/5=2) pseudo=read geom=check gue
 ss=(read,tcheck) scf=(maxcycle=1)
 ----------------------------------------------------------------------
 -----
 title
 -----
 Structure from the checkpoint file:  "ANI1ccx_1844_conf77_mol1.chk"
 Charge =  0 Multiplicity = 1

                         Standard orientation:
 ---------------------------------------------------------------------
 Center     Atomic      Atomic             Coordinates (Angstroms)
 Number     Number       Type             X           Y           Z
 ---------------------------------------------------------------------
      1          1           0        1.035728   -1.435982   -0.835715
      2          1           0       -2.167747    1.734893   -1.290470
      3          1           0       -0.764929    1.364261   -0.866974
      4          1           0       -1.118861   -0.780984   -1.175730
      5          1           0       -1.143363   -1.775538   -0.008896
      6          1           0       -2.034521   -0.597921    2.204880
      7          1           0        2.579908   -1.588205   -0.962797
      8          1           0       -1.787489    0.293312    0.861385
      9          1           0        0.400578   -0.037761    1.808950
     10          1           0        1.773360   -0.167657    1.094710
     11          1           0        1.016093    1.709328    0.268652
     12          1           0        1.349542    0.861768   -0.946120
     13          8           0       -0.778105   -1.676389   -0.924664
     14          8           0        1.297331    0.448019    1.688520
     15          8           0       -1.691068    1.042082   -0.823458
     16          8           0       -1.470310   -0.507935    1.409030
     17          8           0        1.888169   -0.962544   -0.668179
     18          8           0        0.861696    1.709328   -0.700232
 ---------------------------------------------------------------------

 SCF Done:  E(RHF) =  -458.247893082     A.U. after    2 cycles

 The electronic state is 1-A.
 Alpha  occ. eigenvalues --  -21.10055 -21.09682 -21.09614 -21.07028 -21.06649
 Alpha  occ. eigenvalues --  -21.05663  -1.69654  -1.67793  -1.67091  -1.64820
 Alpha  occ. eigenvalues --   -1.63296  -1.61696  -0.67186  -0.64979  -0.64927
 Alpha  occ. eigenvalues --   -0.61789  -0.61283  -0.60362  -0.52935  -0.51387
 Alpha  occ. eigenvalues --   -0.49491  -0.46895  -0.45260  -0.40387  -0.36886
 Alpha  occ. eigenvalues --   -0.36187  -0.35954  -0.34073  -0.33957  -0.31186
 Alpha virt. eigenvalues --    0.03672   0.04313   0.04557   0.06867   0.07449
 Alpha virt. eigenvalues --    0.07852   0.08153   0.08317   0.08379   0.10245
 Alpha virt. eigenvalues --    0.10648   0.11239   0.17614   0.18823   0.19219

 Mulliken charges:
               1
     1  H    1.457277
     2  H    0.958157
     3  H    1.685428
     4  H    1.394463
     5  H    1.350906
     6  H    1.043381
     7  H    1.018754
     8  H    1.404145
     9  H    1.235329
    10  H    1.376994
    11  H    1.259482
    12  H    1.353868
    13  O   -2.699045
    14  O   -2.275081
    15  O   -2.533238
    16  O   -2.545523
    17  O   -2.586902
    18  O   -2.898395
 Sum of Mulliken charges =  -0.00000

 Dipole moment (field-independent basis, Debye):
    X=             -1.1768    Y=             -0.3933    Z=             -0.0037  Tot=              1.2408

 Test job not archived.
 1\1\GINC-SE059\SP\RHF\Aug-CC-pVDZ\H12O6\OHZDE\08-Apr-2025\0\\#t hf aug
 -cc-pvdz iop(5/13=1,5/36=2,99/5=2) pseudo=read geom=check guess=(read,
 tcheck) scf=(maxcycle=1)\\title\\0,1\H,0,1.03573,-1.43598,-0.835715\H,
 0,-2.16775,1.73489,-1.29047\H,0,-0.764932,1.36426,-0.866974\H,0,-1.118
 86,-0.780985,-1.17573\H,0,-1.14336,-1.77554,-0.00889626\H,0,-2.03452,-
 0.597924,2.20488\H,0,2.57991,-1.5882,-0.962797\H,0,-1.78749,0.293309,0
 .861385\H,0,0.400578,-0.0377595,1.80895\H,0,1.77336,-0.167654,1.09471\
 H,0,1.01609,1.70933,0.268652\H,0,1.34954,0.861771,-0.94612\O,0,-0.7781

 Normal termination of Gaussian 16 at Tue Apr  8 21:10:56 2025.
