 Gaussian 16, Revision C.01,

 ----------------------------------------------------------------------
 #t hf aug-cc-pvdz symm=none int=(grid=ultrafine) guess=(read,tcheck) s
 table=(opt,rrhf)
 ----------------------------------------------------------------------
 -----
 title
 -----
 Symbolic Z-matrix:
 Charge =  0 Multiplicity = 1

 SCF Done:  E(RHF) =  -578.800996827     A.U. after   14 cycles
 Normal termination of Gaussian 16 at Tue Apr  8 22:18:58 2025.
 Gaussian 16:  ES64L-G16RevC.01  3-Jul-2019

 ----------------------------------------------------------------------
 #t hf aug-cc-pvdz iop(5/13=1,5/36=2,99/5=2) pseudo=read geom=check gue
 ss=(read,tcheck) scf=(maxcycle=1)
 ----------------------------------------------------------------------
 -----
 title
 -----
 Structure from the checkpoint file:  "ANI1ccx_987_conf3_mol2.chk"
 Charge =  0 Multiplicity = 1

                         Standard orientation:
 ---------------------------------------------------------------------
 Center     Atomic      Atomic             Coordinates (Angstroms)
 Number     Number       Type             X           Y           Z
 ---------------------------------------------------------------------
      1          6           0        2.109430   -0.449000    0.006487
      2          6           0        0.432789    1.162650    0.072692
      3          6           0       -1.783330    0.432924    0.880774
      4          6           0       -2.211461   -0.620145   -0.200392
      5          1           0       -0.364281   -1.279970   -0.194755
      6          1           0       -2.299170    0.161129    1.822050
      7          1           0       -2.317360    1.305271    0.565781
      8          1           0        0.417010    2.693910   -1.240200
      9          1           0        0.079620   -0.166075    1.498830
     10          1           0        1.874069   -2.277500    0.568287
     11          1           0        3.870560    0.249369   -0.671847
     12          1           0        3.882919   -1.404611   -0.196662
     13          1           0       -0.815666    2.764880   -0.086524
     14          7           0        3.425960   -0.532342   -0.184850
     15          7           0        1.350329   -1.403190    0.438399
     16          7           0        1.630660    0.823618   -0.299677
     17          7           0       -0.165631    2.169870   -0.579047
     18          7           0       -0.358257    0.582984    1.015720
     19          8           0       -1.232081   -1.387430   -0.665537
     20          8           0       -3.367131   -0.699015   -0.503984
 ---------------------------------------------------------------------

 SCF Done:  E(RHF) =  -581.393219455     A.U. after    2 cycles

 The electronic state is 1-A.
 Alpha  occ. eigenvalues --  -21.08536 -21.03113 -15.78981 -15.78139 -15.77115
 Alpha  occ. eigenvalues --  -15.70829 -15.70337 -11.52248 -11.51416 -11.48754
 Alpha  occ. eigenvalues --  -11.43063  -1.79989  -1.64123  -1.56136  -1.46576
 Alpha  occ. eigenvalues --   -1.34632  -1.27302  -1.23683  -1.06548  -0.91362
 Alpha  occ. eigenvalues --   -0.83377  -0.78886  -0.73728  -0.71530  -0.70772
 Alpha  occ. eigenvalues --   -0.67597  -0.65782  -0.63887  -0.58695  -0.58158
 Alpha  occ. eigenvalues --   -0.56753  -0.54909  -0.50747  -0.49362  -0.45771
 Alpha  occ. eigenvalues --   -0.41095  -0.38733  -0.36959  -0.36078  -0.32786
 Alpha  occ. eigenvalues --   -0.31393  -0.26733
 Alpha virt. eigenvalues --    0.03178   0.03883   0.05055   0.05254   0.05838
 Alpha virt. eigenvalues --    0.06884   0.07112   0.08467   0.09353   0.09725
 Alpha virt. eigenvalues --    0.11207   0.11414   0.12706   0.13230   0.13359

 Mulliken charges:
               1
     1  C    4.332251
     2  C    5.021037
     3  C   -2.789703
     4  C    5.948450
     5  H    1.987988
     6  H    1.327468
     7  H    1.458998
     8  H    0.636084
     9  H    0.595531
    10  H    0.659239
    11  H    0.665788
    12  H    0.621352
    13  H    0.564772
    14  N   -2.966799
    15  N   -2.598252
    16  N   -2.922485
    17  N   -3.110644
    18  N   -2.366106
    19  O   -3.708691
    20  O   -3.356279
 Sum of Mulliken charges =   0.00000

 Dipole moment (field-independent basis, Debye):
    X=              3.5982    Y=              2.2522    Z=              0.8533  Tot=              4.3299

 Test job not archived.
 1\1\GINC-SE453\SP\RHF\Aug-CC-pVDZ\C4H9N5O2\OHZDE\08-Apr-2025\0\\#t hf
 aug-cc-pvdz iop(5/13=1,5/36=2,99/5=2) pseudo=read geom=check guess=(re
 ad,tcheck) scf=(maxcycle=1)\\title\\0,1\C,0,2.10943,-0.449,0.006487\C,
 0,0.432789,1.16265,0.0726917\C,0,-1.78333,0.432924,0.880774\C,0,-2.211
 46,-0.620146,-0.200392\H,0,-0.36428,-1.27997,-0.194755\H,0,-2.29917,0.
 161128,1.82205\H,0,-2.31736,1.30527,0.565781\H,0,0.41701,2.69391,-1.24
 02\H,0,0.0796204,-0.166075,1.49883\H,0,1.87407,-2.2775,0.568287\H,0,3.
 87056,0.24937,-0.671847\H,0,3.88292,-1.40461,-0.196662\H,0,-0.815666,2

 Normal termination of Gaussian 16 at Tue Apr  8 22:19:09 2025.
