 Gaussian 16, Revision C.01,

 ----------------------------------------------------------------------
 #t hf aug-cc-pvdz symm=none int=(grid=ultrafine) guess=(read,tcheck) s
 table=(opt,rrhf)
 ----------------------------------------------------------------------
 -----
 title
 -----
 Symbolic Z-matrix:
 Charge =  0 Multiplicity = 1

 SCF Done:  E(RHF) =  -564.573670503     A.U. after   14 cycles
 Normal termination of Gaussian 16 at Tue Apr  8 22:17:36 2025.
 Gaussian 16:  ES64L-G16RevC.01  3-Jul-2019

 ----------------------------------------------------------------------
 #t hf aug-cc-pvdz iop(5/13=1,5/36=2,99/5=2) pseudo=read geom=check gue
 ss=(read,tcheck) scf=(maxcycle=1)
 ----------------------------------------------------------------------
 -----
 title
 -----
 Structure from the checkpoint file:  "ANI1ccx_958_conf7_mol1.chk"
 Charge =  0 Multiplicity = 1

                         Standard orientation:
 ---------------------------------------------------------------------
 Center     Atomic      Atomic             Coordinates (Angstroms)
 Number     Number       Type             X           Y           Z
 ---------------------------------------------------------------------
      1          6           0        2.455731   -1.396259   -0.720838
      2          6           0        0.424159   -0.275971   -0.286831
      3          6           0       -2.060210   -0.276185    0.071881
      4          6           0        0.927204    1.040530    0.156514
      5          1           0        1.850490    0.312761    1.670041
      6          1           0       -1.417701    1.004829   -1.261259
      7          1           0       -3.076341    1.065418   -1.105529
      8          1           0       -0.680048   -1.206001    1.244491
      9          1           0        2.950981   -2.256958   -0.261382
     10          1           0        3.100640   -0.525542   -0.898377
     11          1           0        2.104281   -1.767239   -1.696769
     12          1           0        0.220951   -0.349917   -1.378249
     13          7           0       -0.794599   -0.657825    0.379438
     14          7           0       -2.239741    0.512156   -1.019439
     15          8           0        1.571329    1.151311    1.309281
     16          8           0        1.364671   -1.136349    0.159555
     17          8           0       -2.973800   -0.745098    0.722366
     18          8           0        0.751027    2.003840   -0.585862
 ---------------------------------------------------------------------

 SCF Done:  E(RHF) =  -566.995260394     A.U. after    2 cycles

 The electronic state is 1-A.
 Alpha  occ. eigenvalues --  -21.14943 -21.09819 -21.06509 -21.00610 -15.77952
 Alpha  occ. eigenvalues --  -15.76944 -11.56407 -11.50831 -11.48686 -11.45086
 Alpha  occ. eigenvalues --   -1.88808  -1.81280  -1.71646  -1.67251  -1.42149
 Alpha  occ. eigenvalues --   -1.32505  -1.09825  -0.99232  -0.86601  -0.84833
 Alpha  occ. eigenvalues --   -0.75935  -0.73349  -0.71636  -0.66623  -0.63931
 Alpha  occ. eigenvalues --   -0.61762  -0.60444  -0.57266  -0.54542  -0.54087
 Alpha  occ. eigenvalues --   -0.48911  -0.47518  -0.44402  -0.40316  -0.37747
 Alpha  occ. eigenvalues --   -0.35263  -0.31639  -0.29739  -0.27957
 Alpha virt. eigenvalues --    0.02678   0.04518   0.04772   0.05129   0.05811
 Alpha virt. eigenvalues --    0.06408   0.07598   0.08596   0.09681   0.10734
 Alpha virt. eigenvalues --    0.10971   0.12077   0.13104   0.13279   0.13927

 Mulliken charges:
               1
     1  C   -3.463873
     2  C    0.482880
     3  C    5.584539
     4  C    6.600862
     5  H    0.971251
     6  H    0.759899
     7  H    0.618436
     8  H    0.432680
     9  H    1.274224
    10  H    1.438835
    11  H    1.334901
    12  H    2.124596
    13  N   -1.756464
    14  N   -2.824930
    15  O   -3.452110
    16  O   -3.772726
    17  O   -3.155534
    18  O   -3.197466
 Sum of Mulliken charges =  -0.00000

 Dipole moment (field-independent basis, Debye):
    X=              3.2920    Y=             -0.9495    Z=             -0.6881  Tot=              3.4946

 Test job not archived.
 1\1\GINC-SE083\SP\RHF\Aug-CC-pVDZ\C4H8N2O4\OHZDE\08-Apr-2025\0\\#t hf
 aug-cc-pvdz iop(5/13=1,5/36=2,99/5=2) pseudo=read geom=check guess=(re
 ad,tcheck) scf=(maxcycle=1)\\title\\0,1\C,0,2.45573,-1.39626,-0.720839
 \C,0,0.424159,-0.275971,-0.286832\C,0,-2.06021,-0.276183,0.0718803\C,0
 ,0.927205,1.04053,0.156513\H,0,1.85049,0.31276,1.67004\H,0,-1.4177,1.0
 0483,-1.26126\H,0,-3.07634,1.06542,-1.10553\H,0,-0.680049,-1.206,1.244
 49\H,0,2.95098,-2.25696,-0.261383\H,0,3.10064,-0.525544,-0.898378\H,0,
 2.10428,-1.76724,-1.69677\H,0,0.220951,-0.349917,-1.37825\N,0,-0.79459

 Normal termination of Gaussian 16 at Tue Apr  8 22:17:45 2025.
