 Gaussian 16, Revision C.01,

 ----------------------------------------------------------------------
 #t hf aug-cc-pvdz symm=none int=(grid=ultrafine) guess=(read,tcheck) s
 table=(opt,rrhf)
 ----------------------------------------------------------------------
 -----
 title
 -----
 Symbolic Z-matrix:
 Charge =  0 Multiplicity = 1

 SCF Done:  E(RHF) =  -353.830404255     A.U. after   13 cycles
 Normal termination of Gaussian 16 at Tue Apr  8 21:39:39 2025.
 Gaussian 16:  ES64L-G16RevC.01  3-Jul-2019

 ----------------------------------------------------------------------
 #t hf aug-cc-pvdz iop(5/13=1,5/36=2,99/5=2) pseudo=read geom=check gue
 ss=(read,tcheck) scf=(maxcycle=1)
 ----------------------------------------------------------------------
 -----
 title
 -----
 Structure from the checkpoint file:  "ANI1ccx_418_conf1_mol1.chk"
 Charge =  0 Multiplicity = 1

                         Standard orientation:
 ---------------------------------------------------------------------
 Center     Atomic      Atomic             Coordinates (Angstroms)
 Number     Number       Type             X           Y           Z
 ---------------------------------------------------------------------
      1          6           0        0.037709    0.529286   -0.044321
      2          1           0        2.473329   -0.405827   -0.780245
      3          1           0        2.242510   -0.222639    0.833677
      4          1           0        0.037526   -1.453850    0.214594
      5          1           0       -1.813050    1.193351    0.462452
      6          1           0       -2.473311   -0.976476   -0.575138
      7          7           0        2.024829   -0.838279    0.032140
      8          7           0        0.608272   -0.697036   -0.084772
      9          7           0       -1.378320    0.467943   -0.155829
     10          8           0        0.680630    1.573289    0.039681
     11          8           0       -1.865221   -0.803123    0.156545
 ---------------------------------------------------------------------

 SCF Done:  E(RHF) =  -355.357549857     A.U. after    2 cycles

 The electronic state is 1-A.
 Alpha  occ. eigenvalues --  -21.13016 -21.02983 -15.80437 -15.77609 -15.77057
 Alpha  occ. eigenvalues --  -11.50305  -1.83644  -1.70817  -1.47322  -1.25602
 Alpha  occ. eigenvalues --   -1.13562  -0.82826  -0.72973  -0.69363  -0.67001
 Alpha  occ. eigenvalues --   -0.63549  -0.59963  -0.51213  -0.49469  -0.42668
 Alpha  occ. eigenvalues --   -0.38662  -0.36284  -0.31736  -0.30111
 Alpha virt. eigenvalues --    0.03744   0.05275   0.05741   0.06661   0.07040
 Alpha virt. eigenvalues --    0.11503   0.12095   0.12880   0.14818   0.15812
 Alpha virt. eigenvalues --    0.16886   0.17546   0.18023   0.18347   0.18872

 Mulliken charges:
               1
     1  C    5.354291
     2  H    0.644796
     3  H    0.605870
     4  H    0.946398
     5  H    0.585116
     6  H    0.817541
     7  N   -1.795231
     8  N   -1.653298
     9  N   -0.515605
    10  O   -2.704170
    11  O   -2.285709
 Sum of Mulliken charges =  -0.00000

 Dipole moment (field-independent basis, Debye):
    X=             -1.4879    Y=             -1.2654    Z=              0.3123  Tot=              1.9781

 Test job not archived.
 1\1\GINC-SE179\SP\RHF\Aug-CC-pVDZ\C1H5N3O2\OHZDE\08-Apr-2025\0\\#t hf
 aug-cc-pvdz iop(5/13=1,5/36=2,99/5=2) pseudo=read geom=check guess=(re
 ad,tcheck) scf=(maxcycle=1)\\title\\0,1\C,0,0.0377092,0.529286,-0.0443
 207\H,0,2.47333,-0.405825,-0.780245\H,0,2.24251,-0.222637,0.833677\H,0
 ,0.0375271,-1.45385,0.214594\H,0,-1.81305,1.19335,0.462452\H,0,-2.4733
 1,-0.976477,-0.575138\N,0,2.02483,-0.838277,0.0321404\N,0,0.608273,-0.
 697035,-0.0847719\N,0,-1.37832,0.467943,-0.155829\O,0,0.680629,1.57329
 ,0.0396807\O,0,-1.86522,-0.803124,0.156545\\Version=ES64L-G16RevC.01\S

 Normal termination of Gaussian 16 at Tue Apr  8 21:39:43 2025.
