 Gaussian 16, Revision C.01,

 ----------------------------------------------------------------------
 #t hf aug-cc-pvdz symm=none int=(grid=ultrafine) guess=(read,tcheck) s
 table=(opt,rrhf)
 ----------------------------------------------------------------------
 -----
 title
 -----
 Symbolic Z-matrix:
 Charge =  0 Multiplicity = 1

 SCF Done:  E(RHF) =  -441.659101439     A.U. after   15 cycles
 Normal termination of Gaussian 16 at Tue Apr  8 21:39:00 2025.
 Gaussian 16:  ES64L-G16RevC.01  3-Jul-2019

 ----------------------------------------------------------------------
 #t hf aug-cc-pvdz iop(5/13=1,5/36=2,99/5=2) pseudo=read geom=check gue
 ss=(read,tcheck) scf=(maxcycle=1)
 ----------------------------------------------------------------------
 -----
 title
 -----
 Structure from the checkpoint file:  "ANI1ccx_405_conf9_mol1.chk"
 Charge =  0 Multiplicity = 1

                         Standard orientation:
 ---------------------------------------------------------------------
 Center     Atomic      Atomic             Coordinates (Angstroms)
 Number     Number       Type             X           Y           Z
 ---------------------------------------------------------------------
      1          6           0        0.088033    0.717746    0.089188
      2          1           0       -2.707510    0.657363    0.728229
      3          1           0       -2.302910    0.781270   -0.892114
      4          1           0        2.662270    0.350486    0.833534
      5          1           0        2.601850    0.671312   -0.674415
      6          7           0       -2.360850    0.166922   -0.134122
      7          7           0       -0.995883   -0.102332    0.239940
      8          7           0       -0.759439   -1.453351   -0.002130
      9          7           0        0.467216   -1.503171   -0.070086
     10          7           0        1.018600   -0.255273   -0.032455
     11          7           0        2.311060   -0.080307   -0.039647
     12          8           0        0.181645    1.978209   -0.032608
 ---------------------------------------------------------------------

 SCF Done:  E(RHF) =  -443.596361708     A.U. after    2 cycles

 The electronic state is 1-A.
 Alpha  occ. eigenvalues --  -21.05330 -15.84412 -15.84100 -15.83546 -15.81944
 Alpha  occ. eigenvalues --  -15.80510 -15.80352 -11.54686  -1.83053  -1.68121
 Alpha  occ. eigenvalues --   -1.56796  -1.44418  -1.24385  -1.18406  -0.91573
 Alpha  occ. eigenvalues --   -0.88775  -0.77765  -0.74764  -0.71873  -0.66579
 Alpha  occ. eigenvalues --   -0.63002  -0.57245  -0.51373  -0.50083  -0.46177
 Alpha  occ. eigenvalues --   -0.45858  -0.43831  -0.40729  -0.31844  -0.30073
 Alpha virt. eigenvalues --    0.03603   0.05054   0.06039   0.06236   0.09944
 Alpha virt. eigenvalues --    0.11504   0.12666   0.13114   0.13404   0.14268
 Alpha virt. eigenvalues --    0.14749   0.15448   0.16304   0.16684   0.17309

 Mulliken charges:
               1
     1  C    4.931223
     2  H    0.642289
     3  H    0.720994
     4  H    0.632439
     5  H    0.660726
     6  N   -1.749167
     7  N   -0.575749
     8  N   -0.635500
     9  N    0.139546
    10  N    0.107432
    11  N   -2.013008
    12  O   -2.861224
 Sum of Mulliken charges =  -0.00000

 Dipole moment (field-independent basis, Debye):
    X=              0.1977    Y=              1.8085    Z=              0.2616  Tot=              1.8380

 Test job not archived.
 1\1\GINC-SE273\SP\RHF\Aug-CC-pVDZ\C1H4N6O1\OHZDE\08-Apr-2025\0\\#t hf
 aug-cc-pvdz iop(5/13=1,5/36=2,99/5=2) pseudo=read geom=check guess=(re
 ad,tcheck) scf=(maxcycle=1)\\title\\0,1\C,0,0.0880325,0.717747,0.08918
 78\H,0,-2.70751,0.657364,0.728229\H,0,-2.30291,0.781271,-0.892114\H,0,
 2.66227,0.350487,0.833534\H,0,2.60185,0.671313,-0.674415\N,0,-2.36085,
 0.166923,-0.134122\N,0,-0.995883,-0.102331,0.23994\N,0,-0.759439,-1.45
 335,-0.00212984\N,0,0.467216,-1.50317,-0.0700862\N,0,1.0186,-0.255272,
 -0.0324551\N,0,2.31106,-0.0803058,-0.0396467\O,0,0.181645,1.97821,-0.0

 Normal termination of Gaussian 16 at Tue Apr  8 21:39:05 2025.
