 Gaussian 16, Revision C.01,

 ----------------------------------------------------------------------
 #t hf aug-cc-pvdz symm=none int=(grid=ultrafine) guess=(read,tcheck) s
 table=(opt,rrhf)
 ----------------------------------------------------------------------
 -----
 title
 -----
 Symbolic Z-matrix:
 Charge =  0 Multiplicity = 1

 SCF Done:  E(RHF) =  -599.865499471     A.U. after   16 cycles
 Normal termination of Gaussian 16 at Tue Apr  8 19:22:09 2025.
 Gaussian 16:  ES64L-G16RevC.01  3-Jul-2019

 ----------------------------------------------------------------------
 #t hf aug-cc-pvdz iop(5/13=1,5/36=2,99/5=2) pseudo=read geom=check gue
 ss=(read,tcheck) scf=(maxcycle=1)
 ----------------------------------------------------------------------
 -----
 title
 -----
 Structure from the checkpoint file:  "ANI1ccx_1089_conf1_mol2.chk"
 Charge =  0 Multiplicity = 1

                         Standard orientation:
 ---------------------------------------------------------------------
 Center     Atomic      Atomic             Coordinates (Angstroms)
 Number     Number       Type             X           Y           Z
 ---------------------------------------------------------------------
      1          6           0        2.266580    0.484394    0.006481
      2          6           0        0.860795    0.780697   -0.008566
      3          6           0        0.113057    1.949910   -0.039812
      4          6           0       -1.227980    1.536740    0.030689
      5          6           0       -1.233820    0.187916    0.039819
      6          1           0        4.278940   -1.708100   -0.011312
      7          1           0        3.045830    1.249590   -0.024345
      8          1           0        0.504511    2.976320   -0.026944
      9          1           0       -2.098490    2.216750    0.023968
     10          7           0        2.672070   -0.753548    0.030501
     11          7           0       -2.373870   -0.680216    0.051511
     12          8           0        4.039010   -0.778376   -0.026481
     13          8           0        0.012425   -0.284505    0.015239
     14          8           0       -3.441060   -0.099611   -0.048225
     15          8           0       -2.171620   -1.879530   -0.028922
 ---------------------------------------------------------------------

 SCF Done:  E(RHF) =  -602.431630316     A.U. after    2 cycles

 The electronic state is 1-A.
 Alpha  occ. eigenvalues --  -21.15902 -21.12663 -21.10523 -21.09874 -16.01894
 Alpha  occ. eigenvalues --  -15.81715 -11.54728 -11.51757 -11.48716 -11.46422
 Alpha  occ. eigenvalues --  -11.42499  -2.01815  -1.90263  -1.83196  -1.70501
 Alpha  occ. eigenvalues --   -1.29583  -1.25398  -1.17633  -1.02260  -0.89111
 Alpha  occ. eigenvalues --   -0.82706  -0.79959  -0.75351  -0.70876  -0.68999
 Alpha  occ. eigenvalues --   -0.63447  -0.63104  -0.61788  -0.58598  -0.55283
 Alpha  occ. eigenvalues --   -0.54910  -0.53935  -0.47354  -0.39763  -0.39050
 Alpha  occ. eigenvalues --   -0.37940  -0.36387  -0.32457  -0.31898  -0.28750
 Alpha virt. eigenvalues --    0.02917   0.04529   0.04919   0.05829   0.06688
 Alpha virt. eigenvalues --    0.08549   0.09802   0.10739   0.11276   0.11522
 Alpha virt. eigenvalues --    0.11903   0.12296   0.12751   0.13686   0.14272

 Mulliken charges:
               1
     1  C   -1.454477
     2  C    6.334611
     3  C   -2.993376
     4  C   -1.697255
     5  C    3.922691
     6  H    0.923734
     7  H    1.542793
     8  H    1.369312
     9  H    1.602917
    10  N    0.263528
    11  N    3.161576
    12  O   -2.708393
    13  O   -4.597947
    14  O   -2.823122
    15  O   -2.846593
 Sum of Mulliken charges =  -0.00000

 Dipole moment (field-independent basis, Debye):
    X=              3.2942    Y=              1.6022    Z=             -0.0840  Tot=              3.6641

 Test job not archived.
 1\1\GINC-SE116\SP\RHF\Aug-CC-pVDZ\C5H4N2O4\OHZDE\08-Apr-2025\0\\#t hf
 aug-cc-pvdz iop(5/13=1,5/36=2,99/5=2) pseudo=read geom=check guess=(re
 ad,tcheck) scf=(maxcycle=1)\\title\\0,1\C,0,2.26658,0.484394,0.0064812
 9\C,0,0.860795,0.780697,-0.00856553\C,0,0.113057,1.94991,-0.0398123\C,
 0,-1.22798,1.53674,0.0306888\C,0,-1.23382,0.187916,0.0398185\H,0,4.278
 94,-1.7081,-0.0113123\H,0,3.04583,1.24959,-0.0243455\H,0,0.504511,2.97
 632,-0.0269444\H,0,-2.09849,2.21675,0.0239677\N,0,2.67207,-0.753548,0.
 0305011\N,0,-2.37387,-0.680216,0.0515107\O,0,4.03901,-0.778376,-0.0264

 Normal termination of Gaussian 16 at Tue Apr  8 19:22:16 2025.
