 Gaussian 16, Revision C.01,

 ----------------------------------------------------------------------
 #t hf aug-cc-pvdz symm=none int=(grid=ultrafine) guess=(read,tcheck) s
 table=(opt,rrhf)
 ----------------------------------------------------------------------
 -----
 title
 -----
 Symbolic Z-matrix:
 Charge =  0 Multiplicity = 1

 SCF Done:  E(RHF) =  -908.327623232     A.U. after   14 cycles
 Normal termination of Gaussian 16 at Tue Apr  8 21:16:12 2025.
 Gaussian 16:  ES64L-G16RevC.01  3-Jul-2019

 ----------------------------------------------------------------------
 #t hf aug-cc-pvdz iop(5/13=1,5/36=2,99/5=2) pseudo=read geom=check gue
 ss=(read,tcheck) scf=(maxcycle=1)
 ----------------------------------------------------------------------
 -----
 title
 -----
 Structure from the checkpoint file:  "ANI1ccx_1761_conf30_mol1.chk"
 Charge =  0 Multiplicity = 1

                         Standard orientation:
 ---------------------------------------------------------------------
 Center     Atomic      Atomic             Coordinates (Angstroms)
 Number     Number       Type             X           Y           Z
 ---------------------------------------------------------------------
      1          6           0       -2.186111    0.038232    0.549953
      2          6           0        3.035409    0.697326   -1.054900
      3          6           0        2.215159   -0.492880   -1.559720
      4          6           0        1.850679   -1.314170    0.781669
      5          6           0        2.336239    1.741350   -0.252222
      6          6           0       -4.143071   -1.035450   -0.433703
      7          6           0       -3.407361    0.270367   -0.340822
      8          6           0       -1.121851   -0.869286   -0.234803
      9          6           0        1.255439   -1.085330   -0.554188
     10          1           0        0.901962   -2.006220   -0.973640
     11          1           0        3.138559   -2.004100    1.778520
     12          1           0        0.715294    2.894510   -0.342954
     13          1           0        3.869279    0.287355   -0.554437
     14          1           0        3.374109    1.085210   -2.032420
     15          1           0        3.015499   -1.279950   -1.755830
     16          1           0        1.625559   -0.362652   -2.439980
     17          1           0        0.100855    0.595873    0.062226
     18          1           0       -5.258701   -0.958043   -0.279135
     19          1           0       -3.734241   -1.669330    0.357597
     20          1           0       -3.996371   -1.580210   -1.325190
     21          1           0       -4.538411    1.098960    1.012810
     22          1           0       -2.998901    0.659209   -1.257320
     23          1           0       -2.486301   -0.534433    1.447040
     24          1           0       -2.181671    2.111420    0.847223
     25          1           0       -0.991618    1.494860    1.823300
     26          7           0       -1.531051    1.363180    0.915968
     27          7           0        0.049583   -0.271990   -0.420359
     28          8           0       -1.395051   -2.018820   -0.547521
     29          8           0       -4.172541    1.339480    0.167325
     30          8           0        1.505109   -0.697442    1.741870
     31          8           0        2.648569    2.134730    0.847503
     32          8           0        1.098579    2.057170   -0.732954
     33          8           0        2.916359   -2.211590    0.868195
 ---------------------------------------------------------------------

 SCF Done:  E(RHF) =  -912.343645871     A.U. after    2 cycles

 The electronic state is 1-A.
 Alpha  occ. eigenvalues --  -21.13186 -21.11187 -21.07549 -21.07079 -21.06044
 Alpha  occ. eigenvalues --  -21.01764 -15.74437 -15.73384 -11.56700 -11.54580
 Alpha  occ. eigenvalues --  -11.52143 -11.50879 -11.48559 -11.45487 -11.43151
 Alpha  occ. eigenvalues --  -11.40891 -11.36982  -1.84124  -1.82794  -1.73985
 Alpha  occ. eigenvalues --   -1.69748  -1.67007  -1.65251  -1.42775  -1.31866
 Alpha  occ. eigenvalues --   -1.23885  -1.14802  -1.09767  -0.98874  -0.95179
 Alpha  occ. eigenvalues --   -0.87646  -0.83554  -0.80310  -0.78970  -0.70429
 Alpha  occ. eigenvalues --   -0.67535  -0.66996  -0.66395  -0.65869  -0.63743
 Alpha  occ. eigenvalues --   -0.62389  -0.61130  -0.59667  -0.58727  -0.58399
 Alpha  occ. eigenvalues --   -0.56981  -0.55147  -0.54130  -0.53453  -0.51487
 Alpha  occ. eigenvalues --   -0.50671  -0.49385  -0.48904  -0.46938  -0.46071
 Alpha  occ. eigenvalues --   -0.44500  -0.43760  -0.40187  -0.37614  -0.35821
 Alpha  occ. eigenvalues --   -0.33050  -0.32096  -0.31315  -0.31129  -0.29559
 Alpha  occ. eigenvalues --   -0.26791
 Alpha virt. eigenvalues --    0.03570   0.04329   0.04539   0.04852   0.05282
 Alpha virt. eigenvalues --    0.05694   0.06103   0.06255   0.06363   0.06635
 Alpha virt. eigenvalues --    0.07058   0.07704   0.08092   0.08698   0.09898

 Mulliken charges:
               1
     1  C   -1.467097
     2  C   -4.005515
     3  C   -3.254772
     4  C    8.026642
     5  C    6.753037
     6  C   -4.461554
     7  C    1.735163
     8  C    6.903839
     9  C   -2.316730
    10  H    1.891530
    11  H    0.640858
    12  H    0.943164
    13  H    1.404037
    14  H    1.320030
    15  H    1.188003
    16  H    1.408384
    17  H    1.405128
    18  H    1.063351
    19  H    1.447980
    20  H    1.418602
    21  H    0.700185
    22  H    1.635060
    23  H    1.717279
    24  H    0.734352
    25  H    0.610484
    26  N   -3.197354
    27  N   -2.812558
    28  O   -4.119203
    29  O   -3.605216
    30  O   -3.318996
    31  O   -3.481643
    32  O   -3.587004
    33  O   -3.319465
 Sum of Mulliken charges =  -0.00000

 Dipole moment (field-independent basis, Debye):
    X=              0.4027    Y=              0.9213    Z=             -0.2182  Tot=              1.0289

 Test job not archived.
 1\1\GINC-SE343\SP\RHF\Aug-CC-pVDZ\C9H16N2O6\OHZDE\08-Apr-2025\0\\#t hf
  aug-cc-pvdz iop(5/13=1,5/36=2,99/5=2) pseudo=read geom=check guess=(r
 ead,tcheck) scf=(maxcycle=1)\\title\\0,1\C,0,-2.18611,0.0382317,0.5499
 53\C,0,3.03541,0.697326,-1.0549\C,0,2.21516,-0.49288,-1.55972\C,0,1.85
 068,-1.31417,0.781669\C,0,2.33624,1.74135,-0.252222\C,0,-4.14307,-1.03
 545,-0.433703\C,0,-3.40736,0.270367,-0.340822\C,0,-1.12185,-0.869286,-
 0.234803\C,0,1.25544,-1.08533,-0.554188\H,0,0.901963,-2.00622,-0.97364
 \H,0,3.13856,-2.0041,1.77852\H,0,0.715295,2.89451,-0.342954\H,0,3.8692

 Normal termination of Gaussian 16 at Tue Apr  8 21:17:00 2025.
