 Gaussian 16, Revision C.01,

 ----------------------------------------------------------------------
 #t hf aug-cc-pvdz symm=none int=(grid=ultrafine) guess=(read,tcheck) s
 table=(opt,rrhf)
 ----------------------------------------------------------------------
 -----
 title
 -----
 Symbolic Z-matrix:
 Charge =  0 Multiplicity = 1

 SCF Done:  E(RHF) =  -800.992709521     A.U. after   12 cycles
 Normal termination of Gaussian 16 at Tue Apr  8 19:38:04 2025.
 Gaussian 16:  ES64L-G16RevC.01  3-Jul-2019

 ----------------------------------------------------------------------
 #t hf aug-cc-pvdz iop(5/13=1,5/36=2,99/5=2) pseudo=read geom=check gue
 ss=(read,tcheck) scf=(maxcycle=1)
 ----------------------------------------------------------------------
 -----
 title
 -----
 Structure from the checkpoint file:  "ANI1ccx_102_conf1_mol1.chk"
 Charge =  0 Multiplicity = 1

                         Standard orientation:
 ---------------------------------------------------------------------
 Center     Atomic      Atomic             Coordinates (Angstroms)
 Number     Number       Type             X           Y           Z
 ---------------------------------------------------------------------
      1          6           0       -3.009220   -0.237969    0.198518
      2          6           0       -2.280290    0.945190   -0.381222
      3          6           0       -0.205717    2.145800   -0.666118
      4          6           0       -0.048358    2.836300    0.699433
      5          6           0       -0.407623   -0.133299   -1.651800
      6          6           0       -0.200360   -1.554270   -1.151580
      7          6           0        0.510737   -2.240830    1.100670
      8          6           0        0.570819   -1.190490    2.231740
      9          6           0        2.201900   -1.444711   -0.472760
     10          6           0        2.762570    0.016005   -0.374584
     11          1           0        1.210289   -3.057250    1.268380
     12          1           0       -0.455255   -2.730450    1.039850
     13          1           0        1.603460   -0.785028    2.177980
     14          1           0        0.270904   -1.632180    3.191280
     15          1           0       -0.404280   -0.112660    0.909299
     16          1           0        3.229170    1.526069   -1.545760
     17          1           0        2.342199   -1.763471   -1.468320
     18          1           0        3.797380   -0.165898   -0.038505
     19          1           0        2.187700    0.542151    0.381385
     20          1           0       -1.141311   -1.988980   -0.755560
     21          1           0        2.798669   -2.145591    0.155992
     22          1           0        0.131906   -2.185470   -1.991550
     23          1           0        0.365314    1.335830    1.768110
     24          1           0       -1.102010   -0.132275   -2.516090
     25          1           0       -3.549130   -0.970569   -1.468070
     26          1           0       -3.986400    0.003603    0.564161
     27          1           0        0.633712    0.115456   -1.992230
     28          1           0       -2.734780    1.275610   -1.289540
     29          1           0       -2.310550    1.788910    0.325932
     30          1           0       -2.419860   -0.586195    1.047610
     31          1           0       -0.711800    2.758830   -1.351560
     32          1           0       -1.069570    2.906250    1.165000
     33          1           0        0.324489    3.845170    0.605238
     34          1           0        0.796252    2.012840   -1.090790
     35          7           0       -0.806448    0.774151   -0.610583
     36          7           0        0.822693   -1.579960   -0.124296
     37          8           0       -0.360334   -0.174153    1.895390
     38          8           0       -3.092110   -1.335200   -0.706407
     39          8           0        0.869698    2.135980    1.524270
     40          8           0        2.671880    0.740326   -1.605990
 ---------------------------------------------------------------------

 SCF Done:  E(RHF) =  -804.760284018     A.U. after    2 cycles

 The electronic state is 1-A.
 Alpha  occ. eigenvalues --  -21.06994 -21.06647 -21.03318 -21.02602 -15.70374
 Alpha  occ. eigenvalues --  -15.67828 -11.47030 -11.46373 -11.46048 -11.45290
 Alpha  occ. eigenvalues --  -11.44720 -11.39583 -11.38882 -11.38146 -11.37812
 Alpha  occ. eigenvalues --  -11.37087  -1.72074  -1.71404  -1.70449  -1.67586
 Alpha  occ. eigenvalues --   -1.44906  -1.40012  -1.14140  -1.10952  -1.10430
 Alpha  occ. eigenvalues --   -1.03709  -0.97347  -0.90021  -0.88947  -0.87099
 Alpha  occ. eigenvalues --   -0.81970  -0.79450  -0.69184  -0.68947  -0.67188
 Alpha  occ. eigenvalues --   -0.66289  -0.64966  -0.63177  -0.61989  -0.61201
 Alpha  occ. eigenvalues --   -0.60809  -0.59742  -0.59345  -0.56930  -0.56132
 Alpha  occ. eigenvalues --   -0.54236  -0.52465  -0.52150  -0.50830  -0.50060
 Alpha  occ. eigenvalues --   -0.47790  -0.46815  -0.45665  -0.44407  -0.43624
 Alpha  occ. eigenvalues --   -0.41612  -0.40392  -0.39296  -0.38416  -0.32244
 Alpha  occ. eigenvalues --   -0.32071  -0.30479  -0.29631  -0.27634  -0.26759
 Alpha virt. eigenvalues --    0.03960   0.04276   0.04376   0.04836   0.05107
 Alpha virt. eigenvalues --    0.05244   0.05535   0.05840   0.06322   0.06459
 Alpha virt. eigenvalues --    0.06828   0.06981   0.07056   0.07635   0.08322

 Mulliken charges:
               1
     1  C   -1.607673
     2  C   -2.565443
     3  C   -4.012056
     4  C   -1.639767
     5  C   -3.108016
     6  C   -3.946967
     7  C   -3.063922
     8  C   -2.019916
     9  C   -2.758768
    10  C   -0.925158
    11  H    1.512363
    12  H    1.719964
    13  H    1.863588
    14  H    1.319285
    15  H    3.404475
    16  H    0.863659
    17  H    1.740868
    18  H    1.176055
    19  H    2.446063
    20  H    1.859489
    21  H    1.495705
    22  H    1.237679
    23  H    1.677592
    24  H    1.210478
    25  H    0.708497
    26  H    1.264427
    27  H    2.301159
    28  H    1.313894
    29  H    1.870164
    30  H    1.311825
    31  H    1.425988
    32  H    1.473161
    33  H    1.325470
    34  H    2.264886
    35  N    1.307423
    36  N   -1.639078
    37  O   -3.684972
    38  O   -2.787885
    39  O   -3.224041
    40  O   -3.110494
 Sum of Mulliken charges =   0.00000

 Dipole moment (field-independent basis, Debye):
    X=             -0.4441    Y=             -0.4786    Z=             -1.2523  Tot=              1.4122

 Test job not archived.
 1\1\GINC-SE099\SP\RHF\Aug-CC-pVDZ\C10H24N2O4\OHZDE\08-Apr-2025\0\\#t h
 f aug-cc-pvdz iop(5/13=1,5/36=2,99/5=2) pseudo=read geom=check guess=(
 read,tcheck) scf=(maxcycle=1)\\title\\0,1\C,0,-3.00922,-0.237969,0.198
 518\C,0,-2.28029,0.94519,-0.381222\C,0,-0.205717,2.1458,-0.666118\C,0,
 -0.048358,2.8363,0.699433\C,0,-0.407623,-0.133299,-1.6518\C,0,-0.20036
 ,-1.55427,-1.15158\C,0,0.510738,-2.24083,1.10067\C,0,0.570819,-1.19049
 ,2.23174\C,0,2.2019,-1.44471,-0.47276\C,0,2.76257,0.0160053,-0.374584\
 H,0,1.21029,-3.05725,1.26838\H,0,-0.455254,-2.73045,1.03985\H,0,1.6034

 Normal termination of Gaussian 16 at Tue Apr  8 19:39:20 2025.
