 Gaussian 16, Revision C.01,

 ----------------------------------------------------------------------
 #t hf aug-cc-pvdz symm=none int=(grid=ultrafine) guess=(read,tcheck) s
 table=(opt,rrhf)
 ----------------------------------------------------------------------
 -----
 title
 -----
 Symbolic Z-matrix:
 Charge =  0 Multiplicity = 1

 SCF Done:  E(RHF) =  -489.691470730     A.U. after   15 cycles
 Normal termination of Gaussian 16 at Tue Apr  8 22:16:09 2025.
 Gaussian 16:  ES64L-G16RevC.01  3-Jul-2019

 ----------------------------------------------------------------------
 #t hf aug-cc-pvdz iop(5/13=1,5/36=2,99/5=2) pseudo=read geom=check gue
 ss=(read,tcheck) scf=(maxcycle=1)
 ----------------------------------------------------------------------
 -----
 title
 -----
 Structure from the checkpoint file:  "ANI1ccx_957_conf48_mol1.chk"
 Charge =  0 Multiplicity = 1

                         Standard orientation:
 ---------------------------------------------------------------------
 Center     Atomic      Atomic             Coordinates (Angstroms)
 Number     Number       Type             X           Y           Z
 ---------------------------------------------------------------------
      1          6           0        0.716829    0.316861    0.876480
      2          6           0        1.378320   -0.643293   -0.131385
      3          6           0       -0.753474   -0.100158    1.126289
      4          6           0       -1.721320   -0.135008   -0.103356
      5          1           0        2.072539    0.854675   -0.749428
      6          1           0       -2.163832    1.385158   -1.554501
      7          1           0       -0.473368    0.999917   -1.294431
      8          1           0       -1.210131    0.530970    1.863249
      9          1           0        1.190839    0.069775    1.816749
     10          1           0        0.167124    2.099791    0.093130
     11          1           0        1.339727    2.247412    1.243719
     12          1           0       -0.845146   -1.123650    1.708079
     13          7           0        1.001058    1.678782    0.479692
     14          7           0       -1.467441    0.916198   -1.030181
     15          8           0       -2.661260   -0.845770   -0.124440
     16          8           0        1.332731   -1.852248   -0.009797
     17          8           0        2.011629   -0.034396   -1.100931
 ---------------------------------------------------------------------

 SCF Done:  E(RHF) =  -491.840881391     A.U. after    2 cycles

 The electronic state is 1-A.
 Alpha  occ. eigenvalues --  -21.12492 -21.05583 -21.04260 -15.78365 -15.77922
 Alpha  occ. eigenvalues --  -11.53012 -11.52507 -11.47949 -11.42063  -1.84528
 Alpha  occ. eigenvalues --   -1.73600  -1.65495  -1.40925  -1.33490  -1.14461
 Alpha  occ. eigenvalues --   -0.99245  -0.82681  -0.78183  -0.75911  -0.71703
 Alpha  occ. eigenvalues --   -0.69179  -0.65222  -0.62072  -0.60095  -0.57309
 Alpha  occ. eigenvalues --   -0.53063  -0.51641  -0.50395  -0.46255  -0.44921
 Alpha  occ. eigenvalues --   -0.41736  -0.35781  -0.33322  -0.29772  -0.28718
 Alpha virt. eigenvalues --    0.02624   0.03841   0.04077   0.04950   0.05848
 Alpha virt. eigenvalues --    0.07181   0.07763   0.07996   0.10195   0.11278
 Alpha virt. eigenvalues --    0.11503   0.12464   0.13253   0.13411   0.13945

 Mulliken charges:
               1
     1  C   -1.112743
     2  C    6.721893
     3  C   -2.881421
     4  C    4.620617
     5  H    1.202810
     6  H    0.731679
     7  H    0.705162
     8  H    1.483170
     9  H    1.568014
    10  H    0.636626
    11  H    0.511109
    12  H    1.156488
    13  N   -2.868986
    14  N   -2.739635
    15  O   -3.160661
    16  O   -3.359756
    17  O   -3.214367
 Sum of Mulliken charges =   0.00000

 Dipole moment (field-independent basis, Debye):
    X=              0.2578    Y=              4.4075    Z=              1.0306  Tot=              4.5337

 Test job not archived.
 1\1\GINC-SE398\SP\RHF\Aug-CC-pVDZ\C4H8N2O3\OHZDE\08-Apr-2025\0\\#t hf
 aug-cc-pvdz iop(5/13=1,5/36=2,99/5=2) pseudo=read geom=check guess=(re
 ad,tcheck) scf=(maxcycle=1)\\title\\0,1\C,0,0.71683,0.31686,0.876481\C
 ,0,1.37832,-0.643295,-0.131384\C,0,-0.753474,-0.100158,1.12629\C,0,-1.
 72132,-0.135007,-0.103355\H,0,2.07254,0.854672,-0.749427\H,0,-2.16383,
 1.38516,-1.5545\H,0,-0.473366,0.999917,-1.29443\H,0,-1.21013,0.530971,
 1.86325\H,0,1.19084,0.0697733,1.81675\H,0,0.167127,2.09979,0.0931308\H
 ,0,1.33973,2.24741,1.24372\H,0,-0.845147,-1.12365,1.70808\N,0,1.00106,

 Normal termination of Gaussian 16 at Tue Apr  8 22:16:16 2025.
