 Gaussian 16, Revision C.01,

 ----------------------------------------------------------------------
 #t hf aug-cc-pvdz symm=none int=(grid=ultrafine) guess=(read,tcheck) s
 table=(opt,rrhf)
 ----------------------------------------------------------------------
 -----
 title
 -----
 Symbolic Z-matrix:
 Charge =  0 Multiplicity = 1

 SCF Done:  E(RHF) =  -416.615165012     A.U. after   14 cycles
 Normal termination of Gaussian 16 at Tue Apr  8 21:54:55 2025.
 Gaussian 16:  ES64L-G16RevC.01  3-Jul-2019

 ----------------------------------------------------------------------
 #t hf aug-cc-pvdz iop(5/13=1,5/36=2,99/5=2) pseudo=read geom=check gue
 ss=(read,tcheck) scf=(maxcycle=1)
 ----------------------------------------------------------------------
 -----
 title
 -----
 Structure from the checkpoint file:  "ANI1ccx_740_conf3_mol2.chk"
 Charge =  0 Multiplicity = 1

                         Standard orientation:
 ---------------------------------------------------------------------
 Center     Atomic      Atomic             Coordinates (Angstroms)
 Number     Number       Type             X           Y           Z
 ---------------------------------------------------------------------
      1          6           0        1.360599    0.013947    0.809185
      2          6           0        0.039773    0.722386    0.421220
      3          6           0       -1.089420   -0.227939    0.098669
      4          1           0        1.950920   -0.173338   -1.029790
      5          1           0        1.272200   -0.643621    1.670750
      6          1           0        2.124668    0.767388    1.063010
      7          1           0       -0.327932    1.371829    1.244920
      8          1           0       -0.478899    1.853399   -1.099540
      9          1           0        0.210899   -1.485580   -0.538041
     10          8           0        1.803890   -0.771758   -0.292175
     11          8           0        0.354741    1.480510   -0.731546
     12          8           0       -0.755157   -1.430471   -0.389156
     13          8           0       -2.230671    0.129163    0.252156
 ---------------------------------------------------------------------

 SCF Done:  E(RHF) =  -418.376796199     A.U. after    2 cycles

 The electronic state is 1-A.
 Alpha  occ. eigenvalues --  -21.11092 -21.10673 -21.10640 -21.05447 -11.53904
 Alpha  occ. eigenvalues --  -11.48541 -11.43528  -1.83906  -1.76395  -1.72815
 Alpha  occ. eigenvalues --   -1.65724  -1.12661  -0.95191  -0.80190  -0.74669
 Alpha  occ. eigenvalues --   -0.70712  -0.63366  -0.61298  -0.56562  -0.54687
 Alpha  occ. eigenvalues --   -0.51935  -0.50465  -0.45406  -0.42845  -0.37296
 Alpha  occ. eigenvalues --   -0.34914  -0.33425  -0.28533
 Alpha virt. eigenvalues --    0.03539   0.04747   0.05166   0.05668   0.06116
 Alpha virt. eigenvalues --    0.07625   0.10113   0.10547   0.10838   0.13236
 Alpha virt. eigenvalues --    0.13811   0.14749   0.15114   0.15494   0.15858

 Mulliken charges:
               1
     1  C   -1.132539
     2  C    0.004139
     3  C    5.640778
     4  H    0.777039
     5  H    1.463914
     6  H    1.237627
     7  H    1.572133
     8  H    0.785455
     9  H    1.258667
    10  O   -2.390902
    11  O   -2.926178
    12  O   -3.123000
    13  O   -3.167133
 Sum of Mulliken charges =   0.00000

 Dipole moment (field-independent basis, Debye):
    X=              2.6382    Y=              0.6473    Z=             -0.0689  Tot=              2.7173

 Test job not archived.
 1\1\GINC-SE187\SP\RHF\Aug-CC-pVDZ\C3H6O4\OHZDE\08-Apr-2025\0\\#t hf au
 g-cc-pvdz iop(5/13=1,5/36=2,99/5=2) pseudo=read geom=check guess=(read
 ,tcheck) scf=(maxcycle=1)\\title\\0,1\C,0,1.3606,0.0139453,0.809185\C,
 0,0.0397744,0.722386,0.42122\C,0,-1.08942,-0.227937,0.0986691\H,0,1.95
 092,-0.173341,-1.02979\H,0,1.2722,-0.643623,1.67075\H,0,2.12467,0.7673
 85,1.06301\H,0,-0.32793,1.37183,1.24492\H,0,-0.478896,1.8534,-1.09954\
 H,0,0.210898,-1.48558,-0.538041\O,0,1.80389,-0.77176,-0.292175\O,0,0.3
 54744,1.48051,-0.731546\O,0,-0.755158,-1.43047,-0.389156\O,0,-2.23067,

 Normal termination of Gaussian 16 at Tue Apr  8 21:54:59 2025.
