 Gaussian 16, Revision C.01,

 ----------------------------------------------------------------------
 #t hf aug-cc-pvdz symm=none int=(grid=ultrafine) guess=(read,tcheck) s
 table=(opt,rrhf)
 ----------------------------------------------------------------------
 -----
 title
 -----
 Symbolic Z-matrix:
 Charge =  0 Multiplicity = 1

 SCF Done:  E(RHF) =  -302.699248702     A.U. after   13 cycles
 Normal termination of Gaussian 16 at Tue Apr  8 21:46:49 2025.
 Gaussian 16:  ES64L-G16RevC.01  3-Jul-2019

 ----------------------------------------------------------------------
 #t hf aug-cc-pvdz iop(5/13=1,5/36=2,99/5=2) pseudo=read geom=check gue
 ss=(read,tcheck) scf=(maxcycle=1)
 ----------------------------------------------------------------------
 -----
 title
 -----
 Structure from the checkpoint file:  "ANI1ccx_528_conf34_mol1.chk"
 Charge =  0 Multiplicity = 1

                         Standard orientation:
 ---------------------------------------------------------------------
 Center     Atomic      Atomic             Coordinates (Angstroms)
 Number     Number       Type             X           Y           Z
 ---------------------------------------------------------------------
      1          6           0       -0.684242   -0.780881    0.064762
      2          6           0        0.515124    0.114659   -0.029230
      3          1           0       -1.614129    0.920392    0.131861
      4          1           0       -0.595923   -1.359719    0.993213
      5          1           0       -0.681466   -1.574130   -0.746576
      6          1           0        1.766791   -1.330799   -0.124429
      7          8           0       -1.842869   -0.021269   -0.065236
      8          8           0        1.774841   -0.385564   -0.009386
      9          8           0        0.335457    1.324531    0.016214
 ---------------------------------------------------------------------

 SCF Done:  E(RHF) =  -303.966136488     A.U. after    2 cycles

 The electronic state is 1-A.
 Alpha  occ. eigenvalues --  -21.15324 -21.07843 -21.06569 -11.54217 -11.45050
 Alpha  occ. eigenvalues --   -1.84850  -1.73094  -1.65991  -1.06985  -0.81397
 Alpha  occ. eigenvalues --   -0.73720  -0.67150  -0.60898  -0.53747  -0.52886
 Alpha  occ. eigenvalues --   -0.51201  -0.40528  -0.35982  -0.33550  -0.32370
 Alpha virt. eigenvalues --    0.02725   0.05110   0.05451   0.07129   0.09435
 Alpha virt. eigenvalues --    0.11271   0.11533   0.11689   0.12847   0.15201
 Alpha virt. eigenvalues --    0.16634   0.16828   0.18805   0.21966   0.22501

 Mulliken charges:
               1
     1  C   -0.486156
     2  C    4.559504
     3  H    0.819480
     4  H    1.252977
     5  H    1.274052
     6  H    0.975835
     7  O   -2.677819
     8  O   -2.990032
     9  O   -2.727841
 Sum of Mulliken charges =   0.00000

 Dipole moment (field-independent basis, Debye):
    X=              0.7524    Y=             -1.8623    Z=              0.0708  Tot=              2.0098

 Test job not archived.
 1\1\GINC-SE132\SP\RHF\Aug-CC-pVDZ\C2H4O3\OHZDE\08-Apr-2025\0\\#t hf au
 g-cc-pvdz iop(5/13=1,5/36=2,99/5=2) pseudo=read geom=check guess=(read
 ,tcheck) scf=(maxcycle=1)\\title\\0,1\C,0,-0.684243,-0.780881,0.064761
 7\C,0,0.515123,0.114658,-0.02923\H,0,-1.61413,0.920392,0.131861\H,0,-0
 .595924,-1.35972,0.993213\H,0,-0.681467,-1.57413,-0.746576\H,0,1.76679
 ,-1.3308,-0.124429\O,0,-1.84287,-0.0212688,-0.0652358\O,0,1.77484,-0.3
 85565,-0.00938594\O,0,0.335456,1.32453,0.0162143\\Version=ES64L-G16Rev
 C.01\State=1-A\HF=-303.9661365\RMSD=1.919e-01\Dipole=0.296021,-0.73268

 Normal termination of Gaussian 16 at Tue Apr  8 21:46:51 2025.
