 Gaussian 16, Revision C.01,

 ----------------------------------------------------------------------
 #t hf aug-cc-pvdz symm=none int=(grid=ultrafine) guess=(read,tcheck) s
 table=(opt,rrhf)
 ----------------------------------------------------------------------
 -----
 title
 -----
 Symbolic Z-matrix:
 Charge =  0 Multiplicity = 1

 SCF Done:  E(RHF) =  -447.706699975     A.U. after   15 cycles
 Normal termination of Gaussian 16 at Tue Apr  8 22:11:30 2025.
 Gaussian 16:  ES64L-G16RevC.01  3-Jul-2019

 ----------------------------------------------------------------------
 #t hf aug-cc-pvdz iop(5/13=1,5/36=2,99/5=2) pseudo=read geom=check gue
 ss=(read,tcheck) scf=(maxcycle=1)
 ----------------------------------------------------------------------
 -----
 title
 -----
 Structure from the checkpoint file:  "ANI1ccx_921_conf1_mol2.chk"
 Charge =  0 Multiplicity = 1

                         Standard orientation:
 ---------------------------------------------------------------------
 Center     Atomic      Atomic             Coordinates (Angstroms)
 Number     Number       Type             X           Y           Z
 ---------------------------------------------------------------------
      1          6           0       -1.353799   -0.058339   -0.019661
      2          6           0       -0.832800    1.191087    0.053272
      3          6           0        0.630311    1.380542   -0.006481
      4          6           0        0.874318   -0.936512   -0.002786
      5          1           0       -2.892446   -1.128060    0.625108
      6          1           0       -3.308921    0.353527    0.007224
      7          1           0       -1.509136    2.040065    0.022443
      8          1           0        1.359800   -2.854505    0.507455
      9          1           0        2.632857   -1.851951   -0.002212
     10          1           0       -0.844418   -1.978323   -0.424401
     11          7           0       -2.681468   -0.441002   -0.095549
     12          7           0        1.429620    0.217256    0.041963
     13          7           0        1.650268   -2.085714   -0.082889
     14          7           0       -0.471392   -1.147971    0.032811
     15          8           0        1.145612    2.520074   -0.019504
 ---------------------------------------------------------------------

 SCF Done:  E(RHF) =  -449.714129359     A.U. after    2 cycles

 The electronic state is 1-A.
 Alpha  occ. eigenvalues --  -20.99991 -15.81036 -15.80086 -15.79044 -15.71452
 Alpha  occ. eigenvalues --  -11.52218 -11.51186 -11.48952 -11.38288  -1.66166
 Alpha  occ. eigenvalues --   -1.56812  -1.43088  -1.30506  -1.29382  -1.11676
 Alpha  occ. eigenvalues --   -0.92087  -0.88914  -0.76903  -0.73621  -0.69916
 Alpha  occ. eigenvalues --   -0.67994  -0.63580  -0.62549  -0.60826  -0.55210
 Alpha  occ. eigenvalues --   -0.51778  -0.47787  -0.45961  -0.41737  -0.38076
 Alpha  occ. eigenvalues --   -0.34264  -0.27341  -0.25726
 Alpha virt. eigenvalues --    0.02232   0.03589   0.04464   0.05549   0.06463
 Alpha virt. eigenvalues --    0.06611   0.09895   0.11034   0.11191   0.11798
 Alpha virt. eigenvalues --    0.12609   0.13766   0.14163   0.14345   0.14704

 Mulliken charges:
               1
     1  C    3.964097
     2  C   -1.140456
     3  C    4.172076
     4  C    3.914361
     5  H    0.509122
     6  H    0.538296
     7  H    1.386660
     8  H    0.563396
     9  H    0.616382
    10  H    0.640797
    11  N   -3.363659
    12  N   -2.789217
    13  N   -2.954345
    14  N   -2.712794
    15  O   -3.344718
 Sum of Mulliken charges =   0.00000

 Dipole moment (field-independent basis, Debye):
    X=             -3.8979    Y=             -5.7668    Z=              1.1018  Tot=              7.0473

 Test job not archived.
 1\1\GINC-SE087\SP\RHF\Aug-CC-pVDZ\C4H6N4O1\OHZDE\08-Apr-2025\0\\#t hf
 aug-cc-pvdz iop(5/13=1,5/36=2,99/5=2) pseudo=read geom=check guess=(re
 ad,tcheck) scf=(maxcycle=1)\\title\\0,1\C,0,-1.3538,-0.0583345,-0.0196
 61\C,0,-0.832796,1.19109,0.0532724\C,0,0.630315,1.38054,-0.0064814\C,0
 ,0.874314,-0.936515,-0.00278564\H,0,-2.89245,-1.12805,0.625108\H,0,-3.
 30892,0.353538,0.00722353\H,0,-1.50913,2.04007,0.0224428\H,0,1.35979,-
 2.85451,0.507455\H,0,2.63285,-1.85196,-0.0022121\H,0,-0.844425,-1.9783
 2,-0.424401\N,0,-2.68147,-0.440993,-0.0955493\N,0,1.42962,0.217251,0.0

 Normal termination of Gaussian 16 at Tue Apr  8 22:11:36 2025.
