 Gaussian 16, Revision C.01,

 ----------------------------------------------------------------------
 #t hf aug-cc-pvdz symm=none int=(grid=ultrafine) guess=(read,tcheck) s
 table=(opt,rrhf)
 ----------------------------------------------------------------------
 -----
 title
 -----
 Symbolic Z-matrix:
 Charge =  0 Multiplicity = 1

 SCF Done:  E(RHF) =  -277.903974578     A.U. after   15 cycles
 Normal termination of Gaussian 16 at Tue Apr  8 21:37:41 2025.
 Gaussian 16:  ES64L-G16RevC.01  3-Jul-2019

 ----------------------------------------------------------------------
 #t hf aug-cc-pvdz iop(5/13=1,5/36=2,99/5=2) pseudo=read geom=check gue
 ss=(read,tcheck) scf=(maxcycle=1)
 ----------------------------------------------------------------------
 -----
 title
 -----
 Structure from the checkpoint file:  "ANI1ccx_389_conf1_mol1.chk"
 Charge =  0 Multiplicity = 1

                         Standard orientation:
 ---------------------------------------------------------------------
 Center     Atomic      Atomic             Coordinates (Angstroms)
 Number     Number       Type             X           Y           Z
 ---------------------------------------------------------------------
      1          6           0        1.040658   -0.177272    0.219808
      2          1           0        1.108278    1.719419   -0.529601
      3          1           0       -0.399215    1.266529    0.210065
      4          1           0        0.328091   -0.735314    0.854446
      5          7           0        0.519060    1.014529   -0.122600
      6          7           0       -1.946092    0.235142    0.262613
      7          7           0       -2.055661   -0.705204   -0.309964
      8          8           0        2.137219   -0.624785   -0.083013
 ---------------------------------------------------------------------

 SCF Done:  E(RHF) =  -279.094634961     A.U. after    2 cycles

 The electronic state is 1-A.
 Alpha  occ. eigenvalues --  -21.03023 -15.90225 -15.89528 -15.78393 -11.48137
 Alpha  occ. eigenvalues --   -1.69178  -1.59321  -1.35691  -0.87658  -0.84103
 Alpha  occ. eigenvalues --   -0.74036  -0.63945  -0.60669  -0.60321  -0.59245
 Alpha  occ. eigenvalues --   -0.52779  -0.49741  -0.32703  -0.29311
 Alpha virt. eigenvalues --    0.04072   0.05655   0.06382   0.10169   0.10470
 Alpha virt. eigenvalues --    0.11561   0.12726   0.13789   0.13958   0.14791
 Alpha virt. eigenvalues --    0.15393   0.17573   0.17746   0.19144   0.19596

 Mulliken charges:
               1
     1  C    2.060664
     2  H    0.647058
     3  H    0.855115
     4  H    1.485987
     5  N   -2.353501
     6  N    0.092979
     7  N   -0.155832
     8  O   -2.632470
 Sum of Mulliken charges =  -0.00000

 Dipole moment (field-independent basis, Debye):
    X=             -2.2992    Y=              1.7510    Z=              0.2421  Tot=              2.9002

 Test job not archived.
 1\1\GINC-SE094\SP\RHF\Aug-CC-pVDZ\C1H3N3O1\OHZDE\08-Apr-2025\0\\#t hf
 aug-cc-pvdz iop(5/13=1,5/36=2,99/5=2) pseudo=read geom=check guess=(re
 ad,tcheck) scf=(maxcycle=1)\\title\\0,1\C,0,1.04066,-0.177271,0.219808
 \H,0,1.10828,1.71942,-0.529601\H,0,-0.399213,1.26653,0.210065\H,0,0.32
 8092,-0.735313,0.854446\N,0,0.519062,1.01453,-0.1226\N,0,-1.94609,0.23
 5144,0.262613\N,0,-2.05566,-0.705202,-0.309964\O,0,2.13722,-0.624785,-
 0.0830129\\Version=ES64L-G16RevC.01\State=1-A\HF=-279.094635\RMSD=8.75
 6e-02\Dipole=-0.9045941,0.6888918,0.0952569\Quadrupole=-2.2576332,1.92

 Normal termination of Gaussian 16 at Tue Apr  8 21:37:43 2025.
