 Gaussian 16, Revision C.01,

 ----------------------------------------------------------------------
 #t hf aug-cc-pvdz symm=none int=(grid=ultrafine) guess=(read,tcheck) s
 table=(opt,rrhf)
 ----------------------------------------------------------------------
 -----
 title
 -----
 Symbolic Z-matrix:
 Charge =  0 Multiplicity = 1

 SCF Done:  E(RHF) =  -380.238902197     A.U. after   11 cycles
 Normal termination of Gaussian 16 at Tue Apr  8 21:06:29 2025.
 Gaussian 16:  ES64L-G16RevC.01  3-Jul-2019

 ----------------------------------------------------------------------
 #t hf aug-cc-pvdz iop(5/13=1,5/36=2,99/5=2) pseudo=read geom=check gue
 ss=(read,tcheck) scf=(maxcycle=1)
 ----------------------------------------------------------------------
 -----
 title
 -----
 Structure from the checkpoint file:  "ANI1ccx_1843_conf4_mol1.chk"
 Charge =  0 Multiplicity = 1

                         Standard orientation:
 ---------------------------------------------------------------------
 Center     Atomic      Atomic             Coordinates (Angstroms)
 Number     Number       Type             X           Y           Z
 ---------------------------------------------------------------------
      1          1           0        0.984221   -1.640831   -0.063755
      2          1           0        2.404715   -1.788499   -0.689787
      3          1           0       -1.345707   -1.469220   -0.074563
      4          1           0       -0.910906   -2.850487    0.542993
      5          1           0       -2.880250   -0.012176    0.832039
      6          1           0       -1.876596    0.763612   -0.060139
      7          1           0        0.235965    1.945933   -0.027030
      8          1           0       -0.818164    2.777824   -0.747541
      9          1           0        1.919467    0.410588   -0.028131
     10          1           0        2.436696    1.653662    0.759932
     11          8           0        1.910881   -1.312303    0.009648
     12          8           0       -0.622355   -2.140284   -0.048748
     13          8           0       -2.435289   -0.061875   -0.047827
     14          8           0       -0.720976    2.161425   -0.010194
     15          8           0        1.849059    1.379237    0.041619
 ---------------------------------------------------------------------

 SCF Done:  E(RHF) =  -381.883924486     A.U. after    2 cycles

 The electronic state is 1-A.
 Alpha  occ. eigenvalues --  -21.08376 -21.08060 -21.07712 -21.07633 -21.07530
 Alpha  occ. eigenvalues --   -1.68575  -1.66730  -1.65892  -1.63261  -1.63031
 Alpha  occ. eigenvalues --   -0.64309  -0.64202  -0.64011  -0.63379  -0.62451
 Alpha  occ. eigenvalues --   -0.51560  -0.50932  -0.45162  -0.44026  -0.39892
 Alpha  occ. eigenvalues --   -0.35717  -0.34605  -0.34455  -0.34038  -0.33765
 Alpha virt. eigenvalues --    0.03847   0.04994   0.05315   0.06250   0.06301
 Alpha virt. eigenvalues --    0.08759   0.09140   0.09558   0.10611   0.11706
 Alpha virt. eigenvalues --    0.18875   0.19034   0.20504   0.21440   0.21691

 Mulliken charges:
               1
     1  H    1.643305
     2  H    0.764576
     3  H    1.425092
     4  H    0.822080
     5  H    0.762562
     6  H    1.437434
     7  H    1.569483
     8  H    0.788149
     9  H    1.520835
    10  H    0.792030
    11  O   -2.289116
    12  O   -2.422913
    13  O   -2.199308
    14  O   -2.253690
    15  O   -2.360519
 Sum of Mulliken charges =  -0.00000

 Dipole moment (field-independent basis, Debye):
    X=              0.1222    Y=             -0.4181    Z=              0.4942  Tot=              0.6588

 Test job not archived.
 1\1\GINC-SE220\SP\RHF\Aug-CC-pVDZ\H10O5\OHZDE\08-Apr-2025\0\\#t hf aug
 -cc-pvdz iop(5/13=1,5/36=2,99/5=2) pseudo=read geom=check guess=(read,
 tcheck) scf=(maxcycle=1)\\title\\0,1\H,0,0.984207,-1.64084,-0.0637548\
 H,0,2.4047,-1.78852,-0.689787\H,0,-1.34572,-1.46921,-0.0745626\H,0,-0.
 91093,-2.85048,0.542993\H,0,-2.88025,-0.0121524,0.832039\H,0,-1.87659,
 0.763627,-0.0601386\H,0,0.235981,1.94593,-0.0270303\H,0,-0.818141,2.77
 783,-0.747541\H,0,1.91947,0.410571,-0.0281311\H,0,2.43671,1.65364,0.75
 9932\O,0,1.91087,-1.31232,0.00964773\O,0,-0.622373,-2.14028,-0.048748\

 Normal termination of Gaussian 16 at Tue Apr  8 21:06:32 2025.
