 Gaussian 16, Revision C.01,

 ----------------------------------------------------------------------
 #t hf aug-cc-pvdz symm=none int=(grid=ultrafine) guess=(read,tcheck) s
 table=(opt,rrhf)
 ----------------------------------------------------------------------
 -----
 title
 -----
 Symbolic Z-matrix:
 Charge =  0 Multiplicity = 1

 SCF Done:  E(RHF) =  -448.359766754     A.U. after   15 cycles
 Normal termination of Gaussian 16 at Tue Apr  8 21:51:00 2025.
 Gaussian 16:  ES64L-G16RevC.01  3-Jul-2019

 ----------------------------------------------------------------------
 #t hf aug-cc-pvdz iop(5/13=1,5/36=2,99/5=2) pseudo=read geom=check gue
 ss=(read,tcheck) scf=(maxcycle=1)
 ----------------------------------------------------------------------
 -----
 title
 -----
 Structure from the checkpoint file:  "ANI1ccx_656_conf2_mol1.chk"
 Charge =  0 Multiplicity = 1

                         Standard orientation:
 ---------------------------------------------------------------------
 Center     Atomic      Atomic             Coordinates (Angstroms)
 Number     Number       Type             X           Y           Z
 ---------------------------------------------------------------------
      1          6           0        1.387610    0.020154    0.004293
      2          6           0       -0.824585    0.792127    0.006128
      3          6           0       -0.830636   -0.798068    0.040336
      4          1           0        0.932000    2.033418   -0.038778
      5          1           0        0.874764   -2.009621    0.110199
      6          7           0        0.530646    1.093829   -0.027016
      7          7           0        0.463917   -1.056221    0.177706
      8          8           0        2.595290   -0.062601   -0.082514
      9          8           0       -1.724086    1.559714    0.030352
     10          8           0       -1.766583   -1.543656   -0.126688
 ---------------------------------------------------------------------

 SCF Done:  E(RHF) =  -450.218789383     A.U. after    2 cycles

 The electronic state is 1-A.
 Alpha  occ. eigenvalues --  -21.10604 -21.10075 -21.09195 -15.83358 -15.82944
 Alpha  occ. eigenvalues --  -11.57824 -11.57394 -11.53639  -1.80069  -1.76618
 Alpha  occ. eigenvalues --   -1.74079  -1.54784  -1.36692  -1.03484  -0.93102
 Alpha  occ. eigenvalues --   -0.85661  -0.71962  -0.70617  -0.66625  -0.60026
 Alpha  occ. eigenvalues --   -0.57928  -0.55144  -0.54261  -0.52804  -0.41852
 Alpha  occ. eigenvalues --   -0.37223  -0.36411  -0.34389  -0.30527
 Alpha virt. eigenvalues --    0.03253   0.05214   0.07871   0.09243   0.09298
 Alpha virt. eigenvalues --    0.09564   0.09912   0.10612   0.12147   0.12642
 Alpha virt. eigenvalues --    0.12946   0.13817   0.14050   0.15875   0.16230

 Mulliken charges:
               1
     1  C    4.862129
     2  C    3.669261
     3  C    3.882649
     4  H    0.719140
     5  H    0.666433
     6  N   -2.279470
     7  N   -2.330653
     8  O   -2.946956
     9  O   -3.139520
    10  O   -3.103012
 Sum of Mulliken charges =  -0.00000

 Dipole moment (field-independent basis, Debye):
    X=              1.3879    Y=              0.3180    Z=              0.0436  Tot=              1.4245

 Test job not archived.
 1\1\GINC-SE247\SP\RHF\Aug-CC-pVDZ\C3H2N2O3\OHZDE\08-Apr-2025\0\\#t hf
 aug-cc-pvdz iop(5/13=1,5/36=2,99/5=2) pseudo=read geom=check guess=(re
 ad,tcheck) scf=(maxcycle=1)\\title\\0,1\C,0,1.38761,0.0201562,0.004292
 5\C,0,-0.824587,0.792125,0.00612755\C,0,-0.830634,-0.79807,0.0403362\H
 ,0,0.931995,2.03342,-0.0387776\H,0,0.874768,-2.00962,0.110199\N,0,0.53
 0644,1.09383,-0.0270158\N,0,0.463919,-1.05622,0.177706\O,0,2.59529,-0.
 0625954,-0.0825136\O,0,-1.72409,1.55971,0.0303524\O,0,-1.76658,-1.5436
 6,-0.126688\\Version=ES64L-G16RevC.01\State=1-A\HF=-450.2187894\RMSD=1

 Normal termination of Gaussian 16 at Tue Apr  8 21:51:04 2025.
