 Gaussian 16, Revision C.01,

 ----------------------------------------------------------------------
 #t hf aug-cc-pvdz symm=none int=(grid=ultrafine) guess=(read,tcheck) s
 table=(opt,rrhf)
 ----------------------------------------------------------------------
 -----
 title
 -----
 Symbolic Z-matrix:
 Charge =  0 Multiplicity = 1

 SCF Done:  E(RHF) =  -608.512133735     A.U. after   13 cycles

 1\1\GINC-SE179\Stability\RHF\Aug-CC-pVDZ\C6H12O5\OHZDE\08-Apr-2025\0\\
 #t hf aug-cc-pvdz symm=none int=(grid=ultrafine) guess=(read,tcheck) s
 table=(opt,rrhf)\\title\\0,1\C,0,-1.62871,-0.702424,-0.125931\C,0,-0.5
 1862,-1.89542,-0.237679\C,0,0.957535,-1.36972,-0.0631569\C,0,1.07054,-
 0.0529721,0.813692\C,0,0.143988,1.0609,0.466614\C,0,-0.972857,0.586804
 ,-0.551209\H,0,-1.47851,2.30681,-0.295801\H,0,-0.47337,0.413608,-1.500
 11\H,0,1.39623,2.00585,-0.833487\H,0,-0.410734,1.31899,1.35257\H,0,2.7
 2701,0.699147,-0.00588507\H,0,0.676226,-0.3882,1.85005\H,0,2.41105,-0.

 Normal termination of Gaussian 16 at Tue Apr  8 19:30:38 2025.
 Gaussian 16:  ES64L-G16RevC.01  3-Jul-2019

 ----------------------------------------------------------------------
 #t hf aug-cc-pvdz iop(5/13=1,5/36=2,99/5=2) pseudo=read geom=check gue
 ss=(read,tcheck) scf=(maxcycle=1)
 ----------------------------------------------------------------------
 -----
 title
 -----
 Structure from the checkpoint file:  "ANI1ccx_1226_conf3_mol1.chk"
 Charge =  0 Multiplicity = 1

                         Standard orientation:
 ---------------------------------------------------------------------
 Center     Atomic      Atomic             Coordinates (Angstroms)
 Number     Number       Type             X           Y           Z
 ---------------------------------------------------------------------
      1          6           0       -1.628711   -0.702421   -0.125931
      2          6           0       -0.518624   -1.895419   -0.237679
      3          6           0        0.957533   -1.369723   -0.063157
      4          6           0        1.070541   -0.052975    0.813692
      5          6           0        0.143991    1.060899    0.466614
      6          6           0       -0.972855    0.586806   -0.551209
      7          1           0       -1.478504    2.306813   -0.295801
      8          1           0       -0.473368    0.413609   -1.500110
      9          1           0        1.396236    2.005846   -0.833487
     10          1           0       -0.410730    1.318990    1.352570
     11          1           0        2.727013    0.699140   -0.005885
     12          1           0        0.676226   -0.388202    1.850050
     13          1           0        2.411049   -0.990615   -1.265890
     14          1           0        1.537236   -2.244014    0.468754
     15          1           0       -0.724938   -2.560109    0.589976
     16          1           0       -0.584286   -2.540299   -1.106170
     17          1           0       -2.497861   -0.697156   -0.793610
     18          1           0       -2.379493   -1.560055    1.572110
     19          8           0       -2.065691   -0.695099    1.177740
     20          8           0        1.498188   -1.262934   -1.346310
     21          8           0        2.412062    0.458042    0.877436
     22          8           0        0.733737    2.245578   -0.133389
     23          8           0       -1.892025    1.563544   -0.806288
 ---------------------------------------------------------------------

 SCF Done:  E(RHF) =  -611.207487836     A.U. after    2 cycles

 The electronic state is 1-A.
 Alpha  occ. eigenvalues --  -21.09049 -21.08988 -21.07797 -21.06823 -21.05798
 Alpha  occ. eigenvalues --  -11.56401 -11.50498 -11.48161 -11.44997 -11.43058
 Alpha  occ. eigenvalues --  -11.38474  -1.78724  -1.74308  -1.72503  -1.70452
 Alpha  occ. eigenvalues --   -1.67700  -1.20786  -1.08249  -1.04594  -0.90794
 Alpha  occ. eigenvalues --   -0.86624  -0.78250  -0.70597  -0.70086  -0.67105
 Alpha  occ. eigenvalues --   -0.64558  -0.61968  -0.59590  -0.58396  -0.55965
 Alpha  occ. eigenvalues --   -0.54787  -0.53173  -0.49243  -0.47897  -0.46045
 Alpha  occ. eigenvalues --   -0.43858  -0.41793  -0.38996  -0.37849  -0.34340
 Alpha  occ. eigenvalues --   -0.33110  -0.31187  -0.30319  -0.29859
 Alpha virt. eigenvalues --    0.03415   0.04384   0.04613   0.04964   0.05219
 Alpha virt. eigenvalues --    0.05557   0.06222   0.07221   0.07354   0.08091
 Alpha virt. eigenvalues --    0.08530   0.09003   0.12213   0.13068   0.13251

 Mulliken charges:
               1
     1  C    1.974415
     2  C   -3.560486
     3  C    1.529252
     4  C    1.727652
     5  C    0.186412
     6  C    1.842804
     7  H    0.520537
     8  H    1.801296
     9  H    0.604793
    10  H    1.639202
    11  H    0.623377
    12  H    1.498057
    13  H    0.713229
    14  H    1.565242
    15  H    1.504213
    16  H    1.203511
    17  H    1.346687
    18  H    0.700829
    19  O   -3.586158
    20  O   -3.473378
    21  O   -3.541891
    22  O   -3.256518
    23  O   -3.563077
 Sum of Mulliken charges =   0.00000

 Dipole moment (field-independent basis, Debye):
    X=              0.7116    Y=             -1.0853    Z=             -0.0118  Tot=              1.2979

 Test job not archived.
 1\1\GINC-SE179\SP\RHF\Aug-CC-pVDZ\C6H12O5\OHZDE\08-Apr-2025\0\\#t hf a
 ug-cc-pvdz iop(5/13=1,5/36=2,99/5=2) pseudo=read geom=check guess=(rea
 d,tcheck) scf=(maxcycle=1)\\title\\0,1\C,0,-1.62871,-0.702424,-0.12593
 1\C,0,-0.51862,-1.89542,-0.237679\C,0,0.957535,-1.36972,-0.0631569\C,0
 ,1.07054,-0.0529721,0.813692\C,0,0.143988,1.0609,0.466614\C,0,-0.97285
 7,0.586804,-0.551209\H,0,-1.47851,2.30681,-0.295801\H,0,-0.47337,0.413
 608,-1.50011\H,0,1.39623,2.00585,-0.833487\H,0,-0.410734,1.31899,1.352
 57\H,0,2.72701,0.699147,-0.00588507\H,0,0.676226,-0.3882,1.85005\H,0,2

 Normal termination of Gaussian 16 at Tue Apr  8 19:30:55 2025.
