 Gaussian 16, Revision C.01,

 ----------------------------------------------------------------------
 #t hf aug-cc-pvdz symm=none int=(grid=ultrafine) guess=(read,tcheck) s
 table=(opt,rrhf)
 ----------------------------------------------------------------------
 -----
 title
 -----
 Symbolic Z-matrix:
 Charge =  0 Multiplicity = 1

 SCF Done:  E(RHF) =  -451.770551557     A.U. after   13 cycles
 Normal termination of Gaussian 16 at Tue Apr  8 21:57:34 2025.
 Gaussian 16:  ES64L-G16RevC.01  3-Jul-2019

 ----------------------------------------------------------------------
 #t hf aug-cc-pvdz iop(5/13=1,5/36=2,99/5=2) pseudo=read geom=check gue
 ss=(read,tcheck) scf=(maxcycle=1)
 ----------------------------------------------------------------------
 -----
 title
 -----
 Structure from the checkpoint file:  "ANI1ccx_764_conf43_mol1.chk"
 Charge =  0 Multiplicity = 1

                         Standard orientation:
 ---------------------------------------------------------------------
 Center     Atomic      Atomic             Coordinates (Angstroms)
 Number     Number       Type             X           Y           Z
 ---------------------------------------------------------------------
      1          6           0       -1.839930   -0.904819    0.470537
      2          6           0       -0.133127    0.862183    0.040824
      3          6           0        2.082480   -0.237337   -0.574350
      4          1           0       -2.766780    0.425822   -0.564307
      5          1           0       -2.010221   -2.054879    0.369314
      6          1           0       -2.023820   -0.339094    1.420830
      7          1           0        0.047195   -1.156700   -0.553924
      8          1           0        1.575311    1.710070   -0.165125
      9          1           0        1.679850   -1.069630   -1.174840
     10          1           0        3.019670    0.353507   -0.868793
     11          1           0        1.920909   -1.481810    0.887392
     12          7           0       -0.481523   -0.504731    0.091502
     13          7           0        1.184850    0.886415   -0.383772
     14          8           0       -2.813300   -0.536950   -0.592600
     15          8           0       -0.641192    1.864421    0.479418
     16          8           0        2.576750   -0.999875    0.497341
 ---------------------------------------------------------------------

 SCF Done:  E(RHF) =  -453.752420568     A.U. after    2 cycles

 The electronic state is 1-A.
 Alpha  occ. eigenvalues --  -21.09519 -21.07458 -21.05011 -15.77413 -15.76861
 Alpha  occ. eigenvalues --  -11.52620 -11.46692 -11.46617  -1.76140  -1.73949
 Alpha  occ. eigenvalues --   -1.69888  -1.44099  -1.32928  -1.00577  -0.96243
 Alpha  occ. eigenvalues --   -0.81280  -0.77394  -0.70183  -0.67229  -0.64297
 Alpha  occ. eigenvalues --   -0.60616  -0.59529  -0.56278  -0.52558  -0.51625
 Alpha  occ. eigenvalues --   -0.46887  -0.44893  -0.36601  -0.35060  -0.32805
 Alpha  occ. eigenvalues --   -0.31981  -0.31287
 Alpha virt. eigenvalues --    0.03497   0.04727   0.05172   0.05853   0.06095
 Alpha virt. eigenvalues --    0.06600   0.07264   0.08966   0.10433   0.11681
 Alpha virt. eigenvalues --    0.12514   0.12931   0.13108   0.14588   0.14737

 Mulliken charges:
               1
     1  C   -0.861398
     2  C    5.330394
     3  C   -0.139491
     4  H    0.795371
     5  H    1.467478
     6  H    1.549135
     7  H    0.633114
     8  H    0.425545
     9  H    1.498134
    10  H    1.346407
    11  H    0.864181
    12  N   -2.481649
    13  N   -2.513099
    14  O   -2.184381
    15  O   -2.989936
    16  O   -2.739805
 Sum of Mulliken charges =   0.00000

 Dipole moment (field-independent basis, Debye):
    X=              0.9880    Y=             -1.5415    Z=             -0.3952  Tot=              1.8731

 Test job not archived.
 1\1\GINC-SE044\SP\RHF\Aug-CC-pVDZ\C3H8N2O3\OHZDE\08-Apr-2025\0\\#t hf
 aug-cc-pvdz iop(5/13=1,5/36=2,99/5=2) pseudo=read geom=check guess=(re
 ad,tcheck) scf=(maxcycle=1)\\title\\0,1\C,0,-1.83993,-0.90482,0.470537
 \C,0,-0.133127,0.862183,0.0408242\C,0,2.08248,-0.237337,-0.57435\H,0,-
 2.76678,0.42582,-0.564307\H,0,-2.01022,-2.05488,0.369314\H,0,-2.02382,
 -0.339095,1.42083\H,0,0.0471954,-1.1567,-0.553924\H,0,1.57531,1.71007,
 -0.165125\H,0,1.67985,-1.06963,-1.17484\H,0,3.01967,0.353508,-0.868793
 \H,0,1.92091,-1.48181,0.887392\N,0,-0.481523,-0.504732,0.0915015\N,0,1

 Normal termination of Gaussian 16 at Tue Apr  8 21:57:39 2025.
