 Gaussian 16, Revision C.01,

 ----------------------------------------------------------------------
 #t hf aug-cc-pvdz symm=none int=(grid=ultrafine) guess=(read,tcheck) s
 table=(opt,rrhf)
 ----------------------------------------------------------------------
 -----
 title
 -----
 Symbolic Z-matrix:
 Charge =  0 Multiplicity = 1

 SCF Done:  E(RHF) =  -207.053833521     A.U. after   12 cycles
 Normal termination of Gaussian 16 at Tue Apr  8 21:13:19 2025.
 Gaussian 16:  ES64L-G16RevC.01  3-Jul-2019

 ----------------------------------------------------------------------
 #t hf aug-cc-pvdz iop(5/13=1,5/36=2,99/5=2) pseudo=read geom=check gue
 ss=(read,tcheck) scf=(maxcycle=1)
 ----------------------------------------------------------------------
 -----
 title
 -----
 Structure from the checkpoint file:  "ANI1ccx_1888_conf25_mol2.chk"
 Charge =  0 Multiplicity = 1

                         Standard orientation:
 ---------------------------------------------------------------------
 Center     Atomic      Atomic             Coordinates (Angstroms)
 Number     Number       Type             X           Y           Z
 ---------------------------------------------------------------------
      1          1           0        1.579578   -0.698843    0.574579
      2          1           0        2.701918    0.090878    0.033360
      3          1           0       -0.080237    0.983947    0.174521
      4          1           0       -1.536693   -0.877405    0.806716
      5          1           0       -1.703963   -0.867157   -0.789502
      6          7           0       -1.010652   -0.665767   -0.032431
      7          8           0        1.776818   -0.022133   -0.085082
      8          8           0       -1.012572    0.775751    0.013500
 ---------------------------------------------------------------------

 SCF Done:  E(RHF) =  -207.941306399     A.U. after    2 cycles

 The electronic state is 1-A.
 Alpha  occ. eigenvalues --  -21.10615 -21.06471 -15.76934  -1.73187  -1.67339
 Alpha  occ. eigenvalues --   -1.14729  -0.65181  -0.63861  -0.57431  -0.53277
 Alpha  occ. eigenvalues --   -0.47713  -0.37236  -0.34159  -0.30813
 Alpha virt. eigenvalues --    0.03844   0.05149   0.06178   0.07240   0.08140
 Alpha virt. eigenvalues --    0.14730   0.17911   0.19078   0.20818   0.21171
 Alpha virt. eigenvalues --    0.21931   0.23587   0.23732   0.26071   0.26714

 Mulliken charges:
               1
     1  H    0.851007
     2  H    0.987868
     3  H    1.039262
     4  H    0.753340
     5  H    0.768575
     6  N   -0.448058
     7  O   -1.828596
     8  O   -2.123399
 Sum of Mulliken charges =  -0.00000

 Dipole moment (field-independent basis, Debye):
    X=              0.4487    Y=             -0.6696    Z=              0.6605  Tot=              1.0421

 Test job not archived.
 1\1\GINC-SE340\SP\RHF\Aug-CC-pVDZ\H5N1O2\OHZDE\08-Apr-2025\0\\#t hf au
 g-cc-pvdz iop(5/13=1,5/36=2,99/5=2) pseudo=read geom=check guess=(read
 ,tcheck) scf=(maxcycle=1)\\title\\0,1\H,0,1.57958,-0.698843,0.574579\H
 ,0,2.70192,0.0908789,0.0333602\H,0,-0.0802348,0.983947,0.174521\H,0,-1
 .53669,-0.877405,0.806716\H,0,-1.70396,-0.867157,-0.789502\N,0,-1.0106
 5,-0.665767,-0.0324307\O,0,1.77682,-0.0221321,-0.0850824\O,0,-1.01257,
 0.775751,0.0135\\Version=ES64L-G16RevC.01\State=1-A\HF=-207.9413064\RM
 SD=3.018e-02\Dipole=0.1765221,-0.2634271,0.2598639\Quadrupole=2.851983

 Normal termination of Gaussian 16 at Tue Apr  8 21:13:21 2025.
