 Gaussian 16, Revision C.01,

 ----------------------------------------------------------------------
 #t hf aug-cc-pvdz symm=none int=(grid=ultrafine) guess=(read,tcheck) s
 table=(opt,rrhf)
 ----------------------------------------------------------------------
 -----
 title
 -----
 Symbolic Z-matrix:
 Charge =  0 Multiplicity = 1

 SCF Done:  E(RHF) =  -352.358527414     A.U. after   16 cycles
 Normal termination of Gaussian 16 at Tue Apr  8 21:49:53 2025.
 Gaussian 16:  ES64L-G16RevC.01  3-Jul-2019

 ----------------------------------------------------------------------
 #t hf aug-cc-pvdz iop(5/13=1,5/36=2,99/5=2) pseudo=read geom=check gue
 ss=(read,tcheck) scf=(maxcycle=1)
 ----------------------------------------------------------------------
 -----
 title
 -----
 Structure from the checkpoint file:  "ANI1ccx_648_conf2_mol2.chk"
 Charge =  0 Multiplicity = 1

                         Standard orientation:
 ---------------------------------------------------------------------
 Center     Atomic      Atomic             Coordinates (Angstroms)
 Number     Number       Type             X           Y           Z
 ---------------------------------------------------------------------
      1          6           0       -1.682069   -0.041783    0.012876
      2          6           0       -0.263686    0.025931   -0.048509
      3          6           0        1.771461   -0.505611    0.087617
      4          1           0        2.646212   -1.226538    0.072560
      5          7           0       -2.863569   -0.037491    0.029262
      6          7           0        0.370232    1.132581    0.000869
      7          7           0        1.668851    0.781612   -0.021830
      8          8           0        0.521369   -1.097699   -0.055321
 ---------------------------------------------------------------------

 SCF Done:  E(RHF) =  -353.858362704     A.U. after    2 cycles

 The electronic state is 1-A.
 Alpha  occ. eigenvalues --  -21.19331 -15.81780 -15.81568 -15.80301 -11.55362
 Alpha  occ. eigenvalues --  -11.51185 -11.47819  -1.94058  -1.54926  -1.34350
 Alpha  occ. eigenvalues --   -1.24485  -0.97177  -0.90035  -0.80628  -0.70108
 Alpha  occ. eigenvalues --   -0.66147  -0.60091  -0.54999  -0.51313  -0.48015
 Alpha  occ. eigenvalues --   -0.46529  -0.44809  -0.42285  -0.38947
 Alpha virt. eigenvalues --    0.02642   0.06975   0.07789   0.08578   0.09539
 Alpha virt. eigenvalues --    0.10803   0.11374   0.12084   0.12906   0.13580
 Alpha virt. eigenvalues --    0.13932   0.14249   0.15832   0.16723   0.17816

 Mulliken charges:
               1
     1  C    0.463929
     2  C    5.279311
     3  C    1.559739
     4  H    1.573496
     5  N   -2.355618
     6  N   -2.074069
     7  N   -1.346892
     8  O   -3.099896
 Sum of Mulliken charges =   0.00000

 Dipole moment (field-independent basis, Debye):
    X=              2.6932    Y=             -3.0416    Z=             -0.0594  Tot=              4.0631

 Test job not archived.
 1\1\GINC-SE332\SP\RHF\Aug-CC-pVDZ\C3H1N3O1\OHZDE\08-Apr-2025\0\\#t hf
 aug-cc-pvdz iop(5/13=1,5/36=2,99/5=2) pseudo=read geom=check guess=(re
 ad,tcheck) scf=(maxcycle=1)\\title\\0,1\C,0,-1.68207,-0.0417838,0.0128
 759\C,0,-0.263687,0.0259296,-0.0485094\C,0,1.77146,-0.505613,0.0876166
 \H,0,2.64621,-1.22654,0.0725603\N,0,-2.86357,-0.0374908,0.0292621\N,0,
 0.370231,1.13258,0.00086917\N,0,1.66885,0.78161,-0.0218304\O,0,0.52136
 7,-1.0977,-0.0553207\\Version=ES64L-G16RevC.01\State=1-A\HF=-353.85836
 27\RMSD=6.059e-01\Dipole=1.0596018,-1.1966671,-0.0233686\Quadrupole=-2

 Normal termination of Gaussian 16 at Tue Apr  8 21:49:55 2025.
