 Gaussian 16, Revision C.01,

 ----------------------------------------------------------------------
 #t hf aug-cc-pvdz symm=none int=(grid=ultrafine) guess=(read,tcheck) s
 table=(opt,rrhf)
 ----------------------------------------------------------------------
 -----
 title
 -----
 Symbolic Z-matrix:
 Charge =  0 Multiplicity = 1

 SCF Done:  E(RHF) =  -537.860863019     A.U. after   16 cycles
 Normal termination of Gaussian 16 at Tue Apr  8 22:20:34 2025.
 Gaussian 16:  ES64L-G16RevC.01  3-Jul-2019

 ----------------------------------------------------------------------
 #t hf aug-cc-pvdz iop(5/13=1,5/36=2,99/5=2) pseudo=read geom=check gue
 ss=(read,tcheck) scf=(maxcycle=1)
 ----------------------------------------------------------------------
 -----
 title
 -----
 Structure from the checkpoint file:  "ANI1ccx_988_conf6_mol1.chk"
 Charge =  0 Multiplicity = 1

                         Standard orientation:
 ---------------------------------------------------------------------
 Center     Atomic      Atomic             Coordinates (Angstroms)
 Number     Number       Type             X           Y           Z
 ---------------------------------------------------------------------
      1          6           0        2.067101   -0.397509   -0.021101
      2          6           0        0.757068    1.708320    0.518533
      3          6           0       -0.713834    1.809211    0.138327
      4          6           0       -1.400629    0.505581   -0.082281
      5          1           0       -0.097909   -1.126579    0.688106
      6          1           0       -0.787959    2.441651   -0.764952
      7          1           0       -1.308729    2.341251    0.943657
      8          1           0        1.202781    2.660890    0.568096
      9          1           0        0.766899    1.407930    1.609640
     10          1           0        2.036550   -2.124280    0.716761
     11          1           0        3.736131   -1.566130   -0.565280
     12          1           0        3.756031   -0.034090   -1.161790
     13          1           0        1.902261    1.365790   -1.103380
     14          7           0       -2.036989   -1.535899    0.193870
     15          7           0        3.153991   -0.761052   -0.797141
     16          7           0        1.620161   -1.217590    0.884482
     17          7           0        1.607731    0.862530   -0.255803
     18          7           0       -2.588749    0.397142   -0.598073
     19          7           0       -2.933489   -0.899716   -0.437727
     20          7           0       -1.031839   -0.719708    0.403001
 ---------------------------------------------------------------------

 SCF Done:  E(RHF) =  -540.335461351     A.U. after    2 cycles

 The electronic state is 1-A.
 Alpha  occ. eigenvalues --  -15.79545 -15.79118 -15.78548 -15.77026 -15.75236
 Alpha  occ. eigenvalues --  -15.72516 -15.72003 -11.52683 -11.49253 -11.45835
 Alpha  occ. eigenvalues --  -11.40336  -1.72864  -1.53322  -1.37079  -1.34780
 Alpha  occ. eigenvalues --   -1.28180  -1.25859  -1.13630  -0.97494  -0.86611
 Alpha  occ. eigenvalues --   -0.84766  -0.83113  -0.76140  -0.71306  -0.69205
 Alpha  occ. eigenvalues --   -0.67625  -0.65106  -0.62805  -0.61347  -0.59050
 Alpha  occ. eigenvalues --   -0.55538  -0.53185  -0.50704  -0.47167  -0.42399
 Alpha  occ. eigenvalues --   -0.38804  -0.38432  -0.38064  -0.37205  -0.34524
 Alpha  occ. eigenvalues --   -0.33888
 Alpha virt. eigenvalues --    0.02032   0.03302   0.04218   0.04836   0.05647
 Alpha virt. eigenvalues --    0.06109   0.06988   0.07406   0.09218   0.09778
 Alpha virt. eigenvalues --    0.10505   0.11399   0.12460   0.13273   0.14044

 Mulliken charges:
               1
     1  C    4.724496
     2  C   -2.267815
     3  C   -2.376458
     4  C    3.898048
     5  H    1.270266
     6  H    1.355132
     7  H    1.172105
     8  H    1.251961
     9  H    1.544972
    10  H    0.625741
    11  H    0.563981
    12  H    0.653700
    13  H    0.637270
    14  N   -0.222979
    15  N   -2.829351
    16  N   -2.900075
    17  N   -2.227826
    18  N   -2.241415
    19  N   -0.396380
    20  N   -2.235373
 Sum of Mulliken charges =  -0.00000

 Dipole moment (field-independent basis, Debye):
    X=              8.8795    Y=              3.1766    Z=             -0.3347  Tot=              9.4365

 Test job not archived.
 1\1\GINC-SE095\SP\RHF\Aug-CC-pVDZ\C4H9N7\OHZDE\08-Apr-2025\0\\#t hf au
 g-cc-pvdz iop(5/13=1,5/36=2,99/5=2) pseudo=read geom=check guess=(read
 ,tcheck) scf=(maxcycle=1)\\title\\0,1\C,0,2.0671,-0.397509,-0.0211015\
 C,0,0.757067,1.70832,0.518533\C,0,-0.713835,1.80921,0.138327\C,0,-1.40
 063,0.50558,-0.0822808\H,0,-0.0979099,-1.12658,0.688106\H,0,-0.78796,2
 .44165,-0.764952\H,0,-1.30873,2.34125,0.943657\H,0,1.20278,2.66089,0.5
 68096\H,0,0.766898,1.40793,1.60964\H,0,2.03655,-2.12428,0.716761\H,0,3
 .73613,-1.56613,-0.56528\H,0,3.75603,-0.0340902,-1.16179\H,0,1.90226,1

 Normal termination of Gaussian 16 at Tue Apr  8 22:20:45 2025.
