 Gaussian 16, Revision C.01,

 ----------------------------------------------------------------------
 #t hf aug-cc-pvdz symm=none int=(grid=ultrafine) guess=(read,tcheck) s
 table=(opt,rrhf)
 ----------------------------------------------------------------------
 -----
 title
 -----
 Symbolic Z-matrix:
 Charge =  0 Multiplicity = 1

 SCF Done:  E(RHF) =  -907.737375467     A.U. after   14 cycles
 Normal termination of Gaussian 16 at Tue Apr  8 22:41:48 2025.
 Gaussian 16:  ES64L-G16RevC.01  3-Jul-2019

 ----------------------------------------------------------------------
 #t hf aug-cc-pvdz iop(5/13=1,5/36=2,99/5=2) pseudo=read geom=check gue
 ss=(read,tcheck) scf=(maxcycle=1)
 ----------------------------------------------------------------------
 -----
 title
 -----
 Structure from the checkpoint file:  "ANI1ccx_88_conf2_mol2.chk"
 Charge =  0 Multiplicity = 1

                         Standard orientation:
 ---------------------------------------------------------------------
 Center     Atomic      Atomic             Coordinates (Angstroms)
 Number     Number       Type             X           Y           Z
 ---------------------------------------------------------------------
      1          6           0       -1.885371    1.909450   -0.173674
      2          6           0        2.447759    0.745256   -0.355835
      3          6           0        1.255969   -1.087500    1.020840
      4          6           0        1.293119   -0.240932   -0.269765
      5          6           0       -3.034981   -2.003770   -0.621576
      6          6           0        3.796089   -0.006006   -0.644846
      7          6           0       -3.025491   -0.132816    1.145040
      8          6           0       -2.905371    1.421280    0.917840
      9          6           0       -0.429913    1.436680    0.221493
     10          6           0       -3.845911   -0.944955    0.108933
     11          1           0       -2.559821   -1.534420   -2.559810
     12          1           0        2.227299   -1.620870    2.506900
     13          1           0        4.810119    1.610420    0.109666
     14          1           0        5.736029    0.371801   -0.641748
     15          1           0        2.288379    1.392000   -1.231590
     16          1           0        2.454589    1.397120    0.529667
     17          1           0        1.476879   -0.973451   -1.076150
     18          1           0       -0.681960   -0.111253   -1.011290
     19          1           0       -1.301761   -2.113150   -1.758360
     20          1           0       -3.756951   -2.710250   -1.049590
     21          1           0       -4.319651   -0.251215   -0.597920
     22          1           0       -2.326921    0.522451   -1.585660
     23          1           0       -4.664001   -1.507180    0.584897
     24          1           0       -2.006261   -0.532214    1.118400
     25          1           0       -3.392861   -0.352143    2.182310
     26          1           0       -2.652921    1.837810    1.898850
     27          1           0       -3.880981    1.869790    0.665489
     28          1           0       -1.900531    3.006070   -0.086338
     29          1           0       -3.239241    1.900010   -1.719000
     30          1           0       -2.466131   -2.601210    0.100373
     31          7           0       -2.310671    1.546300   -1.488250
     32          7           0       -2.099871   -1.495770   -1.653170
     33          7           0        0.038975    0.432431   -0.528637
     34          7           0        4.859989    0.843624   -0.546549
     35          8           0        0.355648   -1.787340    1.346770
     36          8           0        3.904839   -1.158600   -1.032060
     37          8           0        0.212091    2.029680    1.058850
     38          8           0        2.370219   -1.017030    1.757240
 ---------------------------------------------------------------------

 SCF Done:  E(RHF) =  -911.880137894     A.U. after    2 cycles

 The electronic state is 1-A.
 Alpha  occ. eigenvalues --  -21.12178 -21.05542 -21.03209 -21.01814 -15.77549
 Alpha  occ. eigenvalues --  -15.75282 -15.75096 -15.71571 -11.55015 -11.51667
 Alpha  occ. eigenvalues --  -11.51184 -11.48045 -11.46148 -11.44718 -11.41672
 Alpha  occ. eigenvalues --  -11.41115 -11.38791 -11.35818  -1.84553  -1.71457
 Alpha  occ. eigenvalues --   -1.69938  -1.66028  -1.42155  -1.36318  -1.34962
 Alpha  occ. eigenvalues --   -1.33487  -1.19084  -1.15999  -1.07013  -1.00104
 Alpha  occ. eigenvalues --   -0.96324  -0.88424  -0.83970  -0.81877  -0.80150
 Alpha  occ. eigenvalues --   -0.74915  -0.73134  -0.70855  -0.68083  -0.67457
 Alpha  occ. eigenvalues --   -0.65861  -0.64224  -0.62872  -0.61907  -0.60836
 Alpha  occ. eigenvalues --   -0.59370  -0.58578  -0.58168  -0.55553  -0.54117
 Alpha  occ. eigenvalues --   -0.53756  -0.51790  -0.50818  -0.50204  -0.49415
 Alpha  occ. eigenvalues --   -0.48832  -0.47566  -0.46051  -0.45573  -0.44571
 Alpha  occ. eigenvalues --   -0.44408  -0.43012  -0.36927  -0.34822  -0.33723
 Alpha  occ. eigenvalues --   -0.32783  -0.31380  -0.29725  -0.29240  -0.26550
 Alpha virt. eigenvalues --    0.03608   0.04273   0.04361   0.04842   0.05031
 Alpha virt. eigenvalues --    0.05281   0.05504   0.05968   0.06218   0.06884
 Alpha virt. eigenvalues --    0.07012   0.07342   0.07441   0.08005   0.08489

 Mulliken charges:
               1
     1  C   -1.922372
     2  C   -4.516281
     3  C    7.548945
     4  C   -1.569934
     5  C   -2.482713
     6  C    6.093359
     7  C   -3.361828
     8  C   -3.498878
     9  C    7.526225
    10  C   -3.136073
    11  H    0.520112
    12  H    0.952766
    13  H    0.785550
    14  H    0.715002
    15  H    1.708420
    16  H    1.746205
    17  H    2.439579
    18  H    0.897157
    19  H    0.843388
    20  H    1.254145
    21  H    1.780992
    22  H    1.262120
    23  H    1.224415
    24  H    3.166213
    25  H    1.111141
    26  H    1.325008
    27  H    1.455311
    28  H    1.804608
    29  H    0.477915
    30  H    1.704563
    31  N   -3.347896
    32  N   -2.334646
    33  N   -3.997159
    34  N   -3.410735
    35  O   -3.671936
    36  O   -3.459821
    37  O   -4.185017
    38  O   -3.447849
 Sum of Mulliken charges =   0.00000

 Dipole moment (field-independent basis, Debye):
    X=             -0.7427    Y=             -1.4143    Z=             -0.3292  Tot=              1.6310

 Test job not archived.
 1\1\GINC-SE060\SP\RHF\Aug-CC-pVDZ\C10H20N4O4\OHZDE\08-Apr-2025\0\\#t h
 f aug-cc-pvdz iop(5/13=1,5/36=2,99/5=2) pseudo=read geom=check guess=(
 read,tcheck) scf=(maxcycle=1)\\title\\0,1\C,0,-1.88537,1.90945,-0.1736
 74\C,0,2.44776,0.745256,-0.355835\C,0,1.25597,-1.0875,1.02084\C,0,1.29
 312,-0.240932,-0.269765\C,0,-3.03498,-2.00377,-0.621576\C,0,3.79609,-0
 .00600583,-0.644846\C,0,-3.02549,-0.132816,1.14504\C,0,-2.90537,1.4212
 8,0.91784\C,0,-0.429912,1.43668,0.221493\C,0,-3.84591,-0.944955,0.1089
 33\H,0,-2.55982,-1.53442,-2.55981\H,0,2.2273,-1.62087,2.5069\H,0,4.810

 Normal termination of Gaussian 16 at Tue Apr  8 22:42:58 2025.
