 Gaussian 16, Revision C.01,

 ----------------------------------------------------------------------
 #t hf aug-cc-pvdz symm=none int=(grid=ultrafine) guess=(read,tcheck) s
 table=(opt,rrhf)
 ----------------------------------------------------------------------
 -----
 title
 -----
 Symbolic Z-matrix:
 Charge =  0 Multiplicity = 1

 SCF Done:  E(RHF) =  -298.819538392     A.U. after   14 cycles
 Normal termination of Gaussian 16 at Tue Apr  8 21:37:42 2025.
 Gaussian 16:  ES64L-G16RevC.01  3-Jul-2019

 ----------------------------------------------------------------------
 #t hf aug-cc-pvdz iop(5/13=1,5/36=2,99/5=2) pseudo=read geom=check gue
 ss=(read,tcheck) scf=(maxcycle=1)
 ----------------------------------------------------------------------
 -----
 title
 -----
 Structure from the checkpoint file:  "ANI1ccx_398_conf19_mol1.chk"
 Charge =  0 Multiplicity = 1

                         Standard orientation:
 ---------------------------------------------------------------------
 Center     Atomic      Atomic             Coordinates (Angstroms)
 Number     Number       Type             X           Y           Z
 ---------------------------------------------------------------------
      1          6           0       -0.448326    0.094367   -0.003035
      2          1           0       -1.798810   -1.403520   -0.294653
      3          1           0       -2.474350    0.168209   -0.128030
      4          1           0        0.542146   -1.645310    0.415368
      5          1           0        1.454710    0.822082    0.303122
      6          7           0       -1.679210   -0.467171    0.130549
      7          7           0        0.647216   -0.781737   -0.173019
      8          8           0       -0.329672    1.321370   -0.043560
      9          8           0        1.853450   -0.042033    0.046022
 ---------------------------------------------------------------------

 SCF Done:  E(RHF) =  -300.092152508     A.U. after    2 cycles

 The electronic state is 1-A.
 Alpha  occ. eigenvalues --  -21.10001 -21.04412 -15.80675 -15.79458 -11.51525
 Alpha  occ. eigenvalues --   -1.80821  -1.69805  -1.37877  -1.21613  -0.83745
 Alpha  occ. eigenvalues --   -0.74847  -0.69303  -0.64810  -0.58099  -0.51758
 Alpha  occ. eigenvalues --   -0.46180  -0.45384  -0.35623  -0.32567  -0.29956
 Alpha virt. eigenvalues --    0.02984   0.04906   0.05946   0.07438   0.11225
 Alpha virt. eigenvalues --    0.11515   0.13373   0.14942   0.16050   0.16221
 Alpha virt. eigenvalues --    0.17076   0.17341   0.19407   0.19698   0.21049

 Mulliken charges:
               1
     1  C    5.177499
     2  H    0.630726
     3  H    0.543439
     4  H    0.714651
     5  H    0.784146
     6  N   -2.531834
     7  N   -0.603552
     8  O   -2.625777
     9  O   -2.089298
 Sum of Mulliken charges =  -0.00000

 Dipole moment (field-independent basis, Debye):
    X=             -1.6148    Y=             -1.7546    Z=              0.0796  Tot=              2.3859

 Test job not archived.
 1\1\GINC-SE460\SP\RHF\Aug-CC-pVDZ\C1H4N2O2\OHZDE\08-Apr-2025\0\\#t hf
 aug-cc-pvdz iop(5/13=1,5/36=2,99/5=2) pseudo=read geom=check guess=(re
 ad,tcheck) scf=(maxcycle=1)\\title\\0,1\C,0,-0.448326,0.0943672,-0.003
 03486\H,0,-1.79881,-1.40352,-0.294653\H,0,-2.47435,0.168209,-0.12803\H
 ,0,0.542146,-1.64531,0.415368\H,0,1.45471,0.822083,0.303122\N,0,-1.679
 21,-0.467171,0.130549\N,0,0.647216,-0.781737,-0.173019\O,0,-0.329672,1
 .32137,-0.0435601\O,0,1.85345,-0.0420319,0.0460216\\Version=ES64L-G16R
 evC.01\State=1-A\HF=-300.0921525\RMSD=4.712e-02\Dipole=-0.6353,-0.6903

 Normal termination of Gaussian 16 at Tue Apr  8 21:37:45 2025.
