 Gaussian 16, Revision C.01,

 ----------------------------------------------------------------------
 #t hf aug-cc-pvdz symm=none int=(grid=ultrafine) guess=(read,tcheck) s
 table=(opt,rrhf)
 ----------------------------------------------------------------------
 -----
 title
 -----
 Symbolic Z-matrix:
 Charge =  0 Multiplicity = 1

 SCF Done:  E(RHF) =  -696.560606406     A.U. after   14 cycles
 Normal termination of Gaussian 16 at Tue Apr  8 19:29:24 2025.
 Gaussian 16:  ES64L-G16RevC.01  3-Jul-2019

 ----------------------------------------------------------------------
 #t hf aug-cc-pvdz iop(5/13=1,5/36=2,99/5=2) pseudo=read geom=check gue
 ss=(read,tcheck) scf=(maxcycle=1)
 ----------------------------------------------------------------------
 -----
 title
 -----
 Structure from the checkpoint file:  "ANI1ccx_1205_conf10_mol1.chk"
 Charge =  0 Multiplicity = 1

                         Standard orientation:
 ---------------------------------------------------------------------
 Center     Atomic      Atomic             Coordinates (Angstroms)
 Number     Number       Type             X           Y           Z
 ---------------------------------------------------------------------
      1          6           0        0.837342    0.985417   -0.720861
      2          6           0        0.310129    1.155460    0.709068
      3          6           0        2.145701    0.113838   -0.656290
      4          6           0        1.821360   -1.264001   -0.065004
      5          6           0       -2.103118    0.828226    0.034072
      6          6           0       -2.633229   -0.616528   -0.227175
      7          1           0       -1.052550   -1.247609    0.591010
      8          1           0       -2.962418    1.370862    0.457820
      9          1           0       -1.893018    1.259141   -0.958783
     10          1           0       -1.172478    1.184601    1.923250
     11          1           0        3.851400   -1.753313   -0.098053
     12          1           0        2.761179   -3.006272    0.348448
     13          1           0        2.524741    0.002008   -1.708670
     14          1           0        2.868841    0.652567    0.003566
     15          1           0        0.127490    0.383643   -1.313890
     16          1           0        0.264612    2.790160   -1.192870
     17          1           0        1.791093    2.816969   -0.753619
     18          7           0        1.131953    2.276059   -1.308200
     19          7           0        2.897750   -2.093962   -0.052997
     20          7           0       -1.007878    0.921733    0.961267
     21          8           0        1.022002    1.530129    1.620260
     22          8           0        0.725722   -1.579350    0.301779
     23          8           0       -3.684519   -0.811025   -0.788136
     24          8           0       -1.879550   -1.564009    0.248399
 ---------------------------------------------------------------------

 SCF Done:  E(RHF) =  -699.618466016     A.U. after    2 cycles

 The electronic state is 1-A.
 Alpha  occ. eigenvalues --  -21.10677 -21.05798 -21.03980 -21.03374 -15.79837
 Alpha  occ. eigenvalues --  -15.78012 -15.76333 -11.54839 -11.54221 -11.52339
 Alpha  occ. eigenvalues --  -11.48125 -11.44447 -11.42543  -1.82747  -1.75951
 Alpha  occ. eigenvalues --   -1.73104  -1.64459  -1.42566  -1.38336  -1.35989
 Alpha  occ. eigenvalues --   -1.14067  -1.07743  -0.98102  -0.84832  -0.79948
 Alpha  occ. eigenvalues --   -0.79351  -0.73601  -0.71997  -0.70822  -0.69048
 Alpha  occ. eigenvalues --   -0.67078  -0.65187  -0.63061  -0.59541  -0.57850
 Alpha  occ. eigenvalues --   -0.54418  -0.53006  -0.51958  -0.51074  -0.50195
 Alpha  occ. eigenvalues --   -0.49110  -0.46999  -0.43186  -0.40100  -0.36476
 Alpha  occ. eigenvalues --   -0.34402  -0.33139  -0.31188  -0.30385  -0.27247
 Alpha virt. eigenvalues --    0.02803   0.04254   0.04456   0.04881   0.05394
 Alpha virt. eigenvalues --    0.06043   0.06359   0.06983   0.08105   0.08402
 Alpha virt. eigenvalues --    0.09440   0.10083   0.10998   0.11581   0.12125

 Mulliken charges:
               1
     1  C    1.338843
     2  C    5.922445
     3  C   -3.914958
     4  C    5.543223
     5  C   -3.849093
     6  C    6.382942
     7  H    1.775995
     8  H    1.276095
     9  H    1.621633
    10  H    0.550405
    11  H    0.798758
    12  H    0.741662
    13  H    1.230568
    14  H    1.374694
    15  H    1.878429
    16  H    0.531881
    17  H    0.569532
    18  N   -3.607039
    19  N   -3.417726
    20  N   -2.299427
    21  O   -3.956008
    22  O   -3.681910
    23  O   -3.341816
    24  O   -3.469129
 Sum of Mulliken charges =  -0.00000

 Dipole moment (field-independent basis, Debye):
    X=              4.1043    Y=              0.4629    Z=              0.8377  Tot=              4.2144

 Test job not archived.
 1\1\GINC-SE120\SP\RHF\Aug-CC-pVDZ\C6H11N3O4\OHZDE\08-Apr-2025\0\\#t hf
  aug-cc-pvdz iop(5/13=1,5/36=2,99/5=2) pseudo=read geom=check guess=(r
 ead,tcheck) scf=(maxcycle=1)\\title\\0,1\C,0,0.83734,0.985418,-0.72086
 1\C,0,0.310127,1.15546,0.709068\C,0,2.1457,0.113839,-0.65629\C,0,1.821
 36,-1.264,-0.0650048\C,0,-2.10312,0.828225,0.0340719\C,0,-2.63323,-0.6
 1653,-0.227175\H,0,-1.05255,-1.24761,0.59101\H,0,-2.96242,1.37086,0.45
 782\H,0,-1.89302,1.25914,-0.958783\H,0,-1.17248,1.1846,1.92325\H,0,3.8
 514,-1.75331,-0.0980536\H,0,2.76118,-3.00627,0.348448\H,0,2.52474,0.00

 Normal termination of Gaussian 16 at Tue Apr  8 19:29:44 2025.
