 Gaussian 16, Revision C.01,

 ----------------------------------------------------------------------
 #t hf aug-cc-pvdz symm=none int=(grid=ultrafine) guess=(read,tcheck) s
 table=(opt,rrhf)
 ----------------------------------------------------------------------
 -----
 title
 -----
 Symbolic Z-matrix:
 Charge =  0 Multiplicity = 1

 SCF Done:  E(RHF) =  -456.234576004     A.U. after   11 cycles
 Normal termination of Gaussian 16 at Tue Apr  8 21:09:42 2025.
 Gaussian 16:  ES64L-G16RevC.01  3-Jul-2019

 ----------------------------------------------------------------------
 #t hf aug-cc-pvdz iop(5/13=1,5/36=2,99/5=2) pseudo=read geom=check gue
 ss=(read,tcheck) scf=(maxcycle=1)
 ----------------------------------------------------------------------
 -----
 title
 -----
 Structure from the checkpoint file:  "ANI1ccx_1844_conf452_mol1.chk"
 Charge =  0 Multiplicity = 1

                         Standard orientation:
 ---------------------------------------------------------------------
 Center     Atomic      Atomic             Coordinates (Angstroms)
 Number     Number       Type             X           Y           Z
 ---------------------------------------------------------------------
      1          1           0       -2.416561    0.961342    0.185183
      2          1           0       -0.326799    1.886441    0.304481
      3          1           0        1.134509    2.349631    1.243560
      4          1           0        3.208329    1.232101   -0.938581
      5          1           0        2.041929    1.052781   -0.057307
      6          1           0       -0.651985   -1.989879    1.678040
      7          1           0       -2.229001    2.552651   -0.175509
      8          1           0        0.348170   -1.664929    0.533238
      9          1           0        1.881729   -1.102689   -0.807017
     10          1           0        2.750389   -1.754929    0.137825
     11          1           0       -2.181721   -1.283259   -0.266343
     12          1           0       -2.719231   -0.415584   -1.485100
     13          8           0        2.783939    0.522028   -0.500838
     14          8           0        1.772779   -1.777419   -0.131767
     15          8           0        0.711746    2.004801    0.396634
     16          8           0       -0.628892   -1.912049    0.723377
     17          8           0       -1.761451    1.736151    0.104644
     18          8           0       -2.983091   -0.801470   -0.636108
 ---------------------------------------------------------------------

 SCF Done:  E(RHF) =  -458.214463839     A.U. after    2 cycles

 The electronic state is 1-A.
 Alpha  occ. eigenvalues --  -21.11197 -21.08044 -21.07770 -21.07153 -21.05315
 Alpha  occ. eigenvalues --  -21.05067  -1.70315  -1.68321  -1.65053  -1.63907
 Alpha  occ. eigenvalues --   -1.61330  -1.60717  -0.68382  -0.66142  -0.63906
 Alpha  occ. eigenvalues --   -0.62289  -0.61751  -0.59297  -0.52732  -0.49642
 Alpha  occ. eigenvalues --   -0.48251  -0.44311  -0.40824  -0.39222  -0.36766
 Alpha  occ. eigenvalues --   -0.34470  -0.34285  -0.33869  -0.33542  -0.31889
 Alpha virt. eigenvalues --    0.03454   0.04505   0.05519   0.05739   0.06269
 Alpha virt. eigenvalues --    0.06713   0.08134   0.08244   0.09833   0.09986
 Alpha virt. eigenvalues --    0.10873   0.11742   0.18545   0.19468   0.20315

 Mulliken charges:
               1
     1  H    1.121078
     2  H    2.119630
     3  H    0.820034
     4  H    0.908585
     5  H    1.641428
     6  H    0.890935
     7  H    0.822648
     8  H    1.880268
     9  H    1.186057
    10  H    0.885519
    11  H    1.340262
    12  H    0.884281
    13  O   -2.213368
    14  O   -2.553637
    15  O   -2.568821
    16  O   -2.510717
    17  O   -2.600145
    18  O   -2.054036
 Sum of Mulliken charges =  -0.00000

 Dipole moment (field-independent basis, Debye):
    X=             -0.1112    Y=              1.8815    Z=              0.1709  Tot=              1.8926

 Test job not archived.
 1\1\GINC-SE030\SP\RHF\Aug-CC-pVDZ\H12O6\OHZDE\08-Apr-2025\0\\#t hf aug
 -cc-pvdz iop(5/13=1,5/36=2,99/5=2) pseudo=read geom=check guess=(read,
 tcheck) scf=(maxcycle=1)\\title\\0,1\H,0,-2.41656,0.961341,0.185183\H,
 0,-0.326798,1.88644,0.304481\H,0,1.13451,2.34963,1.24356\H,0,3.20833,1
 .2321,-0.938581\H,0,2.04193,1.05278,-0.0573064\H,0,-0.651984,-1.98988,
 1.67804\H,0,-2.229,2.55265,-0.175509\H,0,0.348171,-1.66493,0.533238\H,
 0,1.88173,-1.10269,-0.807017\H,0,2.75039,-1.75493,0.137825\H,0,-2.1817
 2,-1.28326,-0.266343\H,0,-2.71923,-0.415585,-1.4851\O,0,2.78394,0.5220

 Normal termination of Gaussian 16 at Tue Apr  8 21:09:47 2025.
