 Gaussian 16, Revision C.01,

 ----------------------------------------------------------------------
 #t hf aug-cc-pvdz symm=none int=(grid=ultrafine) guess=(read,tcheck) s
 table=(opt,rrhf)
 ----------------------------------------------------------------------
 -----
 title
 -----
 Symbolic Z-matrix:
 Charge =  0 Multiplicity = 1

 SCF Done:  E(RHF) =  -851.518176346     A.U. after   14 cycles
 Normal termination of Gaussian 16 at Tue Apr  8 22:08:54 2025.
 Gaussian 16:  ES64L-G16RevC.01  3-Jul-2019

 ----------------------------------------------------------------------
 #t hf aug-cc-pvdz iop(5/13=1,5/36=2,99/5=2) pseudo=read geom=check gue
 ss=(read,tcheck) scf=(maxcycle=1)
 ----------------------------------------------------------------------
 -----
 title
 -----
 Structure from the checkpoint file:  "ANI1ccx_63_conf1_mol1.chk"
 Charge =  0 Multiplicity = 1

                         Standard orientation:
 ---------------------------------------------------------------------
 Center     Atomic      Atomic             Coordinates (Angstroms)
 Number     Number       Type             X           Y           Z
 ---------------------------------------------------------------------
      1          6           0        0.290365    2.001030    0.648278
      2          6           0       -2.570090    0.300736   -1.341701
      3          6           0       -2.921250   -1.100540    0.554887
      4          6           0       -0.592139   -1.580240    0.595880
      5          6           0       -1.576010   -0.418979    0.683946
      6          6           0       -3.152150   -1.033510   -0.954438
      7          6           0        2.186810    0.652924   -0.589602
      8          6           0        1.442230    0.973765    0.720569
      9          6           0       -0.792569    1.654220   -0.431481
     10          6           0        3.102180   -0.565092   -0.453244
     11          1           0       -2.925110   -2.141070    0.952667
     12          1           0        1.056370   -1.852940   -0.484284
     13          1           0       -3.271920    1.110020   -1.385301
     14          1           0       -2.112770    0.311879   -2.338911
     15          1           0       -2.646900   -1.824110   -1.500991
     16          1           0       -4.268950   -1.030020   -1.238261
     17          1           0       -3.714240   -0.522906    1.063709
     18          1           0       -1.403470    0.134769    1.600309
     19          1           0        1.479920    0.379989   -1.393891
     20          1           0        4.838180    0.629951   -0.263888
     21          1           0        2.809440    1.512400   -0.897437
     22          1           0        2.168910    1.241830    1.480409
     23          1           0        1.043510    0.089520    1.209769
     24          1           0        0.631393    2.991410    0.360282
     25          1           0        0.435994    2.378280    2.729059
     26          1           0       -1.053640    2.736720    2.086419
     27          1           0        5.015110   -1.167210   -0.261171
     28          7           0       -0.265945    2.094480    2.025329
     29          7           0        4.465380   -0.328549   -0.424846
     30          7           0       -1.551930    0.548725   -0.354554
     31          8           0       -0.657122   -2.433510    1.430369
     32          8           0       -0.829605    2.358920   -1.393701
     33          8           0        2.728950   -1.706770   -0.340004
     34          8           0        0.117945   -1.529520   -0.576489
 ---------------------------------------------------------------------

 SCF Done:  E(RHF) =  -855.369257830     A.U. after    2 cycles

 The electronic state is 1-A.
 Alpha  occ. eigenvalues --  -21.07769 -21.05370 -21.04463 -21.01946 -15.79272
 Alpha  occ. eigenvalues --  -15.74645 -15.73459 -11.54679 -11.53294 -11.53072
 Alpha  occ. eigenvalues --  -11.48437 -11.46777 -11.45390 -11.44655 -11.40917
 Alpha  occ. eigenvalues --  -11.39891 -11.36599  -1.79330  -1.75107  -1.72586
 Alpha  occ. eigenvalues --   -1.65308  -1.48569  -1.36597  -1.34379  -1.19134
 Alpha  occ. eigenvalues --   -1.18404  -1.11340  -1.03390  -0.95164  -0.90579
 Alpha  occ. eigenvalues --   -0.85758  -0.82098  -0.80633  -0.76497  -0.72732
 Alpha  occ. eigenvalues --   -0.69502  -0.68839  -0.67596  -0.64600  -0.63164
 Alpha  occ. eigenvalues --   -0.62407  -0.60445  -0.59766  -0.58733  -0.57629
 Alpha  occ. eigenvalues --   -0.56281  -0.54965  -0.52737  -0.51473  -0.50741
 Alpha  occ. eigenvalues --   -0.49472  -0.48747  -0.47966  -0.46690  -0.45284
 Alpha  occ. eigenvalues --   -0.44478  -0.43632  -0.39939  -0.36590  -0.35324
 Alpha  occ. eigenvalues --   -0.33481  -0.32135  -0.30178  -0.27831  -0.25411
 Alpha virt. eigenvalues --    0.02849   0.03602   0.04355   0.04513   0.05319
 Alpha virt. eigenvalues --    0.05419   0.06260   0.06463   0.06756   0.07150
 Alpha virt. eigenvalues --    0.07492   0.07656   0.08035   0.08597   0.09462

 Mulliken charges:
               1
     1  C   -2.321483
     2  C   -2.382799
     3  C   -3.082713
     4  C    9.310762
     5  C   -4.890254
     6  C   -3.214611
     7  C   -4.693949
     8  C   -3.059902
     9  C    7.356340
    10  C    6.203830
    11  H    1.421884
    12  H    1.759956
    13  H    1.720361
    14  H    1.792076
    15  H    1.400800
    16  H    1.190104
    17  H    1.272260
    18  H    2.251336
    19  H    1.816162
    20  H    0.685803
    21  H    1.248275
    22  H    1.319573
    23  H    2.532830
    24  H    1.645625
    25  H    0.649129
    26  H    0.686073
    27  H    0.764866
    28  N   -3.027999
    29  N   -3.703934
    30  N   -1.350848
    31  O   -3.942988
    32  O   -4.042943
    33  O   -3.548133
    34  O   -3.765491
 Sum of Mulliken charges =  -0.00000

 Dipole moment (field-independent basis, Debye):
    X=              2.7717    Y=              2.0382    Z=              0.7459  Tot=              3.5204

 Test job not archived.
 1\1\GINC-SE342\SP\RHF\Aug-CC-pVDZ\C10H17N3O4\OHZDE\08-Apr-2025\0\\#t h
 f aug-cc-pvdz iop(5/13=1,5/36=2,99/5=2) pseudo=read geom=check guess=(
 read,tcheck) scf=(maxcycle=1)\\title\\0,1\C,0,0.290365,2.00103,0.64827
 9\C,0,-2.57009,0.300736,-1.3417\C,0,-2.92125,-1.10054,0.554888\C,0,-0.
 592139,-1.58024,0.595881\C,0,-1.57601,-0.418979,0.683947\C,0,-3.15215,
 -1.03351,-0.954437\C,0,2.18681,0.652924,-0.589601\C,0,1.44223,0.973765
 ,0.72057\C,0,-0.792569,1.65422,-0.43148\C,0,3.10218,-0.565092,-0.45324
 3\H,0,-2.92511,-2.14107,0.952668\H,0,1.05637,-1.85294,-0.484283\H,0,-3

 Normal termination of Gaussian 16 at Tue Apr  8 22:09:48 2025.
