 Gaussian 16, Revision C.01,

 ----------------------------------------------------------------------
 #t hf aug-cc-pvdz symm=none int=(grid=ultrafine) guess=(read,tcheck) s
 table=(opt,rrhf)
 ----------------------------------------------------------------------
 -----
 title
 -----
 Symbolic Z-matrix:
 Charge =  0 Multiplicity = 1

 SCF Done:  E(RHF) =  -537.874160359     A.U. after   15 cycles
 Normal termination of Gaussian 16 at Tue Apr  8 22:20:05 2025.
 Gaussian 16:  ES64L-G16RevC.01  3-Jul-2019

 ----------------------------------------------------------------------
 #t hf aug-cc-pvdz iop(5/13=1,5/36=2,99/5=2) pseudo=read geom=check gue
 ss=(read,tcheck) scf=(maxcycle=1)
 ----------------------------------------------------------------------
 -----
 title
 -----
 Structure from the checkpoint file:  "ANI1ccx_988_conf1_mol1.chk"
 Charge =  0 Multiplicity = 1

                         Standard orientation:
 ---------------------------------------------------------------------
 Center     Atomic      Atomic             Coordinates (Angstroms)
 Number     Number       Type             X           Y           Z
 ---------------------------------------------------------------------
      1          6           0        2.140739   -0.421952   -0.017544
      2          6           0        0.789257    1.514870    0.634491
      3          6           0       -0.556223    1.742060    0.052316
      4          6           0       -1.432481    0.560970   -0.024392
      5          1           0       -0.218367   -1.099880    0.770177
      6          1           0       -0.463847    2.164790   -0.959018
      7          1           0       -1.115712    2.477209    0.634915
      8          1           0        1.224648    2.501820    0.851871
      9          1           0        0.747043    0.999679    1.590930
     10          1           0        1.898530   -2.093819    0.979587
     11          1           0        3.427490   -1.744649   -0.846533
     12          1           0        3.949879   -0.120694   -0.964641
     13          1           0        2.070828    1.267051   -1.090430
     14          7           0       -2.135901   -1.471591    0.112866
     15          7           0        3.171859   -0.760971   -0.873465
     16          7           0        1.537399   -1.154300    0.908552
     17          7           0        1.753699    0.857194   -0.231566
     18          7           0       -2.603401    0.499702   -0.561449
     19          7           0       -3.040811   -0.777049   -0.453297
     20          7           0       -1.135451   -0.725441    0.407490
 ---------------------------------------------------------------------

 SCF Done:  E(RHF) =  -540.349219381     A.U. after    2 cycles

 The electronic state is 1-A.
 Alpha  occ. eigenvalues --  -15.79919 -15.78993 -15.78065 -15.77129 -15.75134
 Alpha  occ. eigenvalues --  -15.72255 -15.72252 -11.51605 -11.49631 -11.45679
 Alpha  occ. eigenvalues --  -11.39634  -1.73315  -1.53498  -1.35753  -1.35005
 Alpha  occ. eigenvalues --   -1.28046  -1.26060  -1.14198  -0.97053  -0.86821
 Alpha  occ. eigenvalues --   -0.85204  -0.82848  -0.75580  -0.73047  -0.69809
 Alpha  occ. eigenvalues --   -0.67499  -0.64305  -0.62951  -0.61136  -0.59560
 Alpha  occ. eigenvalues --   -0.54225  -0.52964  -0.52145  -0.46106  -0.42376
 Alpha  occ. eigenvalues --   -0.38906  -0.38198  -0.38144  -0.37700  -0.34410
 Alpha  occ. eigenvalues --   -0.33577
 Alpha virt. eigenvalues --    0.02180   0.03648   0.04185   0.04918   0.05749
 Alpha virt. eigenvalues --    0.06010   0.06607   0.07297   0.08835   0.09626
 Alpha virt. eigenvalues --    0.10856   0.11509   0.12829   0.13176   0.13953

 Mulliken charges:
               1
     1  C    4.561833
     2  C   -2.368840
     3  C   -2.570153
     4  C    3.998198
     5  H    1.230874
     6  H    1.360470
     7  H    1.235660
     8  H    1.028721
     9  H    1.819793
    10  H    0.657285
    11  H    0.540091
    12  H    0.636161
    13  H    0.665027
    14  N   -0.229235
    15  N   -2.769546
    16  N   -2.634096
    17  N   -2.221943
    18  N   -2.299001
    19  N   -0.560120
    20  N   -2.081178
 Sum of Mulliken charges =   0.00000

 Dipole moment (field-independent basis, Debye):
    X=              9.0234    Y=              2.1511    Z=             -0.0515  Tot=              9.2764

 Test job not archived.
 1\1\GINC-SE118\SP\RHF\Aug-CC-pVDZ\C4H9N7\OHZDE\08-Apr-2025\0\\#t hf au
 g-cc-pvdz iop(5/13=1,5/36=2,99/5=2) pseudo=read geom=check guess=(read
 ,tcheck) scf=(maxcycle=1)\\title\\0,1\C,0,2.14074,-0.421953,-0.0175442
 \C,0,0.789259,1.51487,0.634491\C,0,-0.556221,1.74206,0.0523164\C,0,-1.
 43248,0.560971,-0.0243919\H,0,-0.218366,-1.09988,0.770177\H,0,-0.46384
 5,2.16479,-0.959018\H,0,-1.11571,2.47721,0.634915\H,0,1.22465,2.50182,
 0.851871\H,0,0.747045,0.999679,1.59093\H,0,1.89853,-2.09382,0.979587\H
 ,0,3.42749,-1.74465,-0.846533\H,0,3.94988,-0.120695,-0.964641\H,0,2.07

 Normal termination of Gaussian 16 at Tue Apr  8 22:20:17 2025.
