 Gaussian 16, Revision C.01,

 ----------------------------------------------------------------------
 #t hf aug-cc-pvdz symm=none int=(grid=ultrafine) guess=(read,tcheck) s
 table=(opt,rrhf)
 ----------------------------------------------------------------------
 -----
 title
 -----
 Symbolic Z-matrix:
 Charge =  0 Multiplicity = 1

 SCF Done:  E(RHF) =  -603.592174686     A.U. after   15 cycles
 Normal termination of Gaussian 16 at Tue Apr  8 22:21:29 2025.
 Gaussian 16:  ES64L-G16RevC.01  3-Jul-2019

 ----------------------------------------------------------------------
 #t hf aug-cc-pvdz iop(5/13=1,5/36=2,99/5=2) pseudo=read geom=check gue
 ss=(read,tcheck) scf=(maxcycle=1)
 ----------------------------------------------------------------------
 -----
 title
 -----
 Structure from the checkpoint file:  "ANI1ccx_999_conf13_mol2.chk"
 Charge =  0 Multiplicity = 1

                         Standard orientation:
 ---------------------------------------------------------------------
 Center     Atomic      Atomic             Coordinates (Angstroms)
 Number     Number       Type             X           Y           Z
 ---------------------------------------------------------------------
      1          6           0       -2.615020   -0.476037   -0.633213
      2          6           0       -1.343880   -0.288583    0.271198
      3          6           0        1.002480   -0.176270    0.471719
      4          6           0        1.409640    1.160839   -0.153329
      5          6           0        2.121159   -1.181711    0.545477
      6          1           0        0.876835    2.539669   -1.156160
      7          1           0        1.809479   -2.660161   -0.631692
      8          1           0        1.870259   -1.932261    1.320240
      9          1           0        3.018830   -0.610363    0.752849
     10          1           0        0.508779    0.038752    1.381780
     11          1           0       -2.843101   -1.550049   -0.790761
     12          1           0       -2.555550   -0.028609   -1.658050
     13          1           0       -4.026920   -0.403901    0.687719
     14          1           0       -3.618930    1.061941    0.330359
     15          1           0       -0.040056   -1.192500   -1.151540
     16          7           0       -3.818250    0.152624   -0.130758
     17          7           0       -0.146809   -0.779765   -0.219584
     18          8           0        2.263359   -1.818151   -0.711325
     19          8           0       -1.445380    0.193877    1.377690
     20          8           0        2.336580    1.808379    0.378685
     21          8           0        0.509130    1.678150   -1.000480
 ---------------------------------------------------------------------

 SCF Done:  E(RHF) =  -606.226162703     A.U. after    2 cycles

 The electronic state is 1-A.
 Alpha  occ. eigenvalues --  -21.15250 -21.09114 -21.06092 -21.04567 -15.76795
 Alpha  occ. eigenvalues --  -15.73479 -11.54990 -11.52083 -11.48164 -11.42226
 Alpha  occ. eigenvalues --  -11.41855  -1.84831  -1.74583  -1.73048  -1.65513
 Alpha  occ. eigenvalues --   -1.40710  -1.33656  -1.13677  -0.99211  -0.94744
 Alpha  occ. eigenvalues --   -0.82567  -0.81508  -0.71864  -0.69156  -0.67805
 Alpha  occ. eigenvalues --   -0.65990  -0.64794  -0.59579  -0.57534  -0.56223
 Alpha  occ. eigenvalues --   -0.54498  -0.53368  -0.51788  -0.49582  -0.47588
 Alpha  occ. eigenvalues --   -0.46480  -0.43419  -0.38095  -0.35770  -0.34456
 Alpha  occ. eigenvalues --   -0.34436  -0.29845  -0.29238
 Alpha virt. eigenvalues --    0.03347   0.04445   0.04884   0.05492   0.05863
 Alpha virt. eigenvalues --    0.05978   0.06925   0.07102   0.07808   0.08553
 Alpha virt. eigenvalues --    0.10074   0.10685   0.11659   0.11912   0.12219

 Mulliken charges:
               1
     1  C   -2.663505
     2  C    6.165893
     3  C   -3.234896
     4  C    6.891127
     5  C   -1.375844
     6  H    0.855595
     7  H    0.564423
     8  H    1.425059
     9  H    1.393351
    10  H    1.899390
    11  H    1.430299
    12  H    1.454637
    13  H    0.540423
    14  H    0.645651
    15  H    0.823224
    16  N   -2.338501
    17  N   -2.351883
    18  O   -2.387172
    19  O   -3.516282
    20  O   -3.049544
    21  O   -3.171446
 Sum of Mulliken charges =  -0.00000

 Dipole moment (field-independent basis, Debye):
    X=              0.1005    Y=             -1.2877    Z=             -0.7808  Tot=              1.5093

 Test job not archived.
 1\1\GINC-SE058\SP\RHF\Aug-CC-pVDZ\C5H10N2O4\OHZDE\08-Apr-2025\0\\#t hf
  aug-cc-pvdz iop(5/13=1,5/36=2,99/5=2) pseudo=read geom=check guess=(r
 ead,tcheck) scf=(maxcycle=1)\\title\\0,1\C,0,-2.61502,-0.476038,-0.633
 213\C,0,-1.34388,-0.288583,0.271198\C,0,1.00248,-0.176269,0.471719\C,0
 ,1.40964,1.16084,-0.153329\C,0,2.12116,-1.18171,0.545477\H,0,0.876834,
 2.53967,-1.15616\H,0,1.80948,-2.66016,-0.631692\H,0,1.87026,-1.93226,1
 .32024\H,0,3.01883,-0.610362,0.752849\H,0,0.508779,0.0387528,1.38178\H
 ,0,-2.8431,-1.55005,-0.790761\H,0,-2.55555,-0.0286095,-1.65805\H,0,-4.

 Normal termination of Gaussian 16 at Tue Apr  8 22:21:42 2025.
