 Gaussian 16, Revision C.01,

 ----------------------------------------------------------------------
 #t hf aug-cc-pvdz symm=none int=(grid=ultrafine) guess=(read,tcheck) s
 table=(opt,rrhf)
 ----------------------------------------------------------------------
 -----
 title
 -----
 Symbolic Z-matrix:
 Charge =  0 Multiplicity = 1

 SCF Done:  E(RHF) =  -755.411025217     A.U. after   14 cycles
 Normal termination of Gaussian 16 at Tue Apr  8 19:46:23 2025.
 Gaussian 16:  ES64L-G16RevC.01  3-Jul-2019

 ----------------------------------------------------------------------
 #t hf aug-cc-pvdz iop(5/13=1,5/36=2,99/5=2) pseudo=read geom=check gue
 ss=(read,tcheck) scf=(maxcycle=1)
 ----------------------------------------------------------------------
 -----
 title
 -----
 Structure from the checkpoint file:  "ANI1ccx_1405_conf7_mol1.chk"
 Charge =  0 Multiplicity = 1

                         Standard orientation:
 ---------------------------------------------------------------------
 Center     Atomic      Atomic             Coordinates (Angstroms)
 Number     Number       Type             X           Y           Z
 ---------------------------------------------------------------------
      1          6           0       -1.333118    1.662021    0.265604
      2          6           0       -0.083070    0.884035    0.567149
      3          6           0       -2.262899    0.838722   -0.720468
      4          6           0       -2.747220   -0.539078   -0.172042
      5          6           0       -1.818051   -1.698358   -0.017436
      6          6           0        2.365601    0.860917    0.354141
      7          6           0        2.927280   -0.438650   -0.209130
      8          1           0        1.220210   -0.858969   -0.747795
      9          1           0        3.068052    1.694367    0.062198
     10          1           0        2.334701    0.775701    1.399730
     11          1           0        0.926384    1.935489   -0.833455
     12          1           0       -0.227582   -2.317430   -0.245759
     13          1           0       -3.108640   -0.379568    0.844682
     14          1           0       -3.612690   -0.901796   -0.821296
     15          1           0       -3.098838    1.501563   -0.891601
     16          1           0       -1.742639    0.762595   -1.724940
     17          1           0       -1.889678    1.754672    1.211320
     18          1           0       -0.611679    3.557440    0.384244
     19          1           0       -1.887976    3.365852   -0.668080
     20          7           0       -1.024047    2.994061   -0.365013
     21          7           0        1.022802    1.246639   -0.157427
     22          8           0       -0.021945    0.069936    1.484490
     23          8           0       -2.123482   -2.667408    0.656663
     24          8           0       -0.717558   -1.642059   -0.772644
     25          8           0        4.132820   -0.672884   -0.087259
     26          8           0        2.023659   -1.336642   -0.621136
 ---------------------------------------------------------------------

 SCF Done:  E(RHF) =  -758.715763443     A.U. after    2 cycles

 The electronic state is 1-A.
 Alpha  occ. eigenvalues --  -21.13654 -21.13312 -21.05570 -21.05065 -21.04836
 Alpha  occ. eigenvalues --  -15.79257 -15.77829 -11.56745 -11.54766 -11.53664
 Alpha  occ. eigenvalues --  -11.48600 -11.45330 -11.44725 -11.41591  -1.85208
 Alpha  occ. eigenvalues --   -1.82820  -1.73545  -1.65942  -1.65016  -1.43714
 Alpha  occ. eigenvalues --   -1.36679  -1.20355  -1.10688  -1.04499  -0.94558
 Alpha  occ. eigenvalues --   -0.82791  -0.81304  -0.79074  -0.73463  -0.72476
 Alpha  occ. eigenvalues --   -0.68782  -0.66564  -0.65959  -0.65229  -0.63264
 Alpha  occ. eigenvalues --   -0.61198  -0.58886  -0.56286  -0.55527  -0.53995
 Alpha  occ. eigenvalues --   -0.51850  -0.50801  -0.50195  -0.49461  -0.46765
 Alpha  occ. eigenvalues --   -0.45991  -0.43995  -0.40977  -0.36393  -0.34221
 Alpha  occ. eigenvalues --   -0.33458  -0.31095  -0.30501  -0.28974
 Alpha virt. eigenvalues --    0.02685   0.03647   0.03960   0.04283   0.04801
 Alpha virt. eigenvalues --    0.05011   0.06440   0.07361   0.07505   0.07930
 Alpha virt. eigenvalues --    0.08268   0.08846   0.10002   0.10356   0.11485

 Mulliken charges:
               1
     1  C   -1.312974
     2  C    7.525410
     3  C   -2.801680
     4  C   -3.984846
     5  C    7.063253
     6  C   -3.964526
     7  C    5.912005
     8  H    1.669577
     9  H    1.325193
    10  H    1.489168
    11  H    0.756433
    12  H    0.618390
    13  H    1.350749
    14  H    1.210269
    15  H    1.281004
    16  H    1.324108
    17  H    1.763694
    18  H    0.537735
    19  H    0.684736
    20  N   -3.085608
    21  N   -2.398037
    22  O   -3.925746
    23  O   -3.376374
    24  O   -3.008950
    25  O   -3.158781
    26  O   -3.494203
 Sum of Mulliken charges =  -0.00000

 Dipole moment (field-independent basis, Debye):
    X=             -3.0240    Y=              4.5192    Z=             -1.0794  Tot=              5.5437

 Test job not archived.
 1\1\GINC-SE195\SP\RHF\Aug-CC-pVDZ\C7H12N2O5\OHZDE\08-Apr-2025\0\\#t hf
  aug-cc-pvdz iop(5/13=1,5/36=2,99/5=2) pseudo=read geom=check guess=(r
 ead,tcheck) scf=(maxcycle=1)\\title\\0,1\C,0,-1.33312,1.66202,0.265604
 \C,0,-0.0830718,0.884035,0.567149\C,0,-2.2629,0.83872,-0.720468\C,0,-2
 .74722,-0.539081,-0.172042\C,0,-1.81805,-1.69836,-0.0174364\C,0,2.3656
 ,0.860919,0.354141\C,0,2.92728,-0.438647,-0.20913\H,0,1.22021,-0.85896
 8,-0.747795\H,0,3.06805,1.69437,0.0621975\H,0,2.3347,0.775703,1.39973\
 H,0,0.926382,1.93549,-0.833455\H,0,-0.22758,-2.31743,-0.245759\H,0,-3.

 Normal termination of Gaussian 16 at Tue Apr  8 19:46:49 2025.
