 Gaussian 16, Revision C.01,

 ----------------------------------------------------------------------
 #t hf aug-cc-pvdz symm=none int=(grid=ultrafine) guess=(read,tcheck) s
 table=(opt,rrhf)
 ----------------------------------------------------------------------
 -----
 title
 -----
 Symbolic Z-matrix:
 Charge =  0 Multiplicity = 1

 SCF Done:  E(RHF) =  -485.220291651     A.U. after   15 cycles
 Normal termination of Gaussian 16 at Tue Apr  8 21:43:57 2025.
 Gaussian 16:  ES64L-G16RevC.01  3-Jul-2019

 ----------------------------------------------------------------------
 #t hf aug-cc-pvdz iop(5/13=1,5/36=2,99/5=2) pseudo=read geom=check gue
 ss=(read,tcheck) scf=(maxcycle=1)
 ----------------------------------------------------------------------
 -----
 title
 -----
 Structure from the checkpoint file:  "ANI1ccx_484_conf5_mol1.chk"
 Charge =  0 Multiplicity = 1

                         Standard orientation:
 ---------------------------------------------------------------------
 Center     Atomic      Atomic             Coordinates (Angstroms)
 Number     Number       Type             X           Y           Z
 ---------------------------------------------------------------------
      1          6           0        1.369550   -0.036457    0.071921
      2          6           0       -0.665876    0.802255   -0.110016
      3          1           0       -1.342795   -1.643504    1.099080
      4          1           0       -2.603377   -0.920021    0.208164
      5          7           0       -1.665286   -1.288735    0.239497
      6          7           0       -0.801294   -0.573846   -0.460979
      7          8           0        0.534014   -1.098859   -0.264715
      8          8           0        2.550660   -0.086048    0.305850
      9          8           0        0.670693    1.115002   -0.200017
     10          8           0       -1.631594    1.445755    0.217845
 ---------------------------------------------------------------------

 SCF Done:  E(RHF) =  -487.210498599     A.U. after    2 cycles

 The electronic state is 1-A.
 Alpha  occ. eigenvalues --  -21.19256 -21.17449 -21.11612 -21.11588 -15.86557
 Alpha  occ. eigenvalues --  -15.80302 -11.61349 -11.57972  -2.03106  -1.82693
 Alpha  occ. eigenvalues --   -1.77594  -1.72160  -1.50145  -1.16800  -0.91104
 Alpha  occ. eigenvalues --   -0.89061  -0.77994  -0.73457  -0.68026  -0.65379
 Alpha  occ. eigenvalues --   -0.62127  -0.58651  -0.54849  -0.50419  -0.48601
 Alpha  occ. eigenvalues --   -0.42676  -0.39157  -0.37361  -0.34923  -0.31233
 Alpha virt. eigenvalues --    0.03754   0.05483   0.07378   0.09805   0.10006
 Alpha virt. eigenvalues --    0.10558   0.11033   0.11708   0.12783   0.13247
 Alpha virt. eigenvalues --    0.14529   0.15763   0.16098   0.17624   0.17972

 Mulliken charges:
               1
     1  C    5.404995
     2  C    5.718286
     3  H    0.733545
     4  H    0.708130
     5  N   -1.963491
     6  N    0.824126
     7  O   -2.721415
     8  O   -2.854978
     9  O   -2.917131
    10  O   -2.932069
 Sum of Mulliken charges =  -0.00000

 Dipole moment (field-independent basis, Debye):
    X=             -1.4141    Y=             -0.7746    Z=              0.6756  Tot=              1.7481

 Test job not archived.
 1\1\GINC-SE088\SP\RHF\Aug-CC-pVDZ\C2H2N2O4\OHZDE\08-Apr-2025\0\\#t hf
 aug-cc-pvdz iop(5/13=1,5/36=2,99/5=2) pseudo=read geom=check guess=(re
 ad,tcheck) scf=(maxcycle=1)\\title\\0,1\C,0,1.36955,-0.0364606,0.07192
 11\C,0,-0.665874,0.802257,-0.110016\H,0,-1.3428,-1.6435,1.09908\H,0,-2
 .60338,-0.920013,0.208164\N,0,-1.66529,-1.28873,0.239497\N,0,-0.801296
 ,-0.573843,-0.460979\O,0,0.534011,-1.09886,-0.264715\O,0,2.55066,-0.08
 60553,0.30585\O,0,0.670696,1.115,-0.200017\O,0,-1.63159,1.44576,0.2178
 45\\Version=ES64L-G16RevC.01\State=1-A\HF=-487.2104986\RMSD=6.086e-02\

 Normal termination of Gaussian 16 at Tue Apr  8 21:44:01 2025.
