 Gaussian 16, Revision C.01,

 ----------------------------------------------------------------------
 #t hf aug-cc-pvdz symm=none int=(grid=ultrafine) guess=(read,tcheck) s
 table=(opt,rrhf)
 ----------------------------------------------------------------------
 -----
 title
 -----
 Symbolic Z-matrix:
 Charge =  0 Multiplicity = 1

 SCF Done:  E(RHF) =  -444.555786180     A.U. after   15 cycles
 Normal termination of Gaussian 16 at Tue Apr  8 21:43:52 2025.
 Gaussian 16:  ES64L-G16RevC.01  3-Jul-2019

 ----------------------------------------------------------------------
 #t hf aug-cc-pvdz iop(5/13=1,5/36=2,99/5=2) pseudo=read geom=check gue
 ss=(read,tcheck) scf=(maxcycle=1)
 ----------------------------------------------------------------------
 -----
 title
 -----
 Structure from the checkpoint file:  "ANI1ccx_488_conf2_mol2.chk"
 Charge =  0 Multiplicity = 1

                         Standard orientation:
 ---------------------------------------------------------------------
 Center     Atomic      Atomic             Coordinates (Angstroms)
 Number     Number       Type             X           Y           Z
 ---------------------------------------------------------------------
      1          6           0       -1.290970   -0.394416    0.161544
      2          6           0        0.071536    1.528269   -0.068616
      3          1           0       -2.857009   -0.173009   -1.043090
      4          1           0       -2.850502   -1.712766   -0.225328
      5          7           0       -2.466280   -0.785060   -0.362001
      6          7           0       -0.981400    0.950266   -0.289545
      7          7           0        2.006390   -0.738472   -0.451863
      8          7           0        2.802429   -1.420466   -0.115495
      9          8           0        0.995264    2.186187    0.256801
     10          8           0       -0.558246   -1.056340    0.898596
 ---------------------------------------------------------------------

 SCF Done:  E(RHF) =  -446.416472475     A.U. after    2 cycles

 The electronic state is 1-A.
 Alpha  occ. eigenvalues --  -21.15356 -21.04961 -15.86289 -15.86082 -15.80932
 Alpha  occ. eigenvalues --  -15.78751 -11.60697 -11.54772  -1.78765  -1.72850
 Alpha  occ. eigenvalues --   -1.55353  -1.43702  -1.34561  -0.93151  -0.78424
 Alpha  occ. eigenvalues --   -0.76147  -0.69901  -0.65729  -0.64256  -0.59514
 Alpha  occ. eigenvalues --   -0.57412  -0.56785  -0.56708  -0.54510  -0.52938
 Alpha  occ. eigenvalues --   -0.42135  -0.37489  -0.33536  -0.31227
 Alpha virt. eigenvalues --    0.03146   0.05361   0.08100   0.10089   0.10600
 Alpha virt. eigenvalues --    0.11257   0.11531   0.12568   0.13518   0.14217
 Alpha virt. eigenvalues --    0.14647   0.14891   0.15124   0.15588   0.16183

 Mulliken charges:
               1
     1  C    5.063566
     2  C    3.716950
     3  H    0.711231
     4  H    0.679186
     5  N   -2.600855
     6  N   -2.444014
     7  N   -0.125309
     8  N    0.167510
     9  O   -2.547058
    10  O   -2.621208
 Sum of Mulliken charges =  -0.00000

 Dipole moment (field-independent basis, Debye):
    X=             -1.1394    Y=             -0.0142    Z=             -0.9886  Tot=              1.5086

 Test job not archived.
 1\1\GINC-SE365\SP\RHF\Aug-CC-pVDZ\C2H2N4O2\OHZDE\08-Apr-2025\0\\#t hf
 aug-cc-pvdz iop(5/13=1,5/36=2,99/5=2) pseudo=read geom=check guess=(re
 ad,tcheck) scf=(maxcycle=1)\\title\\0,1\C,0,-1.29097,-0.394417,0.16154
 4\C,0,0.0715321,1.52827,-0.0686157\H,0,-2.85701,-0.173013,-1.04309\H,0
 ,-2.8505,-1.71277,-0.225328\N,0,-2.46628,-0.785064,-0.362001\N,0,-0.98
 1403,0.950265,-0.289545\N,0,2.00639,-0.738468,-0.451863\N,0,2.80243,-1
 .42046,-0.115495\O,0,0.995259,2.18619,0.256801\O,0,-0.558245,-1.05634,
 0.898596\\Version=ES64L-G16RevC.01\State=1-A\HF=-446.4164725\RMSD=7.99

 Normal termination of Gaussian 16 at Tue Apr  8 21:43:56 2025.
