 Gaussian 16, Revision C.01,

 ----------------------------------------------------------------------
 #t hf aug-cc-pvdz symm=none int=(grid=ultrafine) guess=(read,tcheck) s
 table=(opt,rrhf)
 ----------------------------------------------------------------------
 -----
 title
 -----
 Symbolic Z-matrix:
 Charge =  0 Multiplicity = 1

 SCF Done:  E(RHF) =  -509.547086136     A.U. after   14 cycles
 Normal termination of Gaussian 16 at Tue Apr  8 22:13:01 2025.
 Gaussian 16:  ES64L-G16RevC.01  3-Jul-2019

 ----------------------------------------------------------------------
 #t hf aug-cc-pvdz iop(5/13=1,5/36=2,99/5=2) pseudo=read geom=check gue
 ss=(read,tcheck) scf=(maxcycle=1)
 ----------------------------------------------------------------------
 -----
 title
 -----
 Structure from the checkpoint file:  "ANI1ccx_939_conf12_mol1.chk"
 Charge =  0 Multiplicity = 1

                         Standard orientation:
 ---------------------------------------------------------------------
 Center     Atomic      Atomic             Coordinates (Angstroms)
 Number     Number       Type             X           Y           Z
 ---------------------------------------------------------------------
      1          6           0        0.833892   -0.596628   -0.767260
      2          6           0        1.159231    0.644901    0.101996
      3          6           0       -0.691689   -0.500827   -1.088451
      4          6           0       -1.526759   -0.031523    0.044929
      5          1           0        2.248631   -2.004119   -0.292022
      6          1           0        1.076301   -1.695739    0.840671
      7          1           0        1.310861   -0.342477   -1.709101
      8          1           0       -0.952419    0.315104   -1.825661
      9          1           0       -1.003689   -1.495259   -1.403141
     10          1           0       -1.868709   -0.556905    1.759049
     11          1           0        0.982530    2.551471   -0.055796
     12          7           0        1.266981   -1.778539   -0.133539
     13          8           0        1.791971    0.670544    1.137859
     14          8           0       -2.525509    0.637905   -0.002343
     15          8           0       -1.172179   -0.730989    1.143979
     16          8           0        0.741916    1.745311   -0.545311
 ---------------------------------------------------------------------

 SCF Done:  E(RHF) =  -511.728218763     A.U. after    2 cycles

 The electronic state is 1-A.
 Alpha  occ. eigenvalues --  -21.13377 -21.13012 -21.06400 -21.06287 -15.74358
 Alpha  occ. eigenvalues --  -11.53769 -11.53326 -11.47832 -11.41222  -1.85101
 Alpha  occ. eigenvalues --   -1.83621  -1.66524  -1.66354  -1.37733  -1.15850
 Alpha  occ. eigenvalues --   -0.99565  -0.83786  -0.77569  -0.71997  -0.68377
 Alpha  occ. eigenvalues --   -0.64187  -0.61884  -0.61624  -0.58719  -0.58088
 Alpha  occ. eigenvalues --   -0.52642  -0.51470  -0.50155  -0.46830  -0.45045
 Alpha  occ. eigenvalues --   -0.36980  -0.36224  -0.33152  -0.30516  -0.30211
 Alpha virt. eigenvalues --    0.03626   0.04659   0.05315   0.05452   0.06084
 Alpha virt. eigenvalues --    0.06702   0.08519   0.09699   0.10172   0.11097
 Alpha virt. eigenvalues --    0.12442   0.13138   0.13516   0.14362   0.14874

 Mulliken charges:
               1
     1  C   -0.608647
     2  C    6.945240
     3  C   -4.390135
     4  C    6.921660
     5  H    0.552052
     6  H    0.577524
     7  H    1.857741
     8  H    1.235245
     9  H    1.324901
    10  H    0.837279
    11  H    0.867615
    12  N   -3.248575
    13  O   -3.305738
    14  O   -3.366309
    15  O   -3.033912
    16  O   -3.165941
 Sum of Mulliken charges =  -0.00000

 Dipole moment (field-independent basis, Debye):
    X=              1.0819    Y=             -0.2245    Z=             -0.3193  Tot=              1.1501

 Test job not archived.
 1\1\GINC-SE082\SP\RHF\Aug-CC-pVDZ\C4H7N1O4\OHZDE\08-Apr-2025\0\\#t hf
 aug-cc-pvdz iop(5/13=1,5/36=2,99/5=2) pseudo=read geom=check guess=(re
 ad,tcheck) scf=(maxcycle=1)\\title\\0,1\C,0,0.833891,-0.596629,-0.7672
 59\C,0,1.15923,0.6449,0.101997\C,0,-0.69169,-0.500828,-1.08845\C,0,-1.
 52676,-0.0315236,0.0449293\H,0,2.24863,-2.00412,-0.292021\H,0,1.0763,-
 1.69574,0.840672\H,0,1.31086,-0.342478,-1.7091\H,0,-0.95242,0.315103,-
 1.82566\H,0,-1.00369,-1.49526,-1.40314\H,0,-1.86871,-0.556906,1.75905\
 H,0,0.98253,2.55147,-0.0557956\N,0,1.26698,-1.77854,-0.133538\O,0,1.79

 Normal termination of Gaussian 16 at Tue Apr  8 22:13:08 2025.
