 Gaussian 16, Revision C.01,

 ----------------------------------------------------------------------
 #t hf aug-cc-pvdz symm=none int=(grid=ultrafine) guess=(read,tcheck) s
 table=(opt,rrhf)
 ----------------------------------------------------------------------
 -----
 title
 -----
 Symbolic Z-matrix:
 Charge =  0 Multiplicity = 1

 SCF Done:  E(RHF) =  -809.795887775     A.U. after   14 cycles
 Normal termination of Gaussian 16 at Tue Apr  8 20:39:42 2025.
 Gaussian 16:  ES64L-G16RevC.01  3-Jul-2019

 ----------------------------------------------------------------------
 #t hf aug-cc-pvdz iop(5/13=1,5/36=2,99/5=2) pseudo=read geom=check gue
 ss=(read,tcheck) scf=(maxcycle=1)
 ----------------------------------------------------------------------
 -----
 title
 -----
 Structure from the checkpoint file:  "ANI1ccx_1634_conf1_mol2.chk"
 Charge =  0 Multiplicity = 1

                         Standard orientation:
 ---------------------------------------------------------------------
 Center     Atomic      Atomic             Coordinates (Angstroms)
 Number     Number       Type             X           Y           Z
 ---------------------------------------------------------------------
      1          6           0        2.900580    1.032857   -0.517313
      2          6           0        2.327369   -0.378319   -0.341409
      3          6           0        0.188863   -1.633251   -0.287212
      4          6           0       -1.145832   -1.590470   -1.025370
      5          6           0        0.065123   -1.957391    1.191560
      6          6           0       -0.144506   -0.856101    2.171360
      7          6           0       -1.277441    0.132073    1.902210
      8          6           0       -1.359180    1.791780    0.027141
      9          1           0       -2.076712   -0.706347   -2.388360
     10          1           0       -3.174070    2.275511   -0.778512
     11          1           0       -3.192840    1.948211    0.853271
     12          1           0       -1.210649    2.534790   -1.673520
     13          1           0        0.200370    1.531919    1.267200
     14          1           0       -1.572361    0.544282    2.874680
     15          1           0       -2.161021   -0.295153    1.476180
     16          1           0       -0.381050   -1.298171    3.140900
     17          1           0        0.780103   -0.271085    2.312840
     18          1           0       -0.701713   -2.735581    1.269070
     19          1           0        1.032377   -2.374682    1.470250
     20          1           0        0.706652   -2.478632   -0.794143
     21          1           0        0.467945    0.177248   -1.322180
     22          1           0        3.060880    1.116017   -1.600680
     23          1           0        3.883980    0.977089   -0.076605
     24          1           0        1.335071    2.319868   -0.452314
     25          1           0        2.749981    2.925727    0.137757
     26          7           0        2.146320    2.117207    0.138391
     27          7           0        0.987349   -0.436208   -0.597969
     28          7           0       -0.800490    1.274779    1.161040
     29          7           0       -0.587662    2.312439   -0.887536
     30          7           0       -2.787840    1.699041   -0.054872
     31          8           0        3.030828   -1.294573    0.021040
     32          8           0       -2.092443   -2.295450   -0.814533
     33          8           0       -1.160952   -0.686087   -2.050880
 ---------------------------------------------------------------------

 SCF Done:  E(RHF) =  -813.487752327     A.U. after    2 cycles

 The electronic state is 1-A.
 Alpha  occ. eigenvalues --  -21.13078 -21.06599 -21.02163 -15.78228 -15.74008
 Alpha  occ. eigenvalues --  -15.73959 -15.71977 -15.70505 -11.56308 -11.51044
 Alpha  occ. eigenvalues --  -11.49622 -11.48214 -11.47415 -11.42618 -11.39984
 Alpha  occ. eigenvalues --  -11.37420  -1.84340  -1.70232  -1.66800  -1.49670
 Alpha  occ. eigenvalues --   -1.39850  -1.33263  -1.31475  -1.24747  -1.19737
 Alpha  occ. eigenvalues --   -1.08785  -1.00262  -0.97118  -0.87292  -0.83012
 Alpha  occ. eigenvalues --   -0.79557  -0.77706  -0.70628  -0.69710  -0.68434
 Alpha  occ. eigenvalues --   -0.66986  -0.65461  -0.64033  -0.62618  -0.60870
 Alpha  occ. eigenvalues --   -0.60271  -0.59448  -0.58405  -0.56349  -0.55189
 Alpha  occ. eigenvalues --   -0.53282  -0.52879  -0.51147  -0.49266  -0.48430
 Alpha  occ. eigenvalues --   -0.47594  -0.45412  -0.44778  -0.44058  -0.41144
 Alpha  occ. eigenvalues --   -0.37103  -0.36460  -0.35276  -0.31790  -0.30707
 Alpha  occ. eigenvalues --   -0.29399  -0.27251
 Alpha virt. eigenvalues --    0.03252   0.04140   0.04307   0.04956   0.05330
 Alpha virt. eigenvalues --    0.05558   0.06434   0.06595   0.06938   0.07276
 Alpha virt. eigenvalues --    0.07441   0.07883   0.08084   0.08808   0.09416

 Mulliken charges:
               1
     1  C   -3.528570
     2  C    5.844431
     3  C   -2.892159
     4  C    7.836142
     5  C   -2.221376
     6  C   -3.020124
     7  C   -3.690333
     8  C    5.880324
     9  H    0.943927
    10  H    0.675833
    11  H    0.581471
    12  H    0.684521
    13  H    0.864731
    14  H    1.355084
    15  H    2.133683
    16  H    1.178845
    17  H    1.779837
    18  H    1.229105
    19  H    1.374959
    20  H    1.689336
    21  H    1.035316
    22  H    1.474768
    23  H    1.218155
    24  H    1.068410
    25  H    0.521884
    26  N   -2.324476
    27  N   -1.877551
    28  N   -2.049423
    29  N   -3.449836
    30  N   -3.326882
    31  O   -3.877190
    32  O   -3.752054
    33  O   -3.360790
 Sum of Mulliken charges =  -0.00000

 Dipole moment (field-independent basis, Debye):
    X=             -3.3131    Y=              2.0890    Z=             -0.0863  Tot=              3.9177

 Test job not archived.
 1\1\GINC-SE454\SP\RHF\Aug-CC-pVDZ\C8H17N5O3\OHZDE\08-Apr-2025\0\\#t hf
  aug-cc-pvdz iop(5/13=1,5/36=2,99/5=2) pseudo=read geom=check guess=(r
 ead,tcheck) scf=(maxcycle=1)\\title\\0,1\C,0,2.90058,1.03286,-0.517313
 \C,0,2.32737,-0.378316,-0.341409\C,0,0.188865,-1.63325,-0.287212\C,0,-
 1.14583,-1.59047,-1.02537\C,0,0.0651259,-1.95739,1.19156\C,0,-0.144504
 ,-0.8561,2.17136\C,0,-1.27744,0.132073,1.90221\C,0,-1.35918,1.79178,0.
 0271418\H,0,-2.07671,-0.706347,-2.38836\H,0,-3.17407,2.27551,-0.778512
 \H,0,-3.19284,1.94821,0.853271\H,0,-1.21065,2.53479,-1.67352\H,0,0.200

 Normal termination of Gaussian 16 at Tue Apr  8 20:40:29 2025.
