 Gaussian 16, Revision C.01,

 ----------------------------------------------------------------------
 #t hf aug-cc-pvdz symm=none int=(grid=ultrafine) guess=(read,tcheck) s
 table=(opt,rrhf)
 ----------------------------------------------------------------------
 -----
 title
 -----
 Symbolic Z-matrix:
 Charge =  0 Multiplicity = 1

 SCF Done:  E(RHF) =  -588.726453593     A.U. after   13 cycles
 Normal termination of Gaussian 16 at Tue Apr  8 19:30:07 2025.
 Gaussian 16:  ES64L-G16RevC.01  3-Jul-2019

 ----------------------------------------------------------------------
 #t hf aug-cc-pvdz iop(5/13=1,5/36=2,99/5=2) pseudo=read geom=check gue
 ss=(read,tcheck) scf=(maxcycle=1)
 ----------------------------------------------------------------------
 -----
 title
 -----
 Structure from the checkpoint file:  "ANI1ccx_1232_conf1_mol2.chk"
 Charge =  0 Multiplicity = 1

                         Standard orientation:
 ---------------------------------------------------------------------
 Center     Atomic      Atomic             Coordinates (Angstroms)
 Number     Number       Type             X           Y           Z
 ---------------------------------------------------------------------
      1          6           0       -2.227740   -1.081989    0.067611
      2          6           0       -0.887402   -0.435971    0.443967
      3          6           0        0.201004   -1.505439    0.535993
      4          6           0        1.826880   -0.181359   -0.675751
      5          6           0        0.970251    1.007851   -0.307119
      6          6           0       -0.515045    0.686685   -0.564341
      7          1           0       -1.106321    2.137161    0.527249
      8          1           0       -0.669039    0.342528   -1.575340
      9          1           0        1.931770    1.055281    1.423480
     10          1           0        1.293470    1.831201   -0.942400
     11          1           0        3.574720   -0.887449   -0.014887
     12          1           0        2.174960   -0.137452   -1.709120
     13          1           0        0.809302   -1.366869    1.470320
     14          1           0       -0.252038   -2.529469    0.557808
     15          1           0       -1.042750    0.033638    1.420720
     16          1           0       -2.477650   -1.879610    0.807183
     17          1           0       -2.089450   -1.604359   -0.888351
     18          1           0       -2.936720    0.714337   -0.280044
     19          1           0        1.635350   -2.212219   -0.797123
     20          7           0        1.051990   -1.384319   -0.616364
     21          8           0        1.044290    1.311821    1.070380
     22          8           0       -3.288780   -0.143976    0.024787
     23          8           0        2.976630   -0.103959    0.213764
     24          8           0       -1.284290    1.842971   -0.394819
 ---------------------------------------------------------------------

 SCF Done:  E(RHF) =  -591.365586169     A.U. after    2 cycles

 The electronic state is 1-A.
 Alpha  occ. eigenvalues --  -21.08590 -21.07461 -21.06428 -21.04171 -15.73314
 Alpha  occ. eigenvalues --  -11.52665 -11.49528 -11.46801 -11.43555 -11.42521
 Alpha  occ. eigenvalues --  -11.36819  -1.78227  -1.72371  -1.68251  -1.68059
 Alpha  occ. eigenvalues --   -1.41169  -1.17440  -1.11335  -0.96564  -0.92553
 Alpha  occ. eigenvalues --   -0.86914  -0.78937  -0.73808  -0.70524  -0.67693
 Alpha  occ. eigenvalues --   -0.63474  -0.61197  -0.59323  -0.57498  -0.55519
 Alpha  occ. eigenvalues --   -0.54108  -0.53422  -0.51432  -0.49242  -0.47807
 Alpha  occ. eigenvalues --   -0.47259  -0.41168  -0.39609  -0.38022  -0.35743
 Alpha  occ. eigenvalues --   -0.33103  -0.31627  -0.30372  -0.28464
 Alpha virt. eigenvalues --    0.03199   0.04156   0.04378   0.04772   0.05291
 Alpha virt. eigenvalues --    0.05999   0.06556   0.07057   0.07419   0.07953
 Alpha virt. eigenvalues --    0.08264   0.08624   0.08953   0.11973   0.12664

 Mulliken charges:
               1
     1  C   -0.865469
     2  C   -1.591242
     3  C   -2.717624
     4  C    2.013647
     5  C    0.403376
     6  C    1.975877
     7  H    0.487424
     8  H    2.022042
     9  H    0.738872
    10  H    1.697881
    11  H    0.729615
    12  H    1.722800
    13  H    1.338363
    14  H    1.370850
    15  H    1.765033
    16  H    1.221917
    17  H    1.383636
    18  H    1.042056
    19  H    0.631558
    20  N   -2.378191
    21  O   -3.354303
    22  O   -3.005190
    23  O   -3.222237
    24  O   -3.410692
 Sum of Mulliken charges =   0.00000

 Dipole moment (field-independent basis, Debye):
    X=              2.7330    Y=             -0.9106    Z=              0.0502  Tot=              2.8812

 Test job not archived.
 1\1\GINC-SE284\SP\RHF\Aug-CC-pVDZ\C6H13N1O4\OHZDE\08-Apr-2025\0\\#t hf
  aug-cc-pvdz iop(5/13=1,5/36=2,99/5=2) pseudo=read geom=check guess=(r
 ead,tcheck) scf=(maxcycle=1)\\title\\0,1\C,0,-2.22774,-1.08199,0.06761
 08\C,0,-0.887402,-0.435972,0.443967\C,0,0.201004,-1.50544,0.535993\C,0
 ,1.82688,-0.18136,-0.675751\C,0,0.970251,1.00785,-0.307119\C,0,-0.5150
 45,0.686684,-0.564341\H,0,-1.10632,2.13716,0.527249\H,0,-0.669039,0.34
 2527,-1.57534\H,0,1.93177,1.05528,1.42348\H,0,1.29347,1.8312,-0.9424\H
 ,0,3.57472,-0.88745,-0.0148873\H,0,2.17496,-0.137453,-1.70912\H,0,0.80

 Normal termination of Gaussian 16 at Tue Apr  8 19:30:24 2025.
