 Gaussian 16, Revision C.01,

 ----------------------------------------------------------------------
 #t hf aug-cc-pvdz symm=none int=(grid=ultrafine) guess=(read,tcheck) s
 table=(opt,rrhf)
 ----------------------------------------------------------------------
 -----
 title
 -----
 Symbolic Z-matrix:
 Charge =  0 Multiplicity = 1

 SCF Done:  E(RHF) =  -642.649705247     A.U. after   14 cycles
 Normal termination of Gaussian 16 at Tue Apr  8 19:29:29 2025.
 Gaussian 16:  ES64L-G16RevC.01  3-Jul-2019

 ----------------------------------------------------------------------
 #t hf aug-cc-pvdz iop(5/13=1,5/36=2,99/5=2) pseudo=read geom=check gue
 ss=(read,tcheck) scf=(maxcycle=1)
 ----------------------------------------------------------------------
 -----
 title
 -----
 Structure from the checkpoint file:  "ANI1ccx_1214_conf1_mol2.chk"
 Charge =  0 Multiplicity = 1

                         Standard orientation:
 ---------------------------------------------------------------------
 Center     Atomic      Atomic             Coordinates (Angstroms)
 Number     Number       Type             X           Y           Z
 ---------------------------------------------------------------------
      1          6           0       -1.477140   -0.414963   -0.521099
      2          6           0       -0.101112   -0.014516   -0.137478
      3          6           0       -2.502120    0.317938    0.412276
      4          6           0       -2.803139    1.731410   -0.031668
      5          6           0        2.170700   -0.852498    0.621525
      6          6           0        3.225790    0.131631    0.031633
      7          1           0        1.866791    1.538770   -0.146650
      8          1           0        2.618800   -1.831311    0.497465
      9          1           0        2.093340   -0.626076    1.729660
     10          1           0        0.483076   -1.885090    0.053807
     11          1           0       -3.566679    2.131540    0.668748
     12          1           0       -1.904169    2.353630   -0.052287
     13          1           0       -3.144289    1.654360   -1.038130
     14          1           0       -4.336840   -0.059189    0.911120
     15          1           0       -2.151260    0.233573    1.463050
     16          1           0       -1.628650   -0.074491   -1.538240
     17          1           0       -1.602160   -2.255740   -1.351270
     18          1           0       -2.590420   -1.964130   -0.075024
     19          7           0       -1.614330   -1.876760   -0.379032
     20          7           0        0.869943   -0.955513   -0.037750
     21          8           0        0.069138    1.176330    0.112469
     22          8           0       -3.734040   -0.416955    0.236653
     23          8           0        4.394220   -0.169447    0.060139
     24          8           0        2.770091    1.312079   -0.466250
 ---------------------------------------------------------------------

 SCF Done:  E(RHF) =  -645.497913575     A.U. after    2 cycles

 The electronic state is 1-A.
 Alpha  occ. eigenvalues --  -21.09584 -21.08840 -21.04635 -21.04414 -15.78477
 Alpha  occ. eigenvalues --  -15.75056 -11.55000 -11.52894 -11.50500 -11.44712
 Alpha  occ. eigenvalues --  -11.44167 -11.38366  -1.79938  -1.75674  -1.72516
 Alpha  occ. eigenvalues --   -1.64390  -1.43109  -1.34906  -1.15054  -1.09011
 Alpha  occ. eigenvalues --   -1.01291  -0.88483  -0.82709  -0.76094  -0.75386
 Alpha  occ. eigenvalues --   -0.70333  -0.68094  -0.66264  -0.65264  -0.61589
 Alpha  occ. eigenvalues --   -0.59415  -0.58182  -0.55726  -0.53904  -0.53266
 Alpha  occ. eigenvalues --   -0.51302  -0.49764  -0.48193  -0.45718  -0.44705
 Alpha  occ. eigenvalues --   -0.43008  -0.40581  -0.34736  -0.34288  -0.32371
 Alpha  occ. eigenvalues --   -0.30051  -0.28652
 Alpha virt. eigenvalues --    0.03337   0.03992   0.04356   0.04683   0.05170
 Alpha virt. eigenvalues --    0.05509   0.06089   0.06969   0.07054   0.08371
 Alpha virt. eigenvalues --    0.08762   0.09747   0.10513   0.11558   0.12018

 Mulliken charges:
               1
     1  C   -2.320350
     2  C    6.914199
     3  C    0.908748
     4  C   -3.556475
     5  C   -3.163163
     6  C    5.336012
     7  H    1.369555
     8  H    1.506994
     9  H    1.482843
    10  H    0.624298
    11  H    1.135802
    12  H    1.500789
    13  H    1.184535
    14  H    0.738466
    15  H    1.756410
    16  H    1.989514
    17  H    0.448556
    18  H    0.751076
    19  N   -2.920554
    20  N   -2.776826
    21  O   -3.676833
    22  O   -3.067717
    23  O   -3.008737
    24  O   -3.157143
 Sum of Mulliken charges =   0.00000

 Dipole moment (field-independent basis, Debye):
    X=             -4.7479    Y=             -1.5219    Z=              0.2568  Tot=              4.9924

 Test job not archived.
 1\1\GINC-SE095\SP\RHF\Aug-CC-pVDZ\C6H12N2O4\OHZDE\08-Apr-2025\0\\#t hf
  aug-cc-pvdz iop(5/13=1,5/36=2,99/5=2) pseudo=read geom=check guess=(r
 ead,tcheck) scf=(maxcycle=1)\\title\\0,1\C,0,-1.47714,-0.414963,-0.521
 099\C,0,-0.101112,-0.0145155,-0.137478\C,0,-2.50212,0.317938,0.412276\
 C,0,-2.80314,1.73141,-0.0316684\C,0,2.1707,-0.852497,0.621525\C,0,3.22
 579,0.131632,0.0316331\H,0,1.86679,1.53877,-0.14665\H,0,2.6188,-1.8313
 1,0.497465\H,0,2.09334,-0.626075,1.72966\H,0,0.483076,-1.88509,0.05380
 67\H,0,-3.56668,2.13154,0.668748\H,0,-1.90417,2.35363,-0.0522869\H,0,-

 Normal termination of Gaussian 16 at Tue Apr  8 19:29:46 2025.
