 Gaussian 16, Revision C.01,

 ----------------------------------------------------------------------
 #t hf aug-cc-pvdz symm=none int=(grid=ultrafine) guess=(read,tcheck) s
 table=(opt,rrhf)
 ----------------------------------------------------------------------
 -----
 title
 -----
 Symbolic Z-matrix:
 Charge =  0 Multiplicity = 1

 SCF Done:  E(RHF) =  -982.033823838     A.U. after   14 cycles
 Normal termination of Gaussian 16 at Tue Apr  8 21:04:53 2025.
 Gaussian 16:  ES64L-G16RevC.01  3-Jul-2019

 ----------------------------------------------------------------------
 #t hf aug-cc-pvdz iop(5/13=1,5/36=2,99/5=2) pseudo=read geom=check gue
 ss=(read,tcheck) scf=(maxcycle=1)
 ----------------------------------------------------------------------
 -----
 title
 -----
 Structure from the checkpoint file:  "ANI1ccx_1743_conf47_mol1.chk"
 Charge =  0 Multiplicity = 1

                         Standard orientation:
 ---------------------------------------------------------------------
 Center     Atomic      Atomic             Coordinates (Angstroms)
 Number     Number       Type             X           Y           Z
 ---------------------------------------------------------------------
      1          6           0        1.547589   -1.753691   -0.164519
      2          6           0        1.069879   -0.958668    1.026159
      3          6           0        2.249239   -1.110811   -1.311141
      4          6           0        3.465699   -0.341028   -1.034151
      5          6           0        3.260150    0.928813   -0.292847
      6          6           0       -1.182970    0.095534   -0.060161
      7          6           0       -1.403310    1.644540   -0.126520
      8          6           0       -2.340841   -0.479787    0.629483
      9          6           0       -3.772941   -0.452384    0.038438
     10          1           0        0.541184    1.712419    0.191308
     11          1           0       -4.721150   -0.179990   -1.532171
     12          1           0       -2.467390   -0.253537    1.651179
     13          1           0       -2.263011   -1.584560    0.695210
     14          1           0       -0.926549   -0.422591   -0.947887
     15          1           0       -0.118149    0.377671    1.661949
     16          1           0        3.769180    1.853049    1.195209
     17          1           0        4.116199   -0.977130   -0.374607
     18          1           0        4.006060   -0.266902   -2.015801
     19          1           0        2.581339   -2.034111   -1.857051
     20          1           0        1.545319   -0.621089   -2.026851
     21          1           0        2.124399   -2.557711    0.214645
     22          1           0       -0.035743   -3.081091   -0.135757
     23          1           0        0.568811   -2.937871   -1.544821
     24          7           0        0.289130   -2.392701   -0.740098
     25          7           0       -0.071215   -0.166588    0.828914
     26          8           0        1.582299   -1.070281    2.121669
     27          8           0        2.259910    1.713609   -0.396326
     28          8           0        4.089790    1.107939    0.732911
     29          8           0       -2.507300    2.130050   -0.197137
     30          8           0       -4.791481   -0.645408    0.684299
     31          8           0       -3.815380   -0.093149   -1.289031
     32          8           0       -0.267947    2.288909   -0.159481
 ---------------------------------------------------------------------

 SCF Done:  E(RHF) =  -986.302354113     A.U. after    2 cycles

 The electronic state is 1-A.
 Alpha  occ. eigenvalues --  -21.16722 -21.11234 -21.09510 -21.07595 -21.06166
 Alpha  occ. eigenvalues --  -21.04517 -21.04174 -15.77234 -15.77116 -11.58246
 Alpha  occ. eigenvalues --  -11.57064 -11.53666 -11.53373 -11.52024 -11.49799
 Alpha  occ. eigenvalues --  -11.48714 -11.42598 -11.41261  -1.87163  -1.81874
 Alpha  occ. eigenvalues --   -1.80291  -1.73999  -1.67119  -1.64348  -1.63844
 Alpha  occ. eigenvalues --   -1.44515  -1.39053  -1.24561  -1.18131  -1.07732
 Alpha  occ. eigenvalues --   -1.01173  -0.96895  -0.84300  -0.82510  -0.81124
 Alpha  occ. eigenvalues --   -0.79128  -0.72999  -0.71167  -0.69025  -0.69009
 Alpha  occ. eigenvalues --   -0.66861  -0.65179  -0.64544  -0.62822  -0.61086
 Alpha  occ. eigenvalues --   -0.59343  -0.57911  -0.57229  -0.55274  -0.55071
 Alpha  occ. eigenvalues --   -0.54375  -0.52467  -0.52126  -0.51638  -0.49597
 Alpha  occ. eigenvalues --   -0.48768  -0.47233  -0.46855  -0.44585  -0.41957
 Alpha  occ. eigenvalues --   -0.40920  -0.36385  -0.34383  -0.34098  -0.32769
 Alpha  occ. eigenvalues --   -0.32062  -0.30931  -0.28759  -0.26817
 Alpha virt. eigenvalues --    0.02379   0.03219   0.04003   0.04328   0.04836
 Alpha virt. eigenvalues --    0.05335   0.05692   0.06063   0.07032   0.07292
 Alpha virt. eigenvalues --    0.08004   0.08721   0.09281   0.09814   0.10222

 Mulliken charges:
               1
     1  C   -0.481332
     2  C    6.516010
     3  C   -2.396839
     4  C   -3.828188
     5  C    6.504539
     6  C   -4.669585
     7  C    7.500475
     8  C   -3.045551
     9  C    5.799075
    10  H    1.523051
    11  H    0.984227
    12  H    1.058550
    13  H    1.704440
    14  H    2.282380
    15  H    0.573214
    16  H    1.025165
    17  H    1.342256
    18  H    1.199572
    19  H    1.157728
    20  H    1.301820
    21  H    1.274821
    22  H    0.668715
    23  H    0.621483
    24  N   -2.787205
    25  N   -1.128928
    26  O   -4.082728
    27  O   -3.670917
    28  O   -3.458491
    29  O   -3.407109
    30  O   -3.249161
    31  O   -3.094449
    32  O   -3.737037
 Sum of Mulliken charges =   0.00000

 Dipole moment (field-independent basis, Debye):
    X=              5.0060    Y=             -2.4222    Z=             -2.2439  Tot=              5.9968

 Test job not archived.
 1\1\GINC-SE090\SP\RHF\Aug-CC-pVDZ\C9H14N2O7\OHZDE\08-Apr-2025\0\\#t hf
  aug-cc-pvdz iop(5/13=1,5/36=2,99/5=2) pseudo=read geom=check guess=(r
 ead,tcheck) scf=(maxcycle=1)\\title\\0,1\C,0,1.54759,-1.75369,-0.16451
 8\C,0,1.06988,-0.958667,1.02616\C,0,2.24924,-1.11081,-1.31114\C,0,3.46
 57,-0.341027,-1.03415\C,0,3.26015,0.928814,-0.292846\C,0,-1.18297,0.09
 55349,-0.0601601\C,0,-1.40331,1.64454,-0.126519\C,0,-2.34084,-0.479787
 ,0.629484\C,0,-3.77294,-0.452384,0.0384389\H,0,0.541184,1.71242,0.1913
 09\H,0,-4.72115,-0.17999,-1.53217\H,0,-2.46739,-0.253537,1.65118\H,0,-

 Normal termination of Gaussian 16 at Tue Apr  8 21:05:43 2025.
