 Gaussian 16, Revision C.01,

 ----------------------------------------------------------------------
 #t hf aug-cc-pvdz symm=none int=(grid=ultrafine) guess=(read,tcheck) s
 table=(opt,rrhf)
 ----------------------------------------------------------------------
 -----
 title
 -----
 Symbolic Z-matrix:
 Charge =  0 Multiplicity = 1

 SCF Done:  E(RHF) =  -603.563639932     A.U. after   15 cycles
 Normal termination of Gaussian 16 at Tue Apr  8 22:21:37 2025.
 Gaussian 16:  ES64L-G16RevC.01  3-Jul-2019

 ----------------------------------------------------------------------
 #t hf aug-cc-pvdz iop(5/13=1,5/36=2,99/5=2) pseudo=read geom=check gue
 ss=(read,tcheck) scf=(maxcycle=1)
 ----------------------------------------------------------------------
 -----
 title
 -----
 Structure from the checkpoint file:  "ANI1ccx_999_conf12_mol1.chk"
 Charge =  0 Multiplicity = 1

                         Standard orientation:
 ---------------------------------------------------------------------
 Center     Atomic      Atomic             Coordinates (Angstroms)
 Number     Number       Type             X           Y           Z
 ---------------------------------------------------------------------
      1          6           0        1.397920   -0.577398    1.072150
      2          6           0        0.759189   -1.384901   -0.035096
      3          6           0       -1.023569    0.340734   -0.525386
      4          6           0       -0.204705    1.668810   -0.240753
      5          6           0       -1.931229   -0.056441    0.659975
      6          1           0        0.812460    1.003268   -1.640740
      7          1           0       -2.824322   -1.882655    0.694319
      8          1           0       -1.339140   -0.511491    1.419310
      9          1           0       -2.535718    0.806430    0.952930
     10          1           0       -1.549828    0.606748   -1.414540
     11          1           0        0.639926    0.065167    1.598030
     12          1           0        1.838728   -1.374933    1.731630
     13          1           0        2.011813    0.974102    0.013451
     14          1           0        3.036500   -0.287031   -0.111217
     15          1           0       -0.456279   -1.324009   -1.607100
     16          7           0        2.520991    0.286198    0.580290
     17          7           0       -0.140592   -0.723586   -0.831157
     18          8           0       -2.848051   -1.116975    0.123416
     19          8           0        1.173996   -2.494002   -0.433763
     20          8           0       -0.350127    2.439861    0.675751
     21          8           0        0.738860    1.801279   -1.048570
 ---------------------------------------------------------------------

 SCF Done:  E(RHF) =  -606.211796992     A.U. after    2 cycles

 The electronic state is 1-A.
 Alpha  occ. eigenvalues --  -21.15857 -21.09023 -21.06448 -21.04998 -15.79124
 Alpha  occ. eigenvalues --  -15.75243 -11.55772 -11.53747 -11.50728 -11.45488
 Alpha  occ. eigenvalues --  -11.44096  -1.90503  -1.71968  -1.70516  -1.67889
 Alpha  occ. eigenvalues --   -1.44701  -1.34069  -1.14016  -1.03733  -0.97138
 Alpha  occ. eigenvalues --   -0.85388  -0.80664  -0.75858  -0.74056  -0.70712
 Alpha  occ. eigenvalues --   -0.66165  -0.64273  -0.62046  -0.59052  -0.57581
 Alpha  occ. eigenvalues --   -0.56701  -0.55309  -0.53418  -0.50296  -0.48860
 Alpha  occ. eigenvalues --   -0.46386  -0.42868  -0.40183  -0.35990  -0.35354
 Alpha  occ. eigenvalues --   -0.34263  -0.30541  -0.29829
 Alpha virt. eigenvalues --    0.03092   0.04147   0.04859   0.05300   0.05752
 Alpha virt. eigenvalues --    0.06000   0.06271   0.07594   0.08138   0.09071
 Alpha virt. eigenvalues --    0.09167   0.10472   0.11018   0.11760   0.12769

 Mulliken charges:
               1
     1  C   -3.277704
     2  C    5.325785
     3  C   -3.283363
     4  C    7.235234
     5  C   -1.025236
     6  H    1.097922
     7  H    0.726202
     8  H    1.708543
     9  H    1.298524
    10  H    2.013483
    11  H    1.702466
    12  H    1.073374
    13  H    0.687812
    14  H    0.583599
    15  H    0.419543
    16  N   -2.118679
    17  N   -1.367504
    18  O   -2.430407
    19  O   -3.365051
    20  O   -3.353900
    21  O   -3.650643
 Sum of Mulliken charges =  -0.00000

 Dipole moment (field-independent basis, Debye):
    X=             -1.6208    Y=             -0.5141    Z=             -1.4818  Tot=              2.2555

 Test job not archived.
 1\1\GINC-SE110\SP\RHF\Aug-CC-pVDZ\C5H10N2O4\OHZDE\08-Apr-2025\0\\#t hf
  aug-cc-pvdz iop(5/13=1,5/36=2,99/5=2) pseudo=read geom=check guess=(r
 ead,tcheck) scf=(maxcycle=1)\\title\\0,1\C,0,1.39792,-0.577395,1.07215
 \C,0,0.759191,-1.3849,-0.035096\C,0,-1.02357,0.340732,-0.525386\C,0,-0
 .204709,1.66881,-0.240753\C,0,-1.93123,-0.0564446,0.659975\H,0,0.81245
 7,1.00327,-1.64074\H,0,-2.82432,-1.88266,0.694319\H,0,-1.33914,-0.5114
 93,1.41931\H,0,-2.53572,0.806426,0.95293\H,0,-1.54983,0.606745,-1.4145
 4\H,0,0.639925,0.0651678,1.59803\H,0,1.83873,-1.37493,1.73163\H,0,2.01

 Normal termination of Gaussian 16 at Tue Apr  8 22:21:51 2025.
