 Gaussian 16, Revision C.01,

 ----------------------------------------------------------------------
 #t hf aug-cc-pvdz symm=none int=(grid=ultrafine) guess=(read,tcheck) s
 table=(opt,rrhf)
 ----------------------------------------------------------------------
 -----
 title
 -----
 Symbolic Z-matrix:
 Charge =  0 Multiplicity = 1

 SCF Done:  E(RHF) =  -489.157286379     A.U. after   13 cycles
 Normal termination of Gaussian 16 at Tue Apr  8 21:51:42 2025.
 Gaussian 16:  ES64L-G16RevC.01  3-Jul-2019

 ----------------------------------------------------------------------
 #t hf aug-cc-pvdz iop(5/13=1,5/36=2,99/5=2) pseudo=read geom=check gue
 ss=(read,tcheck) scf=(maxcycle=1)
 ----------------------------------------------------------------------
 -----
 title
 -----
 Structure from the checkpoint file:  "ANI1ccx_667_conf1_mol1.chk"
 Charge =  0 Multiplicity = 1

                         Standard orientation:
 ---------------------------------------------------------------------
 Center     Atomic      Atomic             Coordinates (Angstroms)
 Number     Number       Type             X           Y           Z
 ---------------------------------------------------------------------
      1          6           0        1.240670   -0.353810   -0.000984
      2          6           0        0.008188    1.519829    0.284994
      3          6           0       -1.241060   -0.380784   -0.023126
      4          1           0        0.138341    1.461019    1.385120
      5          1           0       -0.068186    2.590939    0.002664
      6          8           0        2.210129   -1.009594   -0.120802
      7          8           0        1.129972    0.955434   -0.328529
      8          8           0       -1.174088    0.945007   -0.169867
      9          8           0       -2.213551   -1.018888   -0.171049
     10          8           0        0.032919   -0.967380    0.421110
 ---------------------------------------------------------------------

 SCF Done:  E(RHF) =  -491.136039499     A.U. after    2 cycles

 The electronic state is 1-A.
 Alpha  occ. eigenvalues --  -21.16637 -21.16310 -21.15495 -21.11021 -21.10064
 Alpha  occ. eigenvalues --  -11.60733 -11.59521 -11.52039  -2.01130  -1.86823
 Alpha  occ. eigenvalues --   -1.80584  -1.72259  -1.69904  -1.06440  -0.92477
 Alpha  occ. eigenvalues --   -0.81039  -0.75199  -0.74401  -0.69832  -0.61137
 Alpha  occ. eigenvalues --   -0.60732  -0.58211  -0.57149  -0.48314  -0.48162
 Alpha  occ. eigenvalues --   -0.41794  -0.38253  -0.37224  -0.35212  -0.33141
 Alpha virt. eigenvalues --    0.02666   0.04382   0.07925   0.07952   0.10170
 Alpha virt. eigenvalues --    0.10305   0.11027   0.11130   0.11609   0.12189
 Alpha virt. eigenvalues --    0.13708   0.13885   0.14146   0.15320   0.17311

 Mulliken charges:
               1
     1  C    6.100949
     2  C   -0.476382
     3  C    5.961283
     4  H    1.520586
     5  H    1.475516
     6  O   -2.986685
     7  O   -2.904384
     8  O   -2.899978
     9  O   -3.008530
    10  O   -2.782376
 Sum of Mulliken charges =   0.00000

 Dipole moment (field-independent basis, Debye):
    X=             -0.0415    Y=              2.5640    Z=              0.6238  Tot=              2.6391

 Test job not archived.
 1\1\GINC-SE095\SP\RHF\Aug-CC-pVDZ\C3H2O5\OHZDE\08-Apr-2025\0\\#t hf au
 g-cc-pvdz iop(5/13=1,5/36=2,99/5=2) pseudo=read geom=check guess=(read
 ,tcheck) scf=(maxcycle=1)\\title\\0,1\C,0,1.24067,-0.353807,-0.0009840
 7\C,0,0.00818565,1.51983,0.284994\C,0,-1.24106,-0.380785,-0.0231259\H,
 0,0.138338,1.46102,1.38512\H,0,-0.0681905,2.59094,0.0026634\O,0,2.2101
 3,-1.00959,-0.120802\O,0,1.12997,0.955437,-0.328529\O,0,-1.17409,0.945
 007,-0.169867\O,0,-2.21355,-1.01889,-0.171049\O,0,0.0329198,-0.967379,
 0.42111\\Version=ES64L-G16RevC.01\State=1-A\HF=-491.1360395\RMSD=6.383

 Normal termination of Gaussian 16 at Tue Apr  8 21:51:46 2025.
