 Gaussian 16, Revision C.01,

 ----------------------------------------------------------------------
 #t hf aug-cc-pvdz symm=none int=(grid=ultrafine) guess=(read,tcheck) s
 table=(opt,rrhf)
 ----------------------------------------------------------------------
 -----
 title
 -----
 Symbolic Z-matrix:
 Charge =  0 Multiplicity = 1

 SCF Done:  E(RHF) =  -351.484460696     A.U. after   15 cycles
 Normal termination of Gaussian 16 at Tue Apr  8 21:33:31 2025.
 Gaussian 16:  ES64L-G16RevC.01  3-Jul-2019

 ----------------------------------------------------------------------
 #t hf aug-cc-pvdz iop(5/13=1,5/36=2,99/5=2) pseudo=read geom=check gue
 ss=(read,tcheck) scf=(maxcycle=1)
 ----------------------------------------------------------------------
 -----
 title
 -----
 Structure from the checkpoint file:  "ANI1ccx_371_conf10_mol1.chk"
 Charge =  0 Multiplicity = 1

                         Standard orientation:
 ---------------------------------------------------------------------
 Center     Atomic      Atomic             Coordinates (Angstroms)
 Number     Number       Type             X           Y           Z
 ---------------------------------------------------------------------
      1          6           0       -0.769007   -0.022377    0.045010
      2          1           0       -0.168091    2.056961    0.115298
      3          7           0        0.104391    1.048681    0.014691
      4          7           0        1.405279    0.601205   -0.033902
      5          7           0        1.372470   -0.631681   -0.018748
      6          8           0       -1.964780    0.000061   -0.045800
      7          8           0        0.040675   -1.131329    0.030845
 ---------------------------------------------------------------------

 SCF Done:  E(RHF) =  -352.934511097     A.U. after    2 cycles

 The electronic state is 1-A.
 Alpha  occ. eigenvalues --  -21.16865 -21.07562 -15.88721 -15.87910 -15.84903
 Alpha  occ. eigenvalues --  -11.56494  -1.97491  -1.72991  -1.59893  -1.35418
 Alpha  occ. eigenvalues --   -0.95217  -0.91586  -0.76322  -0.72742  -0.61820
 Alpha  occ. eigenvalues --   -0.57193  -0.53588  -0.51389  -0.47189  -0.46021
 Alpha  occ. eigenvalues --   -0.32652  -0.32275
 Alpha virt. eigenvalues --    0.03138   0.09446   0.10612   0.10766   0.11707
 Alpha virt. eigenvalues --    0.12275   0.12542   0.13001   0.15842   0.16855
 Alpha virt. eigenvalues --    0.17477   0.18099   0.19553   0.19911   0.22871

 Mulliken charges:
               1
     1  C    5.244290
     2  H    0.803451
     3  N   -1.866102
     4  N    0.576205
     5  N    0.353135
     6  O   -2.741075
     7  O   -2.369904
 Sum of Mulliken charges =  -0.00000

 Dipole moment (field-independent basis, Debye):
    X=              0.2793    Y=              1.7905    Z=              0.2298  Tot=              1.8267

 Test job not archived.
 1\1\GINC-SE094\SP\RHF\Aug-CC-pVDZ\C1H1N3O2\OHZDE\08-Apr-2025\0\\#t hf
 aug-cc-pvdz iop(5/13=1,5/36=2,99/5=2) pseudo=read geom=check guess=(re
 ad,tcheck) scf=(maxcycle=1)\\title\\0,1\C,0,-0.769007,-0.0223781,0.045
 0096\H,0,-0.168089,2.05696,0.115298\N,0,0.104392,1.04868,0.0146909\N,0
 ,1.40528,0.601203,-0.0339022\N,0,1.37247,-0.631683,-0.0187479\O,0,-1.9
 6478,0.0000608,-0.0458\O,0,0.0406747,-1.13133,0.0308448\\Version=ES64L
 -G16RevC.01\State=1-A\HF=-352.9345111\RMSD=8.821e-02\Dipole=0.1098728,
 0.7044521,0.0904239\Quadrupole=-5.285244,4.0283016,1.2569425,-0.281233

 Normal termination of Gaussian 16 at Tue Apr  8 21:33:34 2025.
