 Gaussian 16, Revision C.01,

 ----------------------------------------------------------------------
 #t hf aug-cc-pvdz symm=none int=(grid=ultrafine) guess=(read,tcheck) s
 table=(opt,rrhf)
 ----------------------------------------------------------------------
 -----
 title
 -----
 Symbolic Z-matrix:
 Charge =  0 Multiplicity = 1

 SCF Done:  E(RHF) =  -852.701621193     A.U. after   14 cycles
 Normal termination of Gaussian 16 at Tue Apr  8 22:12:13 2025.
 Gaussian 16:  ES64L-G16RevC.01  3-Jul-2019

 ----------------------------------------------------------------------
 #t hf aug-cc-pvdz iop(5/13=1,5/36=2,99/5=2) pseudo=read geom=check gue
 ss=(read,tcheck) scf=(maxcycle=1)
 ----------------------------------------------------------------------
 -----
 title
 -----
 Structure from the checkpoint file:  "ANI1ccx_78_conf9_mol2.chk"
 Charge =  0 Multiplicity = 1

                         Standard orientation:
 ---------------------------------------------------------------------
 Center     Atomic      Atomic             Coordinates (Angstroms)
 Number     Number       Type             X           Y           Z
 ---------------------------------------------------------------------
      1          6           0       -1.342851   -0.893055    0.671402
      2          6           0        2.403260    2.686969    0.218981
      3          6           0        2.962509    1.257359    0.033761
      4          6           0        2.661799   -1.057331   -0.661004
      5          6           0        1.969829    0.243018   -0.481060
      6          6           0        3.676829    0.741036    1.268319
      7          6           0       -3.001771    1.029770    0.443091
      8          6           0       -2.157901    0.254239    1.358379
      9          6           0       -0.380847   -0.299483   -0.359994
     10          6           0       -4.038641    0.238306   -0.290190
     11          1           0        3.693519    1.324319   -0.819949
     12          1           0        3.982199   -1.742571   -1.849581
     13          1           0        4.078919   -0.293370    1.213209
     14          1           0        4.573429    1.327249    1.488439
     15          1           0        3.028379    0.772171    2.161449
     16          1           0        1.553380    2.712930    0.911469
     17          1           0        2.013860    3.058400   -0.738715
     18          1           0        3.144750    3.431419    0.592437
     19          1           0        1.624649    0.605358   -1.469321
     20          1           0       -4.108660    1.661270   -1.797221
     21          1           0       -5.337821    0.426485   -1.843281
     22          1           0       -3.497030    1.907350    0.965097
     23          1           0       -2.347070    1.464880   -0.353472
     24          1           0       -2.721111   -0.300072    2.124239
     25          1           0       -1.459801    0.929297    1.853789
     26          1           0       -2.055941   -1.603000    0.166737
     27          1           0       -0.932670   -1.287980    2.679339
     28          1           0       -0.629062   -2.566710    1.637929
     29          1           0        0.828614   -0.380511    1.135169
     30          7           0       -0.619974   -1.600920    1.732789
     31          7           0       -4.655821    0.962666   -1.297411
     32          7           0        0.752176    0.136154    0.293463
     33          8           0        2.449119   -2.083501   -0.086500
     34          8           0       -0.559732   -0.291605   -1.562601
     35          8           0       -4.307721   -0.905650   -0.052263
     36          8           0        3.633269   -0.861394   -1.594861
 ---------------------------------------------------------------------

 SCF Done:  E(RHF) =  -856.581019802     A.U. after    2 cycles

 The electronic state is 1-A.
 Alpha  occ. eigenvalues --  -21.11968 -21.06116 -21.03257 -21.03185 -15.76598
 Alpha  occ. eigenvalues --  -15.73957 -15.73925 -11.54630 -11.52917 -11.51745
 Alpha  occ. eigenvalues --  -11.48655 -11.46966 -11.43795 -11.41845 -11.39241
 Alpha  occ. eigenvalues --  -11.38853 -11.36693  -1.82985  -1.72101  -1.70798
 Alpha  occ. eigenvalues --   -1.66640  -1.43245  -1.35668  -1.33372  -1.23145
 Alpha  occ. eigenvalues --   -1.18913  -1.06642  -1.01328  -1.00612  -0.92046
 Alpha  occ. eigenvalues --   -0.85125  -0.81099  -0.78122  -0.77321  -0.70692
 Alpha  occ. eigenvalues --   -0.68883  -0.66880  -0.66415  -0.65115  -0.64740
 Alpha  occ. eigenvalues --   -0.64007  -0.61687  -0.59901  -0.58879  -0.56411
 Alpha  occ. eigenvalues --   -0.54508  -0.53887  -0.53510  -0.51982  -0.51137
 Alpha  occ. eigenvalues --   -0.51023  -0.49593  -0.48151  -0.47485  -0.46565
 Alpha  occ. eigenvalues --   -0.45235  -0.44327  -0.43876  -0.41760  -0.37173
 Alpha  occ. eigenvalues --   -0.34641  -0.33651  -0.32612  -0.29623  -0.28915
 Alpha  occ. eigenvalues --   -0.27429
 Alpha virt. eigenvalues --    0.03897   0.04050   0.04289   0.04556   0.04915
 Alpha virt. eigenvalues --    0.05492   0.05754   0.05787   0.06507   0.06672
 Alpha virt. eigenvalues --    0.07109   0.07427   0.07687   0.08471   0.08994

 Mulliken charges:
               1
     1  C   -2.425244
     2  C   -4.934417
     3  C   -1.534096
     4  C    8.392611
     5  C   -1.664220
     6  C   -4.940684
     7  C   -3.703989
     8  C   -2.369994
     9  C    7.538926
    10  C    5.631964
    11  H    1.717819
    12  H    0.893103
    13  H    1.263216
    14  H    1.266599
    15  H    1.394545
    16  H    1.543483
    17  H    1.302990
    18  H    1.244749
    19  H    2.033507
    20  H    0.753026
    21  H    0.729220
    22  H    1.377204
    23  H    1.571100
    24  H    1.319668
    25  H    1.327275
    26  H    2.020410
    27  H    0.582182
    28  H    0.712383
    29  H    1.125751
    30  N   -2.994320
    31  N   -3.437303
    32  N   -3.014819
    33  O   -3.629584
    34  O   -4.209657
    35  O   -3.405059
    36  O   -3.478344
 Sum of Mulliken charges =  -0.00000

 Dipole moment (field-independent basis, Debye):
    X=              0.6828    Y=              1.0129    Z=              0.3896  Tot=              1.2822

 Test job not archived.
 1\1\GINC-SE368\SP\RHF\Aug-CC-pVDZ\C10H19N3O4\OHZDE\08-Apr-2025\0\\#t h
 f aug-cc-pvdz iop(5/13=1,5/36=2,99/5=2) pseudo=read geom=check guess=(
 read,tcheck) scf=(maxcycle=1)\\title\\0,1\C,0,-1.34285,-0.893055,0.671
 403\C,0,2.40326,2.68697,0.218982\C,0,2.96251,1.25736,0.0337613\C,0,2.6
 618,-1.05733,-0.661003\C,0,1.96983,0.243018,-0.481059\C,0,3.67683,0.74
 1037,1.26832\C,0,-3.00177,1.02977,0.443092\C,0,-2.1579,0.254239,1.3583
 8\C,0,-0.380846,-0.299483,-0.359993\C,0,-4.03864,0.238306,-0.290189\H,
 0,3.69352,1.32432,-0.819948\H,0,3.9822,-1.74257,-1.84958\H,0,4.07892,-

 Normal termination of Gaussian 16 at Tue Apr  8 22:12:59 2025.
