 Gaussian 16, Revision C.01,

 ----------------------------------------------------------------------
 #t hf aug-cc-pvdz symm=none int=(grid=ultrafine) guess=(read,tcheck) s
 table=(opt,rrhf)
 ----------------------------------------------------------------------
 -----
 title
 -----
 Symbolic Z-matrix:
 Charge =  0 Multiplicity = 1

 SCF Done:  E(RHF) =  -555.307793647     A.U. after   17 cycles
 Normal termination of Gaussian 16 at Tue Apr  8 22:08:52 2025.
 Gaussian 16:  ES64L-G16RevC.01  3-Jul-2019

 ----------------------------------------------------------------------
 #t hf aug-cc-pvdz iop(5/13=1,5/36=2,99/5=2) pseudo=read geom=check gue
 ss=(read,tcheck) scf=(maxcycle=1)
 ----------------------------------------------------------------------
 -----
 title
 -----
 Structure from the checkpoint file:  "ANI1ccx_886_conf17_mol1.chk"
 Charge =  0 Multiplicity = 1

                         Standard orientation:
 ---------------------------------------------------------------------
 Center     Atomic      Atomic             Coordinates (Angstroms)
 Number     Number       Type             X           Y           Z
 ---------------------------------------------------------------------
      1          6           0        1.277650    0.701422    0.003275
      2          6           0       -0.942863    0.704430    0.022209
      3          6           0       -0.930836   -0.737360   -0.019528
      4          6           0        1.340821   -0.733242   -0.075830
      5          1           0        3.207980    1.069651   -0.705854
      6          1           0        2.430420    2.279771    0.032498
      7          1           0        3.141691   -0.740525    0.709864
      8          1           0        2.609971   -2.212329    0.208140
      9          7           0        2.513390    1.288151    0.034880
     10          7           0        0.185296    1.421550    0.023352
     11          7           0       -2.204660    1.097900    0.006473
     12          7           0       -2.187939   -1.095660    0.029461
     13          7           0        0.246867   -1.485230   -0.079922
     14          7           0        2.588831   -1.228109    0.007234
     15          8           0       -2.981399    0.000215    0.003033
 ---------------------------------------------------------------------

 SCF Done:  E(RHF) =  -557.762375249     A.U. after    2 cycles

 The electronic state is 1-A.
 Alpha  occ. eigenvalues --  -21.15762 -15.81070 -15.80624 -15.79250 -15.78716
 Alpha  occ. eigenvalues --  -15.77910 -15.77783 -11.57148 -11.50049 -11.48336
 Alpha  occ. eigenvalues --  -11.43278  -1.97258  -1.58569  -1.43770  -1.41023
 Alpha  occ. eigenvalues --   -1.34393  -1.25135  -1.22755  -1.01245  -0.89348
 Alpha  occ. eigenvalues --   -0.88047  -0.78392  -0.72923  -0.69856  -0.69261
 Alpha  occ. eigenvalues --   -0.66693  -0.65748  -0.61724  -0.57246  -0.53821
 Alpha  occ. eigenvalues --   -0.52279  -0.49465  -0.46765  -0.45325  -0.44534
 Alpha  occ. eigenvalues --   -0.38761  -0.35359  -0.33522  -0.30807
 Alpha virt. eigenvalues --    0.02499   0.03817   0.05088   0.05651   0.06976
 Alpha virt. eigenvalues --    0.07815   0.09646   0.09909   0.10456   0.12191
 Alpha virt. eigenvalues --    0.12387   0.12919   0.13310   0.13479   0.14856

 Mulliken charges:
               1
     1  C    4.417783
     2  C    4.143779
     3  C    3.535690
     4  C    4.838757
     5  H    0.535774
     6  H    0.744427
     7  H    0.547042
     8  H    0.727439
     9  N   -3.394468
    10  N   -3.765517
    11  N   -1.311679
    12  N   -1.350690
    13  N   -3.720487
    14  N   -3.452446
    15  O   -2.495403
 Sum of Mulliken charges =   0.00000

 Dipole moment (field-independent basis, Debye):
    X=              5.4391    Y=              0.3035    Z=              0.1174  Tot=              5.4488

 Test job not archived.
 1\1\GINC-SE118\SP\RHF\Aug-CC-pVDZ\C4H4N6O1\OHZDE\08-Apr-2025\0\\#t hf
 aug-cc-pvdz iop(5/13=1,5/36=2,99/5=2) pseudo=read geom=check guess=(re
 ad,tcheck) scf=(maxcycle=1)\\title\\0,1\C,0,1.27765,0.701421,0.0032748
 \C,0,-0.942863,0.70443,0.0222091\C,0,-0.930837,-0.73736,-0.0195279\C,0
 ,1.34082,-0.733243,-0.0758304\H,0,3.20798,1.06965,-0.705854\H,0,2.4304
 2,2.27977,0.0324978\H,0,3.14169,-0.740526,0.709864\H,0,2.60997,-2.2123
 3,0.20814\N,0,2.51339,1.28815,0.0348799\N,0,0.185296,1.42155,0.0233517
 \N,0,-2.20466,1.0979,0.00647288\N,0,-2.18794,-1.09566,0.0294611\N,0,0.

 Normal termination of Gaussian 16 at Tue Apr  8 22:09:00 2025.
