 Gaussian 16, Revision C.01,

 ----------------------------------------------------------------------
 #t hf aug-cc-pvdz symm=none int=(grid=ultrafine) guess=(read,tcheck) s
 table=(opt,rrhf)
 ----------------------------------------------------------------------
 -----
 title
 -----
 Symbolic Z-matrix:
 Charge =  0 Multiplicity = 1

 SCF Done:  E(RHF) =  -962.233610813     A.U. after   15 cycles
 Normal termination of Gaussian 16 at Tue Apr  8 21:12:51 2025.
 Gaussian 16:  ES64L-G16RevC.01  3-Jul-2019

 ----------------------------------------------------------------------
 #t hf aug-cc-pvdz iop(5/13=1,5/36=2,99/5=2) pseudo=read geom=check gue
 ss=(read,tcheck) scf=(maxcycle=1)
 ----------------------------------------------------------------------
 -----
 title
 -----
 Structure from the checkpoint file:  "ANI1ccx_1756_conf17_mol1.chk"
 Charge =  0 Multiplicity = 1

                         Standard orientation:
 ---------------------------------------------------------------------
 Center     Atomic      Atomic             Coordinates (Angstroms)
 Number     Number       Type             X           Y           Z
 ---------------------------------------------------------------------
      1          6           0        1.317910    1.807591   -0.436442
      2          6           0        0.307640    0.568267   -0.643495
      3          6           0        2.054690    1.797201    0.857641
      4          6           0        2.250850    0.300256    1.196020
      5          6           0        3.111600   -0.351834    0.214195
      6          6           0       -2.025480    0.015829   -0.292270
      7          6           0       -3.296870    0.696683    0.146436
      8          6           0       -1.909690   -1.307069    0.593547
      9          6           0       -0.769972   -2.157659    0.247730
     10          1           0       -5.186200    0.492345   -0.093624
     11          1           0       -0.189513   -3.257549   -1.286220
     12          1           0       -2.791180   -1.897019    0.535601
     13          1           0       -1.846340   -0.978091    1.603150
     14          1           0       -2.176170   -0.315240   -1.375380
     15          1           0       -1.147690    1.834491    0.106522
     16          1           0        2.008160   -2.047389   -0.036760
     17          1           0        3.704890   -2.156438   -0.500347
     18          1           0        2.668200    0.186543    2.222580
     19          1           0        1.247990   -0.084274    1.217590
     20          1           0        1.442340    2.199891    1.703250
     21          1           0        2.988500    2.378912    0.799268
     22          1           0        2.082100    1.532491   -1.229910
     23          1           0        0.358464    3.163451   -1.641670
     24          1           0        1.190109    3.742661   -0.354748
     25          7           0        0.575849    3.015641   -0.638318
     26          7           0        2.952740   -1.687378   -0.011853
     27          7           0       -0.902132    0.845516   -0.116830
     28          8           0        0.775999   -0.425979   -1.118810
     29          8           0        4.086950    0.148583   -0.395097
     30          8           0       -3.404120    1.697161    0.851363
     31          8           0        0.175258   -2.318979    1.005730
     32          8           0       -0.923723   -2.671899   -0.947688
     33          8           0       -4.333230    0.042759   -0.345554
 ---------------------------------------------------------------------

 SCF Done:  E(RHF) =  -966.465196067     A.U. after    2 cycles

 The electronic state is 1-A.
 Alpha  occ. eigenvalues --  -21.15381 -21.13594 -21.08122 -21.05474 -21.04014
 Alpha  occ. eigenvalues --  -20.98973 -15.77930 -15.74872 -15.72621 -11.57250
 Alpha  occ. eigenvalues --  -11.56162 -11.53962 -11.50001 -11.49343 -11.47797
 Alpha  occ. eigenvalues --  -11.43240 -11.41429 -11.38234  -1.86787  -1.83965
 Alpha  occ. eigenvalues --   -1.74165  -1.67740  -1.67011  -1.66465  -1.45601
 Alpha  occ. eigenvalues --   -1.37286  -1.29904  -1.19418  -1.18726  -1.05501
 Alpha  occ. eigenvalues --   -1.00309  -0.91239  -0.83740  -0.83520  -0.81363
 Alpha  occ. eigenvalues --   -0.76542  -0.71652  -0.69545  -0.69000  -0.67822
 Alpha  occ. eigenvalues --   -0.66125  -0.65394  -0.64212  -0.63767  -0.61585
 Alpha  occ. eigenvalues --   -0.60893  -0.58723  -0.57924  -0.57044  -0.55180
 Alpha  occ. eigenvalues --   -0.52977  -0.52603  -0.50279  -0.48321  -0.47998
 Alpha  occ. eigenvalues --   -0.47552  -0.47284  -0.45126  -0.42517  -0.41946
 Alpha  occ. eigenvalues --   -0.38238  -0.36800  -0.36243  -0.33368  -0.32854
 Alpha  occ. eigenvalues --   -0.30176  -0.28973  -0.28129  -0.25415
 Alpha virt. eigenvalues --    0.03343   0.04079   0.04222   0.04346   0.05421
 Alpha virt. eigenvalues --    0.05732   0.06175   0.06815   0.06874   0.07285
 Alpha virt. eigenvalues --    0.07765   0.08207   0.08958   0.09321   0.09952

 Mulliken charges:
               1
     1  C   -0.710116
     2  C    8.779534
     3  C   -3.352367
     4  C   -5.050685
     5  C    6.842137
     6  C   -2.976460
     7  C    7.827696
     8  C   -4.981444
     9  C    8.589913
    10  H    0.995991
    11  H    1.017806
    12  H    1.497123
    13  H    1.552547
    14  H    1.931192
    15  H    0.801412
    16  H    0.721850
    17  H    0.746168
    18  H    1.395755
    19  H    2.088892
    20  H    1.257336
    21  H    1.385452
    22  H    1.673080
    23  H    0.509466
    24  H    0.656390
    25  N   -3.415167
    26  N   -3.649459
    27  N   -3.535323
    28  O   -4.310955
    29  O   -3.580427
    30  O   -3.385605
    31  O   -3.736005
    32  O   -4.035060
    33  O   -3.550665
 Sum of Mulliken charges =   0.00000

 Dipole moment (field-independent basis, Debye):
    X=             -4.1576    Y=              0.0677    Z=             -1.6080  Tot=              4.4583

 Test job not archived.
 1\1\GINC-SE159\SP\RHF\Aug-CC-pVDZ\C9H15N3O6\OHZDE\08-Apr-2025\0\\#t hf
  aug-cc-pvdz iop(5/13=1,5/36=2,99/5=2) pseudo=read geom=check guess=(r
 ead,tcheck) scf=(maxcycle=1)\\title\\0,1\C,0,1.31791,1.80759,-0.436442
 \C,0,0.30764,0.568266,-0.643495\C,0,2.05469,1.7972,0.857641\C,0,2.2508
 5,0.300255,1.19602\C,0,3.1116,-0.351836,0.214195\C,0,-2.02548,0.015828
 2,-0.29227\C,0,-3.29687,0.696682,0.146436\C,0,-1.90969,-1.30707,0.5935
 47\C,0,-0.769972,-2.15766,0.24773\H,0,-5.1862,0.492345,-0.0936239\H,0,
 -0.189513,-3.25755,-1.28622\H,0,-2.79118,-1.89702,0.535601\H,0,-1.8463

 Normal termination of Gaussian 16 at Tue Apr  8 21:13:45 2025.
