 Gaussian 16, Revision C.01,

 ----------------------------------------------------------------------
 #t hf aug-cc-pvdz symm=none int=(grid=ultrafine) guess=(read,tcheck) s
 table=(opt,rrhf)
 ----------------------------------------------------------------------
 -----
 title
 -----
 Symbolic Z-matrix:
 Charge =  0 Multiplicity = 1

 SCF Done:  E(RHF) =  -435.803497727     A.U. after   14 cycles
 Normal termination of Gaussian 16 at Tue Apr  8 22:16:52 2025.
 Gaussian 16:  ES64L-G16RevC.01  3-Jul-2019

 ----------------------------------------------------------------------
 #t hf aug-cc-pvdz iop(5/13=1,5/36=2,99/5=2) pseudo=read geom=check gue
 ss=(read,tcheck) scf=(maxcycle=1)
 ----------------------------------------------------------------------
 -----
 title
 -----
 Structure from the checkpoint file:  "ANI1ccx_976_conf7_mol1.chk"
 Charge =  0 Multiplicity = 1

                         Standard orientation:
 ---------------------------------------------------------------------
 Center     Atomic      Atomic             Coordinates (Angstroms)
 Number     Number       Type             X           Y           Z
 ---------------------------------------------------------------------
      1          6           0        0.024241   -0.642023   -0.109355
      2          6           0        1.484898   -0.025668   -0.247621
      3          6           0       -1.079792    0.296415   -0.480721
      4          6           0       -2.373632   -0.388399   -0.755016
      5          1           0        0.636857    1.633921    0.360598
      6          1           0       -3.121912    0.296985   -1.174750
      7          1           0       -2.751082   -0.758436    0.209781
      8          1           0       -2.194842   -1.222889   -1.373530
      9          1           0       -1.249962    0.690847    1.300460
     10          1           0       -0.769843    0.773082   -1.477920
     11          1           0        0.073545   -1.583599   -0.701484
     12          1           0       -0.569758   -2.066839    1.361270
     13          1           0        0.615021   -1.012929    1.929240
     14          7           0       -0.169812   -1.058739    1.318280
     15          8           0        2.416628   -0.612507   -0.712566
     16          8           0       -1.174912    1.264711    0.511635
     17          8           0        1.531578    1.250181    0.187766
 ---------------------------------------------------------------------

 SCF Done:  E(RHF) =  -437.738792767     A.U. after    2 cycles

 The electronic state is 1-A.
 Alpha  occ. eigenvalues --  -21.10397 -21.08833 -21.05616 -15.76392 -11.53422
 Alpha  occ. eigenvalues --  -11.50259 -11.44952 -11.38789  -1.81942  -1.75920
 Alpha  occ. eigenvalues --   -1.65702  -1.35375  -1.16319  -1.03023  -0.86689
 Alpha  occ. eigenvalues --   -0.80186  -0.73920  -0.69955  -0.64284  -0.62507
 Alpha  occ. eigenvalues --   -0.59999  -0.57520  -0.55719  -0.52647  -0.50499
 Alpha  occ. eigenvalues --   -0.48985  -0.45979  -0.41796  -0.39227  -0.34169
 Alpha  occ. eigenvalues --   -0.33073  -0.28357
 Alpha virt. eigenvalues --    0.03324   0.04321   0.04804   0.05277   0.05944
 Alpha virt. eigenvalues --    0.06642   0.06791   0.07605   0.08055   0.11278
 Alpha virt. eigenvalues --    0.12196   0.12605   0.12880   0.14043   0.14622

 Mulliken charges:
               1
     1  C   -2.555920
     2  C    6.261185
     3  C    2.282760
     4  C   -4.017412
     5  H    1.258527
     6  H    1.026413
     7  H    1.310501
     8  H    1.106513
     9  H    0.677968
    10  H    1.756988
    11  H    1.723085
    12  H    0.493569
    13  H    0.661622
    14  N   -2.107655
    15  O   -3.389312
    16  O   -3.244824
    17  O   -3.244006
 Sum of Mulliken charges =  -0.00000

 Dipole moment (field-independent basis, Debye):
    X=             -2.2332    Y=             -0.8111    Z=              0.7393  Tot=              2.4883

 Test job not archived.
 1\1\GINC-SE367\SP\RHF\Aug-CC-pVDZ\C4H9N1O3\OHZDE\08-Apr-2025\0\\#t hf
 aug-cc-pvdz iop(5/13=1,5/36=2,99/5=2) pseudo=read geom=check guess=(re
 ad,tcheck) scf=(maxcycle=1)\\title\\0,1\C,0,0.0242423,-0.642024,-0.109
 355\C,0,1.4849,-0.0256691,-0.247621\C,0,-1.07979,0.296414,-0.480721\C,
 0,-2.37363,-0.3884,-0.755016\H,0,0.636859,1.63392,0.360598\H,0,-3.1219
 1,0.296984,-1.17475\H,0,-2.75108,-0.758437,0.209781\H,0,-2.19484,-1.22
 289,-1.37353\H,0,-1.24996,0.690846,1.30046\H,0,-0.769841,0.773081,-1.4
 7792\H,0,0.0735462,-1.5836,-0.701484\H,0,-0.569757,-2.06684,1.36127\H,

 Normal termination of Gaussian 16 at Tue Apr  8 22:16:57 2025.
