 Gaussian 16, Revision C.01,

 ----------------------------------------------------------------------
 #t hf aug-cc-pvdz symm=none int=(grid=ultrafine) guess=(read,tcheck) s
 table=(opt,rrhf)
 ----------------------------------------------------------------------
 -----
 title
 -----
 Symbolic Z-matrix:
 Charge =  0 Multiplicity = 1

 SCF Done:  E(RHF) =  -947.037552565     A.U. after   16 cycles
 Normal termination of Gaussian 16 at Tue Apr  8 21:38:10 2025.
 Gaussian 16:  ES64L-G16RevC.01  3-Jul-2019

 ----------------------------------------------------------------------
 #t hf aug-cc-pvdz iop(5/13=1,5/36=2,99/5=2) pseudo=read geom=check gue
 ss=(read,tcheck) scf=(maxcycle=1)
 ----------------------------------------------------------------------
 -----
 title
 -----
 Structure from the checkpoint file:  "ANI1ccx_253_conf5_mol1.chk"
 Charge =  0 Multiplicity = 1

                         Standard orientation:
 ---------------------------------------------------------------------
 Center     Atomic      Atomic             Coordinates (Angstroms)
 Number     Number       Type             X           Y           Z
 ---------------------------------------------------------------------
      1          6           0        3.134470   -0.443099    0.814253
      2          6           0       -3.187201   -1.744550    0.009179
      3          6           0       -3.674520   -0.505602   -0.316848
      4          6           0       -2.752480    0.438584   -0.808950
      5          6           0       -1.095500   -1.290380   -1.057741
      6          6           0       -1.458760    0.112995   -1.163601
      7          6           0       -1.934961   -2.151240   -0.325899
      8          6           0       -0.807252    2.147640    0.779346
      9          6           0        0.237455    1.709680   -0.236634
     10          6           0        4.284850   -1.406040    0.237325
     11          6           0        2.195560    0.290453   -0.103508
     12          6           0       -0.474910    1.181510   -1.555121
     13          1           0       -1.085230    1.994040   -2.086941
     14          1           0       -2.159840    3.496270    1.071429
     15          1           0       -4.529581   -2.207540    1.431589
     16          1           0       -4.717290   -0.235706   -0.180350
     17          1           0       -1.688161   -3.154430    0.006692
     18          1           0       -3.049320    1.520990   -0.796696
     19          1           0       -0.155402   -1.651480   -1.442891
     20          1           0        0.322207    0.707858   -2.094191
     21          1           0        4.101150   -0.419615   -1.410421
     22          1           0        1.010060    0.590357    1.420389
     23          1           0        3.901099   -2.382770   -0.041205
     24          1           0        5.108619   -1.491710    0.932034
     25          1           0        3.683440    0.239346    1.377959
     26          1           0        1.634399   -1.910130    1.184019
     27          1           0        2.414470   -1.370510    2.603899
     28          1           0        0.803734    2.634720   -0.575914
     29          7           0        2.131340   -1.133400    1.670599
     30          7           0        1.003760    0.701994    0.433043
     31          8           0       -3.991671   -2.613570    0.676586
     32          8           0        2.390150    0.505050   -1.266601
     33          8           0        4.878850   -0.666131   -0.871944
     34          8           0       -0.953974    1.651400    1.897529
     35          8           0       -1.615920    3.200800    0.344967
 ---------------------------------------------------------------------

 SCF Done:  E(RHF) =  -951.298250159     A.U. after    2 cycles

 The electronic state is 1-A.
 Alpha  occ. eigenvalues --  -21.13168 -21.08342 -21.06758 -21.04889 -21.03796
 Alpha  occ. eigenvalues --  -15.75602 -15.74655 -11.57077 -11.53873 -11.51032
 Alpha  occ. eigenvalues --  -11.48642 -11.46411 -11.45654 -11.43995 -11.43456
 Alpha  occ. eigenvalues --  -11.43032 -11.41811 -11.39997 -11.36873  -1.81867
 Alpha  occ. eigenvalues --   -1.75219  -1.74139  -1.67808  -1.66011  -1.43292
 Alpha  occ. eigenvalues --   -1.35066  -1.31563  -1.16747  -1.09166  -1.07578
 Alpha  occ. eigenvalues --   -1.05391  -0.96244  -0.93489  -0.88341  -0.82726
 Alpha  occ. eigenvalues --   -0.81436  -0.78040  -0.73707  -0.70029  -0.68752
 Alpha  occ. eigenvalues --   -0.66933  -0.64805  -0.63873  -0.63090  -0.62496
 Alpha  occ. eigenvalues --   -0.61119  -0.58597  -0.58012  -0.57556  -0.56474
 Alpha  occ. eigenvalues --   -0.55563  -0.54111  -0.52570  -0.52260  -0.51819
 Alpha  occ. eigenvalues --   -0.49647  -0.49153  -0.45469  -0.45153  -0.44087
 Alpha  occ. eigenvalues --   -0.43133  -0.41011  -0.36978  -0.36466  -0.35132
 Alpha  occ. eigenvalues --   -0.33527  -0.31615  -0.31554  -0.30264  -0.27666
 Alpha  occ. eigenvalues --   -0.27305
 Alpha virt. eigenvalues --    0.03323   0.03896   0.04413   0.04465   0.05068
 Alpha virt. eigenvalues --    0.05508   0.05629   0.06262   0.06440   0.06804
 Alpha virt. eigenvalues --    0.07277   0.08042   0.08192   0.08469   0.09056

 Mulliken charges:
               1
     1  C   -2.826554
     2  C    5.697155
     3  C   -4.100590
     4  C   -0.465241
     5  C   -2.378468
     6  C    3.735785
     7  C   -4.479608
     8  C    7.775300
     9  C   -1.890187
    10  C   -1.463845
    11  C    7.121131
    12  C   -5.632749
    13  H    1.047695
    14  H    0.907413
    15  H    0.740941
    16  H    1.719473
    17  H    1.749415
    18  H    1.877044
    19  H    1.970349
    20  H    1.608293
    21  H    1.085524
    22  H    1.062844
    23  H    1.500215
    24  H    1.307348
    25  H    1.533442
    26  H    0.651663
    27  H    0.730894
    28  H    1.937744
    29  N   -2.328470
    30  N   -2.759209
    31  O   -4.133021
    32  O   -3.825615
    33  O   -2.626514
    34  O   -3.325038
    35  O   -3.524558
 Sum of Mulliken charges =  -0.00000

 Dipole moment (field-independent basis, Debye):
    X=             -0.8850    Y=              0.3264    Z=              2.5050  Tot=              2.6767

 Test job not archived.
 1\1\GINC-SE424\SP\RHF\Aug-CC-pVDZ\C12H16N2O5\OHZDE\08-Apr-2025\0\\#t h
 f aug-cc-pvdz iop(5/13=1,5/36=2,99/5=2) pseudo=read geom=check guess=(
 read,tcheck) scf=(maxcycle=1)\\title\\0,1\C,0,3.13447,-0.443099,0.8142
 54\C,0,-3.1872,-1.74455,0.00918021\C,0,-3.67452,-0.505602,-0.316847\C,
 0,-2.75248,0.438584,-0.808949\C,0,-1.0955,-1.29038,-1.05774\C,0,-1.458
 76,0.112995,-1.1636\C,0,-1.93496,-2.15124,-0.325898\C,0,-0.807252,2.14
 764,0.779347\C,0,0.237455,1.70968,-0.236633\C,0,4.28485,-1.40604,0.237
 326\C,0,2.19556,0.290453,-0.103507\C,0,-0.47491,1.18151,-1.55512\H,0,-

 Normal termination of Gaussian 16 at Tue Apr  8 21:39:11 2025.
