 Gaussian 16, Revision C.01,

 ----------------------------------------------------------------------
 #t hf aug-cc-pvdz symm=none int=(grid=ultrafine) guess=(read,tcheck) s
 table=(opt,rrhf)
 ----------------------------------------------------------------------
 -----
 title
 -----
 Symbolic Z-matrix:
 Charge =  0 Multiplicity = 1

 SCF Done:  E(RHF) =  -785.618470901     A.U. after   14 cycles
 Normal termination of Gaussian 16 at Tue Apr  8 19:34:16 2025.
 Gaussian 16:  ES64L-G16RevC.01  3-Jul-2019

 ----------------------------------------------------------------------
 #t hf aug-cc-pvdz iop(5/13=1,5/36=2,99/5=2) pseudo=read geom=check gue
 ss=(read,tcheck) scf=(maxcycle=1)
 ----------------------------------------------------------------------
 -----
 title
 -----
 Structure from the checkpoint file:  "ANI1ccx_1221_conf8_mol1.chk"
 Charge =  0 Multiplicity = 1

                         Standard orientation:
 ---------------------------------------------------------------------
 Center     Atomic      Atomic             Coordinates (Angstroms)
 Number     Number       Type             X           Y           Z
 ---------------------------------------------------------------------
      1          6           0        3.628969    0.043393    0.696535
      2          6           0        1.320969    0.321513   -0.027073
      3          6           0       -0.808343    0.865740   -0.512197
      4          6           0       -1.652271    3.191279   -0.321005
      5          6           0       -0.237044   -1.317121   -0.212779
      6          6           0       -2.106460   -2.964741   -0.231178
      7          1           0       -2.749270   -1.774582    1.100090
      8          1           0       -2.611050   -2.396512   -1.012850
      9          1           0       -2.162919   -4.070921   -0.451494
     10          1           0       -0.019172   -3.251281    0.108455
     11          1           0       -0.750377    3.741399   -0.524343
     12          1           0       -1.301151    2.649919    1.544240
     13          1           0       -2.666751    1.580758   -0.708166
     14          1           0        2.557119    1.827510    0.258839
     15          1           0        4.407619    0.770366    1.050010
     16          1           0        3.336520   -0.621785    1.502720
     17          1           0        3.729930   -1.286790   -0.764384
     18          1           0       -2.444502    3.686678   -0.895387
     19          7           0        2.531569    0.815879    0.218311
     20          7           0        0.449820    1.281769   -0.295431
     21          7           0       -1.698461    1.845309   -0.761734
     22          7           0       -1.250310   -0.395194   -0.498070
     23          7           0       -0.670145   -2.583201   -0.325511
     24          7           0        1.017500   -1.012880    0.025922
     25          8           0       -2.010221    3.187229    1.069190
     26          8           0        4.303840   -0.603420   -0.378570
     27          8           0       -2.651210   -2.753422    1.046140
 ---------------------------------------------------------------------

 SCF Done:  E(RHF) =  -789.132481813     A.U. after    2 cycles

 The electronic state is 1-A.
 Alpha  occ. eigenvalues --  -21.07882 -21.06979 -21.06961 -15.77126 -15.76427
 Alpha  occ. eigenvalues --  -15.75853 -15.72773 -15.71439 -15.71160 -11.52806
 Alpha  occ. eigenvalues --  -11.52249 -11.48690 -11.44852 -11.44648 -11.44236
 Alpha  occ. eigenvalues --   -1.72834  -1.71974  -1.71656  -1.59524  -1.46290
 Alpha  occ. eigenvalues --   -1.45284  -1.32337  -1.27612  -1.25994  -1.01763
 Alpha  occ. eigenvalues --   -1.00390  -0.96737  -0.87305  -0.86508  -0.78635
 Alpha  occ. eigenvalues --   -0.71410  -0.70336  -0.69248  -0.67443  -0.64285
 Alpha  occ. eigenvalues --   -0.63555  -0.62269  -0.60283  -0.59086  -0.58330
 Alpha  occ. eigenvalues --   -0.57470  -0.56197  -0.55188  -0.53503  -0.51058
 Alpha  occ. eigenvalues --   -0.49985  -0.45147  -0.43672  -0.42460  -0.37729
 Alpha  occ. eigenvalues --   -0.36976  -0.36157  -0.35094  -0.34118  -0.31828
 Alpha  occ. eigenvalues --   -0.30888  -0.30052
 Alpha virt. eigenvalues --    0.03674   0.04849   0.04946   0.05478   0.05775
 Alpha virt. eigenvalues --    0.05854   0.06197   0.06380   0.07189   0.07259
 Alpha virt. eigenvalues --    0.08305   0.08780   0.10075   0.11063   0.11425

 Mulliken charges:
               1
     1  C   -0.768200
     2  C    4.611055
     3  C    5.497921
     4  C   -0.744742
     5  C    5.537740
     6  C   -0.574217
     7  H    0.908423
     8  H    1.504660
     9  H    1.519141
    10  H    0.580585
    11  H    1.567003
    12  H    0.887866
    13  H    0.554936
    14  H    0.602577
    15  H    1.499615
    16  H    1.544450
    17  H    0.866764
    18  H    1.594554
    19  N   -3.311345
    20  N   -3.112624
    21  N   -3.166865
    22  N   -3.233580
    23  N   -3.081830
    24  N   -3.444315
    25  O   -2.656600
    26  O   -2.466286
    27  O   -2.716688
 Sum of Mulliken charges =   0.00000

 Dipole moment (field-independent basis, Debye):
    X=             -0.0872    Y=              0.3798    Z=              0.5281  Tot=              0.6563

 Test job not archived.
 1\1\GINC-SE048\SP\RHF\Aug-CC-pVDZ\C6H12N6O3\OHZDE\08-Apr-2025\0\\#t hf
  aug-cc-pvdz iop(5/13=1,5/36=2,99/5=2) pseudo=read geom=check guess=(r
 ead,tcheck) scf=(maxcycle=1)\\title\\0,1\C,0,3.62897,0.0433923,0.69653
 5\C,0,1.32097,0.321513,-0.027073\C,0,-0.808342,0.865741,-0.512197\C,0,
 -1.65227,3.19128,-0.321005\C,0,-0.237044,-1.31712,-0.212779\C,0,-2.106
 46,-2.96474,-0.231178\H,0,-2.74927,-1.77458,1.10009\H,0,-2.61105,-2.39
 651,-1.01285\H,0,-2.16292,-4.07092,-0.451494\H,0,-0.0191728,-3.25128,0
 .108455\H,0,-0.750375,3.7414,-0.524343\H,0,-1.30115,2.64992,1.54424\H,

 Normal termination of Gaussian 16 at Tue Apr  8 19:34:45 2025.
