 Gaussian 16, Revision C.01,

 ----------------------------------------------------------------------
 #t hf aug-cc-pvdz symm=none int=(grid=ultrafine) guess=(read,tcheck) s
 table=(opt,rrhf)
 ----------------------------------------------------------------------
 -----
 title
 -----
 Symbolic Z-matrix:
 Charge =  0 Multiplicity = 1

 SCF Done:  E(RHF) =  -583.261890429     A.U. after   16 cycles
 Normal termination of Gaussian 16 at Tue Apr  8 22:10:38 2025.
 Gaussian 16:  ES64L-G16RevC.01  3-Jul-2019

 ----------------------------------------------------------------------
 #t hf aug-cc-pvdz iop(5/13=1,5/36=2,99/5=2) pseudo=read geom=check gue
 ss=(read,tcheck) scf=(maxcycle=1)
 ----------------------------------------------------------------------
 -----
 title
 -----
 Structure from the checkpoint file:  "ANI1ccx_900_conf7_mol2.chk"
 Charge =  0 Multiplicity = 1

                         Standard orientation:
 ---------------------------------------------------------------------
 Center     Atomic      Atomic             Coordinates (Angstroms)
 Number     Number       Type             X           Y           Z
 ---------------------------------------------------------------------
      1          6           0       -2.154411   -0.065323    0.039394
      2          6           0       -1.121621    0.550236   -0.935406
      3          6           0        1.251089    0.710753   -0.027250
      4          6           0        1.453289   -0.824894    0.018090
      5          1           0       -1.118551    0.648549    1.492830
      6          1           0       -0.725846   -0.275132   -1.548501
      7          1           0       -1.664721    1.263111   -1.532191
      8          1           0        0.051522    2.204221   -0.339568
      9          1           0        3.299339   -0.278897    0.145597
     10          7           0       -0.019759    1.204791   -0.199630
     11          8           0       -1.980241    0.236878    1.350760
     12          8           0       -3.088511   -0.742711   -0.375241
     13          8           0        2.192589    1.467181    0.093035
     14          8           0        2.755949   -1.104629    0.128153
     15          8           0        0.586024   -1.634219   -0.120423
 ---------------------------------------------------------------------

 SCF Done:  E(RHF) =  -585.698526694     A.U. after    2 cycles

 The electronic state is 1-A.
 Alpha  occ. eigenvalues --  -21.15249 -21.13323 -21.10746 -21.10392 -21.05783
 Alpha  occ. eigenvalues --  -15.81949 -11.59231 -11.54673 -11.54088 -11.46455
 Alpha  occ. eigenvalues --   -1.87240  -1.82151  -1.77145  -1.70610  -1.65588
 Alpha  occ. eigenvalues --   -1.44154  -1.10813  -1.00585  -0.82392  -0.81122
 Alpha  occ. eigenvalues --   -0.74473  -0.72816  -0.70921  -0.64253  -0.62258
 Alpha  occ. eigenvalues --   -0.61210  -0.55427  -0.54252  -0.51986  -0.51801
 Alpha  occ. eigenvalues --   -0.49474  -0.46244  -0.41405  -0.39023  -0.37358
 Alpha  occ. eigenvalues --   -0.34185  -0.31616  -0.29858
 Alpha virt. eigenvalues --    0.02789   0.04376   0.05179   0.05596   0.06697
 Alpha virt. eigenvalues --    0.08203   0.08610   0.09436   0.10323   0.10758
 Alpha virt. eigenvalues --    0.10946   0.12122   0.12536   0.13198   0.13892

 Mulliken charges:
               1
     1  C    5.886982
     2  C   -3.277694
     3  C    3.753921
     4  C    5.343566
     5  H    1.164560
     6  H    1.685281
     7  H    1.357484
     8  H    0.538718
     9  H    0.993531
    10  N   -1.856488
    11  O   -3.181851
    12  O   -3.130842
    13  O   -3.363058
    14  O   -2.986734
    15  O   -2.927378
 Sum of Mulliken charges =   0.00000

 Dipole moment (field-independent basis, Debye):
    X=              1.9070    Y=              2.4166    Z=             -0.6453  Tot=              3.1453

 Test job not archived.
 1\1\GINC-SE106\SP\RHF\Aug-CC-pVDZ\C4H5N1O5\OHZDE\08-Apr-2025\0\\#t hf
 aug-cc-pvdz iop(5/13=1,5/36=2,99/5=2) pseudo=read geom=check guess=(re
 ad,tcheck) scf=(maxcycle=1)\\title\\0,1\C,0,-2.15441,-0.0653233,0.0393
 943\C,0,-1.12162,0.550235,-0.935405\C,0,1.25109,0.710752,-0.0272494\C,
 0,1.45329,-0.824895,0.0180906\H,0,-1.11855,0.648548,1.49283\H,0,-0.725
 845,-0.275133,-1.5485\H,0,-1.66472,1.26311,-1.53219\H,0,0.0515233,2.20
 422,-0.339567\H,0,3.29934,-0.278898,0.145597\N,0,-0.019758,1.20479,-0.
 199629\O,0,-1.98024,0.236877,1.35076\O,0,-3.08851,-0.742712,-0.37524\O

 Normal termination of Gaussian 16 at Tue Apr  8 22:10:46 2025.
