 Gaussian 16, Revision C.01,

 ----------------------------------------------------------------------
 #t hf aug-cc-pvdz symm=none int=(grid=ultrafine) guess=(read,tcheck) s
 table=(opt,rrhf)
 ----------------------------------------------------------------------
 -----
 title
 -----
 Symbolic Z-matrix:
 Charge =  0 Multiplicity = 1

 SCF Done:  E(RHF) =  -403.510093180     A.U. after   15 cycles
 Normal termination of Gaussian 16 at Tue Apr  8 21:43:55 2025.
 Gaussian 16:  ES64L-G16RevC.01  3-Jul-2019

 ----------------------------------------------------------------------
 #t hf aug-cc-pvdz iop(5/13=1,5/36=2,99/5=2) pseudo=read geom=check gue
 ss=(read,tcheck) scf=(maxcycle=1)
 ----------------------------------------------------------------------
 -----
 title
 -----
 Structure from the checkpoint file:  "ANI1ccx_490_conf2_mol2.chk"
 Charge =  0 Multiplicity = 1

                         Standard orientation:
 ---------------------------------------------------------------------
 Center     Atomic      Atomic             Coordinates (Angstroms)
 Number     Number       Type             X           Y           Z
 ---------------------------------------------------------------------
      1          6           0        0.001216   -0.682060   -0.033245
      2          6           0        0.000932    0.681541   -0.023025
      3          1           0       -1.806289   -1.876391    0.066135
      4          1           0        1.828549    1.873201    0.019838
      5          7           0        2.036790   -0.149433    0.011211
      6          7           0        1.267280   -1.181269    0.003559
      7          7           0       -1.316580   -0.991481    0.000647
      8          7           0       -2.049690    0.145909    0.009599
      9          7           0       -1.262951    1.181699    0.003605
     10          7           0        1.320129    0.995476    0.007328
 ---------------------------------------------------------------------

 SCF Done:  E(RHF) =  -405.285424651     A.U. after    2 cycles

 The electronic state is 1-A.
 Alpha  occ. eigenvalues --  -15.84645 -15.84567 -15.82743 -15.82726 -15.79372
 Alpha  occ. eigenvalues --  -15.79211 -11.48048 -11.43007  -1.75703  -1.64989
 Alpha  occ. eigenvalues --   -1.37740  -1.30864  -1.21078  -0.95767  -0.91320
 Alpha  occ. eigenvalues --   -0.87606  -0.77708  -0.71360  -0.66062  -0.60403
 Alpha  occ. eigenvalues --   -0.59807  -0.52430  -0.51190  -0.47121  -0.40388
 Alpha  occ. eigenvalues --   -0.40179  -0.35656  -0.33774
 Alpha virt. eigenvalues --    0.03371   0.04824   0.08901   0.09811   0.10869
 Alpha virt. eigenvalues --    0.11475   0.11686   0.12046   0.12671   0.13823
 Alpha virt. eigenvalues --    0.15277   0.15918   0.16505   0.17268   0.17469

 Mulliken charges:
               1
     1  C    3.799647
     2  C    3.840545
     3  H    0.943998
     4  H    0.945916
     5  N   -0.493505
     6  N   -2.029193
     7  N   -2.205143
     8  N   -0.526929
     9  N   -2.048378
    10  N   -2.226958
 Sum of Mulliken charges =  -0.00000

 Dipole moment (field-independent basis, Debye):
    X=              0.0459    Y=             -0.0147    Z=              0.1074  Tot=              0.1177

 Test job not archived.
 1\1\GINC-SE460\SP\RHF\Aug-CC-pVDZ\C2H2N6\OHZDE\08-Apr-2025\0\\#t hf au
 g-cc-pvdz iop(5/13=1,5/36=2,99/5=2) pseudo=read geom=check guess=(read
 ,tcheck) scf=(maxcycle=1)\\title\\0,1\C,0,0.00121577,-0.68206,-0.03324
 47\C,0,0.00093225,0.681541,-0.0230251\H,0,-1.80629,-1.87639,0.0661352\
 H,0,1.82855,1.8732,0.0198381\N,0,2.03679,-0.149434,0.011211\N,0,1.2672
 8,-1.18127,0.00355882\N,0,-1.31658,-0.99148,0.00064727\N,0,-2.04969,0.
 14591,0.00959948\N,0,-1.26295,1.1817,0.00360517\N,0,1.32013,0.995475,0
 .00732761\\Version=ES64L-G16RevC.01\State=1-A\HF=-405.2854247\RMSD=3.8

 Normal termination of Gaussian 16 at Tue Apr  8 21:43:59 2025.
