 Gaussian 16, Revision C.01,

 ----------------------------------------------------------------------
 #t hf aug-cc-pvdz symm=none int=(grid=ultrafine) guess=(read,tcheck) s
 table=(opt,rrhf)
 ----------------------------------------------------------------------
 -----
 title
 -----
 Symbolic Z-matrix:
 Charge =  0 Multiplicity = 1

 SCF Done:  E(RHF) =  -279.367956296     a.u. after   29 cycles
 Normal termination of Gaussian 16 at Tue Apr  8 21:11:28 2025.
 Gaussian 16:  ES64L-G16RevC.01  3-Jul-2019

 ----------------------------------------------------------------------
 #t hf aug-cc-pvdz iop(5/13=1,5/36=2,99/5=2) pseudo=read geom=check gue
 ss=(read,tcheck) scf=(maxcycle=1)
 ----------------------------------------------------------------------
 -----
 title
 -----
 Structure from the checkpoint file:  "ANI1ccx_1850_conf4_mol2.chk"
 Charge =  0 Multiplicity = 1

                         Standard orientation:
 ---------------------------------------------------------------------
 Center     Atomic      Atomic             Coordinates (Angstroms)
 Number     Number       Type             X           Y           Z
 ---------------------------------------------------------------------
      1          1           0       -3.273248    0.367847   -0.229447
      2          7           0       -2.386078   -0.182252   -0.410097
      3          8           0       -1.609058    0.052327    0.486402
      4          8           0        1.803082    0.573465   -0.120615
      5          8           0        2.302952   -0.512303    0.021729
 ---------------------------------------------------------------------

 SCF Done:  E(RHF) =  -280.458532325     A.U. after    2 cycles

 The electronic state is 1-A.
 Alpha  occ. eigenvalues --  -21.22274 -21.21624 -21.15172 -15.88547  -2.10948
 Alpha  occ. eigenvalues --   -1.86138  -1.20564  -1.04003  -0.67339  -0.61166
 Alpha  occ. eigenvalues --   -0.55576  -0.54977  -0.53365  -0.52185  -0.30341
 Alpha  occ. eigenvalues --   -0.26364
 Alpha virt. eigenvalues --    0.04065   0.10344   0.11528   0.12596   0.13068
 Alpha virt. eigenvalues --    0.15267   0.17732   0.18605   0.20092   0.20453
 Alpha virt. eigenvalues --    0.23404   0.24437   0.25153   0.26729   0.29432

 Mulliken charges:
               1
     1  H    0.808421
     2  N    0.768375
     3  O   -1.593004
     4  O    0.031149
     5  O   -0.014941
 Sum of Mulliken charges =   0.00000

 Dipole moment (field-independent basis, Debye):
    X=             -0.8378    Y=              0.7118    Z=              0.5239  Tot=              1.2178

 Test job not archived.
 1\1\GINC-SE163\SP\RHF\Aug-CC-pVDZ\H1N1O3\OHZDE\08-Apr-2025\0\\#t hf au
 g-cc-pvdz iop(5/13=1,5/36=2,99/5=2) pseudo=read geom=check guess=(read
 ,tcheck) scf=(maxcycle=1)\\title\\0,1\H,0,-3.27325,0.367847,-0.229447\
 N,0,-2.38608,-0.182252,-0.410097\O,0,-1.60906,0.0523271,0.486402\O,0,1
 .80308,0.573465,-0.120615\O,0,2.30295,-0.512303,0.0217289\\Version=ES6
 4L-G16RevC.01\State=1-A\HF=-280.4585323\RMSD=7.906e-02\Dipole=-0.32963
 06,0.2800626,0.2061051\Quadrupole=2.9985522,-0.6659495,-2.3326027,-0.8
 964065,-1.0502017,-1.1179059\PG=C01 [X(H1N1O3)]\\@

 Normal termination of Gaussian 16 at Tue Apr  8 21:11:30 2025.
