 Gaussian 16, Revision C.01,

 ----------------------------------------------------------------------
 #t hf aug-cc-pvdz symm=none int=(grid=ultrafine) guess=(read,tcheck) s
 table=(opt,rrhf)
 ----------------------------------------------------------------------
 -----
 title
 -----
 Symbolic Z-matrix:
 Charge =  0 Multiplicity = 1

 SCF Done:  E(RHF) =  -371.974344872     A.U. after   13 cycles
 Normal termination of Gaussian 16 at Tue Apr  8 21:48:10 2025.
 Gaussian 16:  ES64L-G16RevC.01  3-Jul-2019

 ----------------------------------------------------------------------
 #t hf aug-cc-pvdz iop(5/13=1,5/36=2,99/5=2) pseudo=read geom=check gue
 ss=(read,tcheck) scf=(maxcycle=1)
 ----------------------------------------------------------------------
 -----
 title
 -----
 Structure from the checkpoint file:  "ANI1ccx_554_conf1_mol1.chk"
 Charge =  0 Multiplicity = 1

                         Standard orientation:
 ---------------------------------------------------------------------
 Center     Atomic      Atomic             Coordinates (Angstroms)
 Number     Number       Type             X           Y           Z
 ---------------------------------------------------------------------
      1          6           0        1.262450   -0.155488   -0.002457
      2          6           0       -1.262800   -0.208677   -0.026187
      3          1           0        2.167168    1.515892   -0.549498
      4          1           0        0.529932    1.576441   -0.856300
      5          1           0        3.182360   -0.322959    0.114959
      6          1           0        0.006252   -1.772430    0.043580
      7          1           0       -0.760050    1.595980    0.889207
      8          1           0       -2.371252    1.389858    0.399929
      9          7           0        1.232288    1.226282   -0.209246
     10          7           0        2.306830   -0.878085    0.231713
     11          7           0        0.016831   -0.742296   -0.048031
     12          7           0       -1.387262    1.148089    0.248192
     13          8           0       -2.241640   -0.884466   -0.178552
 ---------------------------------------------------------------------

 SCF Done:  E(RHF) =  -373.631982448     A.U. after    2 cycles

 The electronic state is 1-A.
 Alpha  occ. eigenvalues --  -21.03631 -15.78730 -15.78432 -15.77892 -15.72006
 Alpha  occ. eigenvalues --  -11.52540 -11.49873  -1.74423  -1.51626  -1.35540
 Alpha  occ. eigenvalues --   -1.31252  -1.23949  -0.91495  -0.83284  -0.74446
 Alpha  occ. eigenvalues --   -0.71791  -0.66175  -0.62082  -0.60239  -0.58502
 Alpha  occ. eigenvalues --   -0.54665  -0.51206  -0.41755  -0.39509  -0.36190
 Alpha  occ. eigenvalues --   -0.32186  -0.31138
 Alpha virt. eigenvalues --    0.03081   0.04442   0.05585   0.06308   0.06926
 Alpha virt. eigenvalues --    0.07670   0.10695   0.11169   0.12189   0.12928
 Alpha virt. eigenvalues --    0.14162   0.14422   0.15402   0.15933   0.16824

 Mulliken charges:
               1
     1  C    4.348867
     2  C    5.111550
     3  H    0.484216
     4  H    0.703935
     5  H    0.552925
     6  H    0.505350
     7  H    0.691931
     8  H    0.524210
     9  N   -2.313052
    10  N   -3.083557
    11  N   -2.097859
    12  N   -2.380414
    13  O   -3.048101
 Sum of Mulliken charges =  -0.00000

 Dipole moment (field-independent basis, Debye):
    X=              0.2765    Y=              3.3923    Z=             -0.2733  Tot=              3.4145

 Test job not archived.
 1\1\GINC-SE232\SP\RHF\Aug-CC-pVDZ\C2H6N4O1\OHZDE\08-Apr-2025\0\\#t hf
 aug-cc-pvdz iop(5/13=1,5/36=2,99/5=2) pseudo=read geom=check guess=(re
 ad,tcheck) scf=(maxcycle=1)\\title\\0,1\C,0,1.26245,-0.15549,-0.002456
 86\C,0,-1.2628,-0.208676,-0.0261871\H,0,2.16717,1.51589,-0.549498\H,0,
 0.529934,1.57644,-0.8563\H,0,3.18236,-0.322962,0.114959\H,0,0.00625138
 ,-1.77243,0.0435797\H,0,-0.760048,1.59598,0.889207\H,0,-2.37125,1.3898
 6,0.399929\N,0,1.23229,1.22628,-0.209246\N,0,2.30683,-0.878087,0.23171
 3\N,0,0.0168306,-0.742296,-0.048031\N,0,-1.38726,1.14809,0.248192\O,0,

 Normal termination of Gaussian 16 at Tue Apr  8 21:48:14 2025.
