 Gaussian 16, Revision C.01,

 ----------------------------------------------------------------------
 #t hf aug-cc-pvdz symm=none int=(grid=ultrafine) guess=(read,tcheck) s
 table=(opt,rrhf)
 ----------------------------------------------------------------------
 -----
 title
 -----
 Symbolic Z-matrix:
 Charge =  0 Multiplicity = 1

 SCF Done:  E(RHF) =  -923.236235157     A.U. after   15 cycles
 Normal termination of Gaussian 16 at Tue Apr  8 20:26:29 2025.
 Gaussian 16:  ES64L-G16RevC.01  3-Jul-2019

 ----------------------------------------------------------------------
 #t hf aug-cc-pvdz iop(5/13=1,5/36=2,99/5=2) pseudo=read geom=check gue
 ss=(read,tcheck) scf=(maxcycle=1)
 ----------------------------------------------------------------------
 -----
 title
 -----
 Structure from the checkpoint file:  "ANI1ccx_1584_conf11_mol2.chk"
 Charge =  0 Multiplicity = 1

                         Standard orientation:
 ---------------------------------------------------------------------
 Center     Atomic      Atomic             Coordinates (Angstroms)
 Number     Number       Type             X           Y           Z
 ---------------------------------------------------------------------
      1          6           0        1.786415   -1.669785    0.324489
      2          6           0        0.356544   -1.405469   -0.136918
      3          6           0        2.715832   -0.707355   -0.347887
      4          6           0        2.463607    0.744922   -0.042863
      5          6           0       -1.619631    0.076638    0.445273
      6          6           0       -2.856328   -0.809559    0.194530
      7          6           0       -1.443374    1.165085   -0.638626
      8          6           0       -0.649839    2.374758   -0.050133
      9          1           0       -1.867594   -2.242986   -0.770744
     10          1           0       -1.024741    3.334036   -1.780700
     11          1           0       -0.155021    4.299919   -0.629753
     12          1           0       -2.421535    1.453632   -1.059480
     13          1           0       -0.892374    0.694300   -1.442270
     14          1           0       -1.889242    0.526326    1.399670
     15          1           0        0.181374   -0.270751    1.513430
     16          1           0        1.977744    1.894936    1.334820
     17          1           0        3.731063   -0.997113   -0.143715
     18          1           0        2.617292   -0.740429   -1.435470
     19          1           0        1.776504   -1.602755    1.421230
     20          1           0        2.939150   -3.326362    0.347667
     21          1           0        1.366851   -3.669296    0.288991
     22          7           0        2.081359   -3.058574   -0.080226
     23          7           0       -0.375577   -0.651883    0.746812
     24          7           0       -0.535564    3.417868   -0.908548
     25          8           0       -0.195617   -1.901321   -1.131980
     26          8           0        2.447975    1.624267   -0.852890
     27          8           0        2.223937    0.924041    1.277810
     28          8           0       -3.952489   -0.442059    0.580929
     29          8           0       -0.123226    2.327889    1.062520
     30          8           0       -2.781874   -2.022909   -0.416030
 ---------------------------------------------------------------------

 SCF Done:  E(RHF) =  -927.259116787     A.U. after    2 cycles

 The electronic state is 1-A.
 Alpha  occ. eigenvalues --  -21.12561 -21.08894 -21.07348 -21.05560 -21.05176
 Alpha  occ. eigenvalues --  -21.03841 -15.80567 -15.78690 -15.75825 -11.56606
 Alpha  occ. eigenvalues --  -11.55904 -11.55055 -11.54100 -11.50210 -11.49499
 Alpha  occ. eigenvalues --  -11.43324 -11.42963  -1.84138  -1.79914  -1.73603
 Alpha  occ. eigenvalues --   -1.72822  -1.67397  -1.62704  -1.43727  -1.38269
 Alpha  occ. eigenvalues --   -1.36816  -1.19120  -1.16176  -1.03303  -0.96928
 Alpha  occ. eigenvalues --   -0.84802  -0.83494  -0.81386  -0.75764  -0.75549
 Alpha  occ. eigenvalues --   -0.73177  -0.71982  -0.68666  -0.67480  -0.66506
 Alpha  occ. eigenvalues --   -0.63070  -0.62315  -0.61672  -0.60450  -0.59273
 Alpha  occ. eigenvalues --   -0.55497  -0.54050  -0.53658  -0.51937  -0.51173
 Alpha  occ. eigenvalues --   -0.50214  -0.50065  -0.48829  -0.47598  -0.46947
 Alpha  occ. eigenvalues --   -0.44105  -0.38680  -0.36802  -0.34669  -0.34224
 Alpha  occ. eigenvalues --   -0.32293  -0.31649  -0.31263  -0.30095  -0.28412
 Alpha virt. eigenvalues --    0.02648   0.04030   0.04383   0.04848   0.05108
 Alpha virt. eigenvalues --    0.05653   0.06045   0.06508   0.07017   0.07543
 Alpha virt. eigenvalues --    0.08126   0.08702   0.09105   0.09676   0.11108

 Mulliken charges:
               1
     1  C   -2.074730
     2  C    7.309010
     3  C   -3.887337
     4  C    7.052119
     5  C   -1.499743
     6  C    6.045425
     7  C   -3.615036
     8  C    5.538519
     9  H    1.291184
    10  H    0.843066
    11  H    0.883962
    12  H    1.575785
    13  H    1.667192
    14  H    2.025447
    15  H    0.776983
    16  H    1.168522
    17  H    1.519987
    18  H    1.096711
    19  H    1.895535
    20  H    0.488228
    21  H    0.568153
    22  N   -2.774206
    23  N   -2.885063
    24  N   -3.752848
    25  O   -3.915554
    26  O   -3.670557
    27  O   -3.443866
    28  O   -3.419037
    29  O   -3.272797
    30  O   -3.535054
 Sum of Mulliken charges =  -0.00000

 Dipole moment (field-independent basis, Debye):
    X=              3.2371    Y=              1.8761    Z=              0.6854  Tot=              3.8037

 Test job not archived.
 1\1\GINC-SE048\SP\RHF\Aug-CC-pVDZ\C8H13N3O6\OHZDE\08-Apr-2025\0\\#t hf
  aug-cc-pvdz iop(5/13=1,5/36=2,99/5=2) pseudo=read geom=check guess=(r
 ead,tcheck) scf=(maxcycle=1)\\title\\0,1\C,0,1.78641,-1.66979,0.324489
 \C,0,0.35654,-1.40547,-0.136918\C,0,2.71583,-0.707363,-0.347887\C,0,2.
 46361,0.744915,-0.0428625\C,0,-1.61963,0.0766432,0.445273\C,0,-2.85633
 ,-0.80955,0.19453\C,0,-1.44337,1.16509,-0.638626\C,0,-0.649831,2.37476
 ,-0.0501331\H,0,-1.8676,-2.24298,-0.770744\H,0,-1.02473,3.33404,-1.780
 7\H,0,-0.155007,4.29992,-0.629753\H,0,-2.42153,1.45364,-1.05948\H,0,-0

 Normal termination of Gaussian 16 at Tue Apr  8 20:27:11 2025.
