 Gaussian 16, Revision C.01,

 ----------------------------------------------------------------------
 #t hf aug-cc-pvdz symm=none int=(grid=ultrafine) guess=(read,tcheck) s
 table=(opt,rrhf)
 ----------------------------------------------------------------------
 -----
 title
 -----
 Symbolic Z-matrix:
 Charge =  0 Multiplicity = 1

 SCF Done:  E(RHF) =  -280.722187077     A.U. after   16 cycles
 Normal termination of Gaussian 16 at Tue Apr  8 21:12:19 2025.
 Gaussian 16:  ES64L-G16RevC.01  3-Jul-2019

 ----------------------------------------------------------------------
 #t hf aug-cc-pvdz iop(5/13=1,5/36=2,99/5=2) pseudo=read geom=check gue
 ss=(read,tcheck) scf=(maxcycle=1)
 ----------------------------------------------------------------------
 -----
 title
 -----
 Structure from the checkpoint file:  "ANI1ccx_1870_conf3_mol1.chk"
 Charge =  0 Multiplicity = 1

                         Standard orientation:
 ---------------------------------------------------------------------
 Center     Atomic      Atomic             Coordinates (Angstroms)
 Number     Number       Type             X           Y           Z
 ---------------------------------------------------------------------
      1          1           0       -1.327210   -1.639421   -0.362935
      2          1           0        2.452379    0.187559    0.835397
      3          1           0        2.017519   -0.167138   -0.553063
      4          7           0       -0.815725    0.123974   -0.406543
      5          8           0       -1.496680   -0.894996    0.233861
      6          8           0       -0.959996    1.146489    0.129349
      7          8           0        2.777599   -0.157595    0.002590
 ---------------------------------------------------------------------

 SCF Done:  E(RHF) =  -281.875264824     A.U. after    2 cycles

 The electronic state is 1-A.
 Alpha  occ. eigenvalues --  -21.16646 -21.15518 -21.10324 -15.95254  -2.00175
 Alpha  occ. eigenvalues --   -1.73287  -1.66728  -0.96910  -0.74115  -0.63835
 Alpha  occ. eigenvalues --   -0.63295  -0.62557  -0.50558  -0.46837  -0.38446
 Alpha  occ. eigenvalues --   -0.35397  -0.31859
 Alpha virt. eigenvalues --    0.03812   0.05770   0.06988   0.11909   0.12709
 Alpha virt. eigenvalues --    0.14482   0.17679   0.18053   0.19157   0.20030
 Alpha virt. eigenvalues --    0.20366   0.21741   0.23760   0.24366   0.24850

 Mulliken charges:
               1
     1  H    0.897878
     2  H    0.902933
     3  H    0.958810
     4  N    2.848398
     5  O   -1.924554
     6  O   -1.800571
     7  O   -1.882894
 Sum of Mulliken charges =   0.00000

 Dipole moment (field-independent basis, Debye):
    X=             -1.4651    Y=             -0.7526    Z=              0.2079  Tot=              1.6601

 Test job not archived.
 1\1\GINC-SE030\SP\RHF\Aug-CC-pVDZ\H3N1O3\OHZDE\08-Apr-2025\0\\#t hf au
 g-cc-pvdz iop(5/13=1,5/36=2,99/5=2) pseudo=read geom=check guess=(read
 ,tcheck) scf=(maxcycle=1)\\title\\0,1\H,0,-1.32721,-1.63942,-0.362935\
 H,0,2.45238,0.187558,0.835397\H,0,2.01752,-0.167139,-0.553063\N,0,-0.8
 15724,0.123974,-0.406543\O,0,-1.49668,-0.894995,0.233861\O,0,-0.959995
 ,1.14649,0.129349\O,0,2.7776,-0.157597,0.00258983\\Version=ES64L-G16Re
 vC.01\State=1-A\HF=-281.8752648\RMSD=5.728e-02\Dipole=-0.5763967,-0.29
 60926,0.0817946\Quadrupole=-2.8862968,1.5354345,1.3508624,1.4731745,1.

 Normal termination of Gaussian 16 at Tue Apr  8 21:12:20 2025.
