 Gaussian 16, Revision C.01,

 ----------------------------------------------------------------------
 #t hf aug-cc-pvdz symm=none int=(grid=ultrafine) guess=(read,tcheck) s
 table=(opt,rrhf)
 ----------------------------------------------------------------------
 -----
 title
 -----
 Symbolic Z-matrix:
 Charge =  0 Multiplicity = 1

 SCF Done:  E(RHF) =  -485.833335675     A.U. after   14 cycles
 Normal termination of Gaussian 16 at Tue Apr  8 21:57:57 2025.
 Gaussian 16:  ES64L-G16RevC.01  3-Jul-2019

 ----------------------------------------------------------------------
 #t hf aug-cc-pvdz iop(5/13=1,5/36=2,99/5=2) pseudo=read geom=check gue
 ss=(read,tcheck) scf=(maxcycle=1)
 ----------------------------------------------------------------------
 -----
 title
 -----
 Structure from the checkpoint file:  "ANI1ccx_768_conf2_mol1.chk"
 Charge =  0 Multiplicity = 1

                         Standard orientation:
 ---------------------------------------------------------------------
 Center     Atomic      Atomic             Coordinates (Angstroms)
 Number     Number       Type             X           Y           Z
 ---------------------------------------------------------------------
      1          6           0       -1.888499    0.082163    0.070010
      2          6           0        1.442311   -0.981392    0.536317
      3          6           0        2.097261    0.255849   -0.096696
      4          1           0        0.428839    1.194510    0.081084
      5          1           0        2.029381   -1.842891    0.313606
      6          1           0       -0.368403   -1.867430    0.635175
      7          1           0        1.467811   -0.851104    1.670580
      8          1           0       -2.289689    1.789640    0.866282
      9          1           0       -1.562629   -1.420060   -1.090020
     10          1           0       -3.088619   -0.784374   -1.375220
     11          1           0       -3.360419    1.422730   -0.377296
     12          7           0       -2.341929   -0.911094   -0.749780
     13          7           0       -2.728669    1.079680    0.311685
     14          7           0       -0.709860    0.033788    0.596953
     15          7           0        0.053304   -1.106610    0.105409
     16          8           0        1.351481    1.337420   -0.275623
     17          8           0        3.264441    0.231194   -0.428358
 ---------------------------------------------------------------------

 SCF Done:  E(RHF) =  -488.004233255     A.U. after    2 cycles

 The electronic state is 1-A.
 Alpha  occ. eigenvalues --  -21.07797 -21.01742 -15.80045 -15.79133 -15.76172
 Alpha  occ. eigenvalues --  -15.72326 -11.51088 -11.50315 -11.41375  -1.79644
 Alpha  occ. eigenvalues --   -1.62091  -1.56960  -1.42672  -1.31845  -1.19284
 Alpha  occ. eigenvalues --   -1.00219  -0.85493  -0.78626  -0.76467  -0.74353
 Alpha  occ. eigenvalues --   -0.69661  -0.65357  -0.62440  -0.61757  -0.58934
 Alpha  occ. eigenvalues --   -0.54625  -0.50551  -0.49074  -0.47782  -0.44189
 Alpha  occ. eigenvalues --   -0.41027  -0.35235  -0.30633  -0.29778  -0.26960
 Alpha virt. eigenvalues --    0.02371   0.03927   0.04619   0.05897   0.06392
 Alpha virt. eigenvalues --    0.06757   0.07548   0.08443   0.10670   0.11146
 Alpha virt. eigenvalues --    0.12644   0.13132   0.13421   0.13633   0.14204

 Mulliken charges:
               1
     1  C    5.185515
     2  C   -2.755591
     3  C    5.542101
     4  H    1.603699
     5  H    1.455232
     6  H    0.563649
     7  H    1.471335
     8  H    0.582368
     9  H    0.501265
    10  H    0.787091
    11  H    0.605814
    12  N   -2.702778
    13  N   -2.994778
    14  N   -2.040909
    15  N   -1.293143
    16  O   -3.458255
    17  O   -3.052615
 Sum of Mulliken charges =   0.00000

 Dipole moment (field-independent basis, Debye):
    X=             -6.2145    Y=             -0.4871    Z=             -0.8234  Tot=              6.2877

 Test job not archived.
 1\1\GINC-SE073\SP\RHF\Aug-CC-pVDZ\C3H8N4O2\OHZDE\08-Apr-2025\0\\#t hf
 aug-cc-pvdz iop(5/13=1,5/36=2,99/5=2) pseudo=read geom=check guess=(re
 ad,tcheck) scf=(maxcycle=1)\\title\\0,1\C,0,-1.8885,0.0821633,0.070010
 3\C,0,1.44231,-0.981392,0.536317\C,0,2.09726,0.25585,-0.0966963\H,0,0.
 428838,1.19451,0.0810838\H,0,2.02938,-1.84289,0.313606\H,0,-0.368404,-
 1.86743,0.635175\H,0,1.46781,-0.851104,1.67058\H,0,-2.28969,1.78964,0.
 866282\H,0,-1.56263,-1.42006,-1.09002\H,0,-3.08862,-0.784374,-1.37522\
 H,0,-3.36042,1.42273,-0.377296\N,0,-2.34193,-0.911094,-0.74978\N,0,-2.

 Normal termination of Gaussian 16 at Tue Apr  8 21:58:05 2025.
