 Gaussian 16, Revision C.01,

 ----------------------------------------------------------------------
 #t hf aug-cc-pvdz symm=none int=(grid=ultrafine) guess=(read,tcheck) s
 table=(opt,rrhf)
 ----------------------------------------------------------------------
 -----
 title
 -----
 Symbolic Z-matrix:
 Charge =  0 Multiplicity = 1

 SCF Done:  E(RHF) =  -609.263788509     A.U. after   12 cycles
 Normal termination of Gaussian 16 at Tue Apr  8 22:30:59 2025.
 Gaussian 16:  ES64L-G16RevC.01  3-Jul-2019

 ----------------------------------------------------------------------
 #t hf aug-cc-pvdz iop(5/13=1,5/36=2,99/5=2) pseudo=read geom=check gue
 ss=(read,tcheck) scf=(maxcycle=1)
 ----------------------------------------------------------------------
 -----
 title
 -----
 Structure from the checkpoint file:  "ANI1ccx_99_conf2_mol2.chk"
 Charge =  0 Multiplicity = 1

                         Standard orientation:
 ---------------------------------------------------------------------
 Center     Atomic      Atomic             Coordinates (Angstroms)
 Number     Number       Type             X           Y           Z
 ---------------------------------------------------------------------
      1          6           0       -2.403209   -1.125251   -0.532991
      2          6           0       -1.477979   -1.828351    0.446522
      3          6           0        0.834152   -2.199580   -0.344613
      4          6           0        2.154151   -1.522439   -0.695610
      5          6           0        2.511890    0.852093   -0.234421
      6          6           0        1.498199    1.983481    0.028557
      7          6           0       -0.974997    2.207759   -0.182321
      8          6           0       -1.872991    1.288419   -1.018720
      9          6           0        0.004949    0.816028    1.577050
     10          6           0        0.396097   -0.658233    1.568350
     11          1           0       -1.568871    2.674239    0.615133
     12          1           0       -0.598649    2.983880   -0.850583
     13          1           0       -2.592401    1.895179   -1.583220
     14          1           0       -1.191990    0.758646   -1.721800
     15          1           0        1.492891   -0.746186    1.571050
     16          1           0        0.554934    1.331600    2.391930
     17          1           0       -1.071520    0.899031    1.853510
     18          1           0        0.074451   -1.098710    2.511730
     19          1           0        1.895089    2.663881    0.817210
     20          1           0       -3.645590    0.462641   -0.263950
     21          1           0        1.443509    2.568611   -0.886203
     22          1           0        2.840611   -1.545289    0.184147
     23          1           0        3.363179    1.291082   -0.753396
     24          1           0        0.934983   -0.010150   -1.085460
     25          1           0        2.644661   -2.096469   -1.489390
     26          1           0        1.087022   -3.111330    0.204498
     27          1           0        0.331050   -2.514530   -1.295430
     28          1           0       -1.535088   -2.914961    0.228424
     29          1           0       -1.892099   -1.715371    1.480150
     30          1           0       -3.364549   -1.674922   -0.489547
     31          1           0       -1.978519   -1.255761   -1.532420
     32          1           0        2.869400    0.409900    0.713758
     33          7           0        0.180631    1.502940    0.329302
     34          7           0       -0.089448   -1.377530    0.413718
     35          7           0        1.953860   -0.146834   -1.133160
     36          7           0       -2.632770    0.287343   -0.222852
 ---------------------------------------------------------------------

 SCF Done:  E(RHF) =  -612.303033218     A.U. after    2 cycles

 The electronic state is 1-A.
 Alpha  occ. eigenvalues --  -15.70472 -15.68365 -15.68108 -15.67862 -11.46751
 Alpha  occ. eigenvalues --  -11.46204 -11.45468 -11.44784 -11.43510 -11.37492
 Alpha  occ. eigenvalues --  -11.37426 -11.36761 -11.36591 -11.36257  -1.46839
 Alpha  occ. eigenvalues --   -1.40342  -1.37449  -1.33367  -1.14292  -1.11147
 Alpha  occ. eigenvalues --   -1.06465  -1.04826  -0.92777  -0.90772  -0.88340
 Alpha  occ. eigenvalues --   -0.84455  -0.80054  -0.76838  -0.69360  -0.66795
 Alpha  occ. eigenvalues --   -0.65768  -0.64407  -0.63698  -0.62204  -0.61311
 Alpha  occ. eigenvalues --   -0.59529  -0.57388  -0.56763  -0.55797  -0.52948
 Alpha  occ. eigenvalues --   -0.52086  -0.50852  -0.50435  -0.48847  -0.47506
 Alpha  occ. eigenvalues --   -0.46553  -0.44701  -0.44215  -0.43484  -0.42140
 Alpha  occ. eigenvalues --   -0.41216  -0.31809  -0.30970  -0.27966  -0.26979
 Alpha virt. eigenvalues --    0.04628   0.04745   0.05132   0.05158   0.05352
 Alpha virt. eigenvalues --    0.05482   0.05858   0.06140   0.06388   0.06638
 Alpha virt. eigenvalues --    0.06732   0.07143   0.07375   0.07525   0.07726

 Mulliken charges:
               1
     1  C   -2.313267
     2  C   -2.875014
     3  C   -2.529022
     4  C   -2.493571
     5  C   -2.739673
     6  C   -2.428543
     7  C   -3.179490
     8  C   -2.591260
     9  C   -3.022599
    10  C   -3.014309
    11  H    1.531949
    12  H    1.359903
    13  H    1.393008
    14  H    1.883471
    15  H    2.334001
    16  H    1.007392
    17  H    2.028892
    18  H    1.253714
    19  H    1.401235
    20  H    0.460312
    21  H    1.773081
    22  H    1.778535
    23  H    1.193170
    24  H    1.430419
    25  H    1.121225
    26  H    1.449172
    27  H    1.732813
    28  H    1.655283
    29  H    1.627611
    30  H    1.252389
    31  H    1.675054
    32  H    1.853149
    33  N   -0.569196
    34  N   -1.072305
    35  N   -2.524175
    36  N   -1.843357
 Sum of Mulliken charges =  -0.00000

 Dipole moment (field-independent basis, Debye):
    X=             -1.4298    Y=              0.1118    Z=              0.4129  Tot=              1.4925

 Test job not archived.
 1\1\GINC-SE361\SP\RHF\Aug-CC-pVDZ\C10H22N4\OHZDE\08-Apr-2025\0\\#t hf
 aug-cc-pvdz iop(5/13=1,5/36=2,99/5=2) pseudo=read geom=check guess=(re
 ad,tcheck) scf=(maxcycle=1)\\title\\0,1\C,0,-2.40321,-1.12525,-0.53299
 1\C,0,-1.47798,-1.82835,0.446522\C,0,0.834151,-2.19958,-0.344613\C,0,2
 .15415,-1.52244,-0.69561\C,0,2.51189,0.852092,-0.234421\C,0,1.4982,1.9
 8348,0.0285569\C,0,-0.974996,2.20776,-0.182321\C,0,-1.87299,1.28842,-1
 .01872\C,0,0.0049497,0.816028,1.57705\C,0,0.396097,-0.658233,1.56835\H
 ,0,-1.56887,2.67424,0.615133\H,0,-0.598648,2.98388,-0.850583\H,0,-2.59

 Normal termination of Gaussian 16 at Tue Apr  8 22:31:48 2025.
