 Gaussian 16, Revision C.01,

 ----------------------------------------------------------------------
 #t hf aug-cc-pvdz symm=none int=(grid=ultrafine) guess=(read,tcheck) s
 table=(opt,rrhf)
 ----------------------------------------------------------------------
 -----
 title
 -----
 Symbolic Z-matrix:
 Charge =  0 Multiplicity = 1

 SCF Done:  E(RHF) =  -849.434243614     A.U. after   14 cycles
 Normal termination of Gaussian 16 at Tue Apr  8 20:34:45 2025.
 Gaussian 16:  ES64L-G16RevC.01  3-Jul-2019

 ----------------------------------------------------------------------
 #t hf aug-cc-pvdz iop(5/13=1,5/36=2,99/5=2) pseudo=read geom=check gue
 ss=(read,tcheck) scf=(maxcycle=1)
 ----------------------------------------------------------------------
 -----
 title
 -----
 Structure from the checkpoint file:  "ANI1ccx_1611_conf14_mol1.chk"
 Charge =  0 Multiplicity = 1

                         Standard orientation:
 ---------------------------------------------------------------------
 Center     Atomic      Atomic             Coordinates (Angstroms)
 Number     Number       Type             X           Y           Z
 ---------------------------------------------------------------------
      1          6           0        2.185859    0.389547   -0.822812
      2          6           0        0.962708   -0.509183   -0.301599
      3          6           0        3.539860    0.025410   -0.037400
      4          6           0        3.954839    0.676056    1.254000
      5          6           0       -1.208630   -0.485758    0.691085
      6          6           0       -2.243779   -1.415712    0.087991
      7          6           0       -2.008991    0.667302    1.292080
      8          6           0       -2.470461    1.595768    0.152452
      9          1           0       -1.084849   -2.289361   -1.149540
     10          1           0       -3.857460    0.230277   -0.271310
     11          1           0       -3.740961    1.585687   -1.511470
     12          1           0       -2.846191    0.308813    1.840950
     13          1           0       -1.428321    1.344859    1.949270
     14          1           0       -0.608270   -1.164901    1.353610
     15          1           0       -0.053067    1.101390    0.065108
     16          1           0        4.211579    1.726662    1.113180
     17          1           0        3.193079    0.809830    1.927470
     18          1           0        4.981850    0.245606    1.653930
     19          1           0        3.127201   -1.794958    0.601252
     20          1           0        4.309470    0.270968   -0.807105
     21          1           0        2.428610   -0.003610   -1.812180
     22          1           0        2.825188    2.163232   -1.529530
     23          1           0        1.913078    2.339891   -0.131707
     24          7           0        2.024208    1.850961   -0.971895
     25          7           0       -0.139366    0.132981   -0.089069
     26          7           0       -3.498021    1.165168   -0.603875
     27          8           0        1.101561   -1.756750   -0.279234
     28          8           0        3.752331   -1.402708    0.042457
     29          8           0       -3.277289   -1.523582    0.737877
     30          8           0       -1.794302    2.533289   -0.169268
     31          8           0       -2.075689   -2.172592   -1.023440
 ---------------------------------------------------------------------

 SCF Done:  E(RHF) =  -853.213861786     A.U. after    2 cycles

 The electronic state is 1-A.
 Alpha  occ. eigenvalues --  -21.14061 -21.06645 -21.05522 -21.04626 -21.03650
 Alpha  occ. eigenvalues --  -15.80316 -15.78126 -15.76121 -11.58161 -11.54437
 Alpha  occ. eigenvalues --  -11.52062 -11.50654 -11.48937 -11.44774 -11.43283
 Alpha  occ. eigenvalues --  -11.38822  -1.83794  -1.73620  -1.72919  -1.69404
 Alpha  occ. eigenvalues --   -1.67389  -1.47079  -1.35922  -1.34991  -1.19555
 Alpha  occ. eigenvalues --   -1.13114  -1.03997  -1.01021  -0.88897  -0.83997
 Alpha  occ. eigenvalues --   -0.82328  -0.79758  -0.74569  -0.73514  -0.71481
 Alpha  occ. eigenvalues --   -0.68489  -0.66235  -0.65074  -0.63756  -0.61852
 Alpha  occ. eigenvalues --   -0.60899  -0.58204  -0.56363  -0.55465  -0.54633
 Alpha  occ. eigenvalues --   -0.54052  -0.53722  -0.50879  -0.50158  -0.48805
 Alpha  occ. eigenvalues --   -0.48456  -0.46760  -0.45193  -0.43077  -0.36056
 Alpha  occ. eigenvalues --   -0.35698  -0.35154  -0.33843  -0.33292  -0.31398
 Alpha  occ. eigenvalues --   -0.29698  -0.26861
 Alpha virt. eigenvalues --    0.02917   0.04066   0.04396   0.04743   0.05219
 Alpha virt. eigenvalues --    0.05611   0.06105   0.06381   0.06818   0.07082
 Alpha virt. eigenvalues --    0.07254   0.08199   0.08355   0.09066   0.09274

 Mulliken charges:
               1
     1  C   -1.553998
     2  C    6.192027
     3  C    2.464997
     4  C   -4.145635
     5  C   -3.237814
     6  C    6.905111
     7  C   -3.234907
     8  C    6.274965
     9  H    0.839137
    10  H    0.700676
    11  H    0.809605
    12  H    1.380296
    13  H    1.098671
    14  H    1.945586
    15  H    0.895807
    16  H    1.307670
    17  H    1.393357
    18  H    1.155344
    19  H    0.999101
    20  H    1.263521
    21  H    1.506711
    22  H    0.612046
    23  H    0.673635
    24  N   -2.975632
    25  N   -2.595232
    26  N   -3.422074
    27  O   -3.512286
    28  O   -3.631522
    29  O   -3.206247
    30  O   -3.483245
    31  O   -3.419673
 Sum of Mulliken charges =  -0.00000

 Dipole moment (field-independent basis, Debye):
    X=              0.0759    Y=              1.0533    Z=             -0.0893  Tot=              1.0598

 Test job not archived.
 1\1\GINC-SE132\SP\RHF\Aug-CC-pVDZ\C8H15N3O5\OHZDE\08-Apr-2025\0\\#t hf
  aug-cc-pvdz iop(5/13=1,5/36=2,99/5=2) pseudo=read geom=check guess=(r
 ead,tcheck) scf=(maxcycle=1)\\title\\0,1\C,0,2.18586,0.389546,-0.82281
 2\C,0,0.962708,-0.509183,-0.301599\C,0,3.53986,0.0254077,-0.0374007\C,
 0,3.95484,0.676054,1.254\C,0,-1.20863,-0.485757,0.691085\C,0,-2.24378,
 -1.41571,0.0879907\C,0,-2.00899,0.667304,1.29208\C,0,-2.47046,1.59577,
 0.152452\H,0,-1.08485,-2.28936,-1.14954\H,0,-3.85746,0.23028,-0.27131\
 H,0,-3.74096,1.58569,-1.51147\H,0,-2.84619,0.308815,1.84095\H,0,-1.428

 Normal termination of Gaussian 16 at Tue Apr  8 20:35:25 2025.
