 Gaussian 16, Revision C.01,

 ----------------------------------------------------------------------
 #t hf aug-cc-pvdz symm=none int=(grid=ultrafine) guess=(read,tcheck) s
 table=(opt,rrhf)
 ----------------------------------------------------------------------
 -----
 title
 -----
 Symbolic Z-matrix:
 Charge =  0 Multiplicity = 1

 SCF Done:  E(RHF) =  -621.221484890     A.U. after   16 cycles
 Normal termination of Gaussian 16 at Tue Apr  8 20:37:01 2025.
 Gaussian 16:  ES64L-G16RevC.01  3-Jul-2019

 ----------------------------------------------------------------------
 #t hf aug-cc-pvdz iop(5/13=1,5/36=2,99/5=2) pseudo=read geom=check gue
 ss=(read,tcheck) scf=(maxcycle=1)
 ----------------------------------------------------------------------
 -----
 title
 -----
 Structure from the checkpoint file:  "ANI1ccx_1698_conf1_mol1.chk"
 Charge =  0 Multiplicity = 1

                         Standard orientation:
 ---------------------------------------------------------------------
 Center     Atomic      Atomic             Coordinates (Angstroms)
 Number     Number       Type             X           Y           Z
 ---------------------------------------------------------------------
      1          6           0        2.143601    0.781808   -0.425504
      2          6           0        2.371661   -0.689157   -0.141734
      3          6           0        0.291483   -0.862992    1.313650
      4          6           0       -0.919334   -0.488095    0.532883
      5          6           0       -1.278509   -1.125210   -0.626985
      6          6           0       -2.505669   -0.842497   -1.320120
      7          6           0       -3.308369    0.102371   -0.667332
      8          6           0       -1.781559    0.488071    1.042430
      9          1           0       -1.558809    0.980198    2.027260
     10          1           0       -4.255599    0.348599   -1.179690
     11          1           0       -2.898669   -1.499250   -2.149160
     12          1           0       -0.586667   -1.933219   -1.041560
     13          1           0        1.531561   -2.454289    0.631454
     14          1           0        0.593174    0.036775    1.901550
     15          1           0        2.688481    1.060421   -1.357690
     16          1           0        0.790990    3.216351    0.359532
     17          1           0       -0.104490   -1.571209    2.006720
     18          7           0        1.265801    1.488331    0.185428
     19          7           0        1.412931   -1.413459    0.672660
     20          7           0       -3.027629    0.658106    0.534714
     21          8           0        1.199620    2.742491   -0.454381
     22          8           0        3.320691   -1.180119   -0.694586
 ---------------------------------------------------------------------

 SCF Done:  E(RHF) =  -624.013911307     A.U. after    2 cycles

 The electronic state is 1-A.
 Alpha  occ. eigenvalues --  -21.11881 -21.06050 -15.81840 -15.77294 -15.74562
 Alpha  occ. eigenvalues --  -11.53942 -11.48393 -11.46692 -11.45210 -11.44652
 Alpha  occ. eigenvalues --  -11.44146 -11.42252 -11.38675  -1.80412  -1.73385
 Alpha  occ. eigenvalues --   -1.45700  -1.39170  -1.27229  -1.19171  -1.13301
 Alpha  occ. eigenvalues --   -1.01099  -0.93903  -0.89485  -0.85417  -0.79973
 Alpha  occ. eigenvalues --   -0.71795  -0.67554  -0.67134  -0.65549  -0.62639
 Alpha  occ. eigenvalues --   -0.62171  -0.60099  -0.57534  -0.56189  -0.54572
 Alpha  occ. eigenvalues --   -0.53753  -0.52611  -0.50787  -0.49281  -0.46709
 Alpha  occ. eigenvalues --   -0.40090  -0.37228  -0.35591  -0.33810  -0.33072
 Alpha  occ. eigenvalues --   -0.31306  -0.30850
 Alpha virt. eigenvalues --    0.03350   0.04432   0.05035   0.05485   0.05900
 Alpha virt. eigenvalues --    0.06152   0.06340   0.06592   0.07548   0.08947
 Alpha virt. eigenvalues --    0.09429   0.10317   0.10896   0.11371   0.11712

 Mulliken charges:
               1
     1  C   -0.263097
     2  C    4.658361
     3  C   -3.419247
     4  C    5.209401
     5  C   -0.164218
     6  C   -3.049532
     7  C   -0.588185
     8  C   -1.909881
     9  H    1.536940
    10  H    1.606851
    11  H    1.297065
    12  H    1.763990
    13  H    0.519535
    14  H    1.447708
    15  H    1.716614
    16  H    0.830828
    17  H    1.089032
    18  N   -0.574188
    19  N   -2.171523
    20  N   -3.840248
    21  O   -2.233327
    22  O   -3.462882
 Sum of Mulliken charges =  -0.00000

 Dipole moment (field-independent basis, Debye):
    X=             -0.2549    Y=             -0.2917    Z=             -0.0615  Tot=              0.3922

 Test job not archived.
 1\1\GINC-SE086\SP\RHF\Aug-CC-pVDZ\C8H9N3O2\OHZDE\08-Apr-2025\0\\#t hf
 aug-cc-pvdz iop(5/13=1,5/36=2,99/5=2) pseudo=read geom=check guess=(re
 ad,tcheck) scf=(maxcycle=1)\\title\\0,1\C,0,2.1436,0.781807,-0.425504\
 C,0,2.37166,-0.689158,-0.141734\C,0,0.291482,-0.862993,1.31365\C,0,-0.
 919335,-0.488096,0.532883\C,0,-1.27851,-1.12521,-0.626985\C,0,-2.50567
 ,-0.842497,-1.32012\C,0,-3.30837,0.102371,-0.667332\C,0,-1.78156,0.488
 071,1.04243\H,0,-1.55881,0.980198,2.02726\H,0,-4.2556,0.348599,-1.1796
 9\H,0,-2.89867,-1.49925,-2.14916\H,0,-0.586668,-1.93322,-1.04156\H,0,1

 Normal termination of Gaussian 16 at Tue Apr  8 20:37:19 2025.
