 Gaussian 16, Revision C.01,

 ----------------------------------------------------------------------
 #t hf aug-cc-pvdz symm=none int=(grid=ultrafine) guess=(read,tcheck) s
 table=(opt,rrhf)
 ----------------------------------------------------------------------
 -----
 title
 -----
 Symbolic Z-matrix:
 Charge =  0 Multiplicity = 1

 SCF Done:  E(RHF) =  -588.436676314     A.U. after   15 cycles
 Normal termination of Gaussian 16 at Tue Apr  8 20:04:26 2025.
 Gaussian 16:  ES64L-G16RevC.01  3-Jul-2019

 ----------------------------------------------------------------------
 #t hf aug-cc-pvdz iop(5/13=1,5/36=2,99/5=2) pseudo=read geom=check gue
 ss=(read,tcheck) scf=(maxcycle=1)
 ----------------------------------------------------------------------
 -----
 title
 -----
 Structure from the checkpoint file:  "ANI1ccx_1556_conf1_mol1.chk"
 Charge =  0 Multiplicity = 1

                         Standard orientation:
 ---------------------------------------------------------------------
 Center     Atomic      Atomic             Coordinates (Angstroms)
 Number     Number       Type             X           Y           Z
 ---------------------------------------------------------------------
      1          6           0       -0.149760    2.381660    0.481800
      2          6           0        0.358796    0.911372    0.632363
      3          6           0        1.563909    0.616608   -0.270894
      4          6           0        2.121702   -0.798636   -0.054077
      5          6           0       -0.771025   -0.066053    0.439101
      6          6           0       -1.692178   -0.600456    1.279830
      7          6           0       -2.611686   -1.355696    0.469423
      8          6           0       -2.152117   -1.278405   -0.817134
      9          1           0       -2.491716   -1.707576   -1.735090
     10          1           0       -3.524345   -1.835669    0.810424
     11          1           0       -1.785408   -0.537671    2.363110
     12          1           0        0.703420   -1.438298   -1.169530
     13          1           0        2.364997    1.335086   -0.101148
     14          1           0        0.669979    2.999142    0.829279
     15          1           0        0.705394    0.814164    1.671230
     16          1           0       -0.900988    2.560138    1.253680
     17          1           0        0.291649    2.965261   -1.409650
     18          1           0       -1.098885    2.007397   -1.314230
     19          1           0        1.248048    0.727730   -1.344900
     20          7           0       -0.568477    2.788509   -0.811606
     21          8           0        3.082393   -1.030822    0.622498
     22          8           0        1.440605   -1.790536   -0.667880
     23          8           0       -1.049079   -0.462595   -0.846421
 ---------------------------------------------------------------------

 SCF Done:  E(RHF) =  -591.093296933     A.U. after    2 cycles

 The electronic state is 1-A.
 Alpha  occ. eigenvalues --  -21.13391 -21.11291 -21.04547 -15.74248 -11.53057
 Alpha  occ. eigenvalues --  -11.51903 -11.48610 -11.47106 -11.44634 -11.44251
 Alpha  occ. eigenvalues --  -11.41428 -11.38664  -1.87144  -1.81640  -1.65057
 Alpha  occ. eigenvalues --   -1.36668  -1.22770  -1.19986  -1.07487  -1.01070
 Alpha  occ. eigenvalues --   -0.89508  -0.82539  -0.80569  -0.77150  -0.73809
 Alpha  occ. eigenvalues --   -0.69989  -0.67726  -0.64430  -0.60985  -0.59652
 Alpha  occ. eigenvalues --   -0.57191  -0.56576  -0.54446  -0.52724  -0.52482
 Alpha  occ. eigenvalues --   -0.49822  -0.48750  -0.46641  -0.44703  -0.43479
 Alpha  occ. eigenvalues --   -0.36969  -0.35333  -0.33638  -0.31165  -0.28843
 Alpha virt. eigenvalues --    0.03170   0.03877   0.04173   0.04988   0.05180
 Alpha virt. eigenvalues --    0.06375   0.06450   0.06828   0.07059   0.07983
 Alpha virt. eigenvalues --    0.08899   0.10077   0.11030   0.11558   0.12180

 Mulliken charges:
               1
     1  C   -2.306213
     2  C    0.012082
     3  C   -4.575641
     4  C    6.347522
     5  C    6.949675
     6  C   -4.334173
     7  C   -1.543587
     8  C   -0.566123
     9  H    1.644474
    10  H    1.440046
    11  H    1.414006
    12  H    1.293840
    13  H    1.146022
    14  H    1.388713
    15  H    1.343196
    16  H    1.383153
    17  H    0.442377
    18  H    0.620778
    19  H    1.365197
    20  N   -2.508849
    21  O   -3.431843
    22  O   -3.427251
    23  O   -4.097403
 Sum of Mulliken charges =   0.00000

 Dipole moment (field-independent basis, Debye):
    X=             -2.2095    Y=              0.6002    Z=             -0.9227  Tot=              2.4685

 Test job not archived.
 1\1\GINC-SE247\SP\RHF\Aug-CC-pVDZ\C8H11N1O3\OHZDE\08-Apr-2025\0\\#t hf
  aug-cc-pvdz iop(5/13=1,5/36=2,99/5=2) pseudo=read geom=check guess=(r
 ead,tcheck) scf=(maxcycle=1)\\title\\0,1\C,0,-0.149754,2.38166,0.4818\
 C,0,0.358798,0.911371,0.632363\C,0,1.56391,0.616604,-0.270894\C,0,2.12
 17,-0.798642,-0.0540772\C,0,-0.771025,-0.066051,0.439101\C,0,-1.69218,
 -0.600452,1.27983\C,0,-2.61169,-1.35569,0.469423\C,0,-2.15212,-1.2784,
 -0.817134\H,0,-2.49172,-1.70757,-1.73509\H,0,-3.52435,-1.83566,0.81042
 4\H,0,-1.78541,-0.537667,2.36311\H,0,0.703416,-1.4383,-1.16953\H,0,2.3

 Normal termination of Gaussian 16 at Tue Apr  8 20:04:43 2025.
