 Gaussian 16, Revision C.01,

 ----------------------------------------------------------------------
 #t hf aug-cc-pvdz symm=none int=(grid=ultrafine) guess=(read,tcheck) s
 table=(opt,rrhf)
 ----------------------------------------------------------------------
 -----
 title
 -----
 Symbolic Z-matrix:
 Charge =  0 Multiplicity = 1

 SCF Done:  E(RHF) =  -406.497738700     A.U. after   16 cycles
 Normal termination of Gaussian 16 at Tue Apr  8 21:36:39 2025.
 Gaussian 16:  ES64L-G16RevC.01  3-Jul-2019

 ----------------------------------------------------------------------
 #t hf aug-cc-pvdz iop(5/13=1,5/36=2,99/5=2) pseudo=read geom=check gue
 ss=(read,tcheck) scf=(maxcycle=1)
 ----------------------------------------------------------------------
 -----
 title
 -----
 Structure from the checkpoint file:  "ANI1ccx_379_conf13_mol2.chk"
 Charge =  0 Multiplicity = 1

                         Standard orientation:
 ---------------------------------------------------------------------
 Center     Atomic      Atomic             Coordinates (Angstroms)
 Number     Number       Type             X           Y           Z
 ---------------------------------------------------------------------
      1          6           0        0.032888    0.825139    0.000424
      2          1           0        2.239439   -0.568223    0.834588
      3          1           0        2.247749   -0.587229   -0.821596
      4          7           0        1.775197   -0.929696    0.005551
      5          7           0        0.478414   -0.483798   -0.015022
      6          7           0       -0.561296   -1.338008    0.001991
      7          7           0       -1.617202   -0.686244    0.004851
      8          8           0       -1.316107    0.687698   -0.001250
      9          8           0        0.664818    1.845908    0.001608
 ---------------------------------------------------------------------

 SCF Done:  E(RHF) =  -408.209873513     A.U. after    2 cycles

 The electronic state is 1-A.
 Alpha  occ. eigenvalues --  -21.16331 -21.07748 -15.87598 -15.86983 -15.85293
 Alpha  occ. eigenvalues --  -15.82550 -11.57036  -1.99263  -1.73373  -1.64953
 Alpha  occ. eigenvalues --   -1.45557  -1.23178  -0.96157  -0.87787  -0.78089
 Alpha  occ. eigenvalues --   -0.74470  -0.68388  -0.61789  -0.58695  -0.53539
 Alpha  occ. eigenvalues --   -0.51380  -0.47011  -0.45803  -0.43894  -0.32842
 Alpha  occ. eigenvalues --   -0.31709
 Alpha virt. eigenvalues --    0.03456   0.05345   0.09179   0.11129   0.11454
 Alpha virt. eigenvalues --    0.11577   0.12406   0.13035   0.13148   0.15285
 Alpha virt. eigenvalues --    0.16743   0.16804   0.17945   0.18978   0.19438

 Mulliken charges:
               1
     1  C    5.270557
     2  H    0.671461
     3  H    0.678373
     4  N   -1.819206
     5  N   -0.107429
     6  N    0.612114
     7  N    0.123464
     8  O   -2.585077
     9  O   -2.844257
 Sum of Mulliken charges =   0.00000

 Dipole moment (field-independent basis, Debye):
    X=              2.1357    Y=             -0.3664    Z=             -0.0052  Tot=              2.1669

 Test job not archived.
 1\1\GINC-SE186\SP\RHF\Aug-CC-pVDZ\C1H2N4O2\OHZDE\08-Apr-2025\0\\#t hf
 aug-cc-pvdz iop(5/13=1,5/36=2,99/5=2) pseudo=read geom=check guess=(re
 ad,tcheck) scf=(maxcycle=1)\\title\\0,1\C,0,0.0328839,0.825139,0.00042
 372\H,0,2.23944,-0.568215,0.834588\H,0,2.24775,-0.587221,-0.821596\N,0
 ,1.7752,-0.92969,0.00555104\N,0,0.478415,-0.483796,-0.0150217\N,0,-0.5
 61292,-1.33801,0.0019908\N,0,-1.6172,-0.68625,0.00485136\O,0,-1.31611,
 0.687693,-0.00125029\O,0,0.664811,1.84591,0.0016084\\Version=ES64L-G16
 RevC.01\State=1-A\HF=-408.2098735\RMSD=1.035e-01\Dipole=0.8402478,-0.1

 Normal termination of Gaussian 16 at Tue Apr  8 21:36:43 2025.
