 Gaussian 16, Revision C.01,

 ----------------------------------------------------------------------
 #t hf aug-cc-pvdz symm=none int=(grid=ultrafine) guess=(read,tcheck) s
 table=(opt,rrhf)
 ----------------------------------------------------------------------
 -----
 title
 -----
 Symbolic Z-matrix:
 Charge =  0 Multiplicity = 1

 SCF Done:  E(RHF) =  -717.488037323     A.U. after   14 cycles
 Normal termination of Gaussian 16 at Tue Apr  8 19:32:15 2025.
 Gaussian 16:  ES64L-G16RevC.01  3-Jul-2019

 ----------------------------------------------------------------------
 #t hf aug-cc-pvdz iop(5/13=1,5/36=2,99/5=2) pseudo=read geom=check gue
 ss=(read,tcheck) scf=(maxcycle=1)
 ----------------------------------------------------------------------
 -----
 title
 -----
 Structure from the checkpoint file:  "ANI1ccx_1215_conf7_mol1.chk"
 Charge =  0 Multiplicity = 1

                         Standard orientation:
 ---------------------------------------------------------------------
 Center     Atomic      Atomic             Coordinates (Angstroms)
 Number     Number       Type             X           Y           Z
 ---------------------------------------------------------------------
      1          6           0        1.262801   -0.173957   -0.061737
      2          6           0        0.686632    0.069013    1.316490
      3          6           0        2.563811   -0.881716   -0.172544
      4          6           0       -1.773640    0.418826    0.301147
      5          6           0       -2.063598   -1.085173   -0.128496
      6          6           0       -1.544251    1.234378   -0.982731
      7          1           0       -1.209496   -2.855112   -0.150404
      8          1           0       -0.059782    2.339689   -0.409410
      9          1           0       -0.824469    0.787092   -1.707260
     10          1           0       -2.550641    1.395556   -1.413580
     11          1           0       -2.657110    0.825246    0.802362
     12          1           0       -0.999692    0.718299    2.264260
     13          1           0        2.461813   -1.915658    0.006480
     14          1           0        3.406831   -0.462374    0.424378
     15          1           0        0.492452   -0.726860   -0.630353
     16          1           0        1.901619    1.328691   -1.425400
     17          1           0        2.051049    1.695201    0.136411
     18          1           0        2.459912   -1.155178   -2.146020
     19          7           0        1.467299    1.251281   -0.546641
     20          7           0       -0.689541    0.485419    1.326580
     21          8           0       -0.994372    2.511108   -0.650850
     22          8           0        1.348940    0.190614    2.317640
     23          8           0        3.093651   -0.768570   -1.515690
     24          8           0       -3.024148   -1.451314   -0.694668
     25          8           0       -1.012487   -1.934302    0.188095
 ---------------------------------------------------------------------

 SCF Done:  E(RHF) =  -720.646276329     A.U. after    2 cycles

 The electronic state is 1-A.
 Alpha  occ. eigenvalues --  -21.13423 -21.08597 -21.08099 -21.05201 -21.04228
 Alpha  occ. eigenvalues --  -15.76147 -15.75663 -11.55797 -11.54446 -11.49690
 Alpha  occ. eigenvalues --  -11.48516 -11.43364 -11.42965  -1.84236  -1.73936
 Alpha  occ. eigenvalues --   -1.70922  -1.69172  -1.68380  -1.39242  -1.34936
 Alpha  occ. eigenvalues --   -1.12503  -1.09984  -0.95629  -0.91777  -0.83314
 Alpha  occ. eigenvalues --   -0.78419  -0.72762  -0.70757  -0.67363  -0.65869
 Alpha  occ. eigenvalues --   -0.64889  -0.63032  -0.62347  -0.59675  -0.58388
 Alpha  occ. eigenvalues --   -0.56634  -0.54128  -0.53861  -0.52448  -0.50195
 Alpha  occ. eigenvalues --   -0.48163  -0.47902  -0.42848  -0.41980  -0.36823
 Alpha  occ. eigenvalues --   -0.35872  -0.34893  -0.34085  -0.31015  -0.30104
 Alpha  occ. eigenvalues --   -0.28586
 Alpha virt. eigenvalues --    0.03188   0.03880   0.05315   0.05469   0.05565
 Alpha virt. eigenvalues --    0.05829   0.06210   0.06556   0.07077   0.08268
 Alpha virt. eigenvalues --    0.09013   0.09513   0.10125   0.10770   0.11587

 Mulliken charges:
               1
     1  C    0.214423
     2  C    5.471458
     3  C   -2.482294
     4  C   -2.692388
     5  C    6.863863
     6  C   -0.832148
     7  H    0.947083
     8  H    1.212265
     9  H    1.673425
    10  H    1.169211
    11  H    1.724845
    12  H    0.532797
    13  H    1.290849
    14  H    1.346983
    15  H    2.456393
    16  H    0.772756
    17  H    0.620897
    18  H    0.786210
    19  N   -2.676967
    20  N   -2.093847
    21  O   -3.173688
    22  O   -3.827997
    23  O   -2.556914
    24  O   -3.543247
    25  O   -3.203969
 Sum of Mulliken charges =   0.00000

 Dipole moment (field-independent basis, Debye):
    X=              0.7477    Y=             -1.0619    Z=             -0.4821  Tot=              1.3853

 Test job not archived.
 1\1\GINC-SE088\SP\RHF\Aug-CC-pVDZ\C6H12N2O5\OHZDE\08-Apr-2025\0\\#t hf
  aug-cc-pvdz iop(5/13=1,5/36=2,99/5=2) pseudo=read geom=check guess=(r
 ead,tcheck) scf=(maxcycle=1)\\title\\0,1\C,0,1.2628,-0.173958,-0.06173
 65\C,0,0.686632,0.0690133,1.31649\C,0,2.56381,-0.881718,-0.172544\C,0,
 -1.77364,0.418829,0.301147\C,0,-2.0636,-1.08517,-0.128496\C,0,-1.54425
 ,1.23438,-0.982731\H,0,-1.2095,-2.85511,-0.150404\H,0,-0.0597798,2.339
 69,-0.40941\H,0,-0.824469,0.787094,-1.70726\H,0,-2.55064,1.39556,-1.41
 358\H,0,-2.65711,0.82525,0.802362\H,0,-0.999692,0.718301,2.26426\H,0,2

 Normal termination of Gaussian 16 at Tue Apr  8 19:32:42 2025.
