 Gaussian 16, Revision C.01,

 ----------------------------------------------------------------------
 #t hf aug-cc-pvdz symm=none int=(grid=ultrafine) guess=(read,tcheck) s
 table=(opt,rrhf)
 ----------------------------------------------------------------------
 -----
 title
 -----
 Symbolic Z-matrix:
 Charge =  0 Multiplicity = 1

 SCF Done:  E(RHF) =  -431.388376843     A.U. after   15 cycles
 Normal termination of Gaussian 16 at Tue Apr  8 21:44:54 2025.
 Gaussian 16:  ES64L-G16RevC.01  3-Jul-2019

 ----------------------------------------------------------------------
 #t hf aug-cc-pvdz iop(5/13=1,5/36=2,99/5=2) pseudo=read geom=check gue
 ss=(read,tcheck) scf=(maxcycle=1)
 ----------------------------------------------------------------------
 -----
 title
 -----
 Structure from the checkpoint file:  "ANI1ccx_499_conf14_mol1.chk"
 Charge =  0 Multiplicity = 1

                         Standard orientation:
 ---------------------------------------------------------------------
 Center     Atomic      Atomic             Coordinates (Angstroms)
 Number     Number       Type             X           Y           Z
 ---------------------------------------------------------------------
      1          6           0        0.066420    0.759439   -0.051094
      2          6           0       -1.011140   -0.346145    0.028292
      3          1           0        2.167801   -1.206848    0.706967
      4          1           0        1.932168    1.275272    0.183336
      5          1           0        0.291088   -1.602499   -0.582481
      6          7           0        1.331819    0.430930    0.396496
      7          8           0        1.952220   -0.758002   -0.086770
      8          8           0       -0.209023    1.901160   -0.341345
      9          8           0       -0.638580   -1.566600   -0.291127
     10          8           0       -2.110300   -0.071833    0.350932
 ---------------------------------------------------------------------

 SCF Done:  E(RHF) =  -433.153199490     A.U. after    2 cycles

 The electronic state is 1-A.
 Alpha  occ. eigenvalues --  -21.17777 -21.14354 -21.09016 -21.07376 -15.83822
 Alpha  occ. eigenvalues --  -11.56307 -11.51815  -1.88108  -1.83721  -1.74698
 Alpha  occ. eigenvalues --   -1.68262  -1.29447  -0.99135  -0.80731  -0.73309
 Alpha  occ. eigenvalues --   -0.70332  -0.67392  -0.59684  -0.58215  -0.55182
 Alpha  occ. eigenvalues --   -0.51445  -0.49143  -0.42549  -0.37813  -0.35287
 Alpha  occ. eigenvalues --   -0.34809  -0.29582
 Alpha virt. eigenvalues --    0.02813   0.04658   0.05714   0.09810   0.10527
 Alpha virt. eigenvalues --    0.10832   0.11536   0.11921   0.12518   0.13099
 Alpha virt. eigenvalues --    0.14216   0.15115   0.17362   0.17535   0.18001

 Mulliken charges:
               1
     1  C    3.755987
     2  C    5.116326
     3  H    0.787892
     4  H    0.709125
     5  H    1.339829
     6  N   -0.654908
     7  O   -2.156206
     8  O   -3.027989
     9  O   -3.053071
    10  O   -2.816985
 Sum of Mulliken charges =  -0.00000

 Dipole moment (field-independent basis, Debye):
    X=              3.5604    Y=             -1.3798    Z=             -0.0706  Tot=              3.8191

 Test job not archived.
 1\1\GINC-SE086\SP\RHF\Aug-CC-pVDZ\C2H3N1O4\OHZDE\08-Apr-2025\0\\#t hf
 aug-cc-pvdz iop(5/13=1,5/36=2,99/5=2) pseudo=read geom=check guess=(re
 ad,tcheck) scf=(maxcycle=1)\\title\\0,1\C,0,0.0664215,0.759439,-0.0510
 935\C,0,-1.01114,-0.346144,0.0282919\H,0,2.1678,-1.20685,0.706967\H,0,
 1.93217,1.27527,0.183336\H,0,0.291087,-1.6025,-0.582481\N,0,1.33182,0.
 430928,0.396496\O,0,1.95222,-0.758004,-0.0867701\O,0,-0.209021,1.90116
 ,-0.341345\O,0,-0.638581,-1.5666,-0.291127\O,0,-2.1103,-0.0718319,0.35
 0932\\Version=ES64L-G16RevC.01\State=1-A\HF=-433.1531995\RMSD=1.293e-0

 Normal termination of Gaussian 16 at Tue Apr  8 21:44:58 2025.
