 Gaussian 16, Revision C.01,

 ----------------------------------------------------------------------
 #t hf aug-cc-pvdz symm=none int=(grid=ultrafine) guess=(read,tcheck) s
 table=(opt,rrhf)
 ----------------------------------------------------------------------
 -----
 title
 -----
 Symbolic Z-matrix:
 Charge =  0 Multiplicity = 1

 SCF Done:  E(RHF) =  -380.133953062     A.U. after   12 cycles
 Normal termination of Gaussian 16 at Tue Apr  8 21:07:30 2025.
 Gaussian 16:  ES64L-G16RevC.01  3-Jul-2019

 ----------------------------------------------------------------------
 #t hf aug-cc-pvdz iop(5/13=1,5/36=2,99/5=2) pseudo=read geom=check gue
 ss=(read,tcheck) scf=(maxcycle=1)
 ----------------------------------------------------------------------
 -----
 title
 -----
 Structure from the checkpoint file:  "ANI1ccx_1843_conf586_mol1.chk"
 Charge =  0 Multiplicity = 1

                         Standard orientation:
 ---------------------------------------------------------------------
 Center     Atomic      Atomic             Coordinates (Angstroms)
 Number     Number       Type             X           Y           Z
 ---------------------------------------------------------------------
      1          1           0       -0.660689    0.319829    1.318690
      2          1           0       -2.026081   -0.690789    1.167280
      3          1           0        0.905782    1.438529    0.280444
      4          1           0       -0.239403    2.683569    0.444222
      5          1           0        0.122945   -1.623391    0.486392
      6          1           0       -0.154564   -1.267541   -1.017910
      7          1           0       -1.640160    0.208680   -2.356970
      8          1           0       -1.040690    0.891739   -0.914265
      9          1           0        1.622819   -0.481486   -0.093599
     10          1           0        2.967120    0.103492    0.484984
     11          8           0       -1.026261   -0.573997    1.611390
     12          8           0       -0.144089    1.699569    0.169911
     13          8           0        0.520926   -1.751441   -0.429120
     14          8           0       -1.608850    0.107764   -1.163000
     15          8           0        2.276140    0.320276   -0.164089
 ---------------------------------------------------------------------

 SCF Done:  E(RHF) =  -381.815087335     A.U. after    2 cycles

 The electronic state is 1-A.
 Alpha  occ. eigenvalues --  -21.10393 -21.08276 -21.07745 -21.06629 -21.06061
 Alpha  occ. eigenvalues --   -1.68084  -1.65431  -1.62948  -1.60838  -1.59694
 Alpha  occ. eigenvalues --   -0.66040  -0.63540  -0.61841  -0.60476  -0.59900
 Alpha  occ. eigenvalues --   -0.50122  -0.48647  -0.47094  -0.46063  -0.40756
 Alpha  occ. eigenvalues --   -0.37023  -0.35319  -0.33641  -0.32869  -0.32079
 Alpha virt. eigenvalues --    0.03289   0.04642   0.04897   0.06586   0.07166
 Alpha virt. eigenvalues --    0.07803   0.08778   0.08993   0.10087   0.11562
 Alpha virt. eigenvalues --    0.17260   0.18989   0.20240   0.21025   0.21390

 Mulliken charges:
               1
     1  H    1.502735
     2  H    0.777447
     3  H    1.240993
     4  H    0.935176
     5  H    1.177352
     6  H    1.207348
     7  H    0.537948
     8  H    1.806984
     9  H    1.477924
    10  H    0.808540
    11  O   -2.166606
    12  O   -2.903676
    13  O   -2.556067
    14  O   -1.701999
    15  O   -2.144097
 Sum of Mulliken charges =  -0.00000

 Dipole moment (field-independent basis, Debye):
    X=             -0.0144    Y=              1.7246    Z=              0.3114  Tot=              1.7526

 Test job not archived.
 1\1\GINC-SE036\SP\RHF\Aug-CC-pVDZ\H10O5\OHZDE\08-Apr-2025\0\\#t hf aug
 -cc-pvdz iop(5/13=1,5/36=2,99/5=2) pseudo=read geom=check guess=(read,
 tcheck) scf=(maxcycle=1)\\title\\0,1\H,0,-0.660689,0.319829,1.31869\H,
 0,-2.02608,-0.690789,1.16728\H,0,0.905782,1.43853,0.280444\H,0,-0.2394
 04,2.68357,0.444222\H,0,0.122946,-1.62339,0.486392\H,0,-0.154563,-1.26
 754,-1.01791\H,0,-1.64016,0.20868,-2.35697\H,0,-1.04069,0.891739,-0.91
 4265\H,0,1.62282,-0.481484,-0.0935992\H,0,2.96712,0.103494,0.484984\O,
 0,-1.02626,-0.573997,1.61139\O,0,-0.144089,1.69957,0.169911\O,0,0.5209

 Normal termination of Gaussian 16 at Tue Apr  8 21:07:34 2025.
