 Gaussian 16, Revision C.01,

 ----------------------------------------------------------------------
 #t hf aug-cc-pvdz symm=none int=(grid=ultrafine) guess=(read,tcheck) s
 table=(opt,rrhf)
 ----------------------------------------------------------------------
 -----
 title
 -----
 Symbolic Z-matrix:
 Charge =  0 Multiplicity = 1

 SCF Done:  E(RHF) =  -905.350481473     A.U. after   16 cycles
 Normal termination of Gaussian 16 at Tue Apr  8 22:06:51 2025.
 Gaussian 16:  ES64L-G16RevC.01  3-Jul-2019

 ----------------------------------------------------------------------
 #t hf aug-cc-pvdz iop(5/13=1,5/36=2,99/5=2) pseudo=read geom=check gue
 ss=(read,tcheck) scf=(maxcycle=1)
 ----------------------------------------------------------------------
 -----
 title
 -----
 Structure from the checkpoint file:  "ANI1ccx_56_conf4_mol1.chk"
 Charge =  0 Multiplicity = 1

                         Standard orientation:
 ---------------------------------------------------------------------
 Center     Atomic      Atomic             Coordinates (Angstroms)
 Number     Number       Type             X           Y           Z
 ---------------------------------------------------------------------
      1          6           0        2.585320   -0.799661    0.387606
      2          6           0       -0.921922    3.058210   -0.132395
      3          6           0       -1.666061    1.153540    0.528884
      4          6           0       -1.755030   -0.147791    1.274040
      5          6           0       -2.033520   -1.829561   -0.603274
      6          6           0       -2.714411    1.729369   -0.185130
      7          6           0        4.344069    0.741819   -0.575794
      8          6           0        2.962119    0.668282    0.075967
      9          6           0        1.143220   -0.924257    0.929546
     10          6           0       -1.161800   -1.353410    0.531389
     11          1           0       -1.052960   -2.185860    1.202720
     12          1           0       -3.594830   -2.675841   -0.929589
     13          1           0       -2.675891    3.696719   -1.198050
     14          1           0       -0.167459    3.750790   -0.364307
     15          1           0       -3.787671    1.382249   -0.306561
     16          1           0       -2.785090   -0.329908    1.507190
     17          1           0       -1.291730   -0.027485    2.260490
     18          1           0        0.289410   -1.167570   -1.009650
     19          1           0        5.075590    0.486994    0.226740
     20          1           0        4.490639    1.766081   -0.954190
     21          1           0        1.128259    0.981136   -0.440145
     22          1           0        2.722749    1.345851    0.977729
     23          1           0        3.208200   -1.237869    1.202720
     24          1           0        2.541070   -2.505319   -0.736712
     25          1           0        2.201570   -1.049949   -1.570980
     26          1           0        4.544750    0.093897   -1.440710
     27          7           0        2.716140   -1.553489   -0.835552
     28          7           0        0.159073   -1.076550    0.012772
     29          7           0       -0.508401    1.947020    0.452969
     30          7           0       -2.264961    2.940449   -0.566109
     31          8           0       -1.672980   -2.057820   -1.749860
     32          8           0        0.898896   -0.900795    2.109600
     33          8           0        2.000839    1.128621   -0.811337
     34          8           0       -3.258190   -2.158151   -0.205934
 ---------------------------------------------------------------------

 SCF Done:  E(RHF) =  -909.421967283     A.U. after    2 cycles

 The electronic state is 1-A.
 Alpha  occ. eigenvalues --  -21.14447 -21.06707 -21.03707 -21.01577 -15.81202
 Alpha  occ. eigenvalues --  -15.75153 -15.73125 -15.72261 -11.55887 -11.52109
 Alpha  occ. eigenvalues --  -11.48929 -11.46837 -11.45693 -11.44456 -11.43816
 Alpha  occ. eigenvalues --  -11.41706 -11.38831 -11.36335  -1.86214  -1.72979
 Alpha  occ. eigenvalues --   -1.70569  -1.66596  -1.55665  -1.41596  -1.33920
 Alpha  occ. eigenvalues --   -1.27824  -1.17934  -1.10248  -1.07972  -1.00060
 Alpha  occ. eigenvalues --   -0.97180  -0.85347  -0.84846  -0.81862  -0.79355
 Alpha  occ. eigenvalues --   -0.77991  -0.73814  -0.71347  -0.69163  -0.68287
 Alpha  occ. eigenvalues --   -0.64774  -0.64167  -0.60927  -0.60446  -0.59523
 Alpha  occ. eigenvalues --   -0.57872  -0.56887  -0.55930  -0.54975  -0.54400
 Alpha  occ. eigenvalues --   -0.52330  -0.51928  -0.50249  -0.48704  -0.47696
 Alpha  occ. eigenvalues --   -0.45904  -0.45632  -0.44580  -0.40643  -0.37660
 Alpha  occ. eigenvalues --   -0.37509  -0.36392  -0.35478  -0.31793  -0.31729
 Alpha  occ. eigenvalues --   -0.30387  -0.29026  -0.25511
 Alpha virt. eigenvalues --    0.03075   0.04104   0.04657   0.05146   0.05457
 Alpha virt. eigenvalues --    0.05785   0.06043   0.06424   0.06539   0.07132
 Alpha virt. eigenvalues --    0.07469   0.08112   0.08254   0.08910   0.09942

 Mulliken charges:
               1
     1  C   -3.176391
     2  C    0.445388
     3  C    5.293041
     4  C   -3.144853
     5  C    8.026263
     6  C   -2.193239
     7  C   -4.525204
     8  C    1.165600
     9  C    7.806977
    10  C   -2.923215
    11  H    1.844557
    12  H    0.899913
    13  H    0.839004
    14  H    1.848452
    15  H    1.363590
    16  H    1.508418
    17  H    1.261688
    18  H    0.801878
    19  H    1.199501
    20  H    1.173664
    21  H    1.576184
    22  H    1.943224
    23  H    1.679069
    24  H    0.689738
    25  H    0.569185
    26  H    1.333109
    27  N   -3.031175
    28  N   -1.853770
    29  N   -4.015976
    30  N   -3.157696
    31  O   -3.234766
    32  O   -4.325237
    33  O   -4.065994
    34  O   -3.620924
 Sum of Mulliken charges =  -0.00000

 Dipole moment (field-independent basis, Debye):
    X=             -4.2282    Y=              1.7106    Z=             -2.0691  Tot=              5.0085

 Test job not archived.
 1\1\GINC-SE186\SP\RHF\Aug-CC-pVDZ\C10H16N4O4\OHZDE\08-Apr-2025\0\\#t h
 f aug-cc-pvdz iop(5/13=1,5/36=2,99/5=2) pseudo=read geom=check guess=(
 read,tcheck) scf=(maxcycle=1)\\title\\0,1\C,0,2.58532,-0.799662,0.3876
 06\C,0,-0.921921,3.05821,-0.132395\C,0,-1.66606,1.15354,0.528884\C,0,-
 1.75503,-0.14779,1.27404\C,0,-2.03352,-1.82956,-0.603274\C,0,-2.71441,
 1.72937,-0.18513\C,0,4.34407,0.741818,-0.575794\C,0,2.96212,0.668281,0
 .0759673\C,0,1.14322,-0.924257,0.929546\C,0,-1.1618,-1.35341,0.531389\
 H,0,-1.05296,-2.18586,1.20272\H,0,-3.59483,-2.67584,-0.929589\H,0,-2.6

 Normal termination of Gaussian 16 at Tue Apr  8 22:07:49 2025.
