 Gaussian 16, Revision C.01,

 ----------------------------------------------------------------------
 #t hf aug-cc-pvdz symm=none int=(grid=ultrafine) guess=(read,tcheck) s
 table=(opt,rrhf)
 ----------------------------------------------------------------------
 -----
 title
 -----
 Symbolic Z-matrix:
 Charge =  0 Multiplicity = 1

 SCF Done:  E(RHF) =  -217.921047819     A.U. after   12 cycles
 Normal termination of Gaussian 16 at Tue Apr  8 21:17:22 2025.
 Gaussian 16:  ES64L-G16RevC.01  3-Jul-2019

 ----------------------------------------------------------------------
 #t hf aug-cc-pvdz iop(5/13=1,5/36=2,99/5=2) pseudo=read geom=check gue
 ss=(read,tcheck) scf=(maxcycle=1)
 ----------------------------------------------------------------------
 -----
 title
 -----
 Structure from the checkpoint file:  "ANI1ccx_1908_conf4_mol1.chk"
 Charge =  0 Multiplicity = 1

                         Standard orientation:
 ---------------------------------------------------------------------
 Center     Atomic      Atomic             Coordinates (Angstroms)
 Number     Number       Type             X           Y           Z
 ---------------------------------------------------------------------
      1          7           0       -2.061510   -0.496613   -0.065498
      2          7           0       -2.524570    0.497171    0.038083
      3          7           0        2.772640    0.242268   -0.092362
      4          7           0        1.813440   -0.242826    0.119776
 ---------------------------------------------------------------------

 SCF Done:  E(RHF) =  -218.817869010     A.U. after    2 cycles

 The electronic state is 1-A.
 Alpha  occ. eigenvalues --  -15.87440 -15.87393 -15.87303 -15.87254  -1.56787
 Alpha  occ. eigenvalues --   -1.56392  -0.79000  -0.78792  -0.58519  -0.58094
 Alpha  occ. eigenvalues --   -0.57979  -0.57956  -0.57625  -0.57538
 Alpha virt. eigenvalues --    0.10777   0.11514   0.12885   0.13258   0.13874
 Alpha virt. eigenvalues --    0.14159   0.14612   0.15013   0.16082   0.16459
 Alpha virt. eigenvalues --    0.17767   0.19649   0.22196   0.28219   0.29330

 Mulliken charges:
               1
     1  N    0.010001
     2  N   -0.005379
     3  N    0.255462
     4  N   -0.260084
 Sum of Mulliken charges =   0.00000

 Dipole moment (field-independent basis, Debye):
    X=              0.0122    Y=             -0.0173    Z=              0.0029  Tot=              0.0213

 Test job not archived.
 1\1\GINC-SE043\SP\RHF\Aug-CC-pVDZ\N4\OHZDE\08-Apr-2025\0\\#t hf aug-cc
 -pvdz iop(5/13=1,5/36=2,99/5=2) pseudo=read geom=check guess=(read,tch
 eck) scf=(maxcycle=1)\\title\\0,1\N,0,-2.06151,-0.496613,-0.0654975\N,
 0,-2.52457,0.497171,0.0380834\N,0,2.77264,0.242268,-0.0923614\N,0,1.81
 344,-0.242826,0.119776\\Version=ES64L-G16RevC.01\State=1-A\HF=-218.817
 869\RMSD=1.657e-01\Dipole=0.0047959,-0.0067995,0.0011213\Quadrupole=-0
 .1921099,-0.1975107,0.3896207,-0.0043004,0.1278052,0.0009985\PG=C01 [X
 (N4)]\\@

 Normal termination of Gaussian 16 at Tue Apr  8 21:17:24 2025.
