 Gaussian 16, Revision C.01,

 ----------------------------------------------------------------------
 #t hf aug-cc-pvdz symm=none int=(grid=ultrafine) guess=(read,tcheck) s
 table=(opt,rrhf)
 ----------------------------------------------------------------------
 -----
 title
 -----
 Symbolic Z-matrix:
 Charge =  0 Multiplicity = 1

 SCF Done:  E(RHF) =  -660.938919000     A.U. after   17 cycles
 Normal termination of Gaussian 16 at Tue Apr  8 20:34:17 2025.
 Gaussian 16:  ES64L-G16RevC.01  3-Jul-2019

 ----------------------------------------------------------------------
 #t hf aug-cc-pvdz iop(5/13=1,5/36=2,99/5=2) pseudo=read geom=check gue
 ss=(read,tcheck) scf=(maxcycle=1)
 ----------------------------------------------------------------------
 -----
 title
 -----
 Structure from the checkpoint file:  "ANI1ccx_1675_conf1_mol2.chk"
 Charge =  0 Multiplicity = 1

                         Standard orientation:
 ---------------------------------------------------------------------
 Center     Atomic      Atomic             Coordinates (Angstroms)
 Number     Number       Type             X           Y           Z
 ---------------------------------------------------------------------
      1          6           0        1.467009   -1.097322    0.472170
      2          6           0       -0.741339   -0.818631   -0.149731
      3          6           0       -1.955771   -1.505810   -0.157268
      4          6           0       -3.126171   -0.777702   -0.079726
      5          6           0       -3.123720    0.596357    0.081778
      6          6           0       -1.894330    1.275490    0.224461
      7          6           0       -0.713506    0.552722    0.063599
      8          6           0        1.701990    0.413915    0.135955
      9          1           0        1.706881    2.607158   -0.305083
     10          1           0       -1.858599    2.375750    0.491419
     11          1           0       -4.097410    1.097371    0.114265
     12          1           0        1.171909   -1.311731    1.501660
     13          1           0       -1.940681   -2.589840   -0.292429
     14          1           0        3.222989   -1.031702   -0.269764
     15          1           0       -4.094771   -1.270429   -0.161404
     16          7           0        0.578838    1.150309    0.148929
     17          8           0        0.716919    2.468549   -0.229379
     18          8           0        2.625219   -1.750682    0.058406
     19          8           0        0.390676   -1.563211   -0.316055
     20          8           0        2.786290    0.874988   -0.221546
 ---------------------------------------------------------------------

 SCF Done:  E(RHF) =  -663.816784594     A.U. after    2 cycles

 The electronic state is 1-A.
 Alpha  occ. eigenvalues --  -21.12745 -21.09815 -21.08707 -21.07294 -15.83111
 Alpha  occ. eigenvalues --  -11.56476 -11.55884 -11.49894 -11.48250 -11.48000
 Alpha  occ. eigenvalues --  -11.44079 -11.43165 -11.39064  -1.89162  -1.83381
 Alpha  occ. eigenvalues --   -1.73732  -1.68868  -1.39118  -1.29671  -1.11360
 Alpha  occ. eigenvalues --   -1.10643  -0.98919  -0.91508  -0.90033  -0.79483
 Alpha  occ. eigenvalues --   -0.77492  -0.72047  -0.70005  -0.65998  -0.64731
 Alpha  occ. eigenvalues --   -0.62244  -0.60409  -0.58380  -0.55547  -0.55117
 Alpha  occ. eigenvalues --   -0.51984  -0.50260  -0.48282  -0.46071  -0.44146
 Alpha  occ. eigenvalues --   -0.42180  -0.39422  -0.37167  -0.35116  -0.33727
 Alpha  occ. eigenvalues --   -0.30117  -0.26237
 Alpha virt. eigenvalues --    0.03227   0.04890   0.05143   0.05549   0.06495
 Alpha virt. eigenvalues --    0.06551   0.07379   0.08814   0.09305   0.09944
 Alpha virt. eigenvalues --    0.10694   0.11351   0.12027   0.12393   0.12821

 Mulliken charges:
               1
     1  C    2.163477
     2  C    4.764425
     3  C   -2.653312
     4  C   -0.929502
     5  C   -1.864090
     6  C   -1.751872
     7  C    2.889073
     8  C    3.809377
     9  H    1.005120
    10  H    1.797911
    11  H    1.519455
    12  H    1.742764
    13  H    1.761824
    14  H    0.597659
    15  H    1.492741
    16  N   -2.031481
    17  O   -3.079866
    18  O   -3.113155
    19  O   -4.792978
    20  O   -3.327570
 Sum of Mulliken charges =   0.00000

 Dipole moment (field-independent basis, Debye):
    X=             -1.8159    Y=              0.5797    Z=              0.1976  Tot=              1.9164

 Test job not archived.
 1\1\GINC-SE364\SP\RHF\Aug-CC-pVDZ\C8H7N1O4\OHZDE\08-Apr-2025\0\\#t hf
 aug-cc-pvdz iop(5/13=1,5/36=2,99/5=2) pseudo=read geom=check guess=(re
 ad,tcheck) scf=(maxcycle=1)\\title\\0,1\C,0,1.46701,-1.09732,0.47217\C
 ,0,-0.741338,-0.818631,-0.149731\C,0,-1.95577,-1.50581,-0.157268\C,0,-
 3.12617,-0.777703,-0.0797259\C,0,-3.12372,0.596356,0.0817777\C,0,-1.89
 433,1.27549,0.224461\C,0,-0.713506,0.552722,0.0635993\C,0,1.70199,0.41
 3917,0.135955\H,0,1.70688,2.60716,-0.305083\H,0,-1.8586,2.37575,0.4914
 19\H,0,-4.09741,1.09737,0.114265\H,0,1.17191,-1.31173,1.50166\H,0,-1.9

 Normal termination of Gaussian 16 at Tue Apr  8 20:34:32 2025.
