 Gaussian 16, Revision C.01,

 ----------------------------------------------------------------------
 #t hf aug-cc-pvdz symm=none int=(grid=ultrafine) guess=(read,tcheck) s
 table=(opt,rrhf)
 ----------------------------------------------------------------------
 -----
 title
 -----
 Symbolic Z-matrix:
 Charge =  0 Multiplicity = 1

 SCF Done:  E(RHF) =  -222.377689583     A.U. after   12 cycles
 Normal termination of Gaussian 16 at Tue Apr  8 21:14:24 2025.
 Gaussian 16:  ES64L-G16RevC.01  3-Jul-2019

 ----------------------------------------------------------------------
 #t hf aug-cc-pvdz iop(5/13=1,5/36=2,99/5=2) pseudo=read geom=check gue
 ss=(read,tcheck) scf=(maxcycle=1)
 ----------------------------------------------------------------------
 -----
 title
 -----
 Structure from the checkpoint file:  "ANI1ccx_1903_conf9_mol1.chk"
 Charge =  0 Multiplicity = 1

                         Standard orientation:
 ---------------------------------------------------------------------
 Center     Atomic      Atomic             Coordinates (Angstroms)
 Number     Number       Type             X           Y           Z
 ---------------------------------------------------------------------
      1          1           0       -2.974290   -0.307409   -0.796249
      2          1           0       -2.979840    0.438738    0.659527
      3          1           0       -1.136360   -1.119930    0.770343
      4          1           0       -0.448154    0.382195    0.442062
      5          1           0        2.247540   -1.033301    0.700810
      6          1           0        0.965334   -1.059130   -0.414076
      7          1           0        1.747641    1.295650   -0.799457
      8          1           0        2.355871    1.203069    0.654108
      9          7           0       -2.368060    0.303245   -0.152352
     10          7           0       -1.093990   -0.345094    0.136971
     11          7           0        1.842060   -0.669943   -0.219783
     12          7           0        1.651740    0.740381    0.061298
 ---------------------------------------------------------------------

 SCF Done:  E(RHF) =  -223.437534852     A.U. after    2 cycles

 The electronic state is 1-A.
 Alpha  occ. eigenvalues --  -15.74641 -15.74302 -15.74105 -15.73411  -1.41670
 Alpha  occ. eigenvalues --   -1.39056  -1.07400  -1.06084  -0.68830  -0.65996
 Alpha  occ. eigenvalues --   -0.62965  -0.59142  -0.57438  -0.54429  -0.46772
 Alpha  occ. eigenvalues --   -0.37477  -0.35008  -0.29608
 Alpha virt. eigenvalues --    0.04159   0.04598   0.05018   0.06087   0.06914
 Alpha virt. eigenvalues --    0.07552   0.08942   0.09370   0.16027   0.17132
 Alpha virt. eigenvalues --    0.17631   0.18094   0.18476   0.19086   0.19557

 Mulliken charges:
               1
     1  H    0.656988
     2  H    0.631535
     3  H    0.654064
     4  H    0.868411
     5  H    0.608505
     6  H    0.806363
     7  H    0.731562
     8  H    0.678318
     9  N   -1.421746
    10  N   -1.276692
    11  N   -1.397426
    12  N   -1.539881
 Sum of Mulliken charges =  -0.00000

 Dipole moment (field-independent basis, Debye):
    X=             -0.0103    Y=             -0.4602    Z=              1.7993  Tot=              1.8573

 Test job not archived.
 1\1\GINC-SE072\SP\RHF\Aug-CC-pVDZ\H8N4\OHZDE\08-Apr-2025\0\\#t hf aug-
 cc-pvdz iop(5/13=1,5/36=2,99/5=2) pseudo=read geom=check guess=(read,t
 check) scf=(maxcycle=1)\\title\\0,1\H,0,-2.97429,-0.30741,-0.796249\H,
 0,-2.97984,0.438737,0.659527\H,0,-1.13636,-1.11993,0.770343\H,0,-0.448
 154,0.382195,0.442062\H,0,2.24754,-1.0333,0.70081\H,0,0.965334,-1.0591
 3,-0.414076\H,0,1.74764,1.29565,-0.799457\H,0,2.35587,1.20307,0.654108
 \N,0,-2.36806,0.303244,-0.152352\N,0,-1.09399,-0.345094,0.136971\N,0,1
 .84206,-0.669943,-0.219783\N,0,1.65174,0.740381,0.0612976\\Version=ES6

 Normal termination of Gaussian 16 at Tue Apr  8 21:14:27 2025.
