 Gaussian 16, Revision C.01,

 ----------------------------------------------------------------------
 #t hf aug-cc-pvdz symm=none int=(grid=ultrafine) guess=(read,tcheck) s
 table=(opt,rrhf)
 ----------------------------------------------------------------------
 -----
 title
 -----
 Symbolic Z-matrix:
 Charge =  0 Multiplicity = 1

 SCF Done:  E(RHF) =  -370.444881135     A.U. after   16 cycles
 Normal termination of Gaussian 16 at Tue Apr  8 22:01:44 2025.
 Gaussian 16:  ES64L-G16RevC.01  3-Jul-2019

 ----------------------------------------------------------------------
 #t hf aug-cc-pvdz iop(5/13=1,5/36=2,99/5=2) pseudo=read geom=check gue
 ss=(read,tcheck) scf=(maxcycle=1)
 ----------------------------------------------------------------------
 -----
 title
 -----
 Structure from the checkpoint file:  "ANI1ccx_855_conf4_mol1.chk"
 Charge =  0 Multiplicity = 1

                         Standard orientation:
 ---------------------------------------------------------------------
 Center     Atomic      Atomic             Coordinates (Angstroms)
 Number     Number       Type             X           Y           Z
 ---------------------------------------------------------------------
      1          6           0        1.914880    0.061600    0.007308
      2          6           0        0.518218    0.056119   -0.023468
      3          6           0       -1.460171    1.114079    0.025518
      4          6           0       -1.340250   -1.163071   -0.061279
      5          1           0       -2.016571    2.041908    0.018736
      6          1           0       -1.890039   -2.076862   -0.041399
      7          7           0        3.093370   -0.020426    0.045924
      8          7           0       -0.128345    1.194929   -0.085052
      9          7           0       -2.103920   -0.090158    0.094441
     10          7           0        0.011831   -1.138261   -0.007573
 ---------------------------------------------------------------------

 SCF Done:  E(RHF) =  -372.069209719     A.U. after    2 cycles

 The electronic state is 1-A.
 Alpha  occ. eigenvalues --  -15.79968 -15.78977 -15.78883 -15.78786 -11.54478
 Alpha  occ. eigenvalues --  -11.50368 -11.49571 -11.45716  -1.61705  -1.38371
 Alpha  occ. eigenvalues --   -1.36437  -1.30039  -1.03972  -1.00243  -0.84833
 Alpha  occ. eigenvalues --   -0.72049  -0.67961  -0.66173  -0.63262  -0.59301
 Alpha  occ. eigenvalues --   -0.54160  -0.50953  -0.46020  -0.44635  -0.41587
 Alpha  occ. eigenvalues --   -0.40503  -0.39783
 Alpha virt. eigenvalues --    0.02757   0.04716   0.05958   0.06508   0.07839
 Alpha virt. eigenvalues --    0.09115   0.09355   0.09915   0.10183   0.12736
 Alpha virt. eigenvalues --    0.12958   0.13362   0.13756   0.14532   0.14974

 Mulliken charges:
               1
     1  C    0.932424
     2  C    4.808157
     3  C    1.266461
     4  C    1.368240
     5  H    1.695716
     6  H    1.685037
     7  N   -2.366696
     8  N   -3.219102
     9  N   -2.905474
    10  N   -3.264763
 Sum of Mulliken charges =  -0.00000

 Dipole moment (field-independent basis, Debye):
    X=             -3.5691    Y=              0.0870    Z=             -0.1038  Tot=              3.5716

 Test job not archived.
 1\1\GINC-SE334\SP\RHF\Aug-CC-pVDZ\C4H2N4\OHZDE\08-Apr-2025\0\\#t hf au
 g-cc-pvdz iop(5/13=1,5/36=2,99/5=2) pseudo=read geom=check guess=(read
 ,tcheck) scf=(maxcycle=1)\\title\\0,1\C,0,1.91488,0.0616003,0.00730826
 \C,0,0.518218,0.0561193,-0.0234683\C,0,-1.46017,1.11408,0.0255185\C,0,
 -1.34025,-1.16307,-0.0612786\H,0,-2.01657,2.04191,0.0187363\H,0,-1.890
 04,-2.07686,-0.041399\N,0,3.09337,-0.020426,0.0459244\N,0,-0.128344,1.
 19493,-0.0850517\N,0,-2.10392,-0.0901562,0.094441\N,0,0.0118303,-1.138
 26,-0.00757314\\Version=ES64L-G16RevC.01\State=1-A\HF=-372.0692097\RMS

 Normal termination of Gaussian 16 at Tue Apr  8 22:01:47 2025.
