 Gaussian 16, Revision C.01,

 ----------------------------------------------------------------------
 #t hf aug-cc-pvdz symm=none int=(grid=ultrafine) guess=(read,tcheck) s
 table=(opt,rrhf)
 ----------------------------------------------------------------------
 -----
 title
 -----
 Symbolic Z-matrix:
 Charge =  0 Multiplicity = 1

 SCF Done:  E(RHF) =  -460.222817362     A.U. after   17 cycles
 Normal termination of Gaussian 16 at Tue Apr  8 21:34:40 2025.
 Gaussian 16:  ES64L-G16RevC.01  3-Jul-2019

 ----------------------------------------------------------------------
 #t hf aug-cc-pvdz iop(5/13=1,5/36=2,99/5=2) pseudo=read geom=check gue
 ss=(read,tcheck) scf=(maxcycle=1)
 ----------------------------------------------------------------------
 -----
 title
 -----
 Structure from the checkpoint file:  "ANI1ccx_373_conf23_mol1.chk"
 Charge =  0 Multiplicity = 1

                         Standard orientation:
 ---------------------------------------------------------------------
 Center     Atomic      Atomic             Coordinates (Angstroms)
 Number     Number       Type             X           Y           Z
 ---------------------------------------------------------------------
      1          6           0       -0.045369   -0.037372   -0.120827
      2          1           0        2.767520    1.061990   -0.218346
      3          7           0       -1.465680    0.019616    0.071421
      4          7           0        0.804282   -1.120080    0.127446
      5          7           0        2.110420   -0.702847    0.240419
      6          7           0        1.972340    0.547491   -0.121638
      7          7           0        0.740177    0.983128   -0.246151
      8          8           0       -1.774530    1.120139    0.295172
      9          8           0       -2.178730   -0.986253   -0.239818
 ---------------------------------------------------------------------

 SCF Done:  E(RHF) =  -462.177502233     A.U. after    2 cycles

 The electronic state is 1-A.
 Alpha  occ. eigenvalues --  -21.15713 -21.11140 -16.05027 -15.91985 -15.87194
 Alpha  occ. eigenvalues --  -15.84116 -15.81296 -11.51511  -2.05233  -1.80145
 Alpha  occ. eigenvalues --   -1.72757  -1.40577  -1.37380  -1.11915  -0.97723
 Alpha  occ. eigenvalues --   -0.84630  -0.80487  -0.75768  -0.73073  -0.68862
 Alpha  occ. eigenvalues --   -0.65119  -0.56790  -0.50581  -0.44331  -0.43090
 Alpha  occ. eigenvalues --   -0.42296  -0.38320  -0.34983  -0.34005
 Alpha virt. eigenvalues --    0.02852   0.08372   0.08768   0.09991   0.10498
 Alpha virt. eigenvalues --    0.11257   0.12616   0.12657   0.13316   0.15084
 Alpha virt. eigenvalues --    0.15657   0.16722   0.17330   0.17912   0.19460

 Mulliken charges:
               1
     1  C    4.306751
     2  H    1.019460
     3  N    3.643909
     4  N   -1.405330
     5  N   -0.516589
     6  N    0.072982
     7  N   -1.700045
     8  O   -2.906668
     9  O   -2.514471
 Sum of Mulliken charges =   0.00000

 Dipole moment (field-independent basis, Debye):
    X=              3.0296    Y=              2.3080    Z=             -0.4497  Tot=              3.8350

 Test job not archived.
 1\1\GINC-SE110\SP\RHF\Aug-CC-pVDZ\C1H1N5O2\OHZDE\08-Apr-2025\0\\#t hf
 aug-cc-pvdz iop(5/13=1,5/36=2,99/5=2) pseudo=read geom=check guess=(re
 ad,tcheck) scf=(maxcycle=1)\\title\\0,1\C,0,-0.0453685,-0.0373711,-0.1
 20827\H,0,2.76752,1.06199,-0.218346\N,0,-1.46568,0.0196174,0.0714205\N
 ,0,0.804282,-1.12008,0.127446\N,0,2.11042,-0.702847,0.240419\N,0,1.972
 34,0.547491,-0.121638\N,0,0.740177,0.983128,-0.246151\O,0,-1.77453,1.1
 2014,0.295172\O,0,-2.17873,-0.986251,-0.239818\\Version=ES64L-G16RevC.
 01\State=1-A\HF=-462.1775022\RMSD=9.361e-02\Dipole=1.191918,0.9080518,

 Normal termination of Gaussian 16 at Tue Apr  8 21:34:44 2025.
