 Gaussian 16, Revision C.01,

 ----------------------------------------------------------------------
 #t hf aug-cc-pvdz symm=none int=(grid=ultrafine) guess=(read,tcheck) s
 table=(opt,rrhf)
 ----------------------------------------------------------------------
 -----
 title
 -----
 Symbolic Z-matrix:
 Charge =  0 Multiplicity = 1

 SCF Done:  E(RHF) =  -489.695641825     A.U. after   14 cycles
 Normal termination of Gaussian 16 at Tue Apr  8 22:16:10 2025.
 Gaussian 16:  ES64L-G16RevC.01  3-Jul-2019

 ----------------------------------------------------------------------
 #t hf aug-cc-pvdz iop(5/13=1,5/36=2,99/5=2) pseudo=read geom=check gue
 ss=(read,tcheck) scf=(maxcycle=1)
 ----------------------------------------------------------------------
 -----
 title
 -----
 Structure from the checkpoint file:  "ANI1ccx_957_conf23_mol1.chk"
 Charge =  0 Multiplicity = 1

                         Standard orientation:
 ---------------------------------------------------------------------
 Center     Atomic      Atomic             Coordinates (Angstroms)
 Number     Number       Type             X           Y           Z
 ---------------------------------------------------------------------
      1          6           0       -0.706998    0.302598   -0.922273
      2          6           0       -1.431509   -0.588670    0.133127
      3          6           0        0.799636   -0.180981   -1.157600
      4          6           0        1.705681   -0.130547    0.056122
      5          1           0       -1.458309    0.998766    0.990206
      6          1           0        2.017041    0.728738    1.856940
      7          1           0        0.528678    1.172669    1.250610
      8          1           0        1.294641    0.457510   -1.950330
      9          1           0       -1.187349    0.152071   -1.908580
     10          1           0       -0.086292    2.281249   -0.841494
     11          1           0       -1.617539    2.169250   -0.830187
     12          1           0        0.838687   -1.186371   -1.607040
     13          7           0       -0.837381    1.688630   -0.570793
     14          7           0        1.373741    0.758864    1.095340
     15          8           0        2.652551   -0.847635    0.126319
     16          8           0       -1.678549   -1.772000   -0.076476
     17          8           0       -1.759619    0.079544    1.289130
 ---------------------------------------------------------------------

 SCF Done:  E(RHF) =  -491.862174313     A.U. after    2 cycles

 The electronic state is 1-A.
 Alpha  occ. eigenvalues --  -21.11921 -21.05799 -21.04041 -15.79541 -15.78205
 Alpha  occ. eigenvalues --  -11.54383 -11.52896 -11.48391 -11.43231  -1.80816
 Alpha  occ. eigenvalues --   -1.73030  -1.65336  -1.41880  -1.34339  -1.15172
 Alpha  occ. eigenvalues --   -1.00113  -0.83049  -0.77771  -0.75625  -0.74004
 Alpha  occ. eigenvalues --   -0.68545  -0.66467  -0.61572  -0.60168  -0.56653
 Alpha  occ. eigenvalues --   -0.52470  -0.51024  -0.50715  -0.47947  -0.46421
 Alpha  occ. eigenvalues --   -0.40873  -0.34726  -0.32961  -0.29802  -0.29373
 Alpha virt. eigenvalues --    0.02450   0.03842   0.04506   0.04757   0.05864
 Alpha virt. eigenvalues --    0.07071   0.07828   0.08944   0.09719   0.11090
 Alpha virt. eigenvalues --    0.11391   0.11909   0.12884   0.13720   0.14192

 Mulliken charges:
               1
     1  C   -0.879545
     2  C    6.086679
     3  C   -3.031358
     4  C    5.001083
     5  H    1.415068
     6  H    0.710966
     7  H    0.839931
     8  H    1.307747
     9  H    1.452567
    10  H    0.671323
    11  H    0.588052
    12  H    1.267356
    13  N   -2.679958
    14  N   -3.044531
    15  O   -3.358185
    16  O   -3.250852
    17  O   -3.096343
 Sum of Mulliken charges =  -0.00000

 Dipole moment (field-independent basis, Debye):
    X=             -0.8924    Y=              4.0882    Z=             -0.9329  Tot=              4.2872

 Test job not archived.
 1\1\GINC-SE110\SP\RHF\Aug-CC-pVDZ\C4H8N2O3\OHZDE\08-Apr-2025\0\\#t hf
 aug-cc-pvdz iop(5/13=1,5/36=2,99/5=2) pseudo=read geom=check guess=(re
 ad,tcheck) scf=(maxcycle=1)\\title\\0,1\C,0,-0.706999,0.302598,-0.9222
 73\C,0,-1.43151,-0.58867,0.133127\C,0,0.799635,-0.18098,-1.1576\C,0,1.
 70568,-0.130546,0.0561221\H,0,-1.45831,0.998766,0.990206\H,0,2.01704,0
 .728739,1.85694\H,0,0.528677,1.17267,1.25061\H,0,1.29464,0.457511,-1.9
 5033\H,0,-1.18735,0.152071,-1.90858\H,0,-0.0862933,2.28125,-0.841494\H
 ,0,-1.61754,2.16925,-0.830187\H,0,0.838686,-1.18637,-1.60704\N,0,-0.83

 Normal termination of Gaussian 16 at Tue Apr  8 22:16:17 2025.
