 Gaussian 16, Revision C.01,

 ----------------------------------------------------------------------
 #t hf aug-cc-pvdz symm=none int=(grid=ultrafine) guess=(read,tcheck) s
 table=(opt,rrhf)
 ----------------------------------------------------------------------
 -----
 title
 -----
 Symbolic Z-matrix:
 Charge =  0 Multiplicity = 1

 SCF Done:  E(RHF) =  -353.615669122     A.U. after   14 cycles
 Normal termination of Gaussian 16 at Tue Apr  8 21:51:57 2025.
 Gaussian 16:  ES64L-G16RevC.01  3-Jul-2019

 ----------------------------------------------------------------------
 #t hf aug-cc-pvdz iop(5/13=1,5/36=2,99/5=2) pseudo=read geom=check gue
 ss=(read,tcheck) scf=(maxcycle=1)
 ----------------------------------------------------------------------
 -----
 title
 -----
 Structure from the checkpoint file:  "ANI1ccx_675_conf4_mol1.chk"
 Charge =  0 Multiplicity = 1

                         Standard orientation:
 ---------------------------------------------------------------------
 Center     Atomic      Atomic             Coordinates (Angstroms)
 Number     Number       Type             X           Y           Z
 ---------------------------------------------------------------------
      1          6           0        0.821730   -0.071573   -0.020767
      2          6           0       -1.058549    1.139443   -0.032580
      3          6           0       -1.104373   -1.060937    0.022868
      4          1           0        2.495171    0.789534    0.328704
      5          1           0       -1.507947    2.100004    0.050757
      6          1           0       -1.682904   -1.979716    0.111646
      7          7           0        0.298399    1.116731   -0.035453
      8          7           0       -1.755111    0.060245    0.039992
      9          7           0        0.179563   -1.206149   -0.056850
     10          8           0        2.210359   -0.093401    0.007244
 ---------------------------------------------------------------------

 SCF Done:  E(RHF) =  -355.162206456     A.U. after    2 cycles

 The electronic state is 1-A.
 Alpha  occ. eigenvalues --  -21.11547 -15.75720 -15.75366 -15.75243 -11.51372
 Alpha  occ. eigenvalues --  -11.47913 -11.46571  -1.78169  -1.58452  -1.35358
 Alpha  occ. eigenvalues --   -1.32655  -0.98979  -0.94088  -0.77046  -0.71668
 Alpha  occ. eigenvalues --   -0.65943  -0.62757  -0.59419  -0.56621  -0.50298
 Alpha  occ. eigenvalues --   -0.46703  -0.43509  -0.38369  -0.37132  -0.34409
 Alpha virt. eigenvalues --    0.03438   0.05215   0.05618   0.08559   0.09598
 Alpha virt. eigenvalues --    0.09881   0.09962   0.11011   0.12460   0.12889
 Alpha virt. eigenvalues --    0.13930   0.14507   0.15025   0.15224   0.16183

 Mulliken charges:
               1
     1  C    5.210702
     2  C    1.502669
     3  C    1.435894
     4  H    0.687587
     5  H    1.628039
     6  H    1.620017
     7  N   -2.898838
     8  N   -3.148877
     9  N   -3.225496
    10  O   -2.811698
 Sum of Mulliken charges =  -0.00000

 Dipole moment (field-independent basis, Debye):
    X=              0.0616    Y=              0.8212    Z=              0.2806  Tot=              0.8700

 Test job not archived.
 1\1\GINC-SE249\SP\RHF\Aug-CC-pVDZ\C3H3N3O1\OHZDE\08-Apr-2025\0\\#t hf
 aug-cc-pvdz iop(5/13=1,5/36=2,99/5=2) pseudo=read geom=check guess=(re
 ad,tcheck) scf=(maxcycle=1)\\title\\0,1\C,0,0.821731,-0.0715727,-0.020
 7667\C,0,-1.05855,1.13944,-0.0325797\C,0,-1.10437,-1.06094,0.0228677\H
 ,0,2.49517,0.789537,0.328704\H,0,-1.50795,2.1,0.0507566\H,0,-1.6829,-1
 .97972,0.111646\N,0,0.298398,1.11673,-0.0354531\N,0,-1.75511,0.0602405
 ,0.0399917\N,0,0.179566,-1.20615,-0.0568503\O,0,2.21036,-0.0933986,0.0
 0724356\\Version=ES64L-G16RevC.01\State=1-A\HF=-355.1622065\RMSD=7.723

 Normal termination of Gaussian 16 at Tue Apr  8 21:52:01 2025.
