 Gaussian 16, Revision C.01,

 ----------------------------------------------------------------------
 #t hf aug-cc-pvdz symm=none int=(grid=ultrafine) guess=(read,tcheck) s
 table=(opt,rrhf)
 ----------------------------------------------------------------------
 -----
 title
 -----
 Symbolic Z-matrix:
 Charge =  0 Multiplicity = 1

 SCF Done:  E(RHF) =  -642.649607038     A.U. after   14 cycles
 Normal termination of Gaussian 16 at Tue Apr  8 19:29:30 2025.
 Gaussian 16:  ES64L-G16RevC.01  3-Jul-2019

 ----------------------------------------------------------------------
 #t hf aug-cc-pvdz iop(5/13=1,5/36=2,99/5=2) pseudo=read geom=check gue
 ss=(read,tcheck) scf=(maxcycle=1)
 ----------------------------------------------------------------------
 -----
 title
 -----
 Structure from the checkpoint file:  "ANI1ccx_1214_conf2_mol1.chk"
 Charge =  0 Multiplicity = 1

                         Standard orientation:
 ---------------------------------------------------------------------
 Center     Atomic      Atomic             Coordinates (Angstroms)
 Number     Number       Type             X           Y           Z
 ---------------------------------------------------------------------
      1          6           0       -1.464749   -0.380465   -0.461267
      2          6           0       -0.068881    0.065381   -0.180642
      3          6           0       -2.544729    0.216634    0.434076
      4          6           0       -2.718999    1.728370    0.426724
      5          6           0        2.077641   -0.609482    0.914733
      6          6           0        3.172491    0.086836    0.035862
      7          1           0        1.916091    1.389029   -0.476820
      8          1           0        2.535331   -1.629631    1.151090
      9          1           0        1.884781   -0.053568    1.822210
     10          1           0        0.320520   -1.710011    0.475887
     11          1           0       -3.598098    1.957720    1.016760
     12          1           0       -1.914418    2.326860    0.813787
     13          1           0       -2.882758    2.186830   -0.562647
     14          1           0       -4.452409   -0.426239    0.612570
     15          1           0       -2.339009   -0.220063    1.409490
     16          1           0       -1.716969    0.016247   -1.493950
     17          1           0       -1.106390   -2.232140   -1.212500
     18          1           0       -2.504979   -2.072250   -0.495272
     19          7           0       -1.538519   -1.829720   -0.434218
     20          7           0        0.827122   -0.886389    0.137468
     21          8           0        0.145767    1.239569   -0.328875
     22          8           0       -3.771809   -0.445000   -0.093133
     23          8           0        4.300731   -0.328978    0.127614
     24          8           0        2.840491    1.138949   -0.705639
 ---------------------------------------------------------------------

 SCF Done:  E(RHF) =  -645.504240466     A.U. after    2 cycles

 The electronic state is 1-A.
 Alpha  occ. eigenvalues --  -21.10331 -21.08481 -21.05379 -21.03877 -15.78454
 Alpha  occ. eigenvalues --  -15.75232 -11.54899 -11.52503 -11.51180 -11.44994
 Alpha  occ. eigenvalues --  -11.44302 -11.38977  -1.81521  -1.76242  -1.71276
 Alpha  occ. eigenvalues --   -1.64556  -1.43935  -1.35543  -1.15521  -1.08937
 Alpha  occ. eigenvalues --   -1.01944  -0.89400  -0.81746  -0.76529  -0.75288
 Alpha  occ. eigenvalues --   -0.70677  -0.69525  -0.66268  -0.64968  -0.62153
 Alpha  occ. eigenvalues --   -0.59565  -0.58062  -0.55483  -0.54236  -0.52904
 Alpha  occ. eigenvalues --   -0.51660  -0.50097  -0.49466  -0.46860  -0.45547
 Alpha  occ. eigenvalues --   -0.42596  -0.39155  -0.35515  -0.34442  -0.32209
 Alpha  occ. eigenvalues --   -0.30841  -0.28307
 Alpha virt. eigenvalues --    0.03261   0.03934   0.04301   0.04673   0.04935
 Alpha virt. eigenvalues --    0.05739   0.05933   0.05999   0.07288   0.08136
 Alpha virt. eigenvalues --    0.08961   0.09388   0.11075   0.11320   0.11823

 Mulliken charges:
               1
     1  C   -2.808155
     2  C    7.967534
     3  C    0.977083
     4  C   -3.640998
     5  C   -3.349968
     6  C    5.521976
     7  H    1.427755
     8  H    1.423326
     9  H    1.565516
    10  H    0.669573
    11  H    1.133975
    12  H    1.395445
    13  H    1.231263
    14  H    0.713122
    15  H    1.620436
    16  H    1.591041
    17  H    0.613294
    18  H    0.710372
    19  N   -2.897840
    20  N   -2.777717
    21  O   -3.934711
    22  O   -2.877163
    23  O   -3.028353
    24  O   -3.246807
 Sum of Mulliken charges =   0.00000

 Dipole moment (field-independent basis, Debye):
    X=             -4.7539    Y=             -1.2735    Z=              0.9090  Tot=              5.0048

 Test job not archived.
 1\1\GINC-SE195\SP\RHF\Aug-CC-pVDZ\C6H12N2O4\OHZDE\08-Apr-2025\0\\#t hf
  aug-cc-pvdz iop(5/13=1,5/36=2,99/5=2) pseudo=read geom=check guess=(r
 ead,tcheck) scf=(maxcycle=1)\\title\\0,1\C,0,-1.46475,-0.380465,-0.461
 267\C,0,-0.0688818,0.0653816,-0.180642\C,0,-2.54473,0.216634,0.434076\
 C,0,-2.719,1.72837,0.426724\C,0,2.07764,-0.609481,0.914733\C,0,3.17249
 ,0.0868373,0.0358619\H,0,1.91609,1.38903,-0.47682\H,0,2.53533,-1.62963
 ,1.15109\H,0,1.88478,-0.053567,1.82221\H,0,0.320519,-1.71001,0.475887\
 H,0,-3.5981,1.95772,1.01676\H,0,-1.91442,2.32686,0.813787\H,0,-2.88276

 Normal termination of Gaussian 16 at Tue Apr  8 19:29:48 2025.
