 Gaussian 16, Revision C.01,

 ----------------------------------------------------------------------
 #t hf aug-cc-pvdz symm=none int=(grid=ultrafine) guess=(read,tcheck) s
 table=(opt,rrhf)
 ----------------------------------------------------------------------
 -----
 title
 -----
 Symbolic Z-matrix:
 Charge =  0 Multiplicity = 1

 SCF Done:  E(RHF) =  -294.641981132     A.U. after   15 cycles
 Normal termination of Gaussian 16 at Tue Apr  8 21:43:45 2025.
 Gaussian 16:  ES64L-G16RevC.01  3-Jul-2019

 ----------------------------------------------------------------------
 #t hf aug-cc-pvdz iop(5/13=1,5/36=2,99/5=2) pseudo=read geom=check gue
 ss=(read,tcheck) scf=(maxcycle=1)
 ----------------------------------------------------------------------
 -----
 title
 -----
 Structure from the checkpoint file:  "ANI1ccx_486_conf4_mol1.chk"
 Charge =  0 Multiplicity = 1

                         Standard orientation:
 ---------------------------------------------------------------------
 Center     Atomic      Atomic             Coordinates (Angstroms)
 Number     Number       Type             X           Y           Z
 ---------------------------------------------------------------------
      1          6           0        1.096898    0.560278   -0.008873
      2          6           0       -1.044494    0.657252   -0.014130
      3          1           0        2.076069    0.978955    0.030068
      4          1           0       -2.041523    1.059477    0.083724
      5          7           0        0.037595    1.400491   -0.009149
      6          7           0       -1.159956   -0.671396    0.014855
      7          7           0       -0.044278   -1.338250   -0.026937
      8          7           0        1.116785   -0.725646    0.024692
 ---------------------------------------------------------------------

 SCF Done:  E(RHF) =  -295.941496952     A.U. after    2 cycles

 The electronic state is 1-A.
 Alpha  occ. eigenvalues --  -15.84941 -15.80222 -15.80187 -15.79637 -11.49126
 Alpha  occ. eigenvalues --  -11.47333  -1.69529  -1.42531  -1.37957  -1.04926
 Alpha  occ. eigenvalues --   -0.99028  -0.78376  -0.72638  -0.66498  -0.60658
 Alpha  occ. eigenvalues --   -0.59981  -0.51346  -0.46688  -0.44742  -0.40653
 Alpha  occ. eigenvalues --   -0.37022
 Alpha virt. eigenvalues --    0.03313   0.05071   0.07274   0.08333   0.09828
 Alpha virt. eigenvalues --    0.10074   0.10184   0.10215   0.14010   0.14556
 Alpha virt. eigenvalues --    0.15239   0.15794   0.16468   0.17902   0.18797

 Mulliken charges:
               1
     1  C    1.319436
     2  C    1.301530
     3  H    1.593184
     4  H    1.594141
     5  N   -2.557221
     6  N   -1.638994
     7  N    0.137149
     8  N   -1.749226
 Sum of Mulliken charges =  -0.00000

 Dipole moment (field-independent basis, Debye):
    X=              0.0659    Y=              2.1145    Z=              0.0360  Tot=              2.1158

 Test job not archived.
 1\1\GINC-SE331\SP\RHF\Aug-CC-pVDZ\C2H2N4\OHZDE\08-Apr-2025\0\\#t hf au
 g-cc-pvdz iop(5/13=1,5/36=2,99/5=2) pseudo=read geom=check guess=(read
 ,tcheck) scf=(maxcycle=1)\\title\\0,1\C,0,1.09691,0.560254,-0.00887336
 \C,0,-1.04448,0.657274,-0.0141299\H,0,2.07609,0.97891,0.0300679\H,0,-2
 .0415,1.05952,0.0837236\N,0,0.0376255,1.40049,-0.00914871\N,0,-1.15997
 ,-0.671372,0.0148553\N,0,-0.0443064,-1.33825,-0.0269372\N,0,1.11677,-0
 .725671,0.0246917\\Version=ES64L-G16RevC.01\State=1-A\HF=-295.941497\R
 MSD=1.036e-01\Dipole=0.0259622,0.8319083,0.0141616\Quadrupole=1.926153

 Normal termination of Gaussian 16 at Tue Apr  8 21:43:48 2025.
