 Gaussian 16, Revision C.01,

 ----------------------------------------------------------------------
 #t hf aug-cc-pvdz symm=none int=(grid=ultrafine) guess=(read,tcheck) s
 table=(opt,rrhf)
 ----------------------------------------------------------------------
 -----
 title
 -----
 Symbolic Z-matrix:
 Charge =  0 Multiplicity = 1

 SCF Done:  E(RHF) =  -304.180409239     A.U. after   11 cycles
 Normal termination of Gaussian 16 at Tue Apr  8 21:15:28 2025.
 Gaussian 16:  ES64L-G16RevC.01  3-Jul-2019

 ----------------------------------------------------------------------
 #t hf aug-cc-pvdz iop(5/13=1,5/36=2,99/5=2) pseudo=read geom=check gue
 ss=(read,tcheck) scf=(maxcycle=1)
 ----------------------------------------------------------------------
 -----
 title
 -----
 Structure from the checkpoint file:  "ANI1ccx_1904_conf13_mol1.chk"
 Charge =  0 Multiplicity = 1

                         Standard orientation:
 ---------------------------------------------------------------------
 Center     Atomic      Atomic             Coordinates (Angstroms)
 Number     Number       Type             X           Y           Z
 ---------------------------------------------------------------------
      1          1           0        0.001740   -2.182272    0.828596
      2          1           0       -0.804619   -1.276883   -0.142540
      3          1           0        1.308320   -0.742063    0.037044
      4          1           0        2.370700   -0.079939   -0.797560
      5          1           0        0.797818    1.223319    0.143949
      6          1           0        0.124598    2.348908   -0.669271
      7          1           0       -1.305851    0.727001   -0.086893
      8          1           0       -2.514311    0.162346    0.682660
      9          8           0        0.003839   -1.836112   -0.097325
     10          8           0        1.982719    0.001208    0.101159
     11          8           0        0.006892    1.822548    0.102811
     12          8           0       -1.990751   -0.010197   -0.106143
 ---------------------------------------------------------------------

 SCF Done:  E(RHF) =  -305.501380313     A.U. after    2 cycles

 The electronic state is 1-A.
 Alpha  occ. eigenvalues --  -21.08926 -21.08820 -21.08526 -21.08275  -1.69451
 Alpha  occ. eigenvalues --   -1.66882  -1.66074  -1.63300  -0.65655  -0.65167
 Alpha  occ. eigenvalues --   -0.62816  -0.62268  -0.52972  -0.48987  -0.47584
 Alpha  occ. eigenvalues --   -0.44288  -0.35476  -0.34693  -0.34488  -0.33179
 Alpha virt. eigenvalues --    0.03594   0.05197   0.05824   0.06112   0.08150
 Alpha virt. eigenvalues --    0.08621   0.09213   0.11169   0.17345   0.19013
 Alpha virt. eigenvalues --    0.20283   0.20467   0.21915   0.22502   0.23524

 Mulliken charges:
               1
     1  H    0.788380
     2  H    1.423097
     3  H    1.505278
     4  H    0.701740
     5  H    1.437484
     6  H    0.828218
     7  H    1.525236
     8  H    0.759661
     9  O   -2.239792
    10  O   -2.203384
    11  O   -2.273378
    12  O   -2.252540
 Sum of Mulliken charges =   0.00000

 Dipole moment (field-independent basis, Debye):
    X=              0.0036    Y=              0.2154    Z=             -0.0247  Tot=              0.2169

 Test job not archived.
 1\1\GINC-SE092\SP\RHF\Aug-CC-pVDZ\H8O4\OHZDE\08-Apr-2025\0\\#t hf aug-
 cc-pvdz iop(5/13=1,5/36=2,99/5=2) pseudo=read geom=check guess=(read,t
 check) scf=(maxcycle=1)\\title\\0,1\H,0,0.00173884,-2.18227,0.828596\H
 ,0,-0.80462,-1.27688,-0.14254\H,0,1.30832,-0.742062,0.037044\H,0,2.370
 7,-0.0799396,-0.79756\H,0,0.79782,1.22332,0.143949\H,0,0.124601,2.3489
 1,-0.669271\H,0,-1.30585,0.727004,-0.0868931\H,0,-2.51431,0.16235,0.68
 266\O,0,0.00383808,-1.83611,-0.0973252\O,0,1.98272,0.00120786,0.101159
 \O,0,0.00689451,1.82255,0.102811\O,0,-1.99075,-0.0101929,-0.106143\\Ve

 Normal termination of Gaussian 16 at Tue Apr  8 21:15:31 2025.
