 Gaussian 16, Revision C.01,

 ----------------------------------------------------------------------
 #t hf aug-cc-pvdz symm=none int=(grid=ultrafine) guess=(read,tcheck) s
 table=(opt,rrhf)
 ----------------------------------------------------------------------
 -----
 title
 -----
 Symbolic Z-matrix:
 Charge =  0 Multiplicity = 1

 SCF Done:  E(RHF) =  -761.792766192     A.U. after   14 cycles
 Normal termination of Gaussian 16 at Tue Apr  8 21:36:36 2025.
 Gaussian 16:  ES64L-G16RevC.01  3-Jul-2019

 ----------------------------------------------------------------------
 #t hf aug-cc-pvdz iop(5/13=1,5/36=2,99/5=2) pseudo=read geom=check gue
 ss=(read,tcheck) scf=(maxcycle=1)
 ----------------------------------------------------------------------
 -----
 title
 -----
 Structure from the checkpoint file:  "ANI1ccx_190_conf6_mol1.chk"
 Charge =  0 Multiplicity = 1

                         Standard orientation:
 ---------------------------------------------------------------------
 Center     Atomic      Atomic             Coordinates (Angstroms)
 Number     Number       Type             X           Y           Z
 ---------------------------------------------------------------------
      1          6           0       -2.296530    0.173582    0.948135
      2          6           0        2.256109   -1.221852   -1.384330
      3          6           0        1.703168   -2.277612    0.838838
      4          6           0        2.216919   -1.051302    0.132897
      5          6           0        2.194610    1.471708    0.055406
      6          6           0        0.930604   -1.395081   -2.069220
      7          6           0       -3.420110    0.933588   -1.016690
      8          6           0       -3.195821   -0.550338   -1.190830
      9          6           0       -2.867231   -1.048330    0.173086
     10          6           0       -0.803559   -0.034985    1.370580
     11          6           0        1.537500    0.247747    0.625758
     12          1           0        1.734148   -2.214862    1.945360
     13          1           0        1.964361    2.961858   -0.978003
     14          1           0        0.283366   -2.200401   -1.672460
     15          1           0        1.092949   -1.719451   -3.108230
     16          1           0        0.373735   -0.463436   -2.122360
     17          1           0        2.648869   -0.362787   -1.946230
     18          1           0        2.832029   -2.136862   -1.643500
     19          1           0        2.295488   -3.163332    0.540691
     20          1           0        0.653593   -2.496091    0.582418
     21          1           0        3.267279   -0.897289    0.488719
     22          1           0       -4.431180    1.082711   -0.590838
     23          1           0       -0.296655    0.880094   -0.229343
     24          1           0       -3.365760    1.438611   -1.992490
     25          1           0       -2.346721   -0.718814   -1.867610
     26          1           0       -4.081201   -0.994763   -1.672250
     27          1           0       -3.740581   -1.442379    0.702601
     28          1           0       -2.089771   -1.822240    0.140479
     29          1           0       -2.877650    0.475115    1.823060
     30          1           0       -2.514519    2.201180    0.333475
     31          1           0        1.614070    0.405949    1.733130
     32          7           0       -2.348000    1.303930   -0.073767
     33          7           0        0.094855    0.246717    0.412228
     34          8           0        3.370530    1.776358    0.181480
     35          8           0       -0.575695   -0.448719    2.500180
     36          8           0        1.357941    2.278599   -0.648869
 ---------------------------------------------------------------------

 SCF Done:  E(RHF) =  -765.347118165     A.U. after    2 cycles

 The electronic state is 1-A.
 Alpha  occ. eigenvalues --  -21.13417 -21.05997 -21.01804 -15.75262 -15.72775
 Alpha  occ. eigenvalues --  -11.56356 -11.53169 -11.50081 -11.48635 -11.44792
 Alpha  occ. eigenvalues --  -11.43456 -11.41672 -11.40920 -11.38085 -11.36801
 Alpha  occ. eigenvalues --  -11.35928  -1.84210  -1.69716  -1.65495  -1.44959
 Alpha  occ. eigenvalues --   -1.40531  -1.25930  -1.15488  -1.12200  -1.08558
 Alpha  occ. eigenvalues --   -1.04559  -0.92280  -0.88896  -0.84863  -0.83894
 Alpha  occ. eigenvalues --   -0.79051  -0.78424  -0.71953  -0.70214  -0.68783
 Alpha  occ. eigenvalues --   -0.66085  -0.63076  -0.61945  -0.60122  -0.59714
 Alpha  occ. eigenvalues --   -0.58578  -0.56909  -0.55159  -0.54865  -0.52577
 Alpha  occ. eigenvalues --   -0.51530  -0.50816  -0.50638  -0.49018  -0.47673
 Alpha  occ. eigenvalues --   -0.46939  -0.46095  -0.45351  -0.45174  -0.43734
 Alpha  occ. eigenvalues --   -0.42666  -0.41605  -0.35331  -0.34651  -0.32208
 Alpha  occ. eigenvalues --   -0.28972  -0.27119
 Alpha virt. eigenvalues --    0.03754   0.04179   0.04401   0.04599   0.04915
 Alpha virt. eigenvalues --    0.05196   0.05861   0.06128   0.06152   0.06470
 Alpha virt. eigenvalues --    0.06846   0.06994   0.07389   0.07716   0.08624

 Mulliken charges:
               1
     1  C   -3.333416
     2  C   -3.946872
     3  C   -5.291647
     4  C    0.895140
     5  C    8.250663
     6  C   -4.330306
     7  C   -3.552343
     8  C   -2.766825
     9  C   -2.917781
    10  C    7.784806
    11  C   -5.209344
    12  H    1.284719
    13  H    0.996226
    14  H    1.609157
    15  H    1.020913
    16  H    1.841799
    17  H    1.457552
    18  H    1.311768
    19  H    1.026251
    20  H    1.851597
    21  H    1.545051
    22  H    1.592489
    23  H    1.244320
    24  H    1.369151
    25  H    1.844636
    26  H    1.236440
    27  H    1.295713
    28  H    1.645987
    29  H    1.423393
    30  H    0.653671
    31  H    1.573177
    32  N   -1.135678
    33  N   -1.216690
    34  O   -3.546540
    35  O   -4.096209
    36  O   -3.410967
 Sum of Mulliken charges =   0.00000

 Dipole moment (field-independent basis, Debye):
    X=             -2.1705    Y=              0.9032    Z=             -2.2555  Tot=              3.2579

 Test job not archived.
 1\1\GINC-SE219\SP\RHF\Aug-CC-pVDZ\C11H20N2O3\OHZDE\08-Apr-2025\0\\#t h
 f aug-cc-pvdz iop(5/13=1,5/36=2,99/5=2) pseudo=read geom=check guess=(
 read,tcheck) scf=(maxcycle=1)\\title\\0,1\C,0,-2.29653,0.173582,0.9481
 35\C,0,2.25611,-1.22185,-1.38433\C,0,1.70317,-2.27761,0.838838\C,0,2.2
 1692,-1.0513,0.132897\C,0,2.19461,1.47171,0.0554059\C,0,0.930605,-1.39
 508,-2.06922\C,0,-3.42011,0.933587,-1.01669\C,0,-3.19582,-0.550339,-1.
 19083\C,0,-2.86723,-1.04833,0.173086\C,0,-0.803559,-0.0349842,1.37058\
 C,0,1.5375,0.247749,0.625758\H,0,1.73415,-2.21486,1.94536\H,0,1.96436,

 Normal termination of Gaussian 16 at Tue Apr  8 21:37:35 2025.
