 Gaussian 16, Revision C.01,

 ----------------------------------------------------------------------
 #t hf aug-cc-pvdz symm=none int=(grid=ultrafine) guess=(read,tcheck) s
 table=(opt,rrhf)
 ----------------------------------------------------------------------
 -----
 title
 -----
 Symbolic Z-matrix:
 Charge =  0 Multiplicity = 1

 SCF Done:  E(RHF) =  -456.258316681     A.U. after   11 cycles
 Normal termination of Gaussian 16 at Tue Apr  8 21:08:44 2025.
 Gaussian 16:  ES64L-G16RevC.01  3-Jul-2019

 ----------------------------------------------------------------------
 #t hf aug-cc-pvdz iop(5/13=1,5/36=2,99/5=2) pseudo=read geom=check gue
 ss=(read,tcheck) scf=(maxcycle=1)
 ----------------------------------------------------------------------
 -----
 title
 -----
 Structure from the checkpoint file:  "ANI1ccx_1844_conf196_mol1.chk"
 Charge =  0 Multiplicity = 1

                         Standard orientation:
 ---------------------------------------------------------------------
 Center     Atomic      Atomic             Coordinates (Angstroms)
 Number     Number       Type             X           Y           Z
 ---------------------------------------------------------------------
      1          1           0        0.930840    2.024147    0.170907
      2          1           0        2.297137    0.285709   -0.192505
      3          1           0        3.189535   -0.686441    0.676865
      4          1           0        1.172575   -3.205181   -0.439622
      5          1           0        1.533643   -1.691988    0.000818
      6          1           0       -3.100695    0.443962   -0.903573
      7          1           0        2.248998    2.527998   -0.546177
      8          1           0       -2.314789   -0.253300    0.232183
      9          1           0       -2.173989   -2.680299    0.656647
     10          1           0       -0.907928   -2.148068   -0.084693
     11          1           0       -1.477756    1.853577   -0.267952
     12          1           0       -1.211675    2.970249    0.784603
     13          8           0        0.796320   -2.383494    0.106477
     14          8           0       -1.862674   -2.041586   -0.032325
     15          8           0        2.688754   -0.629823   -0.174151
     16          8           0       -2.714556    0.654990    0.011263
     17          8           0        1.886173    1.915405    0.131646
     18          8           0       -0.817254    2.554463   -0.053847
 ---------------------------------------------------------------------

 SCF Done:  E(RHF) =  -458.248933425     A.U. after    2 cycles

 The electronic state is 1-A.
 Alpha  occ. eigenvalues --  -21.08985 -21.08255 -21.07797 -21.07648 -21.07212
 Alpha  occ. eigenvalues --  -21.05867  -1.68794  -1.66373  -1.66121  -1.64118
 Alpha  occ. eigenvalues --   -1.62137  -1.60709  -0.64990  -0.64607  -0.63706
 Alpha  occ. eigenvalues --   -0.61930  -0.61608  -0.60534  -0.52960  -0.50533
 Alpha  occ. eigenvalues --   -0.49795  -0.43989  -0.42992  -0.40035  -0.35436
 Alpha  occ. eigenvalues --   -0.34859  -0.34444  -0.33932  -0.33528  -0.32978
 Alpha virt. eigenvalues --    0.04006   0.04988   0.05164   0.06051   0.06277
 Alpha virt. eigenvalues --    0.06497   0.08934   0.09239   0.09567   0.10088
 Alpha virt. eigenvalues --    0.11073   0.11396   0.18342   0.18923   0.20518

 Mulliken charges:
               1
     1  H    1.510021
     2  H    1.518541
     3  H    0.759816
     4  H    0.717605
     5  H    1.769928
     6  H    0.815622
     7  H    0.788112
     8  H    1.328525
     9  H    0.803051
    10  H    1.629064
    11  H    1.520228
    12  H    0.789649
    13  O   -2.411440
    14  O   -2.252708
    15  O   -2.417262
    16  O   -2.226578
    17  O   -2.319509
    18  O   -2.322664
 Sum of Mulliken charges =  -0.00000

 Dipole moment (field-independent basis, Debye):
    X=              0.4373    Y=              0.1703    Z=              0.1844  Tot=              0.5042

 Test job not archived.
 1\1\GINC-SE097\SP\RHF\Aug-CC-pVDZ\H12O6\OHZDE\08-Apr-2025\0\\#t hf aug
 -cc-pvdz iop(5/13=1,5/36=2,99/5=2) pseudo=read geom=check guess=(read,
 tcheck) scf=(maxcycle=1)\\title\\0,1\H,0,0.930858,2.02414,0.170907\H,0
 ,2.29714,0.285691,-0.192505\H,0,3.18953,-0.686467,0.676865\H,0,1.17255
 ,-3.20519,-0.439622\H,0,1.53363,-1.692,0.00081848\H,0,-3.10069,0.44398
 8,-0.903573\H,0,2.24902,2.52798,-0.546177\H,0,-2.31479,-0.25328,0.2321
 83\H,0,-2.17401,-2.68028,0.656647\H,0,-0.907945,-2.14806,-0.0846928\H,
 0,-1.47774,1.85359,-0.267952\H,0,-1.21165,2.97026,0.784603\O,0,0.79630

 Normal termination of Gaussian 16 at Tue Apr  8 21:08:49 2025.
