 Gaussian 16, Revision C.01,

 ----------------------------------------------------------------------
 #t hf aug-cc-pvdz symm=none int=(grid=ultrafine) guess=(read,tcheck) s
 table=(opt,rrhf)
 ----------------------------------------------------------------------
 -----
 title
 -----
 Symbolic Z-matrix:
 Charge =  0 Multiplicity = 1

 SCF Done:  E(RHF) =  -450.688787497     A.U. after   13 cycles
 Normal termination of Gaussian 16 at Tue Apr  8 21:55:05 2025.
 Gaussian 16:  ES64L-G16RevC.01  3-Jul-2019

 ----------------------------------------------------------------------
 #t hf aug-cc-pvdz iop(5/13=1,5/36=2,99/5=2) pseudo=read geom=check gue
 ss=(read,tcheck) scf=(maxcycle=1)
 ----------------------------------------------------------------------
 -----
 title
 -----
 Structure from the checkpoint file:  "ANI1ccx_724_conf2_mol1.chk"
 Charge =  0 Multiplicity = 1

                         Standard orientation:
 ---------------------------------------------------------------------
 Center     Atomic      Atomic             Coordinates (Angstroms)
 Number     Number       Type             X           Y           Z
 ---------------------------------------------------------------------
      1          6           0       -3.015140   -0.007015   -0.042296
      2          6           0       -0.719551   -0.035293    0.044466
      3          6           0        1.789140   -0.158886   -0.023931
      4          1           0       -3.220030    0.201182    0.941961
      5          1           0       -2.990050    0.833855   -0.725600
      6          1           0       -3.802090   -0.699391   -0.338397
      7          1           0        0.416603   -1.693860    0.079643
      8          1           0        0.950724    1.776790   -0.255764
      9          1           0        2.719620    1.508290   -0.236858
     10          7           0        0.485396   -0.685522    0.065821
     11          7           0        1.780910    1.193260   -0.001253
     12          8           0       -1.767380   -0.831642   -0.057125
     13          8           0       -0.755232    1.216150    0.097935
     14          8           0        2.739410   -0.918741   -0.014110
 ---------------------------------------------------------------------

 SCF Done:  E(RHF) =  -452.628159297     A.U. after    2 cycles

 The electronic state is 1-A.
 Alpha  occ. eigenvalues --  -21.12825 -21.04459 -21.03136 -15.79182 -15.76519
 Alpha  occ. eigenvalues --  -11.54771 -11.51881 -11.44585  -1.87320  -1.72575
 Alpha  occ. eigenvalues --   -1.67476  -1.41730  -1.31730  -1.05802  -0.89564
 Alpha  occ. eigenvalues --   -0.81452  -0.74844  -0.69424  -0.67493  -0.62800
 Alpha  occ. eigenvalues --   -0.62034  -0.57951  -0.55263  -0.53308  -0.50658
 Alpha  occ. eigenvalues --   -0.44934  -0.38126  -0.35553  -0.32388  -0.31238
 Alpha  occ. eigenvalues --   -0.30944
 Alpha virt. eigenvalues --    0.03048   0.05215   0.05450   0.05692   0.06435
 Alpha virt. eigenvalues --    0.07615   0.09399   0.10493   0.11585   0.12566
 Alpha virt. eigenvalues --    0.13836   0.14305   0.15105   0.15463   0.16015

 Mulliken charges:
               1
     1  C   -3.553803
     2  C    5.472467
     3  C    5.701581
     4  H    1.304360
     5  H    1.351806
     6  H    1.276117
     7  H    0.561117
     8  H    0.816666
     9  H    0.517908
    10  N   -2.047915
    11  N   -2.697715
    12  O   -3.037890
    13  O   -2.568629
    14  O   -3.096069
 Sum of Mulliken charges =  -0.00000

 Dipole moment (field-independent basis, Debye):
    X=             -3.0142    Y=              0.3436    Z=             -0.5723  Tot=              3.0872

 Test job not archived.
 1\1\GINC-SE049\SP\RHF\Aug-CC-pVDZ\C3H6N2O3\OHZDE\08-Apr-2025\0\\#t hf
 aug-cc-pvdz iop(5/13=1,5/36=2,99/5=2) pseudo=read geom=check guess=(re
 ad,tcheck) scf=(maxcycle=1)\\title\\0,1\C,0,-3.01514,-0.00701441,-0.04
 22956\C,0,-0.719551,-0.0352931,0.0444662\C,0,1.78914,-0.158886,-0.0239
 311\H,0,-3.22003,0.201182,0.941961\H,0,-2.99005,0.833855,-0.7256\H,0,-
 3.80209,-0.699391,-0.338397\H,0,0.416603,-1.69386,0.0796428\H,0,0.9507
 24,1.77679,-0.255764\H,0,2.71962,1.50829,-0.236858\N,0,0.485396,-0.685
 522,0.0658209\N,0,1.78091,1.19326,-0.00125272\O,0,-1.76738,-0.831642,-

 Normal termination of Gaussian 16 at Tue Apr  8 21:55:10 2025.
