 Gaussian 16, Revision C.01,

 ----------------------------------------------------------------------
 #t hf aug-cc-pvdz symm=none int=(grid=ultrafine) guess=(read,tcheck) s
 table=(opt,rrhf)
 ----------------------------------------------------------------------
 -----
 title
 -----
 Symbolic Z-matrix:
 Charge =  0 Multiplicity = 1

 SCF Done:  E(RHF) =  -490.352551242     A.U. after   14 cycles
 Normal termination of Gaussian 16 at Tue Apr  8 21:53:05 2025.
 Gaussian 16:  ES64L-G16RevC.01  3-Jul-2019

 ----------------------------------------------------------------------
 #t hf aug-cc-pvdz iop(5/13=1,5/36=2,99/5=2) pseudo=read geom=check gue
 ss=(read,tcheck) scf=(maxcycle=1)
 ----------------------------------------------------------------------
 -----
 title
 -----
 Structure from the checkpoint file:  "ANI1ccx_703_conf2_mol2.chk"
 Charge =  0 Multiplicity = 1

                         Standard orientation:
 ---------------------------------------------------------------------
 Center     Atomic      Atomic             Coordinates (Angstroms)
 Number     Number       Type             X           Y           Z
 ---------------------------------------------------------------------
      1          6           0        0.028246    0.438630    0.552537
      2          6           0       -1.209620   -0.318421    0.019833
      3          6           0        1.299000   -0.163694   -0.055389
      4          1           0        0.816023    2.095040   -0.006697
      5          1           0        0.063832    0.265168    1.601210
      6          1           0       -1.961180    1.363670   -0.368215
      7          1           0        0.425592   -1.745370    0.208426
      8          8           0       -0.070714    1.810780    0.288360
      9          8           0       -2.171930    0.428423   -0.493238
     10          8           0       -1.282250   -1.520890    0.088324
     11          8           0        1.360920   -1.498770    0.023511
     12          8           0        2.157720    0.565756   -0.474033
 ---------------------------------------------------------------------

 SCF Done:  E(RHF) =  -492.369487348     A.U. after    2 cycles

 The electronic state is 1-A.
 Alpha  occ. eigenvalues --  -21.16328 -21.13559 -21.12391 -21.09645 -21.08664
 Alpha  occ. eigenvalues --  -11.58131 -11.56555 -11.49081  -1.89890  -1.83678
 Alpha  occ. eigenvalues --   -1.76987  -1.70982  -1.68795  -1.13876  -0.88179
 Alpha  occ. eigenvalues --   -0.82241  -0.76637  -0.74945  -0.67536  -0.58957
 Alpha  occ. eigenvalues --   -0.57386  -0.57065  -0.55286  -0.54405  -0.49389
 Alpha  occ. eigenvalues --   -0.45340  -0.39830  -0.37774  -0.35715  -0.33514
 Alpha  occ. eigenvalues --   -0.32646
 Alpha virt. eigenvalues --    0.03254   0.05096   0.06127   0.07487   0.08823
 Alpha virt. eigenvalues --    0.09699   0.10212   0.11067   0.11122   0.11861
 Alpha virt. eigenvalues --    0.13398   0.14230   0.14425   0.15661   0.16511

 Mulliken charges:
               1
     1  C   -0.080391
     2  C    5.724069
     3  C    5.333825
     4  H    0.786163
     5  H    1.550267
     6  H    0.956765
     7  H    1.327607
     8  O   -3.171489
     9  O   -3.123347
    10  O   -3.198331
    11  O   -3.159094
    12  O   -2.946046
 Sum of Mulliken charges =   0.00000

 Dipole moment (field-independent basis, Debye):
    X=             -1.1067    Y=              1.1822    Z=              0.6856  Tot=              1.7586

 Test job not archived.
 1\1\GINC-SE455\SP\RHF\Aug-CC-pVDZ\C3H4O5\OHZDE\08-Apr-2025\0\\#t hf au
 g-cc-pvdz iop(5/13=1,5/36=2,99/5=2) pseudo=read geom=check guess=(read
 ,tcheck) scf=(maxcycle=1)\\title\\0,1\C,0,0.0282457,0.43863,0.552537\C
 ,0,-1.20962,-0.318421,0.0198328\C,0,1.299,-0.163694,-0.0553892\H,0,0.8
 16023,2.09504,-0.0066966\H,0,0.0638322,0.265168,1.60121\H,0,-1.96118,1
 .36367,-0.368215\H,0,0.425592,-1.74537,0.208426\O,0,-0.0707137,1.81078
 ,0.28836\O,0,-2.17193,0.428423,-0.493238\O,0,-1.28225,-1.52089,0.08832
 45\O,0,1.36092,-1.49877,0.0235111\O,0,2.15772,0.565756,-0.474033\\Vers

 Normal termination of Gaussian 16 at Tue Apr  8 21:53:10 2025.
