 Gaussian 16, Revision C.01,

 ----------------------------------------------------------------------
 #t hf aug-cc-pvdz symm=none int=(grid=ultrafine) guess=(read,tcheck) s
 table=(opt,rrhf)
 ----------------------------------------------------------------------
 -----
 title
 -----
 Symbolic Z-matrix:
 Charge =  0 Multiplicity = 1

 SCF Done:  E(RHF) =  -739.899334804     A.U. after   14 cycles
 Normal termination of Gaussian 16 at Tue Apr  8 21:10:00 2025.
 Gaussian 16:  ES64L-G16RevC.01  3-Jul-2019

 ----------------------------------------------------------------------
 #t hf aug-cc-pvdz iop(5/13=1,5/36=2,99/5=2) pseudo=read geom=check gue
 ss=(read,tcheck) scf=(maxcycle=1)
 ----------------------------------------------------------------------
 -----
 title
 -----
 Structure from the checkpoint file:  "ANI1ccx_1784_conf3_mol1.chk"
 Charge =  0 Multiplicity = 1

                         Standard orientation:
 ---------------------------------------------------------------------
 Center     Atomic      Atomic             Coordinates (Angstroms)
 Number     Number       Type             X           Y           Z
 ---------------------------------------------------------------------
      1          6           0        2.637410   -1.038299    0.673544
      2          6           0       -3.257431    0.592020    0.049643
      3          6           0       -2.192581    1.114299    0.953278
      4          6           0       -0.805265    0.423558    0.912230
      5          6           0       -3.593560   -0.865978    0.277151
      6          6           0       -0.064922    0.514642   -0.422371
      7          6           0        2.210179   -0.310324    1.946960
      8          6           0        1.521770   -1.514369   -0.279796
      9          6           0        0.811821    1.762510   -0.597940
     10          1           0       -2.162462    2.182459    0.693673
     11          1           0        1.761049    0.665756   -1.842670
     12          1           0       -5.572100   -0.897347   -0.276869
     13          1           0       -4.591890   -1.050752   -1.529220
     14          1           0       -3.887630   -1.032672    1.320880
     15          1           0       -2.679560   -1.455331    0.125834
     16          1           0       -4.116111    1.260408    0.259878
     17          1           0       -3.120771    0.717414   -1.054580
     18          1           0       -2.559421    0.996550    1.977890
     19          1           0       -0.826676    0.620020   -1.193780
     20          1           0       -0.183670    0.918511    1.685150
     21          1           0       -0.007354   -1.334520   -1.418560
     22          1           0        1.385380   -0.873058    2.398720
     23          1           0        3.040889   -0.242534    2.653750
     24          1           0        1.865149    0.719607    1.808130
     25          1           0        3.170190   -1.912078    1.057760
     26          1           0        4.066650   -0.750954   -0.835490
     27          1           0        3.343839    0.649485   -0.347035
     28          1           0       -0.911051   -0.664254    1.083270
     29          7           0        3.643269   -0.259143   -0.055567
     30          7           0        0.573235   -0.705211   -0.871668
     31          7           0       -4.695120   -1.340292   -0.554243
     32          8           0        0.638598    2.828410   -0.044194
     33          8           0        1.514931   -2.681949   -0.649888
     34          8           0        1.812889    1.546971   -1.464990
 ---------------------------------------------------------------------

 SCF Done:  E(RHF) =  -743.326267462     A.U. after    2 cycles

 The electronic state is 1-A.
 Alpha  occ. eigenvalues --  -21.13506 -21.06786 -21.04105 -15.78320 -15.74006
 Alpha  occ. eigenvalues --  -15.73459 -11.57224 -11.54358 -11.50743 -11.47092
 Alpha  occ. eigenvalues --  -11.45947 -11.44894 -11.41558 -11.39681 -11.37263
 Alpha  occ. eigenvalues --   -1.84529  -1.72768  -1.67285  -1.43519  -1.35796
 Alpha  occ. eigenvalues --   -1.35542  -1.22822  -1.12312  -1.11178  -1.01335
 Alpha  occ. eigenvalues --   -0.94657  -0.93227  -0.84698  -0.83374  -0.78930
 Alpha  occ. eigenvalues --   -0.72356  -0.71603  -0.68620  -0.68227  -0.65332
 Alpha  occ. eigenvalues --   -0.64449  -0.62681  -0.60446  -0.59792  -0.58266
 Alpha  occ. eigenvalues --   -0.57418  -0.55160  -0.54857  -0.53731  -0.52423
 Alpha  occ. eigenvalues --   -0.50963  -0.49982  -0.49664  -0.48490  -0.47285
 Alpha  occ. eigenvalues --   -0.46178  -0.45050  -0.44194  -0.38271  -0.34812
 Alpha  occ. eigenvalues --   -0.34475  -0.33719  -0.30339  -0.28454
 Alpha virt. eigenvalues --    0.03222   0.04075   0.04195   0.04849   0.05098
 Alpha virt. eigenvalues --    0.05470   0.05701   0.06015   0.06296   0.06558
 Alpha virt. eigenvalues --    0.06686   0.07349   0.08124   0.08451   0.09105

 Mulliken charges:
               1
     1  C   -0.996726
     2  C   -3.043231
     3  C   -2.707131
     4  C   -3.497928
     5  C   -1.909289
     6  C   -1.303418
     7  C   -5.117881
     8  C    5.704257
     9  C    7.146339
    10  H    1.206799
    11  H    1.379014
    12  H    0.599130
    13  H    0.620941
    14  H    1.370931
    15  H    1.651724
    16  H    1.282286
    17  H    1.491706
    18  H    1.297183
    19  H    2.620034
    20  H    1.507203
    21  H    0.406390
    22  H    1.551177
    23  H    1.019421
    24  H    1.837874
    25  H    1.567729
    26  H    0.609266
    27  H    0.719956
    28  H    1.879856
    29  N   -2.789469
    30  N   -2.188507
    31  N   -2.877668
    32  O   -3.604681
    33  O   -3.721031
    34  O   -3.712255
 Sum of Mulliken charges =  -0.00000

 Dipole moment (field-independent basis, Debye):
    X=             -1.5601    Y=              0.8081    Z=             -0.1818  Tot=              1.7664

 Test job not archived.
 1\1\GINC-SE398\SP\RHF\Aug-CC-pVDZ\C9H19N3O3\OHZDE\08-Apr-2025\0\\#t hf
  aug-cc-pvdz iop(5/13=1,5/36=2,99/5=2) pseudo=read geom=check guess=(r
 ead,tcheck) scf=(maxcycle=1)\\title\\0,1\C,0,2.63741,-1.0383,0.673544\
 C,0,-3.25743,0.592021,0.049643\C,0,-2.19258,1.1143,0.953278\C,0,-0.805
 264,0.423558,0.91223\C,0,-3.59356,-0.865976,0.277151\C,0,-0.0649206,0.
 514642,-0.422371\C,0,2.21018,-0.310325,1.94696\C,0,1.52177,-1.51437,-0
 .279796\C,0,0.811823,1.76251,-0.59794\H,0,-2.16246,2.18246,0.693673\H,
 0,1.76105,0.665755,-1.84267\H,0,-5.5721,-0.897345,-0.276869\H,0,-4.591

 Normal termination of Gaussian 16 at Tue Apr  8 21:10:36 2025.
