 Gaussian 16, Revision C.01,

 ----------------------------------------------------------------------
 #t hf aug-cc-pvdz symm=none int=(grid=ultrafine) guess=(read,tcheck) s
 table=(opt,rrhf)
 ----------------------------------------------------------------------
 -----
 title
 -----
 Symbolic Z-matrix:
 Charge =  0 Multiplicity = 1

 SCF Done:  E(RHF) =  -379.680281722     A.U. after   14 cycles
 Normal termination of Gaussian 16 at Tue Apr  8 21:49:03 2025.
 Gaussian 16:  ES64L-G16RevC.01  3-Jul-2019

 ----------------------------------------------------------------------
 #t hf aug-cc-pvdz iop(5/13=1,5/36=2,99/5=2) pseudo=read geom=check gue
 ss=(read,tcheck) scf=(maxcycle=1)
 ----------------------------------------------------------------------
 -----
 title
 -----
 Structure from the checkpoint file:  "ANI1ccx_594_conf1_mol2.chk"
 Charge =  0 Multiplicity = 1

                         Standard orientation:
 ---------------------------------------------------------------------
 Center     Atomic      Atomic             Coordinates (Angstroms)
 Number     Number       Type             X           Y           Z
 ---------------------------------------------------------------------
      1          6           0       -2.742539    1.133321    0.028514
      2          6           0       -2.749209   -0.387190   -0.095630
      3          1           0        3.707321   -0.496317   -0.568403
      4          1           0        0.998129    0.508725   -0.570868
      5          1           0       -3.786639    1.473151   -0.010989
      6          1           0       -2.194479    1.613161   -0.797608
      7          1           0       -2.276049    1.461481    0.948845
      8          1           0       -3.418719   -0.803801    0.661943
      9          1           0       -3.132879   -0.683805   -1.093060
     10          1           0       -0.866154   -0.750147   -0.542348
     11          8           0        3.395721    0.377228   -0.278784
     12          8           0        2.363861    0.089601    0.602024
     13          8           0        1.232971   -0.332232   -0.174681
     14          8           0       -1.502559   -0.984501    0.148338
 ---------------------------------------------------------------------

 SCF Done:  E(RHF) =  -381.304139018     A.U. after    2 cycles

 The electronic state is 1-A.
 Alpha  occ. eigenvalues --  -21.16096 -21.14361 -21.14194 -21.05606 -11.42033
 Alpha  occ. eigenvalues --  -11.36141  -2.08496  -1.71182  -1.69581  -1.28607
 Alpha  occ. eigenvalues --   -1.10903  -0.87154  -0.69848  -0.65466  -0.60040
 Alpha  occ. eigenvalues --   -0.58217  -0.57667  -0.55898  -0.55098  -0.51876
 Alpha  occ. eigenvalues --   -0.48833  -0.39319  -0.36574  -0.34934  -0.32093
 Alpha  occ. eigenvalues --   -0.29864
 Alpha virt. eigenvalues --    0.03714   0.05130   0.05482   0.05722   0.06411
 Alpha virt. eigenvalues --    0.06860   0.08473   0.09210   0.12133   0.13102
 Alpha virt. eigenvalues --    0.13809   0.14469   0.15889   0.16133   0.17210

 Mulliken charges:
               1
     1  C   -3.614109
     2  C   -1.114314
     3  H    0.941490
     4  H    0.987112
     5  H    1.208394
     6  H    1.184092
     7  H    1.316073
     8  H    1.397673
     9  H    1.326130
    10  H    0.974198
    11  O   -0.953501
    12  O    0.313454
    13  O   -1.182618
    14  O   -2.784074
 Sum of Mulliken charges =  -0.00000

 Dipole moment (field-independent basis, Debye):
    X=              0.1412    Y=              0.1923    Z=             -1.0727  Tot=              1.0990

 Test job not archived.
 1\1\GINC-SE367\SP\RHF\Aug-CC-pVDZ\C2H8O4\OHZDE\08-Apr-2025\0\\#t hf au
 g-cc-pvdz iop(5/13=1,5/36=2,99/5=2) pseudo=read geom=check guess=(read
 ,tcheck) scf=(maxcycle=1)\\title\\0,1\C,0,-2.74254,1.13332,0.0285138\C
 ,0,-2.74921,-0.387191,-0.0956297\H,0,3.70732,-0.496317,-0.568403\H,0,0
 .998128,0.508725,-0.570868\H,0,-3.78664,1.47315,-0.0109888\H,0,-2.1944
 8,1.61316,-0.797608\H,0,-2.27605,1.46148,0.948845\H,0,-3.41872,-0.8038
 02,0.661943\H,0,-3.13288,-0.683806,-1.09306\H,0,-0.866155,-0.750147,-0
 .542348\O,0,3.39572,0.377228,-0.278784\O,0,2.36386,0.0896014,0.602024\

 Normal termination of Gaussian 16 at Tue Apr  8 21:49:06 2025.
