 Gaussian 16, Revision C.01,

 ----------------------------------------------------------------------
 #t hf aug-cc-pvdz symm=none int=(grid=ultrafine) guess=(read,tcheck) s
 table=(opt,rrhf)
 ----------------------------------------------------------------------
 -----
 title
 -----
 Symbolic Z-matrix:
 Charge =  0 Multiplicity = 1

 SCF Done:  E(RHF) =  -557.491364379     A.U. after   16 cycles
 Normal termination of Gaussian 16 at Tue Apr  8 19:35:23 2025.
 Gaussian 16:  ES64L-G16RevC.01  3-Jul-2019

 ----------------------------------------------------------------------
 #t hf aug-cc-pvdz iop(5/13=1,5/36=2,99/5=2) pseudo=read geom=check gue
 ss=(read,tcheck) scf=(maxcycle=1)
 ----------------------------------------------------------------------
 -----
 title
 -----
 Structure from the checkpoint file:  "ANI1ccx_1322_conf4_mol1.chk"
 Charge =  0 Multiplicity = 1

                         Standard orientation:
 ---------------------------------------------------------------------
 Center     Atomic      Atomic             Coordinates (Angstroms)
 Number     Number       Type             X           Y           Z
 ---------------------------------------------------------------------
      1          6           0       -1.836630   -0.582285   -0.013220
      2          6           0       -0.650489    1.313329   -0.018030
      3          6           0        0.467240    0.449347   -0.023542
      4          6           0        2.746410    0.263662   -0.001748
      5          6           0        2.625211   -1.121568    0.021473
      6          6           0        0.337472   -0.946956    0.023496
      7          1           0        3.495241   -1.739038    0.078923
      8          1           0        3.744129    0.704820   -0.013786
      9          1           0        0.554110    2.737710    0.067072
     10          1           0       -1.141832    3.247059    0.326473
     11          1           0       -3.102779   -2.076332   -0.117607
     12          1           0       -3.876990   -0.516384   -0.238254
     13          7           0       -3.116909   -1.102312    0.063467
     14          7           0       -1.848721    0.776530   -0.020033
     15          7           0       -0.439474    2.621490   -0.024310
     16          7           0        1.712039    1.056261   -0.016009
     17          7           0        1.457541   -1.720079   -0.029968
     18          7           0       -0.879784   -1.433461    0.022082
 ---------------------------------------------------------------------

 SCF Done:  E(RHF) =  -560.030614204     A.U. after    2 cycles

 The electronic state is 1-A.
 Alpha  occ. eigenvalues --  -15.78435 -15.77946 -15.75668 -15.75516 -15.72364
 Alpha  occ. eigenvalues --  -15.70854 -11.53270 -11.51569 -11.48086 -11.47610
 Alpha  occ. eigenvalues --  -11.41820 -11.41260  -1.60064  -1.47734  -1.44137
 Alpha  occ. eigenvalues --   -1.34761  -1.29536  -1.27158  -1.12643  -0.98580
 Alpha  occ. eigenvalues --   -0.94359  -0.88657  -0.77976  -0.77283  -0.70806
 Alpha  occ. eigenvalues --   -0.68675  -0.67413  -0.65020  -0.63151  -0.59307
 Alpha  occ. eigenvalues --   -0.56331  -0.55975  -0.54872  -0.52703  -0.47434
 Alpha  occ. eigenvalues --   -0.43784  -0.42552  -0.40167  -0.38502  -0.34550
 Alpha  occ. eigenvalues --   -0.31959  -0.28905
 Alpha virt. eigenvalues --    0.03248   0.04700   0.05185   0.05560   0.06733
 Alpha virt. eigenvalues --    0.07150   0.07622   0.09026   0.10182   0.11036
 Alpha virt. eigenvalues --    0.11480   0.11578   0.12503   0.12933   0.13120

 Mulliken charges:
               1
     1  C    4.029587
     2  C    5.398295
     3  C    3.710944
     4  C    0.119391
     5  C   -0.100479
     6  C    3.234606
     7  H    1.680315
     8  H    1.685110
     9  H    0.527737
    10  H    0.852826
    11  H    0.630445
    12  H    0.669804
    13  N   -3.120541
    14  N   -3.420656
    15  N   -3.793413
    16  N   -4.604483
    17  N   -3.826076
    18  N   -3.673412
 Sum of Mulliken charges =  -0.00000

 Dipole moment (field-independent basis, Debye):
    X=              0.6858    Y=              2.5815    Z=              0.0408  Tot=              2.6713

 Test job not archived.
 1\1\GINC-SE159\SP\RHF\Aug-CC-pVDZ\C6H6N6\OHZDE\08-Apr-2025\0\\#t hf au
 g-cc-pvdz iop(5/13=1,5/36=2,99/5=2) pseudo=read geom=check guess=(read
 ,tcheck) scf=(maxcycle=1)\\title\\0,1\C,0,-1.83663,-0.582284,-0.013219
 7\C,0,-0.650488,1.31333,-0.0180301\C,0,0.46724,0.449347,-0.0235422\C,0
 ,2.74641,0.26366,-0.00174786\C,0,2.62521,-1.12157,0.0214734\C,0,0.3374
 72,-0.946956,0.0234961\H,0,3.49524,-1.73904,0.0789231\H,0,3.74413,0.70
 4818,-0.0137856\H,0,0.554112,2.73771,0.0670718\H,0,-1.14183,3.24706,0.
 326473\H,0,-3.10278,-2.07633,-0.117607\H,0,-3.87699,-0.516381,-0.23825

 Normal termination of Gaussian 16 at Tue Apr  8 19:35:40 2025.
