 Gaussian 16, Revision C.01,

 ----------------------------------------------------------------------
 #t hf aug-cc-pvdz symm=none int=(grid=ultrafine) guess=(read,tcheck) s
 table=(opt,rrhf)
 ----------------------------------------------------------------------
 -----
 title
 -----
 Symbolic Z-matrix:
 Charge =  0 Multiplicity = 1

 SCF Done:  E(RHF) =  -374.220308940     A.U. after   13 cycles
 Normal termination of Gaussian 16 at Tue Apr  8 21:42:39 2025.
 Gaussian 16:  ES64L-G16RevC.01  3-Jul-2019

 ----------------------------------------------------------------------
 #t hf aug-cc-pvdz iop(5/13=1,5/36=2,99/5=2) pseudo=read geom=check gue
 ss=(read,tcheck) scf=(maxcycle=1)
 ----------------------------------------------------------------------
 -----
 title
 -----
 Structure from the checkpoint file:  "ANI1ccx_461_conf1_mol2.chk"
 Charge =  0 Multiplicity = 1

                         Standard orientation:
 ---------------------------------------------------------------------
 Center     Atomic      Atomic             Coordinates (Angstroms)
 Number     Number       Type             X           Y           Z
 ---------------------------------------------------------------------
      1          6           0       -2.423910   -1.345950    0.105115
      2          6           0       -0.705173    0.366010   -0.087597
      3          1           0        0.503556    2.384420    0.574632
      4          1           0        1.079870    2.320060   -0.861052
      5          1           0        1.323790   -0.182290   -0.236674
      6          1           0       -0.446784   -1.681400   -0.041764
      7          1           0       -2.448340    0.981736   -0.004673
      8          1           0       -3.086760   -0.997440   -0.688066
      9          1           0       -2.407489   -2.484530    0.172701
     10          1           0        3.799850   -0.617106    0.065162
     11          1           0        3.571151   -2.084259   -0.359987
     12          1           0       -2.804870   -0.975158    1.083760
     13          7           0        1.198630    1.841740    0.093060
     14          7           0       -1.077870   -0.958460   -0.189088
     15          7           0       -1.525890    1.378340    0.005242
     16          7           0        0.662620    0.538347    0.015806
     17          8           0        3.111010   -1.298020    0.089464
 ---------------------------------------------------------------------

 SCF Done:  E(RHF) =  -375.959410167     A.U. after    2 cycles

 The electronic state is 1-A.
 Alpha  occ. eigenvalues --  -21.11457 -15.74896 -15.74777 -15.74231 -15.68360
 Alpha  occ. eigenvalues --  -11.46495 -11.40018  -1.67001  -1.52587  -1.39703
 Alpha  occ. eigenvalues --   -1.24108  -1.12033  -0.97373  -0.81065  -0.73956
 Alpha  occ. eigenvalues --   -0.64576  -0.63725  -0.63687  -0.60659  -0.57095
 Alpha  occ. eigenvalues --   -0.54795  -0.52777  -0.50240  -0.48930  -0.39530
 Alpha  occ. eigenvalues --   -0.38544  -0.37484  -0.32336  -0.29473
 Alpha virt. eigenvalues --    0.03019   0.04098   0.05592   0.06333   0.06496
 Alpha virt. eigenvalues --    0.06833   0.07632   0.07951   0.08741   0.10287
 Alpha virt. eigenvalues --    0.11919   0.14461   0.14629   0.15063   0.15575

 Mulliken charges:
               1
     1  C   -3.408340
     2  C    4.920827
     3  H    0.767862
     4  H    0.508424
     5  H    1.072668
     6  H    0.669914
     7  H    0.641623
     8  H    1.284193
     9  H    1.361345
    10  H    0.943215
    11  H    0.927012
    12  H    1.225984
    13  N   -2.258369
    14  N   -2.562598
    15  N   -2.864576
    16  N   -1.282758
    17  O   -1.946425
 Sum of Mulliken charges =   0.00000

 Dipole moment (field-independent basis, Debye):
    X=              1.7376    Y=             -3.6727    Z=             -0.6884  Tot=              4.1209

 Test job not archived.
 1\1\GINC-SE126\SP\RHF\Aug-CC-pVDZ\C2H10N4O1\OHZDE\08-Apr-2025\0\\#t hf
  aug-cc-pvdz iop(5/13=1,5/36=2,99/5=2) pseudo=read geom=check guess=(r
 ead,tcheck) scf=(maxcycle=1)\\title\\0,1\C,0,-2.42391,-1.34595,0.10511
 5\C,0,-0.705173,0.36601,-0.0875966\H,0,0.503556,2.38442,0.574632\H,0,1
 .07987,2.32006,-0.861052\H,0,1.32379,-0.18229,-0.236674\H,0,-0.446785,
 -1.6814,-0.0417639\H,0,-2.44834,0.981736,-0.00467338\H,0,-3.08676,-0.9
 9744,-0.688066\H,0,-2.40749,-2.48453,0.172701\H,0,3.79985,-0.617107,0.
 0651625\H,0,3.57115,-2.08426,-0.359987\H,0,-2.80487,-0.975158,1.08376\

 Normal termination of Gaussian 16 at Tue Apr  8 21:42:45 2025.
