 Gaussian 16, Revision C.01,

 ----------------------------------------------------------------------
 #t hf aug-cc-pvdz symm=none int=(grid=ultrafine) guess=(read,tcheck) s
 table=(opt,rrhf)
 ----------------------------------------------------------------------
 -----
 title
 -----
 Symbolic Z-matrix:
 Charge =  0 Multiplicity = 1

 SCF Done:  E(RHF) =  -386.361691518     A.U. after   16 cycles
 Normal termination of Gaussian 16 at Tue Apr  8 21:50:43 2025.
 Gaussian 16:  ES64L-G16RevC.01  3-Jul-2019

 ----------------------------------------------------------------------
 #t hf aug-cc-pvdz iop(5/13=1,5/36=2,99/5=2) pseudo=read geom=check gue
 ss=(read,tcheck) scf=(maxcycle=1)
 ----------------------------------------------------------------------
 -----
 title
 -----
 Structure from the checkpoint file:  "ANI1ccx_651_conf1_mol1.chk"
 Charge =  0 Multiplicity = 1

                         Standard orientation:
 ---------------------------------------------------------------------
 Center     Atomic      Atomic             Coordinates (Angstroms)
 Number     Number       Type             X           Y           Z
 ---------------------------------------------------------------------
      1          6           0        1.913881   -0.020762    0.045791
      2          6           0        0.509739   -0.016495    0.098788
      3          6           0       -1.389888    1.099092   -0.082024
      4          1           0       -1.785818    2.046802   -0.146667
      5          7           0        3.036581    0.058836   -0.108999
      6          7           0       -0.067790    1.102431    0.112909
      7          7           0       -2.063049    0.010845   -0.032151
      8          7           0       -1.425729   -1.162018   -0.013997
      9          7           0       -0.110953   -1.212639    0.009572
 ---------------------------------------------------------------------

 SCF Done:  E(RHF) =  -388.051525842     A.U. after    2 cycles

 The electronic state is 1-A.
 Alpha  occ. eigenvalues --  -15.87934 -15.83638 -15.82199 -15.81396 -15.80435
 Alpha  occ. eigenvalues --  -11.55654 -11.51327 -11.46544  -1.71787  -1.47177
 Alpha  occ. eigenvalues --   -1.41951  -1.33581  -1.08159  -1.06448  -0.87102
 Alpha  occ. eigenvalues --   -0.76796  -0.70345  -0.69778  -0.63745  -0.56213
 Alpha  occ. eigenvalues --   -0.54560  -0.53177  -0.48863  -0.47960  -0.44275
 Alpha  occ. eigenvalues --   -0.43068  -0.39026
 Alpha virt. eigenvalues --    0.02808   0.04767   0.05028   0.07088   0.08840
 Alpha virt. eigenvalues --    0.09377   0.09620   0.11174   0.12017   0.12671
 Alpha virt. eigenvalues --    0.13048   0.13527   0.14101   0.15778   0.16504

 Mulliken charges:
               1
     1  C    1.576112
     2  C    4.317324
     3  C    1.818082
     4  H    1.751788
     5  N   -2.557642
     6  N   -3.052432
     7  N   -1.785649
     8  N    0.029528
     9  N   -2.097112
 Sum of Mulliken charges =  -0.00000

 Dipole moment (field-independent basis, Debye):
    X=             -1.9866    Y=              2.0419    Z=              0.0704  Tot=              2.8497

 Test job not archived.
 1\1\GINC-SE109\SP\RHF\Aug-CC-pVDZ\C3H1N5\OHZDE\08-Apr-2025\0\\#t hf au
 g-cc-pvdz iop(5/13=1,5/36=2,99/5=2) pseudo=read geom=check guess=(read
 ,tcheck) scf=(maxcycle=1)\\title\\0,1\C,0,1.91388,-0.0207622,0.045791\
 C,0,0.509738,-0.0164957,0.0987878\C,0,-1.38989,1.09909,-0.0820237\H,0,
 -1.78582,2.0468,-0.146667\N,0,3.03658,0.0588361,-0.108999\N,0,-0.06779
 16,1.10243,0.112909\N,0,-2.06305,0.0108428,-0.0321507\N,0,-1.42573,-1.
 16202,-0.0139971\N,0,-0.110954,-1.21264,0.0095718\\Version=ES64L-G16Re
 vC.01\State=1-A\HF=-388.0515258\RMSD=4.836e-01\Dipole=-0.7816015,0.803

 Normal termination of Gaussian 16 at Tue Apr  8 21:50:47 2025.
