 Gaussian 16, Revision C.01,

 ----------------------------------------------------------------------
 #t hf aug-cc-pvdz symm=none int=(grid=ultrafine) guess=(read,tcheck) s
 table=(opt,rrhf)
 ----------------------------------------------------------------------
 -----
 title
 -----
 Symbolic Z-matrix:
 Charge =  0 Multiplicity = 1

 SCF Done:  E(RHF) =  -720.698202453     A.U. after   14 cycles
 Normal termination of Gaussian 16 at Tue Apr  8 20:33:41 2025.
 Gaussian 16:  ES64L-G16RevC.01  3-Jul-2019

 ----------------------------------------------------------------------
 #t hf aug-cc-pvdz iop(5/13=1,5/36=2,99/5=2) pseudo=read geom=check gue
 ss=(read,tcheck) scf=(maxcycle=1)
 ----------------------------------------------------------------------
 -----
 title
 -----
 Structure from the checkpoint file:  "ANI1ccx_1618_conf11_mol1.chk"
 Charge =  0 Multiplicity = 1

                         Standard orientation:
 ---------------------------------------------------------------------
 Center     Atomic      Atomic             Coordinates (Angstroms)
 Number     Number       Type             X           Y           Z
 ---------------------------------------------------------------------
      1          6           0       -2.329750   -0.676468   -0.172696
      2          6           0       -0.833575   -0.709842    0.164761
      3          6           0       -2.727940    0.812692   -0.006647
      4          6           0        1.284880    0.310486   -0.673504
      5          6           0        2.322400   -0.844055   -0.647862
      6          6           0        1.623180    1.343900    0.497531
      7          6           0        0.740598    2.568110    0.389827
      8          6           0        1.546170    0.702552    1.886981
      9          1           0        1.169180   -2.018820    0.209163
     10          1           0        1.965370   -0.339908    1.922031
     11          1           0        0.512914    0.615170    2.303931
     12          1           0        2.095810    1.355460    2.582961
     13          1           0        1.030330    3.349820    1.066191
     14          1           0       -0.349311    2.427850    0.564810
     15          1           0        0.793486    3.042700   -0.650256
     16          1           0        2.709830    1.635310    0.259392
     17          1           0       -0.668527    0.529957   -1.414939
     18          1           0       -2.963210    2.386840   -1.129329
     19          1           0       -2.176070    1.358250    0.760333
     20          1           0       -3.741550    0.684673    0.422232
     21          1           0       -2.416570   -0.836030   -1.249249
     22          1           0       -3.090050   -2.562990   -0.026353
     23          1           0       -2.831290   -1.723730    1.407331
     24          1           0        1.488700    0.861448   -1.613029
     25          7           0       -3.200690   -1.657280    0.459932
     26          7           0       -0.130226   -0.056761   -0.784515
     27          8           0        3.458480   -0.491218   -0.970265
     28          8           0       -0.405188   -1.490900    0.993702
     29          8           0       -2.503820    1.536020   -1.177389
     30          8           0        1.954480   -2.030400   -0.317728
 ---------------------------------------------------------------------

 SCF Done:  E(RHF) =  -723.953953821     A.U. after    2 cycles

 The electronic state is 1-A.
 Alpha  occ. eigenvalues --  -21.12189 -21.10791 -21.05448 -21.02921 -15.77914
 Alpha  occ. eigenvalues --  -15.75376 -11.55400 -11.52966 -11.50181 -11.47983
 Alpha  occ. eigenvalues --  -11.43917 -11.42575 -11.40270 -11.37094  -1.83580
 Alpha  occ. eigenvalues --   -1.76779  -1.73900  -1.64507  -1.43744  -1.35315
 Alpha  occ. eigenvalues --   -1.23498  -1.10704  -1.03615  -1.01022  -0.92318
 Alpha  occ. eigenvalues --   -0.84401  -0.83552  -0.77323  -0.74642  -0.72000
 Alpha  occ. eigenvalues --   -0.68902  -0.67188  -0.65364  -0.63458  -0.60176
 Alpha  occ. eigenvalues --   -0.59101  -0.57793  -0.55316  -0.55174  -0.54118
 Alpha  occ. eigenvalues --   -0.53796  -0.51124  -0.50151  -0.49655  -0.48163
 Alpha  occ. eigenvalues --   -0.46639  -0.45214  -0.43443  -0.42550  -0.38351
 Alpha  occ. eigenvalues --   -0.35726  -0.33575  -0.32213  -0.30515  -0.27372
 Alpha virt. eigenvalues --    0.03284   0.03839   0.04292   0.04444   0.04794
 Alpha virt. eigenvalues --    0.05017   0.06088   0.06291   0.07246   0.07300
 Alpha virt. eigenvalues --    0.07626   0.08140   0.08301   0.08979   0.10236

 Mulliken charges:
               1
     1  C   -1.575038
     2  C    6.884099
     3  C   -0.799997
     4  C   -0.422944
     5  C    6.028419
     6  C   -0.445523
     7  C   -4.847658
     8  C   -4.860616
     9  H    1.101034
    10  H    1.406699
    11  H    1.300238
    12  H    1.072547
    13  H    1.093747
    14  H    1.863083
    15  H    1.175687
    16  H    1.553584
    17  H    0.922565
    18  H    0.899533
    19  H    1.862928
    20  H    1.077024
    21  H    1.820577
    22  H    0.472856
    23  H    0.538035
    24  H    2.052775
    25  N   -3.128714
    26  N   -3.008260
    27  O   -3.387651
    28  O   -3.793930
    29  O   -3.128821
    30  O   -3.726279
 Sum of Mulliken charges =  -0.00000

 Dipole moment (field-independent basis, Debye):
    X=             -3.3566    Y=              2.0039    Z=             -0.0495  Tot=              3.9096

 Test job not archived.
 1\1\GINC-SE273\SP\RHF\Aug-CC-pVDZ\C8H16N2O4\OHZDE\08-Apr-2025\0\\#t hf
  aug-cc-pvdz iop(5/13=1,5/36=2,99/5=2) pseudo=read geom=check guess=(r
 ead,tcheck) scf=(maxcycle=1)\\title\\0,1\C,0,-2.32975,-0.676468,-0.172
 697\C,0,-0.833575,-0.709842,0.16476\C,0,-2.72794,0.812692,-0.00664771\
 C,0,1.28488,0.310486,-0.673505\C,0,2.3224,-0.844055,-0.647863\C,0,1.62
 318,1.3439,0.49753\C,0,0.740598,2.56811,0.389826\C,0,1.54617,0.702552,
 1.88698\H,0,1.16918,-2.01882,0.209162\H,0,1.96537,-0.339908,1.92203\H,
 0,0.512914,0.61517,2.30393\H,0,2.09581,1.35546,2.58296\H,0,1.03033,3.3

 Normal termination of Gaussian 16 at Tue Apr  8 20:34:15 2025.
