 Gaussian 16, Revision C.01,

 ----------------------------------------------------------------------
 #t hf aug-cc-pvdz symm=none int=(grid=ultrafine) guess=(read,tcheck) s
 table=(opt,rrhf)
 ----------------------------------------------------------------------
 -----
 title
 -----
 Symbolic Z-matrix:
 Charge =  0 Multiplicity = 1

 SCF Done:  E(RHF) =  -256.787548187     A.U. after   15 cycles
 Normal termination of Gaussian 16 at Tue Apr  8 21:35:31 2025.
 Gaussian 16:  ES64L-G16RevC.01  3-Jul-2019

 ----------------------------------------------------------------------
 #t hf aug-cc-pvdz iop(5/13=1,5/36=2,99/5=2) pseudo=read geom=check gue
 ss=(read,tcheck) scf=(maxcycle=1)
 ----------------------------------------------------------------------
 -----
 title
 -----
 Structure from the checkpoint file:  "ANI1ccx_377_conf47_mol1.chk"
 Charge =  0 Multiplicity = 1

                         Standard orientation:
 ---------------------------------------------------------------------
 Center     Atomic      Atomic             Coordinates (Angstroms)
 Number     Number       Type             X           Y           Z
 ---------------------------------------------------------------------
      1          6           0        1.071753   -0.271731    0.005678
      2          1           0        2.113636   -0.530078    0.053906
      3          1           0       -1.907061   -0.749229    0.242966
      4          7           0        0.602672    1.012639    0.005350
      5          7           0       -0.691610    0.938882    0.000318
      6          7           0       -0.942327   -0.363023   -0.044953
      7          7           0        0.083109   -1.172828   -0.007993
 ---------------------------------------------------------------------

 SCF Done:  E(RHF) =  -257.921902842     A.U. after    2 cycles

 The electronic state is 1-A.
 Alpha  occ. eigenvalues --  -15.86132 -15.82825 -15.80169 -15.77976 -11.43376
 Alpha  occ. eigenvalues --   -1.77097  -1.40227  -1.27673  -0.91553  -0.88160
 Alpha  occ. eigenvalues --   -0.76966  -0.69334  -0.60391  -0.53195  -0.45699
 Alpha  occ. eigenvalues --   -0.42257  -0.41825  -0.38437
 Alpha virt. eigenvalues --    0.03683   0.04960   0.10138   0.10918   0.11269
 Alpha virt. eigenvalues --    0.12735   0.13863   0.14774   0.16296   0.17347
 Alpha virt. eigenvalues --    0.17570   0.19336   0.19505   0.19924   0.20792

 Mulliken charges:
               1
     1  C    1.097360
     2  H    1.558342
     3  H    0.900899
     4  N   -1.516552
     5  N   -0.168598
     6  N   -0.138841
     7  N   -1.732609
 Sum of Mulliken charges =  -0.00000

 Dipole moment (field-independent basis, Debye):
    X=             -1.0664    Y=             -1.7667    Z=              0.3507  Tot=              2.0932

 Test job not archived.
 1\1\GINC-SE109\SP\RHF\Aug-CC-pVDZ\C1H2N4\OHZDE\08-Apr-2025\0\\#t hf au
 g-cc-pvdz iop(5/13=1,5/36=2,99/5=2) pseudo=read geom=check guess=(read
 ,tcheck) scf=(maxcycle=1)\\title\\0,1\C,0,1.07175,-0.271746,0.00567768
 \H,0,2.11363,-0.530107,0.053906\H,0,-1.90707,-0.749206,0.242966\N,0,0.
 602686,1.01263,0.0053503\N,0,-0.691597,0.93889,0.0003184\N,0,-0.942331
 ,-0.363012,-0.0449529\N,0,0.083095,-1.17283,-0.00799261\\Version=ES64L
 -G16RevC.01\State=1-A\HF=-257.9219028\RMSD=9.733e-02\Dipole=-0.4195697
 ,-0.6950736,0.1379855\Quadrupole=4.5938796,-4.2364217,-0.3574579,0.747

 Normal termination of Gaussian 16 at Tue Apr  8 21:35:33 2025.
