 Gaussian 16, Revision C.01,

 ----------------------------------------------------------------------
 #t hf aug-cc-pvdz symm=none int=(grid=ultrafine) guess=(read,tcheck) s
 table=(opt,rrhf)
 ----------------------------------------------------------------------
 -----
 title
 -----
 Symbolic Z-matrix:
 Charge =  0 Multiplicity = 1

 SCF Done:  E(RHF) =  -460.270095492     A.U. after   16 cycles
 Normal termination of Gaussian 16 at Tue Apr  8 21:34:44 2025.
 Gaussian 16:  ES64L-G16RevC.01  3-Jul-2019

 ----------------------------------------------------------------------
 #t hf aug-cc-pvdz iop(5/13=1,5/36=2,99/5=2) pseudo=read geom=check gue
 ss=(read,tcheck) scf=(maxcycle=1)
 ----------------------------------------------------------------------
 -----
 title
 -----
 Structure from the checkpoint file:  "ANI1ccx_373_conf5_mol1.chk"
 Charge =  0 Multiplicity = 1

                         Standard orientation:
 ---------------------------------------------------------------------
 Center     Atomic      Atomic             Coordinates (Angstroms)
 Number     Number       Type             X           Y           Z
 ---------------------------------------------------------------------
      1          6           0        0.039756   -0.050599    0.020738
      2          1           0        2.817241   -1.090231   -0.152365
      3          7           0       -1.422909   -0.031447   -0.058248
      4          7           0        0.726644    1.112769    0.088198
      5          7           0        1.932401    0.764250    0.056049
      6          7           0        1.967431   -0.528942   -0.043786
      7          7           0        0.844086   -1.118701   -0.062117
      8          8           0       -2.000839   -1.094160    0.113689
      9          8           0       -1.922829    1.095200   -0.092779
 ---------------------------------------------------------------------

 SCF Done:  E(RHF) =  -462.230163911     A.U. after    2 cycles

 The electronic state is 1-A.
 Alpha  occ. eigenvalues --  -21.12230 -21.11628 -16.03027 -15.91515 -15.85774
 Alpha  occ. eigenvalues --  -15.85426 -15.82503 -11.50876  -2.01616  -1.85111
 Alpha  occ. eigenvalues --   -1.71450  -1.47507  -1.34842  -1.10052  -0.97516
 Alpha  occ. eigenvalues --   -0.87007  -0.79412  -0.76895  -0.70817  -0.67987
 Alpha  occ. eigenvalues --   -0.63126  -0.58548  -0.49704  -0.47529  -0.46195
 Alpha  occ. eigenvalues --   -0.42192  -0.37271  -0.33675  -0.32865
 Alpha virt. eigenvalues --    0.02555   0.08526   0.08823   0.10073   0.10191
 Alpha virt. eigenvalues --    0.12129   0.12560   0.13006   0.13389   0.14824
 Alpha virt. eigenvalues --    0.16008   0.16833   0.17157   0.18163   0.19171

 Mulliken charges:
               1
     1  C    4.361586
     2  H    0.999799
     3  N    3.817459
     4  N   -1.450987
     5  N   -0.089599
     6  N    0.035196
     7  N   -2.111497
     8  O   -2.817965
     9  O   -2.743992
 Sum of Mulliken charges =  -0.00000

 Dipole moment (field-independent basis, Debye):
    X=              3.5607    Y=             -1.9228    Z=             -0.1840  Tot=              4.0509

 Test job not archived.
 1\1\GINC-SE364\SP\RHF\Aug-CC-pVDZ\C1H1N5O2\OHZDE\08-Apr-2025\0\\#t hf
 aug-cc-pvdz iop(5/13=1,5/36=2,99/5=2) pseudo=read geom=check guess=(re
 ad,tcheck) scf=(maxcycle=1)\\title\\0,1\C,0,0.0397547,-0.0505985,0.020
 7375\H,0,2.81724,-1.09023,-0.152365\N,0,-1.42291,-0.0314465,-0.058248\
 N,0,0.726643,1.11277,0.0881978\N,0,1.9324,0.764251,0.0560485\N,0,1.967
 43,-0.528941,-0.0437863\N,0,0.844085,-1.1187,-0.0621173\O,0,-2.00084,-
 1.09416,0.113689\O,0,-1.92283,1.0952,-0.0927794\\Version=ES64L-G16RevC
 .01\State=1-A\HF=-462.2301639\RMSD=1.152e-01\Dipole=1.4008943,-0.75650

 Normal termination of Gaussian 16 at Tue Apr  8 21:34:48 2025.
