 Gaussian 16, Revision C.01,

 ----------------------------------------------------------------------
 #t hf aug-cc-pvdz symm=none int=(grid=ultrafine) guess=(read,tcheck) s
 table=(opt,rrhf)
 ----------------------------------------------------------------------
 -----
 title
 -----
 Symbolic Z-matrix:
 Charge =  0 Multiplicity = 1

 SCF Done:  E(RHF) =  -404.745478774     A.U. after   16 cycles
 Normal termination of Gaussian 16 at Tue Apr  8 21:46:51 2025.
 Gaussian 16:  ES64L-G16RevC.01  3-Jul-2019

 ----------------------------------------------------------------------
 #t hf aug-cc-pvdz iop(5/13=1,5/36=2,99/5=2) pseudo=read geom=check gue
 ss=(read,tcheck) scf=(maxcycle=1)
 ----------------------------------------------------------------------
 -----
 title
 -----
 Structure from the checkpoint file:  "ANI1ccx_523_conf3_mol1.chk"
 Charge =  0 Multiplicity = 1

                         Standard orientation:
 ---------------------------------------------------------------------
 Center     Atomic      Atomic             Coordinates (Angstroms)
 Number     Number       Type             X           Y           Z
 ---------------------------------------------------------------------
      1          6           0       -1.102519   -0.272625   -0.013022
      2          6           0        1.105131   -0.275087    0.054234
      3          1           0       -3.099189   -0.234108    0.324441
      4          1           0       -2.600040   -1.828359    0.365111
      5          1           0        3.156350   -0.475513   -0.054067
      6          1           0        2.258960   -1.878150    0.196638
      7          7           0       -2.313900   -0.850987   -0.040446
      8          7           0       -1.110429    1.108561    0.071666
      9          7           0        0.071039    1.745370   -0.060578
     10          7           0        1.147081    1.089290    0.006204
     11          7           0        2.255610   -0.923372    0.069806
     12          7           0       -0.011080   -1.068519   -0.200851
 ---------------------------------------------------------------------

 SCF Done:  E(RHF) =  -406.564167698     A.U. after    2 cycles

 The electronic state is 1-A.
 Alpha  occ. eigenvalues --  -15.83586 -15.80665 -15.78349 -15.76161 -15.74916
 Alpha  occ. eigenvalues --  -15.74199 -11.52385 -11.48780  -1.65502  -1.45765
 Alpha  occ. eigenvalues --   -1.44281  -1.27674  -1.25477  -1.00547  -0.92278
 Alpha  occ. eigenvalues --   -0.76138  -0.75200  -0.68139  -0.64922  -0.61995
 Alpha  occ. eigenvalues --   -0.60328  -0.57189  -0.52229  -0.50669  -0.47388
 Alpha  occ. eigenvalues --   -0.37790  -0.36617  -0.33717  -0.32651
 Alpha virt. eigenvalues --    0.03149   0.04158   0.05818   0.06464   0.08944
 Alpha virt. eigenvalues --    0.10756   0.11559   0.12115   0.12595   0.13243
 Alpha virt. eigenvalues --    0.14301   0.14943   0.15763   0.16993   0.17286

 Mulliken charges:
               1
     1  C    4.444751
     2  C    4.491300
     3  H    0.587185
     4  H    0.608051
     5  H    0.698446
     6  H    0.669102
     7  N   -2.888913
     8  N   -1.637809
     9  N   -0.282410
    10  N   -1.235181
    11  N   -2.944304
    12  N   -2.510218
 Sum of Mulliken charges =  -0.00000

 Dipole moment (field-independent basis, Debye):
    X=              0.7297    Y=             -4.0773    Z=              1.1427  Tot=              4.2969

 Test job not archived.
 1\1\GINC-SE041\SP\RHF\Aug-CC-pVDZ\C2H4N6\OHZDE\08-Apr-2025\0\\#t hf au
 g-cc-pvdz iop(5/13=1,5/36=2,99/5=2) pseudo=read geom=check guess=(read
 ,tcheck) scf=(maxcycle=1)\\title\\0,1\C,0,-1.10252,-0.272626,-0.013021
 7\C,0,1.10513,-0.275087,0.0542336\H,0,-3.09919,-0.234109,0.324441\H,0,
 -2.60004,-1.82836,0.365111\H,0,3.15635,-0.475513,-0.054067\H,0,2.25896
 ,-1.87815,0.196638\N,0,-2.3139,-0.850988,-0.0404459\N,0,-1.11043,1.108
 56,0.0716657\N,0,0.0710381,1.74537,-0.0605781\N,0,1.14708,1.08929,0.00
 620353\N,0,2.25561,-0.923372,0.0698063\N,0,-0.0110805,-1.06852,-0.2008

 Normal termination of Gaussian 16 at Tue Apr  8 21:46:56 2025.
