 Gaussian 16, Revision C.01,

 ----------------------------------------------------------------------
 #t hf aug-cc-pvdz symm=none int=(grid=ultrafine) guess=(read,tcheck) s
 table=(opt,rrhf)
 ----------------------------------------------------------------------
 -----
 title
 -----
 Symbolic Z-matrix:
 Charge =  0 Multiplicity = 1

 SCF Done:  E(RHF) =  -966.617794948     A.U. after   14 cycles
 Normal termination of Gaussian 16 at Tue Apr  8 21:51:41 2025.
 Gaussian 16:  ES64L-G16RevC.01  3-Jul-2019

 ----------------------------------------------------------------------
 #t hf aug-cc-pvdz iop(5/13=1,5/36=2,99/5=2) pseudo=read geom=check gue
 ss=(read,tcheck) scf=(maxcycle=1)
 ----------------------------------------------------------------------
 -----
 title
 -----
 Structure from the checkpoint file:  "ANI1ccx_203_conf4_mol2.chk"
 Charge =  0 Multiplicity = 1

                         Standard orientation:
 ---------------------------------------------------------------------
 Center     Atomic      Atomic             Coordinates (Angstroms)
 Number     Number       Type             X           Y           Z
 ---------------------------------------------------------------------
      1          6           0        2.504591   -0.300293    1.337660
      2          6           0       -3.786119   -0.199652    0.583323
      3          6           0       -2.336519    0.001582    0.172247
      4          6           0       -1.879419    1.413240    0.266240
      5          6           0       -0.121894    3.142810   -0.472982
      6          6           0       -4.253880   -1.631239    0.621583
      7          6           0        1.350260   -2.124581   -1.067120
      8          6           0        2.017000   -2.566101    0.163603
      9          6           0        3.082150   -1.563911    0.673432
     10          6           0        1.787801    0.619987    0.348308
     11          6           0       -0.409188    1.621090   -0.234717
     12          1           0       -2.255979   -0.287801   -0.904385
     13          1           0        1.622701    2.600749   -0.894840
     14          1           0       -4.519650   -3.258849   -0.639207
     15          1           0       -3.244780   -2.362559   -0.969989
     16          1           0       -3.654580   -2.154899    1.421540
     17          1           0       -5.287470   -1.689389    0.960635
     18          1           0       -3.913169    0.251678    1.581700
     19          1           0       -4.429709    0.382098   -0.097020
     20          1           0       -1.711069   -0.712735    0.774145
     21          1           0       -2.556589    2.094480   -0.282733
     22          1           0        0.195054    0.350206    1.447390
     23          1           0       -0.317023    1.179180   -1.260050
     24          1           0        1.532801    0.209869    3.029760
     25          1           0       -1.910319    1.778610    1.297350
     26          1           0        3.361521    0.298523    1.673320
     27          1           0        3.664100   -2.103921    1.436470
     28          1           0        2.113800   -1.297361    3.081420
     29          1           0        1.321920   -2.788201    0.987915
     30          1           0        2.613130   -3.483041   -0.009225
     31          1           0        1.512320   -1.723731   -2.849410
     32          1           0        3.707881   -1.202991   -0.159141
     33          7           0        1.648401   -0.632379    2.470770
     34          7           0        0.532732    0.976019    0.700462
     35          7           0       -4.225240   -2.258229   -0.696065
     36          8           0       -0.952550    4.000930   -0.450934
     37          8           0        2.320471    1.059599   -0.670082
     38          8           0        0.173291   -1.791880   -1.144320
     39          8           0        2.126510   -2.079981   -2.170960
     40          8           0        1.174172    3.416909   -0.726357
 ---------------------------------------------------------------------

 SCF Done:  E(RHF) =  -970.994564952     A.U. after    2 cycles

 The electronic state is 1-A.
 Alpha  occ. eigenvalues --  -21.13436 -21.08655 -21.06372 -21.04821 -21.03632
 Alpha  occ. eigenvalues --  -15.77878 -15.77562 -15.72362 -11.57001 -11.56021
 Alpha  occ. eigenvalues --  -11.52869 -11.49624 -11.47613 -11.46459 -11.44175
 Alpha  occ. eigenvalues --  -11.43036 -11.41571 -11.39644 -11.35266  -1.84420
 Alpha  occ. eigenvalues --   -1.80785  -1.73812  -1.65721  -1.64095  -1.44852
 Alpha  occ. eigenvalues --   -1.38029  -1.33845  -1.22115  -1.21559  -1.10718
 Alpha  occ. eigenvalues --   -1.06158  -1.00161  -0.93816  -0.88752  -0.82203
 Alpha  occ. eigenvalues --   -0.81261  -0.79822  -0.76773  -0.73029  -0.71845
 Alpha  occ. eigenvalues --   -0.70093  -0.67780  -0.65994  -0.65653  -0.64278
 Alpha  occ. eigenvalues --   -0.63654  -0.63522  -0.59708  -0.58770  -0.58490
 Alpha  occ. eigenvalues --   -0.57021  -0.54961  -0.54264  -0.53342  -0.51782
 Alpha  occ. eigenvalues --   -0.51483  -0.50998  -0.49932  -0.49134  -0.47740
 Alpha  occ. eigenvalues --   -0.46330  -0.46105  -0.45454  -0.45316  -0.43689
 Alpha  occ. eigenvalues --   -0.40634  -0.40018  -0.35489  -0.35091  -0.34214
 Alpha  occ. eigenvalues --   -0.31423  -0.31118  -0.30225  -0.27432
 Alpha virt. eigenvalues --    0.02370   0.03412   0.03660   0.04193   0.04434
 Alpha virt. eigenvalues --    0.04973   0.05647   0.05724   0.05916   0.06474
 Alpha virt. eigenvalues --    0.06675   0.07068   0.07628   0.08293   0.08527

 Mulliken charges:
               1
     1  C   -0.537239
     2  C   -2.862259
     3  C   -2.128285
     4  C   -2.518752
     5  C    6.242607
     6  C   -3.547224
     7  C    7.629845
     8  C   -4.355015
     9  C   -3.182146
    10  C    6.806002
    11  C   -3.467177
    12  H    1.743373
    13  H    1.659993
    14  H    0.520306
    15  H    0.839713
    16  H    1.499915
    17  H    1.329962
    18  H    1.412403
    19  H    1.457601
    20  H    2.097967
    21  H    1.488534
    22  H    0.888808
    23  H    2.177534
    24  H    0.527112
    25  H    1.459897
    26  H    1.650001
    27  H    1.271874
    28  H    0.722373
    29  H    1.502546
    30  H    1.390337
    31  H    0.899613
    32  H    1.431010
    33  N   -3.172244
    34  N   -2.401324
    35  N   -2.290880
    36  O   -3.337944
    37  O   -4.143557
    38  O   -3.626033
    39  O   -3.551207
    40  O   -3.528039
 Sum of Mulliken charges =  -0.00000

 Dipole moment (field-independent basis, Debye):
    X=              2.6807    Y=             -4.9954    Z=              3.0024  Tot=              6.4152

 Test job not archived.
 1\1\GINC-SE252\SP\RHF\Aug-CC-pVDZ\C11H21N3O5\OHZDE\08-Apr-2025\0\\#t h
 f aug-cc-pvdz iop(5/13=1,5/36=2,99/5=2) pseudo=read geom=check guess=(
 read,tcheck) scf=(maxcycle=1)\\title\\0,1\C,0,2.50459,-0.300292,1.3376
 6\C,0,-3.78612,-0.199653,0.583323\C,0,-2.33652,0.00158197,0.172247\C,0
 ,-1.87942,1.41324,0.26624\C,0,-0.121896,3.14281,-0.472982\C,0,-4.25388
 ,-1.63124,0.621583\C,0,1.35026,-2.12458,-1.06712\C,0,2.017,-2.5661,0.1
 63603\C,0,3.08215,-1.56391,0.673432\C,0,1.7878,0.619988,0.348308\C,0,-
 0.409189,1.62109,-0.234717\H,0,-2.25598,-0.287801,-0.904385\H,0,1.6227

 Normal termination of Gaussian 16 at Tue Apr  8 21:52:56 2025.
