 Gaussian 16, Revision C.01,

 ----------------------------------------------------------------------
 #t hf aug-cc-pvdz symm=none int=(grid=ultrafine) guess=(read,tcheck) s
 table=(opt,rrhf)
 ----------------------------------------------------------------------
 -----
 title
 -----
 Symbolic Z-matrix:
 Charge =  0 Multiplicity = 1

 SCF Done:  E(RHF) =  -460.252898358     A.U. after   17 cycles
 Normal termination of Gaussian 16 at Tue Apr  8 21:34:46 2025.
 Gaussian 16:  ES64L-G16RevC.01  3-Jul-2019

 ----------------------------------------------------------------------
 #t hf aug-cc-pvdz iop(5/13=1,5/36=2,99/5=2) pseudo=read geom=check gue
 ss=(read,tcheck) scf=(maxcycle=1)
 ----------------------------------------------------------------------
 -----
 title
 -----
 Structure from the checkpoint file:  "ANI1ccx_373_conf6_mol1.chk"
 Charge =  0 Multiplicity = 1

                         Standard orientation:
 ---------------------------------------------------------------------
 Center     Atomic      Atomic             Coordinates (Angstroms)
 Number     Number       Type             X           Y           Z
 ---------------------------------------------------------------------
      1          6           0        0.088714   -0.060621    0.018387
      2          1           0        2.779789   -1.053720   -0.127466
      3          7           0       -1.364521   -0.039959   -0.025108
      4          7           0        0.649533    1.111850   -0.105965
      5          7           0        1.891200    0.818873   -0.100250
      6          7           0        1.979349   -0.519859    0.098596
      7          7           0        0.828212   -1.143910    0.121756
      8          8           0       -1.939410    1.085660    0.154056
      9          8           0       -1.960401   -1.107100   -0.142313
 ---------------------------------------------------------------------

 SCF Done:  E(RHF) =  -462.208884591     A.U. after    2 cycles

 The electronic state is 1-A.
 Alpha  occ. eigenvalues --  -21.12673 -21.10354 -16.01671 -15.91235 -15.87208
 Alpha  occ. eigenvalues --  -15.86344 -15.83503 -11.51952  -1.99271  -1.83379
 Alpha  occ. eigenvalues --   -1.69166  -1.48384  -1.35554  -1.10437  -0.99304
 Alpha  occ. eigenvalues --   -0.86735  -0.79168  -0.76591  -0.69464  -0.65988
 Alpha  occ. eigenvalues --   -0.62665  -0.58336  -0.50862  -0.48423  -0.47975
 Alpha  occ. eigenvalues --   -0.42606  -0.37334  -0.32427  -0.31971
 Alpha virt. eigenvalues --    0.02622   0.07915   0.08534   0.09778   0.10141
 Alpha virt. eigenvalues --    0.11552   0.12448   0.12635   0.13004   0.15021
 Alpha virt. eigenvalues --    0.15700   0.16764   0.17152   0.18171   0.19002

 Mulliken charges:
               1
     1  C    4.835609
     2  H    0.950213
     3  N    3.441587
     4  N   -1.480682
     5  N   -0.182109
     6  N   -0.201191
     7  N   -2.073379
     8  O   -2.463878
     9  O   -2.826169
 Sum of Mulliken charges =  -0.00000

 Dipole moment (field-independent basis, Debye):
    X=              3.6465    Y=             -1.8506    Z=             -0.0800  Tot=              4.0900

 Test job not archived.
 1\1\GINC-SE460\SP\RHF\Aug-CC-pVDZ\C1H1N5O2\OHZDE\08-Apr-2025\0\\#t hf
 aug-cc-pvdz iop(5/13=1,5/36=2,99/5=2) pseudo=read geom=check guess=(re
 ad,tcheck) scf=(maxcycle=1)\\title\\0,1\C,0,0.0887147,-0.0606214,0.018
 3866\H,0,2.77979,-1.05372,-0.127466\N,0,-1.36452,-0.0399594,-0.025108\
 N,0,0.649533,1.11185,-0.105965\N,0,1.8912,0.818873,-0.10025\N,0,1.9793
 5,-0.519859,0.0985961\N,0,0.828213,-1.14391,0.121756\O,0,-1.93941,1.08
 566,0.154056\O,0,-1.9604,-1.1071,-0.142313\\Version=ES64L-G16RevC.01\S
 tate=1-A\HF=-462.2088846\RMSD=9.976e-02\Dipole=1.4346425,-0.7280995,-0

 Normal termination of Gaussian 16 at Tue Apr  8 21:34:50 2025.
