 Gaussian 16, Revision C.01,

 ----------------------------------------------------------------------
 #t hf aug-cc-pvdz symm=none int=(grid=ultrafine) guess=(read,tcheck) s
 table=(opt,rrhf)
 ----------------------------------------------------------------------
 -----
 title
 -----
 Symbolic Z-matrix:
 Charge =  0 Multiplicity = 1

 SCF Done:  E(RHF) =  -281.805163295     A.U. after   14 cycles
 Normal termination of Gaussian 16 at Tue Apr  8 21:13:21 2025.
 Gaussian 16:  ES64L-G16RevC.01  3-Jul-2019

 ----------------------------------------------------------------------
 #t hf aug-cc-pvdz iop(5/13=1,5/36=2,99/5=2) pseudo=read geom=check gue
 ss=(read,tcheck) scf=(maxcycle=1)
 ----------------------------------------------------------------------
 -----
 title
 -----
 Structure from the checkpoint file:  "ANI1ccx_1889_conf8_mol1.chk"
 Charge =  0 Multiplicity = 1

                         Standard orientation:
 ---------------------------------------------------------------------
 Center     Atomic      Atomic             Coordinates (Angstroms)
 Number     Number       Type             X           Y           Z
 ---------------------------------------------------------------------
      1          1           0        2.937532   -0.410717   -0.313416
      2          1           0        0.448247    0.437849   -0.230152
      3          1           0       -0.813742   -1.050270   -0.011967
      4          1           0       -2.652848    0.996645   -0.273663
      5          1           0       -1.282048    1.032250    0.778014
      6          7           0       -1.685608    0.705872   -0.107409
      7          8           0        2.329152    0.275937    0.103077
      8          8           0        1.049682   -0.306568   -0.087120
      9          8           0       -1.733568   -0.712726    0.084424
 ---------------------------------------------------------------------

 SCF Done:  E(RHF) =  -282.979135466     A.U. after    2 cycles

 The electronic state is 1-A.
 Alpha  occ. eigenvalues --  -21.12525 -21.11837 -21.08034 -15.78636  -1.94356
 Alpha  occ. eigenvalues --   -1.74990  -1.40086  -1.16316  -0.70853  -0.63113
 Alpha  occ. eigenvalues --   -0.61179  -0.58354  -0.53884  -0.49322  -0.40753
 Alpha  occ. eigenvalues --   -0.37876  -0.29601  -0.28685
 Alpha virt. eigenvalues --    0.04210   0.04936   0.06350   0.07284   0.08792
 Alpha virt. eigenvalues --    0.14449   0.15331   0.18177   0.18831   0.19955
 Alpha virt. eigenvalues --    0.21104   0.21928   0.22756   0.23047   0.23533

 Mulliken charges:
               1
     1  H    0.977756
     2  H    1.236551
     3  H    0.988662
     4  H    0.802986
     5  H    0.671636
     6  N   -0.259735
     7  O   -0.941683
     8  O   -1.293904
     9  O   -2.182269
 Sum of Mulliken charges =  -0.00000

 Dipole moment (field-independent basis, Debye):
    X=             -0.0625    Y=              0.5225    Z=              0.2749  Tot=              0.5937

 Test job not archived.
 1\1\GINC-SE072\SP\RHF\Aug-CC-pVDZ\H5N1O3\OHZDE\08-Apr-2025\0\\#t hf au
 g-cc-pvdz iop(5/13=1,5/36=2,99/5=2) pseudo=read geom=check guess=(read
 ,tcheck) scf=(maxcycle=1)\\title\\0,1\H,0,2.93753,-0.410717,-0.313416\
 H,0,0.448245,0.437849,-0.230152\H,0,-0.813744,-1.05027,-0.0119664\H,0,
 -2.65285,0.996645,-0.273663\H,0,-1.28205,1.03225,0.778014\N,0,-1.68561
 ,0.705872,-0.107409\O,0,2.32915,0.275937,0.103077\O,0,1.04968,-0.30656
 8,-0.0871198\O,0,-1.73357,-0.712726,0.0844243\\Version=ES64L-G16RevC.0
 1\State=1-A\HF=-282.9791355\RMSD=3.122e-02\Dipole=-0.0245788,0.2055662

 Normal termination of Gaussian 16 at Tue Apr  8 21:13:23 2025.
