 Gaussian 16, Revision C.01,

 ----------------------------------------------------------------------
 #t hf aug-cc-pvdz symm=none int=(grid=ultrafine) guess=(read,tcheck) s
 table=(opt,rrhf)
 ----------------------------------------------------------------------
 -----
 title
 -----
 Symbolic Z-matrix:
 Charge =  0 Multiplicity = 1

 SCF Done:  E(RHF) =  -414.370325366     A.U. after   14 cycles
 Normal termination of Gaussian 16 at Tue Apr  8 21:38:46 2025.
 Gaussian 16:  ES64L-G16RevC.01  3-Jul-2019

 ----------------------------------------------------------------------
 #t hf aug-cc-pvdz iop(5/13=1,5/36=2,99/5=2) pseudo=read geom=check gue
 ss=(read,tcheck) scf=(maxcycle=1)
 ----------------------------------------------------------------------
 -----
 title
 -----
 Structure from the checkpoint file:  "ANI1ccx_410_conf6_mol1.chk"
 Charge =  0 Multiplicity = 1

                         Standard orientation:
 ---------------------------------------------------------------------
 Center     Atomic      Atomic             Coordinates (Angstroms)
 Number     Number       Type             X           Y           Z
 ---------------------------------------------------------------------
      1          6           0       -2.025810   -0.184153    0.073694
      2          1           0        3.385511    0.224840    1.021200
      3          1           0        0.928462   -0.897891   -0.313334
      4          1           0       -1.591789    1.703281    0.226290
      5          1           0       -0.955430   -0.342100    0.164311
      6          8           0        3.207180   -0.359557    0.274645
      7          8           0        2.250261    0.347227   -0.465507
      8          8           0        1.029181    0.014596   -0.025749
      9          8           0       -2.356529    1.105591    0.088506
     10          8           0       -2.831580   -1.055758   -0.064474
 ---------------------------------------------------------------------

 SCF Done:  E(RHF) =  -416.043374090     A.U. after    2 cycles

 The electronic state is 1-A.
 Alpha  occ. eigenvalues --  -21.17290 -21.16136 -21.15455 -21.13189 -21.05934
 Alpha  occ. eigenvalues --  -11.51162  -2.15192  -1.82832  -1.73370  -1.65784
 Alpha  occ. eigenvalues --   -1.28598  -0.87563  -0.73804  -0.72964  -0.62685
 Alpha  occ. eigenvalues --   -0.59190  -0.58580  -0.54898  -0.53783  -0.47342
 Alpha  occ. eigenvalues --   -0.38329  -0.35706  -0.34097  -0.33839  -0.30903
 Alpha virt. eigenvalues --    0.03617   0.04872   0.05938   0.07217   0.11185
 Alpha virt. eigenvalues --    0.12250   0.12858   0.13073   0.15623   0.16830
 Alpha virt. eigenvalues --    0.17099   0.18305   0.20014   0.20742   0.21640

 Mulliken charges:
               1
     1  C    2.674834
     2  H    0.936385
     3  H    0.991325
     4  H    1.017287
     5  H    1.678589
     6  O   -1.003156
     7  O    0.472056
     8  O   -1.442522
     9  O   -2.606167
    10  O   -2.718631
 Sum of Mulliken charges =   0.00000

 Dipole moment (field-independent basis, Debye):
    X=              2.4175    Y=              1.1762    Z=              0.8780  Tot=              2.8282

 Test job not archived.
 1\1\GINC-SE074\SP\RHF\Aug-CC-pVDZ\C1H4O5\OHZDE\08-Apr-2025\0\\#t hf au
 g-cc-pvdz iop(5/13=1,5/36=2,99/5=2) pseudo=read geom=check guess=(read
 ,tcheck) scf=(maxcycle=1)\\title\\0,1\C,0,-2.02581,-0.184154,0.073694\
 H,0,3.38551,0.224841,1.0212\H,0,0.928462,-0.897891,-0.313334\H,0,-1.59
 179,1.70328,0.22629\H,0,-0.95543,-0.342101,0.164311\O,0,3.20718,-0.359
 556,0.274645\O,0,2.25026,0.347227,-0.465507\O,0,1.02918,0.0145957,-0.0
 257492\O,0,-2.35653,1.10559,0.0885055\O,0,-2.83158,-1.05576,-0.0644738
 \\Version=ES64L-G16RevC.01\State=1-A\HF=-416.0433741\RMSD=5.322e-02\Di

 Normal termination of Gaussian 16 at Tue Apr  8 21:38:49 2025.
