 Gaussian 16, Revision C.01,

 ----------------------------------------------------------------------
 #t hf aug-cc-pvdz symm=none int=(grid=ultrafine) guess=(read,tcheck) s
 table=(opt,rrhf)
 ----------------------------------------------------------------------
 -----
 title
 -----
 Symbolic Z-matrix:
 Charge =  0 Multiplicity = 1

 SCF Done:  E(RHF) =  -1021.12640949     A.U. after   15 cycles
 Normal termination of Gaussian 16 at Tue Apr  8 22:09:45 2025.
 Gaussian 16:  ES64L-G16RevC.01  3-Jul-2019

 ----------------------------------------------------------------------
 #t hf aug-cc-pvdz iop(5/13=1,5/36=2,99/5=2) pseudo=read geom=check gue
 ss=(read,tcheck) scf=(maxcycle=1)
 ----------------------------------------------------------------------
 -----
 title
 -----
 Structure from the checkpoint file:  "ANI1ccx_54_conf10_mol2.chk"
 Charge =  0 Multiplicity = 1

                         Standard orientation:
 ---------------------------------------------------------------------
 Center     Atomic      Atomic             Coordinates (Angstroms)
 Number     Number       Type             X           Y           Z
 ---------------------------------------------------------------------
      1          6           0       -2.103619    1.188832    0.222027
      2          6           0        4.269910   -0.471083   -0.404707
      3          6           0        1.875870   -0.334502   -1.211320
      4          6           0        1.027340   -0.205483    1.186390
      5          6           0        0.718134    0.078109   -0.307336
      6          6           0        3.194360    0.425623   -0.952500
      7          6           0       -3.766700   -0.578748   -0.597166
      8          6           0       -2.716780    0.450085   -0.991061
      9          6           0       -0.871072    2.060151   -0.198937
     10          6           0       -3.224280   -1.918918   -0.241773
     11          1           0       -0.151682   -0.553195   -0.526267
     12          1           0       -0.560776   -1.313809    1.207760
     13          1           0        3.629510    0.017850    1.277850
     14          1           0        3.598720    0.788137   -1.911700
     15          1           0        3.073421    1.283130   -0.271714
     16          1           0        1.999780   -1.412810   -1.161070
     17          1           0        1.531590   -0.090081   -2.221160
     18          1           0        1.054701    2.104441   -0.788250
     19          1           0       -1.877601   -2.882209    0.585647
     20          1           0       -4.437780   -0.185248    0.209392
     21          1           0       -4.311260   -0.721719   -1.532620
     22          1           0       -3.154609    1.255852   -1.607040
     23          1           0       -1.993060   -0.086395   -1.606390
     24          1           0       -1.800980    0.463365    0.986696
     25          1           0       -2.675089    2.485822    1.682510
     26          1           0       -3.329909    2.821132    0.249014
     27          7           0       -3.101579    2.058392    0.865622
     28          7           0        0.342253    1.471831   -0.458991
     29          8           0       -0.952512    3.274661   -0.303313
     30          8           0       -3.778821   -2.998268   -0.473658
     31          8           0       -2.015680   -1.930569    0.379023
     32          8           0        1.999790    0.269639    1.736630
     33          8           0        5.010970   -1.103161   -1.114220
     34          8           0        4.347690   -0.525850    0.917332
     35          8           0        0.176230   -1.092729    1.803110
 ---------------------------------------------------------------------

 SCF Done:  E(RHF) =  -1025.59342356     A.U. after    2 cycles

 The electronic state is 1-A.
 Alpha  occ. eigenvalues --  -21.17653 -21.15329 -21.10325 -21.09126 -21.08981
 Alpha  occ. eigenvalues --  -21.05241 -21.03654 -15.79589 -15.75809 -11.59850
 Alpha  occ. eigenvalues --  -11.58908 -11.55623 -11.54690 -11.52429 -11.51524
 Alpha  occ. eigenvalues --  -11.47852 -11.47565 -11.43140 -11.42251  -1.88373
 Alpha  occ. eigenvalues --   -1.85075  -1.82006  -1.73570  -1.70562  -1.68019
 Alpha  occ. eigenvalues --   -1.64412  -1.44896  -1.38079  -1.23833  -1.23115
 Alpha  occ. eigenvalues --   -1.10253  -1.06616  -0.96260  -0.95464  -0.85149
 Alpha  occ. eigenvalues --   -0.84504  -0.82268  -0.78734  -0.75324  -0.73663
 Alpha  occ. eigenvalues --   -0.72312  -0.69665  -0.68495  -0.67747  -0.66096
 Alpha  occ. eigenvalues --   -0.64194  -0.63538  -0.61103  -0.60541  -0.59585
 Alpha  occ. eigenvalues --   -0.58167  -0.57801  -0.57016  -0.55418  -0.54385
 Alpha  occ. eigenvalues --   -0.54049  -0.52590  -0.50871  -0.49944  -0.49393
 Alpha  occ. eigenvalues --   -0.48426  -0.47020  -0.45906  -0.43091  -0.38785
 Alpha  occ. eigenvalues --   -0.38303  -0.37518  -0.36548  -0.33449  -0.32072
 Alpha  occ. eigenvalues --   -0.31325  -0.30903  -0.28888
 Alpha virt. eigenvalues --    0.02776   0.03161   0.03732   0.04274   0.05080
 Alpha virt. eigenvalues --    0.05213   0.05587   0.05999   0.06434   0.06951
 Alpha virt. eigenvalues --    0.07175   0.07960   0.08159   0.08384   0.08817

 Mulliken charges:
               1
     1  C   -1.160021
     2  C    6.235254
     3  C   -4.740674
     4  C    5.850759
     5  C    1.033902
     6  C   -3.799166
     7  C   -4.178730
     8  C   -3.247067
     9  C    5.730282
    10  C    6.172759
    11  H    2.690062
    12  H    1.960531
    13  H    1.559428
    14  H    1.223710
    15  H    1.813645
    16  H    1.477056
    17  H    1.192114
    18  H    0.674970
    19  H    0.872803
    20  H    1.653282
    21  H    1.191918
    22  H    1.308740
    23  H    2.167985
    24  H    2.262117
    25  H    0.559537
    26  H    0.589733
    27  N   -2.948907
    28  N   -3.519559
    29  O   -3.845953
    30  O   -3.259646
    31  O   -3.207746
    32  O   -3.670308
    33  O   -3.425789
    34  O   -3.477481
    35  O   -3.739539
 Sum of Mulliken charges =   0.00000

 Dipole moment (field-independent basis, Debye):
    X=             -3.7452    Y=              0.4673    Z=             -0.4550  Tot=              3.8015

 Test job not archived.
 1\1\GINC-SE094\SP\RHF\Aug-CC-pVDZ\C10H16N2O7\OHZDE\08-Apr-2025\0\\#t h
 f aug-cc-pvdz iop(5/13=1,5/36=2,99/5=2) pseudo=read geom=check guess=(
 read,tcheck) scf=(maxcycle=1)\\title\\0,1\C,0,-2.10362,1.18883,0.22202
 7\C,0,4.26991,-0.471083,-0.404707\C,0,1.87587,-0.334502,-1.21132\C,0,1
 .02734,-0.205484,1.18639\C,0,0.718134,0.0781079,-0.307336\C,0,3.19436,
 0.425623,-0.9525\C,0,-3.7667,-0.57875,-0.597166\C,0,-2.71678,0.450083,
 -0.991061\C,0,-0.871073,2.06015,-0.198937\C,0,-3.22428,-1.91892,-0.241
 773\H,0,-0.151682,-0.553196,-0.526267\H,0,-0.560776,-1.31381,1.20776\H

 Normal termination of Gaussian 16 at Tue Apr  8 22:10:46 2025.
