 Gaussian 16, Revision C.01,

 ----------------------------------------------------------------------
 #t hf aug-cc-pvdz symm=none int=(grid=ultrafine) guess=(read,tcheck) s
 table=(opt,rrhf)
 ----------------------------------------------------------------------
 -----
 title
 -----
 Symbolic Z-matrix:
 Charge =  0 Multiplicity = 1

 SCF Done:  E(RHF) =  -866.308716757     A.U. after   15 cycles
 Normal termination of Gaussian 16 at Tue Apr  8 21:03:12 2025.
 Gaussian 16:  ES64L-G16RevC.01  3-Jul-2019

 ----------------------------------------------------------------------
 #t hf aug-cc-pvdz iop(5/13=1,5/36=2,99/5=2) pseudo=read geom=check gue
 ss=(read,tcheck) scf=(maxcycle=1)
 ----------------------------------------------------------------------
 -----
 title
 -----
 Structure from the checkpoint file:  "ANI1ccx_1746_conf9_mol2.chk"
 Charge =  0 Multiplicity = 1

                         Standard orientation:
 ---------------------------------------------------------------------
 Center     Atomic      Atomic             Coordinates (Angstroms)
 Number     Number       Type             X           Y           Z
 ---------------------------------------------------------------------
      1          6           0       -1.303019   -1.892031    0.509532
      2          6           0       -0.187153   -1.240760   -0.345426
      3          6           0       -2.601209   -1.386352   -0.053354
      4          6           0        1.805570    0.146933   -0.329484
      5          6           0        3.299430   -0.141365   -0.110699
      6          6           0        1.357509    1.523511    0.238503
      7          6           0       -0.137673    1.726220    0.064405
      8          6           0       -0.815721    2.341340   -0.905012
      9          6           0       -2.112662    1.942369    0.822181
     10          1           0        2.845151   -1.982168   -0.393278
     11          1           0       -2.885172    2.722468   -0.980697
     12          1           0       -2.962142    2.051768    1.477860
     13          1           0       -0.714170    2.774170   -1.872550
     14          1           0        1.926478    2.334262   -0.263340
     15          1           0        1.503939    1.400311    1.278750
     16          1           0        1.662000    0.146332   -1.383650
     17          1           0        0.962133   -0.820307    1.304700
     18          1           0       -1.972569   -1.454091   -1.780890
     19          1           0       -3.423669   -1.781842    0.582215
     20          1           0       -2.670140   -0.237775    0.087572
     21          1           0       -1.209628   -2.972561    0.313787
     22          1           0       -1.433748   -2.514381    2.398780
     23          1           0       -1.824900   -0.888654    2.144480
     24          7           0       -1.186579   -1.616271    1.963370
     25          7           0        1.005760   -0.884713    0.235945
     26          7           0       -0.956189    1.443179    1.136340
     27          7           0       -2.053542    2.519379   -0.394587
     28          8           0       -0.341359   -0.889090   -1.521900
     29          8           0       -2.813629   -1.788642   -1.366010
     30          8           0        4.082279    0.718811    0.226094
     31          8           0        3.660191   -1.432047   -0.193823
 ---------------------------------------------------------------------

 SCF Done:  E(RHF) =  -870.194216881     A.U. after    2 cycles

 The electronic state is 1-A.
 Alpha  occ. eigenvalues --  -21.11847 -21.04829 -21.04603 -21.04581 -15.80553
 Alpha  occ. eigenvalues --  -15.77186 -15.76061 -15.72799 -11.54532 -11.53755
 Alpha  occ. eigenvalues --  -11.49413 -11.48634 -11.46828 -11.44447 -11.43323
 Alpha  occ. eigenvalues --  -11.41644 -11.39153  -1.81880  -1.75559  -1.69470
 Alpha  occ. eigenvalues --   -1.64825  -1.59664  -1.43109  -1.36253  -1.29094
 Alpha  occ. eigenvalues --   -1.17545  -1.10006  -1.07014  -0.98465  -0.91447
 Alpha  occ. eigenvalues --   -0.85500  -0.81270  -0.80968  -0.79448  -0.75896
 Alpha  occ. eigenvalues --   -0.73651  -0.70718  -0.66374  -0.65883  -0.63648
 Alpha  occ. eigenvalues --   -0.62690  -0.61942  -0.58770  -0.58390  -0.58276
 Alpha  occ. eigenvalues --   -0.55420  -0.53366  -0.53046  -0.51547  -0.51170
 Alpha  occ. eigenvalues --   -0.50042  -0.48258  -0.47204  -0.44014  -0.43589
 Alpha  occ. eigenvalues --   -0.41438  -0.39255  -0.37950  -0.35971  -0.33235
 Alpha  occ. eigenvalues --   -0.31983  -0.30205  -0.28478  -0.27461
 Alpha virt. eigenvalues --    0.03050   0.03599   0.03823   0.04490   0.05372
 Alpha virt. eigenvalues --    0.05461   0.05923   0.06501   0.06963   0.07336
 Alpha virt. eigenvalues --    0.08024   0.08404   0.08919   0.09078   0.10334

 Mulliken charges:
               1
     1  C   -2.057816
     2  C    6.959723
     3  C    0.369636
     4  C   -3.077963
     5  C    6.335301
     6  C   -4.588651
     7  C    7.623992
     8  C   -3.696635
     9  C    0.015195
    10  H    1.068425
    11  H    0.892614
    12  H    1.881929
    13  H    1.193190
    14  H    1.468918
    15  H    1.472255
    16  H    2.165453
    17  H    0.672638
    18  H    0.996673
    19  H    1.175075
    20  H    1.948810
    21  H    1.898630
    22  H    0.531658
    23  H    0.750771
    24  N   -2.741582
    25  N   -2.527086
    26  N   -4.336204
    27  N   -2.748300
    28  O   -3.685927
    29  O   -3.280067
    30  O   -3.279456
    31  O   -3.401199
 Sum of Mulliken charges =   0.00000

 Dipole moment (field-independent basis, Debye):
    X=             -4.2964    Y=              1.3474    Z=             -0.2148  Tot=              4.5079

 Test job not archived.
 1\1\GINC-SE364\SP\RHF\Aug-CC-pVDZ\C9H14N4O4\OHZDE\08-Apr-2025\0\\#t hf
  aug-cc-pvdz iop(5/13=1,5/36=2,99/5=2) pseudo=read geom=check guess=(r
 ead,tcheck) scf=(maxcycle=1)\\title\\0,1\C,0,-1.30302,-1.89203,0.50953
 2\C,0,-0.187154,-1.24076,-0.345426\C,0,-2.60121,-1.38635,-0.0533541\C,
 0,1.80557,0.146931,-0.329484\C,0,3.29943,-0.141368,-0.110699\C,0,1.357
 51,1.52351,0.238503\C,0,-0.137671,1.72622,0.064405\C,0,-0.815719,2.341
 34,-0.905012\C,0,-2.11266,1.94237,0.822181\H,0,2.84515,-1.98217,-0.393
 278\H,0,-2.88517,2.72247,-0.980697\H,0,-2.96214,2.05177,1.47786\H,0,-0

 Normal termination of Gaussian 16 at Tue Apr  8 21:03:58 2025.
