 Gaussian 16, Revision C.01,

 ----------------------------------------------------------------------
 #t hf aug-cc-pvdz symm=none int=(grid=ultrafine) guess=(read,tcheck) s
 table=(opt,rrhf)
 ----------------------------------------------------------------------
 -----
 title
 -----
 Symbolic Z-matrix:
 Charge =  0 Multiplicity = 1

 SCF Done:  E(RHF) =  -1018.07759851     A.U. after   15 cycles
 Normal termination of Gaussian 16 at Tue Apr  8 21:03:49 2025.
 Gaussian 16:  ES64L-G16RevC.01  3-Jul-2019

 ----------------------------------------------------------------------
 #t hf aug-cc-pvdz iop(5/13=1,5/36=2,99/5=2) pseudo=read geom=check gue
 ss=(read,tcheck) scf=(maxcycle=1)
 ----------------------------------------------------------------------
 -----
 title
 -----
 Structure from the checkpoint file:  "ANI1ccx_171_conf26_mol1.chk"
 Charge =  0 Multiplicity = 1

                         Standard orientation:
 ---------------------------------------------------------------------
 Center     Atomic      Atomic             Coordinates (Angstroms)
 Number     Number       Type             X           Y           Z
 ---------------------------------------------------------------------
      1          6           0        1.008660   -1.047841    1.377240
      2          6           0       -2.160371   -2.075059   -0.924158
      3          6           0       -2.582719    0.583508   -0.750067
      4          6           0       -1.566098    2.586710    0.424803
      5          6           0       -1.285689    1.295050   -0.480667
      6          6           0       -2.456070   -0.683435   -1.612270
      7          6           0        4.080240   -0.202816    0.191811
      8          6           0        2.833620   -0.528496   -0.304488
      9          6           0        1.922489   -1.570032    0.023179
     10          6           0       -0.159310   -0.167597    1.088710
     11          6           0        3.524441    1.251117   -1.407470
     12          1           0       -0.875162    1.882650   -1.390450
     13          1           0       -2.521827    4.196181    0.268943
     14          1           0       -3.177392   -3.421939   -0.099749
     15          1           0       -1.672190   -0.666285   -2.508070
     16          1           0       -3.498030   -0.795267   -1.986610
     17          1           0       -3.221419    1.269151   -1.243250
     18          1           0       -2.918289    0.314371    0.304482
     19          1           0        0.603366    0.367325   -0.742727
     20          1           0        3.532652    2.173677   -1.940030
     21          1           0        4.684300   -0.709293    0.969946
     22          1           0        1.097399   -1.727801   -0.742328
     23          1           0        2.447689   -2.538062    0.119313
     24          1           0        1.706830   -0.361129    2.035720
     25          1           0       -0.265086   -2.570090    1.641470
     26          1           0        0.115542   -1.816481    2.901080
     27          1           0        5.356241    1.411586   -0.295492
     28          7           0        0.587910   -2.267401    2.139230
     29          7           0        2.504861    0.374619   -1.290190
     30          7           0        4.506581    0.907935   -0.524157
     31          7           0       -0.154333    0.528517   -0.062622
     32          8           0       -3.294961   -2.532678   -0.333871
     33          8           0       -0.955838    0.064680    1.996230
     34          8           0       -1.267178    2.844750    1.536410
     35          8           0       -1.059271   -2.621310   -1.027980
     36          8           0       -2.480867    3.436941   -0.281759
 ---------------------------------------------------------------------

 SCF Done:  E(RHF) =  -1022.62234612     A.U. after    2 cycles

 The electronic state is 1-A.
 Alpha  occ. eigenvalues --  -21.15099 -21.10525 -21.06906 -21.06080 -21.00889
 Alpha  occ. eigenvalues --  -15.81470 -15.75152 -15.72648 -15.72322 -11.55507
 Alpha  occ. eigenvalues --  -11.53920 -11.53713 -11.50093 -11.46800 -11.45724
 Alpha  occ. eigenvalues --  -11.44557 -11.44148 -11.42683 -11.40191 -11.38613
 Alpha  occ. eigenvalues --   -1.83277  -1.80343  -1.70066  -1.67157  -1.64931
 Alpha  occ. eigenvalues --   -1.56476  -1.41480  -1.32565  -1.28023  -1.21161
 Alpha  occ. eigenvalues --   -1.14366  -1.07458  -1.02323  -0.95352  -0.91519
 Alpha  occ. eigenvalues --   -0.86455  -0.81524  -0.80048  -0.78053  -0.75317
 Alpha  occ. eigenvalues --   -0.74636  -0.70023  -0.67428  -0.64775  -0.63391
 Alpha  occ. eigenvalues --   -0.62965  -0.61324  -0.60808  -0.59621  -0.58707
 Alpha  occ. eigenvalues --   -0.58278  -0.57655  -0.56454  -0.55850  -0.54194
 Alpha  occ. eigenvalues --   -0.53457  -0.51942  -0.51596  -0.49620  -0.48125
 Alpha  occ. eigenvalues --   -0.46804  -0.45998  -0.45472  -0.43266  -0.42342
 Alpha  occ. eigenvalues --   -0.39654  -0.37728  -0.35869  -0.35458  -0.34006
 Alpha  occ. eigenvalues --   -0.31984  -0.30792  -0.30553  -0.27502  -0.25622
 Alpha virt. eigenvalues --    0.03052   0.04179   0.04476   0.05016   0.05203
 Alpha virt. eigenvalues --    0.05392   0.05862   0.06576   0.06845   0.07203
 Alpha virt. eigenvalues --    0.07473   0.08107   0.08192   0.09066   0.09563

 Mulliken charges:
               1
     1  C   -0.393399
     2  C    6.854343
     3  C   -3.024575
     4  C    6.917566
     5  C   -1.474054
     6  C   -4.914023
     7  C   -2.513192
     8  C    5.244549
     9  C   -3.665228
    10  C    6.172007
    11  C    0.625178
    12  H    1.997497
    13  H    1.047896
    14  H    0.993148
    15  H    1.257605
    16  H    1.398737
    17  H    1.446873
    18  H    1.540771
    19  H    1.093102
    20  H    1.823064
    21  H    1.307098
    22  H    1.493890
    23  H    1.147456
    24  H    1.713044
    25  H    0.577078
    26  H    0.516233
    27  H    0.896994
    28  N   -2.988717
    29  N   -3.673570
    30  N   -3.156818
    31  N   -2.769995
    32  O   -3.508744
    33  O   -4.022255
    34  O   -3.379609
    35  O   -3.384990
    36  O   -3.194958
 Sum of Mulliken charges =  -0.00000

 Dipole moment (field-independent basis, Debye):
    X=              2.1361    Y=              1.4973    Z=             -1.6926  Tot=              3.1097

 Test job not archived.
 1\1\GINC-SE030\SP\RHF\Aug-CC-pVDZ\C11H16N4O5\OHZDE\08-Apr-2025\0\\#t h
 f aug-cc-pvdz iop(5/13=1,5/36=2,99/5=2) pseudo=read geom=check guess=(
 read,tcheck) scf=(maxcycle=1)\\title\\0,1\C,0,1.00866,-1.04784,1.37724
 \C,0,-2.16037,-2.07506,-0.924158\C,0,-2.58272,0.583507,-0.750067\C,0,-
 1.5661,2.58671,0.424803\C,0,-1.28569,1.29505,-0.480667\C,0,-2.45607,-0
 .683436,-1.61227\C,0,4.08024,-0.202813,0.191811\C,0,2.83362,-0.528494,
 -0.304488\C,0,1.92249,-1.57003,0.0231798\C,0,-0.15931,-0.167597,1.0887
 1\C,0,3.52444,1.25112,-1.40747\H,0,-0.875164,1.88265,-1.39045\H,0,-2.5

 Normal termination of Gaussian 16 at Tue Apr  8 21:04:59 2025.
