 Gaussian 16, Revision C.01,

 ----------------------------------------------------------------------
 #t hf aug-cc-pvdz symm=none int=(grid=ultrafine) guess=(read,tcheck) s
 table=(opt,rrhf)
 ----------------------------------------------------------------------
 -----
 title
 -----
 Symbolic Z-matrix:
 Charge =  0 Multiplicity = 1

 SCF Done:  E(RHF) =  -350.914078896     A.U. after   14 cycles
 Normal termination of Gaussian 16 at Tue Apr  8 21:46:56 2025.
 Gaussian 16:  ES64L-G16RevC.01  3-Jul-2019

 ----------------------------------------------------------------------
 #t hf aug-cc-pvdz iop(5/13=1,5/36=2,99/5=2) pseudo=read geom=check gue
 ss=(read,tcheck) scf=(maxcycle=1)
 ----------------------------------------------------------------------
 -----
 title
 -----
 Structure from the checkpoint file:  "ANI1ccx_542_conf5_mol1.chk"
 Charge =  0 Multiplicity = 1

                         Standard orientation:
 ---------------------------------------------------------------------
 Center     Atomic      Atomic             Coordinates (Angstroms)
 Number     Number       Type             X           Y           Z
 ---------------------------------------------------------------------
      1          6           0        1.095519   -0.004683    0.006498
      2          6           0       -1.081761   -0.060818    0.038450
      3          1           0        3.018119    0.344741   -0.181892
      4          1           0        2.658529   -1.010941    0.739675
      5          1           0       -2.620451   -1.053230   -0.690266
      6          1           0       -2.979881    0.441193   -0.093375
      7          1           0       -0.038665   -1.941981   -0.012145
      8          7           0        2.376949   -0.477709   -0.101319
      9          7           0        0.689636    1.172159    0.024964
     10          7           0       -0.680251    1.166630   -0.021817
     11          7           0       -2.408621   -0.453127    0.108906
     12          7           0        0.005114   -0.891778   -0.015259
 ---------------------------------------------------------------------

 SCF Done:  E(RHF) =  -352.501755055     A.U. after    2 cycles

 The electronic state is 1-A.
 Alpha  occ. eigenvalues --  -15.79174 -15.77746 -15.77283 -15.71806 -15.70981
 Alpha  occ. eigenvalues --  -11.46757 -11.44021  -1.64997  -1.39757  -1.34813
 Alpha  occ. eigenvalues --   -1.29080  -1.11154  -0.84515  -0.83284  -0.73116
 Alpha  occ. eigenvalues --   -0.69112  -0.66031  -0.61557  -0.59542  -0.55589
 Alpha  occ. eigenvalues --   -0.48755  -0.43435  -0.41601  -0.38866  -0.36245
 Alpha  occ. eigenvalues --   -0.28686
 Alpha virt. eigenvalues --    0.02912   0.04326   0.05140   0.06273   0.07192
 Alpha virt. eigenvalues --    0.10618   0.10939   0.12078   0.12751   0.13853
 Alpha virt. eigenvalues --    0.14403   0.15105   0.17221   0.17541   0.17968

 Mulliken charges:
               1
     1  C    4.530471
     2  C    4.237322
     3  H    0.520891
     4  H    0.548124
     5  H    0.540533
     6  H    0.492097
     7  H    0.768082
     8  N   -2.862451
     9  N   -1.848629
    10  N   -1.832122
    11  N   -2.764623
    12  N   -2.329696
 Sum of Mulliken charges =  -0.00000

 Dipole moment (field-independent basis, Debye):
    X=              0.2095    Y=             -4.2601    Z=             -0.1911  Tot=              4.2695

 Test job not archived.
 1\1\GINC-SE455\SP\RHF\Aug-CC-pVDZ\C2H5N5\OHZDE\08-Apr-2025\0\\#t hf au
 g-cc-pvdz iop(5/13=1,5/36=2,99/5=2) pseudo=read geom=check guess=(read
 ,tcheck) scf=(maxcycle=1)\\title\\0,1\C,0,1.09552,-0.0046818,0.0064976
 5\C,0,-1.08176,-0.0608181,0.0384498\H,0,3.01812,0.344742,-0.181892\H,0
 ,2.65853,-1.01094,0.739675\H,0,-2.62045,-1.05323,-0.690266\H,0,-2.9798
 8,0.441193,-0.0933751\H,0,-0.0386638,-1.94198,-0.0121451\N,0,2.37695,-
 0.477708,-0.101319\N,0,0.689637,1.17216,0.024964\N,0,-0.68025,1.16663,
 -0.0218172\N,0,-2.40862,-0.453127,0.108906\N,0,0.00511548,-0.891777,-0

 Normal termination of Gaussian 16 at Tue Apr  8 21:47:00 2025.
