 Gaussian 16, Revision C.01,

 ----------------------------------------------------------------------
 #t hf aug-cc-pvdz symm=none int=(grid=ultrafine) guess=(read,tcheck) s
 table=(opt,rrhf)
 ----------------------------------------------------------------------
 -----
 title
 -----
 Symbolic Z-matrix:
 Charge =  0 Multiplicity = 1

 SCF Done:  E(RHF) =  -376.428703247     A.U. after   14 cycles
 Normal termination of Gaussian 16 at Tue Apr  8 21:44:47 2025.
 Gaussian 16:  ES64L-G16RevC.01  3-Jul-2019

 ----------------------------------------------------------------------
 #t hf aug-cc-pvdz iop(5/13=1,5/36=2,99/5=2) pseudo=read geom=check gue
 ss=(read,tcheck) scf=(maxcycle=1)
 ----------------------------------------------------------------------
 -----
 title
 -----
 Structure from the checkpoint file:  "ANI1ccx_494_conf3_mol1.chk"
 Charge =  0 Multiplicity = 1

                         Standard orientation:
 ---------------------------------------------------------------------
 Center     Atomic      Atomic             Coordinates (Angstroms)
 Number     Number       Type             X           Y           Z
 ---------------------------------------------------------------------
      1          6           0       -0.740221   -0.155143    0.006809
      2          6           0        0.761630    0.134899    0.052671
      3          1           0       -2.370359    0.687263   -0.194578
      4          1           0        2.364399   -0.647427   -0.326291
      5          8           0       -1.439579    0.944321   -0.307659
      6          8           0       -1.192342   -1.205220    0.320960
      7          8           0        1.401318   -0.942264   -0.303576
      8          8           0        1.215291    1.213367    0.310774
 ---------------------------------------------------------------------

 SCF Done:  E(RHF) =  -377.947818487     A.U. after    2 cycles

 The electronic state is 1-A.
 Alpha  occ. eigenvalues --  -21.15829 -21.14978 -21.09091 -21.08766 -11.56755
 Alpha  occ. eigenvalues --  -11.52842  -1.89441  -1.83202  -1.70396  -1.67903
 Alpha  occ. eigenvalues --   -1.01536  -0.78710  -0.67531  -0.64666  -0.64189
 Alpha  occ. eigenvalues --   -0.59640  -0.55317  -0.53305  -0.47405  -0.38039
 Alpha  occ. eigenvalues --   -0.36675  -0.36387  -0.29145
 Alpha virt. eigenvalues --    0.03377   0.05373   0.10070   0.10405   0.10825
 Alpha virt. eigenvalues --    0.10987   0.11516   0.12731   0.13809   0.14344
 Alpha virt. eigenvalues --    0.17531   0.19268   0.19763   0.20447   0.22208

 Mulliken charges:
               1
     1  C    4.497298
     2  C    4.780252
     3  H    0.851518
     4  H    0.811375
     5  O   -2.700754
     6  O   -2.756447
     7  O   -2.718611
     8  O   -2.764632
 Sum of Mulliken charges =   0.00000

 Dipole moment (field-independent basis, Debye):
    X=              0.0028    Y=             -0.0810    Z=             -0.6120  Tot=              0.6173

 Test job not archived.
 1\1\GINC-SE029\SP\RHF\Aug-CC-pVDZ\C2H2O4\OHZDE\08-Apr-2025\0\\#t hf au
 g-cc-pvdz iop(5/13=1,5/36=2,99/5=2) pseudo=read geom=check guess=(read
 ,tcheck) scf=(maxcycle=1)\\title\\0,1\C,0,-0.74022,-0.155143,0.0068090
 1\C,0,0.76163,0.134901,0.0526715\H,0,-2.37036,0.687261,-0.194578\H,0,2
 .3644,-0.647422,-0.326291\O,0,-1.43958,0.94432,-0.307659\O,0,-1.19234,
 -1.20522,0.32096\O,0,1.40132,-0.942261,-0.303576\O,0,1.21529,1.21337,0
 .310774\\Version=ES64L-G16RevC.01\State=1-A\HF=-377.9478185\RMSD=1.368
 e-01\Dipole=0.0010855,-0.0318761,-0.2407766\Quadrupole=4.43866,-4.0523

 Normal termination of Gaussian 16 at Tue Apr  8 21:44:49 2025.
