 Gaussian 16, Revision C.01,

 ----------------------------------------------------------------------
 #t hf aug-cc-pvdz symm=none int=(grid=ultrafine) guess=(read,tcheck) s
 table=(opt,rrhf)
 ----------------------------------------------------------------------
 -----
 title
 -----
 Symbolic Z-matrix:
 Charge =  0 Multiplicity = 1

 SCF Done:  E(RHF) =  -555.319250030     A.U. after   16 cycles
 Normal termination of Gaussian 16 at Tue Apr  8 22:08:49 2025.
 Gaussian 16:  ES64L-G16RevC.01  3-Jul-2019

 ----------------------------------------------------------------------
 #t hf aug-cc-pvdz iop(5/13=1,5/36=2,99/5=2) pseudo=read geom=check gue
 ss=(read,tcheck) scf=(maxcycle=1)
 ----------------------------------------------------------------------
 -----
 title
 -----
 Structure from the checkpoint file:  "ANI1ccx_886_conf11_mol1.chk"
 Charge =  0 Multiplicity = 1

                         Standard orientation:
 ---------------------------------------------------------------------
 Center     Atomic      Atomic             Coordinates (Angstroms)
 Number     Number       Type             X           Y           Z
 ---------------------------------------------------------------------
      1          6           0        1.339601    0.723237   -0.066110
      2          6           0       -0.944180    0.727340    0.035975
      3          6           0       -0.963927   -0.696706   -0.084560
      4          6           0        1.296471   -0.746989   -0.018179
      5          1           0        2.496350    2.383230   -0.125403
      6          1           0        3.330731    0.883801   -0.552104
      7          1           0        2.375041   -2.382940    0.146820
      8          1           0        3.097311   -1.011640    0.834408
      9          7           0        2.547041    1.346590   -0.043845
     10          7           0        0.247885    1.383700    0.028246
     11          7           0       -2.208289    1.151439    0.142559
     12          7           0       -2.215449   -1.093001   -0.095586
     13          7           0        0.201898   -1.403390   -0.092082
     14          7           0        2.515381   -1.357580    0.101730
     15          8           0       -2.910809   -0.013506    0.025796
 ---------------------------------------------------------------------

 SCF Done:  E(RHF) =  -557.781659007     A.U. after    2 cycles

 The electronic state is 1-A.
 Alpha  occ. eigenvalues --  -21.15228 -15.80704 -15.80403 -15.80192 -15.79499
 Alpha  occ. eigenvalues --  -15.76884 -15.75945 -11.56989 -11.49669 -11.47853
 Alpha  occ. eigenvalues --  -11.42809  -2.00021  -1.57780  -1.43352  -1.39538
 Alpha  occ. eigenvalues --   -1.34685  -1.25900  -1.21455  -0.99094  -0.89977
 Alpha  occ. eigenvalues --   -0.88485  -0.78010  -0.72251  -0.70180  -0.68951
 Alpha  occ. eigenvalues --   -0.67499  -0.65840  -0.61285  -0.58464  -0.54085
 Alpha  occ. eigenvalues --   -0.52375  -0.47982  -0.45141  -0.44726  -0.44083
 Alpha  occ. eigenvalues --   -0.41021  -0.34213  -0.34004  -0.29941
 Alpha virt. eigenvalues --    0.02617   0.03954   0.05445   0.05484   0.08066
 Alpha virt. eigenvalues --    0.08662   0.09684   0.09907   0.10503   0.12168
 Alpha virt. eigenvalues --    0.12283   0.12710   0.13506   0.13826   0.14660

 Mulliken charges:
               1
     1  C    4.704756
     2  C    3.716388
     3  C    3.929295
     4  C    4.411842
     5  H    0.763160
     6  H    0.541673
     7  H    0.671651
     8  H    0.569690
     9  N   -3.285047
    10  N   -3.872568
    11  N   -1.356433
    12  N   -1.159907
    13  N   -3.635627
    14  N   -3.380385
    15  O   -2.618487
 Sum of Mulliken charges =  -0.00000

 Dipole moment (field-independent basis, Debye):
    X=              5.6505    Y=             -0.1969    Z=              0.1860  Tot=              5.6570

 Test job not archived.
 1\1\GINC-SE015\SP\RHF\Aug-CC-pVDZ\C4H4N6O1\OHZDE\08-Apr-2025\0\\#t hf
 aug-cc-pvdz iop(5/13=1,5/36=2,99/5=2) pseudo=read geom=check guess=(re
 ad,tcheck) scf=(maxcycle=1)\\title\\0,1\C,0,1.3396,0.723237,-0.06611\C
 ,0,-0.944181,0.72734,0.0359752\C,0,-0.963928,-0.696706,-0.0845601\C,0,
 1.29647,-0.746989,-0.018179\H,0,2.49635,2.38323,-0.125403\H,0,3.33073,
 0.883801,-0.552104\H,0,2.37504,-2.38294,0.14682\H,0,3.09731,-1.01164,0
 .834408\N,0,2.54704,1.34659,-0.0438445\N,0,0.247884,1.3837,0.0282461\N
 ,0,-2.20829,1.15144,0.142559\N,0,-2.21545,-1.093,-0.0955858\N,0,0.2018

 Normal termination of Gaussian 16 at Tue Apr  8 22:08:57 2025.
