 Gaussian 16, Revision C.01,

 ----------------------------------------------------------------------
 #t hf aug-cc-pvdz symm=none int=(grid=ultrafine) guess=(read,tcheck) s
 table=(opt,rrhf)
 ----------------------------------------------------------------------
 -----
 title
 -----
 Symbolic Z-matrix:
 Charge =  0 Multiplicity = 1

 SCF Done:  E(RHF) =  -577.538011954     A.U. after   15 cycles
 Normal termination of Gaussian 16 at Tue Apr  8 22:15:51 2025.
 Gaussian 16:  ES64L-G16RevC.01  3-Jul-2019

 ----------------------------------------------------------------------
 #t hf aug-cc-pvdz iop(5/13=1,5/36=2,99/5=2) pseudo=read geom=check gue
 ss=(read,tcheck) scf=(maxcycle=1)
 ----------------------------------------------------------------------
 -----
 title
 -----
 Structure from the checkpoint file:  "ANI1ccx_949_conf1_mol1.chk"
 Charge =  0 Multiplicity = 1

                         Standard orientation:
 ---------------------------------------------------------------------
 Center     Atomic      Atomic             Coordinates (Angstroms)
 Number     Number       Type             X           Y           Z
 ---------------------------------------------------------------------
      1          6           0        1.424159    0.757739    0.038112
      2          6           0        1.581140   -1.390140   -0.177547
      3          6           0       -1.493410   -1.013821    0.695689
      4          6           0       -2.189671   -0.105623   -0.323877
      5          1           0       -2.505921    1.781619   -0.582821
      6          1           0       -1.390180   -2.035761    0.321123
      7          1           0       -0.052988   -1.039580    2.116679
      8          1           0       -2.115600   -1.051961    1.591299
      9          1           0        1.463479    2.744800    0.352131
     10          1           0        0.029486    1.907120    0.863954
     11          1           0        1.410660   -2.454000   -0.069992
     12          7           0        0.818571    1.938370    0.236679
     13          7           0        2.513299    0.498191   -0.598197
     14          7           0        2.650770   -0.851601   -0.735391
     15          7           0        0.806158   -0.414808    0.370563
     16          7           0       -0.249208   -0.467866    1.284059
     17          8           0       -1.953411    1.219119   -0.002370
     18          8           0       -2.865260   -0.501265   -1.233961
 ---------------------------------------------------------------------

 SCF Done:  E(RHF) =  -580.086670381     A.U. after    2 cycles

 The electronic state is 1-A.
 Alpha  occ. eigenvalues --  -21.14001 -21.08783 -15.80963 -15.80282 -15.76822
 Alpha  occ. eigenvalues --  -15.73873 -15.70771 -11.56256 -11.47134 -11.45641
 Alpha  occ. eigenvalues --  -11.42131  -1.83507  -1.68417  -1.67562  -1.48229
 Alpha  occ. eigenvalues --   -1.37487  -1.24656  -1.13150  -1.05795  -0.88122
 Alpha  occ. eigenvalues --   -0.83668  -0.80798  -0.75624  -0.70592  -0.68404
 Alpha  occ. eigenvalues --   -0.65988  -0.64888  -0.62143  -0.60916  -0.58224
 Alpha  occ. eigenvalues --   -0.56373  -0.52866  -0.48526  -0.46486  -0.44551
 Alpha  occ. eigenvalues --   -0.41914  -0.38370  -0.36392  -0.34666  -0.32115
 Alpha  occ. eigenvalues --   -0.28099
 Alpha virt. eigenvalues --    0.02440   0.04064   0.04857   0.04908   0.05751
 Alpha virt. eigenvalues --    0.06622   0.07110   0.08829   0.10438   0.11308
 Alpha virt. eigenvalues --    0.11505   0.12070   0.12547   0.12716   0.13715

 Mulliken charges:
               1
     1  C    4.174006
     2  C    1.450218
     3  C   -3.257403
     4  C    5.807434
     5  H    0.992535
     6  H    1.527797
     7  H    0.729319
     8  H    1.504517
     9  H    0.577494
    10  H    0.873767
    11  H    1.664822
    12  N   -3.028274
    13  N   -1.847569
    14  N   -1.992715
    15  N   -1.247570
    16  N   -1.739245
    17  O   -3.054789
    18  O   -3.134344
 Sum of Mulliken charges =   0.00000

 Dipole moment (field-independent basis, Debye):
    X=             -4.2570    Y=              0.5485    Z=              4.3440  Tot=              6.1068

 Test job not archived.
 1\1\GINC-SE252\SP\RHF\Aug-CC-pVDZ\C4H7N5O2\OHZDE\08-Apr-2025\0\\#t hf
 aug-cc-pvdz iop(5/13=1,5/36=2,99/5=2) pseudo=read geom=check guess=(re
 ad,tcheck) scf=(maxcycle=1)\\title\\0,1\C,0,1.42416,0.757739,0.0381123
 \C,0,1.58114,-1.39014,-0.177546\C,0,-1.49341,-1.01382,0.69569\C,0,-2.1
 8967,-0.105622,-0.323876\H,0,-2.50592,1.78162,-0.58282\H,0,-1.39018,-2
 .03576,0.321124\H,0,-0.0529873,-1.03958,2.11668\H,0,-2.1156,-1.05196,1
 .5913\H,0,1.46348,2.7448,0.352132\H,0,0.0294875,1.90712,0.863955\H,0,1
 .41066,-2.454,-0.0699911\N,0,0.818572,1.93837,0.23668\N,0,2.5133,0.498

 Normal termination of Gaussian 16 at Tue Apr  8 22:16:01 2025.
