 Gaussian 16, Revision C.01,

 ----------------------------------------------------------------------
 #t hf aug-cc-pvdz symm=none int=(grid=ultrafine) guess=(read,tcheck) s
 table=(opt,rrhf)
 ----------------------------------------------------------------------
 -----
 title
 -----
 Symbolic Z-matrix:
 Charge =  0 Multiplicity = 1

 SCF Done:  E(RHF) =  -923.684860008     A.U. after   14 cycles
 Normal termination of Gaussian 16 at Tue Apr  8 21:28:51 2025.
 Gaussian 16:  ES64L-G16RevC.01  3-Jul-2019

 ----------------------------------------------------------------------
 #t hf aug-cc-pvdz iop(5/13=1,5/36=2,99/5=2) pseudo=read geom=check gue
 ss=(read,tcheck) scf=(maxcycle=1)
 ----------------------------------------------------------------------
 -----
 title
 -----
 Structure from the checkpoint file:  "ANI1ccx_1787_conf11_mol2.chk"
 Charge =  0 Multiplicity = 1

                         Standard orientation:
 ---------------------------------------------------------------------
 Center     Atomic      Atomic             Coordinates (Angstroms)
 Number     Number       Type             X           Y           Z
 ---------------------------------------------------------------------
      1          6           0       -1.680060   -1.252139   -0.200741
      2          6           0        1.572333    2.343538    0.484415
      3          6           0        2.324742    1.470167   -0.538456
      4          6           0        1.550251    0.389271   -1.247970
      5          6           0       -0.870352    2.556410   -0.230863
      6          6           0        1.357660   -0.913478   -0.443343
      7          6           0       -3.147010   -0.954985   -0.024292
      8          6           0       -0.824793   -0.639362    0.918614
      9          6           0        2.683699   -1.594513   -0.092969
     10          1           0        2.675073    2.134537   -1.288800
     11          1           0        1.834249   -2.370302    1.584300
     12          1           0       -2.267087    2.136321    1.145360
     13          1           0       -0.786059    2.753110    1.816760
     14          1           0       -0.942605    2.051710   -2.012390
     15          1           0        0.541500    4.081789    0.163041
     16          1           0        1.199603    1.747248    1.363430
     17          1           0        2.387394    3.040417    0.824823
     18          1           0        3.187142    1.051726   -0.022891
     19          1           0        2.028461    0.080497   -2.168260
     20          1           0        0.550729    0.796323   -1.577250
     21          1           0       -1.537732   -3.082229    0.670291
     22          1           0       -1.417210   -0.825761   -1.193570
     23          1           0       -3.294489    0.140821   -0.086536
     24          1           0       -1.900672   -3.135659   -0.980318
     25          1           0       -4.762920   -1.401286   -1.030770
     26          1           0        1.074391   -0.275128    1.548760
     27          1           0        0.831244   -1.649142   -1.037490
     28          1           0       -3.542060   -1.314827    0.918066
     29          7           0       -1.360462   -2.682019   -0.249133
     30          7           0        0.554402   -0.665031    0.782225
     31          7           0        0.496736    3.148529   -0.251789
     32          7           0       -1.518617    2.055721   -1.180260
     33          7           0       -1.430517    2.701271    1.030400
     34          8           0        3.681389   -1.597054   -0.747903
     35          8           0       -1.370219   -0.196327    1.899710
     36          8           0       -3.819961   -1.584297   -1.101270
     37          8           0        2.652719   -2.409683    1.036580
 ---------------------------------------------------------------------

 SCF Done:  E(RHF) =  -927.881385378     A.U. after    2 cycles

 The electronic state is 1-A.
 Alpha  occ. eigenvalues --  -21.11205 -21.07291 -21.06419 -21.04799 -15.77842
 Alpha  occ. eigenvalues --  -15.75890 -15.74493 -15.74396 -15.72251 -11.56417
 Alpha  occ. eigenvalues --  -11.55965 -11.49981 -11.49485 -11.47847 -11.47253
 Alpha  occ. eigenvalues --  -11.43870 -11.41471 -11.38902  -1.81401  -1.74619
 Alpha  occ. eigenvalues --   -1.71200  -1.65452  -1.47585  -1.42699  -1.34610
 Alpha  occ. eigenvalues --   -1.31121  -1.25039  -1.20187  -1.08904  -1.07517
 Alpha  occ. eigenvalues --   -0.97614  -0.92456  -0.86563  -0.80971  -0.80651
 Alpha  occ. eigenvalues --   -0.78889  -0.73228  -0.73086  -0.71816  -0.68837
 Alpha  occ. eigenvalues --   -0.67018  -0.65468  -0.63071  -0.62711  -0.61265
 Alpha  occ. eigenvalues --   -0.60043  -0.59439  -0.58621  -0.57609  -0.56048
 Alpha  occ. eigenvalues --   -0.53743  -0.53088  -0.52993  -0.51840  -0.51279
 Alpha  occ. eigenvalues --   -0.48530  -0.47272  -0.45891  -0.44732  -0.43644
 Alpha  occ. eigenvalues --   -0.42147  -0.39658  -0.36664  -0.36472  -0.35008
 Alpha  occ. eigenvalues --   -0.33958  -0.33281  -0.32182  -0.31235  -0.29109
 Alpha virt. eigenvalues --    0.03525   0.04302   0.04452   0.04640   0.05312
 Alpha virt. eigenvalues --    0.05592   0.05629   0.06158   0.06345   0.06561
 Alpha virt. eigenvalues --    0.06937   0.07709   0.07992   0.08099   0.09070

 Mulliken charges:
               1
     1  C   -1.950100
     2  C   -3.531296
     3  C   -3.248687
     4  C   -3.212083
     5  C    7.137576
     6  C   -3.360410
     7  C   -1.627464
     8  C    8.330631
     9  C    6.759169
    10  H    1.504878
    11  H    1.151884
    12  H    0.798096
    13  H    0.649839
    14  H    0.782591
    15  H    0.691277
    16  H    1.868097
    17  H    1.248570
    18  H    1.535390
    19  H    1.203208
    20  H    2.493244
    21  H    0.618059
    22  H    1.949449
    23  H    1.354427
    24  H    0.644589
    25  H    0.850009
    26  H    0.928035
    27  H    2.255580
    28  H    1.553598
    29  N   -2.737651
    30  N   -2.081054
    31  N   -2.543918
    32  N   -3.983910
    33  N   -3.760444
    34  O   -3.483109
    35  O   -4.469059
    36  O   -2.919375
    37  O   -3.399637
 Sum of Mulliken charges =  -0.00000

 Dipole moment (field-independent basis, Debye):
    X=             -0.6699    Y=              0.8612    Z=              1.6415  Tot=              1.9710

 Test job not archived.
 1\1\GINC-SE247\SP\RHF\Aug-CC-pVDZ\C9H19N5O4\OHZDE\08-Apr-2025\0\\#t hf
  aug-cc-pvdz iop(5/13=1,5/36=2,99/5=2) pseudo=read geom=check guess=(r
 ead,tcheck) scf=(maxcycle=1)\\title\\0,1\C,0,-1.68006,-1.25214,-0.2007
 41\C,0,1.57233,2.34354,0.484415\C,0,2.32474,1.47017,-0.538456\C,0,1.55
 025,0.389273,-1.24797\C,0,-0.870355,2.55641,-0.230863\C,0,1.35766,-0.9
 13476,-0.443343\C,0,-3.14701,-0.954987,-0.0242927\C,0,-0.824793,-0.639
 362,0.918614\C,0,2.6837,-1.59451,-0.0929698\H,0,2.67507,2.13454,-1.288
 8\H,0,1.83425,-2.3703,1.5843\H,0,-2.26709,2.13632,1.14536\H,0,-0.78606

 Normal termination of Gaussian 16 at Tue Apr  8 21:30:00 2025.
