 Gaussian 16, Revision C.01,

 ----------------------------------------------------------------------
 #t hf aug-cc-pvdz symm=none int=(grid=ultrafine) guess=(read,tcheck) s
 table=(opt,rrhf)
 ----------------------------------------------------------------------
 -----
 title
 -----
 Symbolic Z-matrix:
 Charge =  0 Multiplicity = 1

 SCF Done:  E(RHF) =  -509.534435966     A.U. after   14 cycles
 Normal termination of Gaussian 16 at Tue Apr  8 22:13:58 2025.
 Gaussian 16:  ES64L-G16RevC.01  3-Jul-2019

 ----------------------------------------------------------------------
 #t hf aug-cc-pvdz iop(5/13=1,5/36=2,99/5=2) pseudo=read geom=check gue
 ss=(read,tcheck) scf=(maxcycle=1)
 ----------------------------------------------------------------------
 -----
 title
 -----
 Structure from the checkpoint file:  "ANI1ccx_939_conf57_mol1.chk"
 Charge =  0 Multiplicity = 1

                         Standard orientation:
 ---------------------------------------------------------------------
 Center     Atomic      Atomic             Coordinates (Angstroms)
 Number     Number       Type             X           Y           Z
 ---------------------------------------------------------------------
      1          6           0       -0.740514    0.769213   -0.565954
      2          6           0       -1.173759   -0.636146   -0.203371
      3          6           0        0.741689    1.063180   -0.637020
      4          6           0        1.583030    0.084850    0.129209
      5          1           0       -2.309781    2.035409   -0.080723
      6          1           0       -1.795290    0.983760    1.094449
      7          1           0       -1.129720    0.989026   -1.568671
      8          1           0        1.133600    1.022591   -1.704461
      9          1           0        0.987539    2.064481   -0.272628
     10          1           0        1.831151   -0.814379    1.645299
     11          1           0       -0.967804   -2.412341   -0.606049
     12          7           0       -1.415641    1.659049    0.383042
     13          8           0       -1.901289   -0.785984    0.739303
     14          8           0        2.744570   -0.208600   -0.242345
     15          8           0        1.091481   -0.343364    1.270359
     16          8           0       -0.722622   -1.558110   -0.958032
 ---------------------------------------------------------------------

 SCF Done:  E(RHF) =  -511.709091866     A.U. after    2 cycles

 The electronic state is 1-A.
 Alpha  occ. eigenvalues --  -21.16123 -21.14707 -21.05907 -21.04591 -15.72194
 Alpha  occ. eigenvalues --  -11.54917 -11.53958 -11.48304 -11.41545  -1.88888
 Alpha  occ. eigenvalues --   -1.85520  -1.69377  -1.64074  -1.35512  -1.14540
 Alpha  occ. eigenvalues --   -0.99390  -0.85077  -0.78198  -0.71847  -0.68416
 Alpha  occ. eigenvalues --   -0.65591  -0.63707  -0.62004  -0.57862  -0.56452
 Alpha  occ. eigenvalues --   -0.53324  -0.52743  -0.49193  -0.45872  -0.43934
 Alpha  occ. eigenvalues --   -0.37157  -0.36195  -0.33570  -0.31901  -0.29435
 Alpha virt. eigenvalues --    0.03323   0.04218   0.05532   0.06063   0.06327
 Alpha virt. eigenvalues --    0.06487   0.07807   0.09532   0.10008   0.11907
 Alpha virt. eigenvalues --    0.12856   0.12944   0.13378   0.14319   0.14761

 Mulliken charges:
               1
     1  C   -1.221293
     2  C    7.198042
     3  C   -4.007440
     4  C    6.142987
     5  H    0.426280
     6  H    0.629513
     7  H    1.658610
     8  H    1.257764
     9  H    1.475128
    10  H    0.845891
    11  H    0.764423
    12  N   -2.370199
    13  O   -3.198868
    14  O   -3.066576
    15  O   -3.129770
    16  O   -3.404491
 Sum of Mulliken charges =  -0.00000

 Dipole moment (field-independent basis, Debye):
    X=             -1.3750    Y=             -0.9657    Z=             -0.4671  Tot=              1.7439

 Test job not archived.
 1\1\GINC-SE460\SP\RHF\Aug-CC-pVDZ\C4H7N1O4\OHZDE\08-Apr-2025\0\\#t hf
 aug-cc-pvdz iop(5/13=1,5/36=2,99/5=2) pseudo=read geom=check guess=(re
 ad,tcheck) scf=(maxcycle=1)\\title\\0,1\C,0,-0.740514,0.769213,-0.5659
 53\C,0,-1.17376,-0.636145,-0.20337\C,0,0.741689,1.06318,-0.637019\C,0,
 1.58303,0.0848489,0.12921\H,0,-2.30978,2.03541,-0.0807223\H,0,-1.79529
 ,0.983761,1.09445\H,0,-1.12972,0.989027,-1.56867\H,0,1.1336,1.02259,-1
 .70446\H,0,0.98754,2.06448,-0.272627\H,0,1.83115,-0.81438,1.6453\H,0,-
 0.967806,-2.41234,-0.606048\N,0,-1.41564,1.65905,0.383043\O,0,-1.90129

 Normal termination of Gaussian 16 at Tue Apr  8 22:14:04 2025.
