 Gaussian 16, Revision C.01,

 ----------------------------------------------------------------------
 #t hf aug-cc-pvdz symm=none int=(grid=ultrafine) guess=(read,tcheck) s
 table=(opt,rrhf)
 ----------------------------------------------------------------------
 -----
 title
 -----
 Symbolic Z-matrix:
 Charge =  0 Multiplicity = 1

 SCF Done:  E(RHF) =  -923.194469492     A.U. after   14 cycles
 Normal termination of Gaussian 16 at Tue Apr  8 20:21:09 2025.
 Gaussian 16:  ES64L-G16RevC.01  3-Jul-2019

 ----------------------------------------------------------------------
 #t hf aug-cc-pvdz iop(5/13=1,5/36=2,99/5=2) pseudo=read geom=check gue
 ss=(read,tcheck) scf=(maxcycle=1)
 ----------------------------------------------------------------------
 -----
 title
 -----
 Structure from the checkpoint file:  "ANI1ccx_1584_conf16_mol1.chk"
 Charge =  0 Multiplicity = 1

                         Standard orientation:
 ---------------------------------------------------------------------
 Center     Atomic      Atomic             Coordinates (Angstroms)
 Number     Number       Type             X           Y           Z
 ---------------------------------------------------------------------
      1          6           0        2.253690   -1.496721    0.418488
      2          6           0        0.817787   -0.739950    0.725091
      3          6           0        3.302520   -0.500492    0.845980
      4          6           0        3.480290    0.557874   -0.201099
      5          6           0       -1.344610   -0.097360   -0.371374
      6          6           0       -1.202940    1.385560   -0.073212
      7          6           0       -2.409720   -0.768689    0.490524
      8          6           0       -3.835290   -0.638327   -0.116762
      9          1           0        0.674776    1.421110   -0.366473
     10          1           0       -3.768080    1.445480    0.236293
     11          1           0       -5.187340    0.628357   -0.689888
     12          1           0       -2.480120   -0.149703    1.398720
     13          1           0       -2.176130   -1.802860    0.733482
     14          1           0       -1.706070   -0.073066   -1.394860
     15          1           0        0.013361   -1.607970   -0.848000
     16          1           0        2.653010    2.094809   -0.777005
     17          1           0        2.977540   -0.104716    1.834190
     18          1           0        4.274820   -0.891766    0.996591
     19          1           0        2.180950   -2.384081    1.069970
     20          1           0        2.749260   -2.820311   -1.053040
     21          1           0        2.582040   -1.131821   -1.512370
     22          7           0        2.252580   -1.963611   -0.959520
     23          7           0       -0.086569   -0.801023   -0.332562
     24          7           0       -4.323130    0.588484   -0.142637
     25          8           0        0.528186   -0.253648    1.755590
     26          8           0        4.253580    0.622687   -1.115510
     27          8           0        2.557860    1.537869    0.048922
     28          8           0       -2.164860    2.032160    0.343546
     29          8           0       -4.338890   -1.634120   -0.633115
     30          8           0       -0.093197    1.994830   -0.385737
 ---------------------------------------------------------------------

 SCF Done:  E(RHF) =  -927.224090462     A.U. after    2 cycles

 The electronic state is 1-A.
 Alpha  occ. eigenvalues --  -21.15765 -21.14201 -21.10405 -21.06926 -21.05714
 Alpha  occ. eigenvalues --  -21.00215 -15.78163 -15.77732 -15.74858 -11.57310
 Alpha  occ. eigenvalues --  -11.56970 -11.55202 -11.50526 -11.50297 -11.48288
 Alpha  occ. eigenvalues --  -11.44391 -11.40313  -1.87336  -1.85981  -1.76593
 Alpha  occ. eigenvalues --   -1.69996  -1.68317  -1.67149  -1.44788  -1.38746
 Alpha  occ. eigenvalues --   -1.32884  -1.18293  -1.16965  -1.01791  -0.97813
 Alpha  occ. eigenvalues --   -0.86824  -0.81681  -0.81359  -0.78588  -0.75603
 Alpha  occ. eigenvalues --   -0.73773  -0.71561  -0.70014  -0.69497  -0.65853
 Alpha  occ. eigenvalues --   -0.64163  -0.63692  -0.61598  -0.59289  -0.58692
 Alpha  occ. eigenvalues --   -0.56509  -0.55240  -0.54795  -0.53909  -0.53382
 Alpha  occ. eigenvalues --   -0.52002  -0.50803  -0.49795  -0.47101  -0.46088
 Alpha  occ. eigenvalues --   -0.43576  -0.41914  -0.38312  -0.36261  -0.35071
 Alpha  occ. eigenvalues --   -0.33840  -0.32088  -0.30476  -0.29695  -0.25912
 Alpha virt. eigenvalues --    0.02537   0.03649   0.03967   0.04936   0.05324
 Alpha virt. eigenvalues --    0.05865   0.06190   0.06797   0.07116   0.07643
 Alpha virt. eigenvalues --    0.08100   0.08532   0.09322   0.09925   0.10227

 Mulliken charges:
               1
     1  C   -1.130491
     2  C    5.916188
     3  C   -4.101747
     4  C    7.271210
     5  C   -1.215458
     6  C    7.340600
     7  C   -3.915643
     8  C    5.975747
     9  H    1.537961
    10  H    0.880530
    11  H    0.779213
    12  H    1.528638
    13  H    1.413163
    14  H    2.138729
    15  H    0.717430
    16  H    0.695657
    17  H    1.434255
    18  H    1.299914
    19  H    1.583599
    20  H    0.733490
    21  H    0.418315
    22  N   -3.070104
    23  N   -3.222532
    24  N   -3.415430
    25  O   -3.875817
    26  O   -3.541748
    27  O   -3.123790
    28  O   -3.465719
    29  O   -3.536776
    30  O   -4.049382
 Sum of Mulliken charges =   0.00000

 Dipole moment (field-independent basis, Debye):
    X=              4.7573    Y=             -0.1080    Z=             -0.2341  Tot=              4.7643

 Test job not archived.
 1\1\GINC-SE460\SP\RHF\Aug-CC-pVDZ\C8H13N3O6\OHZDE\08-Apr-2025\0\\#t hf
  aug-cc-pvdz iop(5/13=1,5/36=2,99/5=2) pseudo=read geom=check guess=(r
 ead,tcheck) scf=(maxcycle=1)\\title\\0,1\C,0,2.25369,-1.49672,0.418488
 \C,0,0.817787,-0.73995,0.725091\C,0,3.30252,-0.500491,0.84598\C,0,3.48
 029,0.557875,-0.201099\C,0,-1.34461,-0.0973598,-0.371374\C,0,-1.20294,
 1.38556,-0.0732121\C,0,-2.40972,-0.768689,0.490524\C,0,-3.83529,-0.638
 327,-0.116762\H,0,0.674776,1.42111,-0.366473\H,0,-3.76808,1.44548,0.23
 6293\H,0,-5.18734,0.628357,-0.689888\H,0,-2.48012,-0.149703,1.39872\H,

 Normal termination of Gaussian 16 at Tue Apr  8 20:21:47 2025.
