 Gaussian 16, Revision C.01,

 ----------------------------------------------------------------------
 #t hf aug-cc-pvdz symm=none int=(grid=ultrafine) guess=(read,tcheck) s
 table=(opt,rrhf)
 ----------------------------------------------------------------------
 -----
 title
 -----
 Symbolic Z-matrix:
 Charge =  0 Multiplicity = 1

 SCF Done:  E(RHF) =  -962.696310128     A.U. after   16 cycles
 Normal termination of Gaussian 16 at Tue Apr  8 22:43:26 2025.
 Gaussian 16:  ES64L-G16RevC.01  3-Jul-2019

 ----------------------------------------------------------------------
 #t hf aug-cc-pvdz iop(5/13=1,5/36=2,99/5=2) pseudo=read geom=check gue
 ss=(read,tcheck) scf=(maxcycle=1)
 ----------------------------------------------------------------------
 -----
 title
 -----
 Structure from the checkpoint file:  "ANI1ccx_98_conf10_mol1.chk"
 Charge =  0 Multiplicity = 1

                         Standard orientation:
 ---------------------------------------------------------------------
 Center     Atomic      Atomic             Coordinates (Angstroms)
 Number     Number       Type             X           Y           Z
 ---------------------------------------------------------------------
      1          6           0        2.431800   -1.110780   -0.450503
      2          6           0       -2.787030   -1.478439   -0.503688
      3          6           0       -1.765560   -0.478660   -1.072330
      4          6           0       -0.777392    0.137797    0.072325
      5          6           0        0.730671    2.002430    0.728936
      6          6           0       -4.883790   -0.240481    0.020539
      7          6           0        2.397680   -1.953810    1.973390
      8          6           0        2.751980   -0.836294    0.978416
      9          6           0        2.245150    0.235702   -1.264800
     10          6           0        0.061577    1.284910   -0.396180
     11          1           0       -1.235980   -1.021419   -1.883100
     12          1           0        1.718311    3.508590    1.048450
     13          1           0       -6.500480    0.588987    0.922255
     14          1           0       -5.920710   -0.705344    1.712850
     15          1           0       -6.065110    0.411981   -1.305530
     16          1           0       -3.515490   -0.775052    1.357880
     17          1           0       -3.392350   -1.922489   -1.348670
     18          1           0       -2.294510   -2.392699    0.030673
     19          1           0       -2.405380    0.198627   -1.571240
     20          1           0       -0.165806   -0.711201    0.412284
     21          1           0       -0.560064    2.115591   -0.796029
     22          1           0        4.258850   -1.290530   -1.387230
     23          1           0        1.275480    1.539990   -2.205370
     24          1           0        1.309870   -2.186060    1.941120
     25          1           0        2.603010   -1.606000    3.021160
     26          1           0        3.002620   -2.868510    1.888340
     27          1           0        4.533400   -1.293880    0.506052
     28          1           0        2.101780    0.073610    1.359630
     29          1           0        1.502420   -1.710740   -0.545525
     30          1           0        3.109920   -2.298160   -1.939930
     31          1           0       -1.410580    0.451731    0.917137
     32          7           0        3.513730   -1.894980   -1.057270
     33          7           0        1.063430    0.856768   -1.446440
     34          7           0       -3.851070   -1.006659    0.413021
     35          7           0       -5.148580    0.025972   -1.236450
     36          7           0       -5.618470    0.110590    1.195920
     37          8           0        4.136460   -0.562035    1.019960
     38          8           0        0.723711    1.682950    1.931330
     39          8           0        3.282980    0.778914   -1.695350
     40          8           0        1.345221    3.084780    0.277397
 ---------------------------------------------------------------------

 SCF Done:  E(RHF) =  -967.093467091     A.U. after    2 cycles

 The electronic state is 1-A.
 Alpha  occ. eigenvalues --  -21.14862 -21.06885 -21.04661 -21.03242 -15.77216
 Alpha  occ. eigenvalues --  -15.77083 -15.75637 -15.74028 -15.70970 -11.57894
 Alpha  occ. eigenvalues --  -11.53473 -11.50942 -11.49635 -11.48471 -11.46371
 Alpha  occ. eigenvalues --  -11.43524 -11.42978 -11.38994 -11.37712  -1.85863
 Alpha  occ. eigenvalues --   -1.72242  -1.69703  -1.66510  -1.50332  -1.40966
 Alpha  occ. eigenvalues --   -1.34199  -1.31127  -1.23549  -1.20127  -1.12826
 Alpha  occ. eigenvalues --   -1.10183  -1.00899  -0.97976  -0.89020  -0.85866
 Alpha  occ. eigenvalues --   -0.81294  -0.79809  -0.77398  -0.72547  -0.70956
 Alpha  occ. eigenvalues --   -0.70498  -0.68353  -0.68043  -0.65353  -0.63580
 Alpha  occ. eigenvalues --   -0.62181  -0.61821  -0.60672  -0.58706  -0.57354
 Alpha  occ. eigenvalues --   -0.56306  -0.55522  -0.54998  -0.54605  -0.53353
 Alpha  occ. eigenvalues --   -0.53240  -0.51190  -0.49778  -0.48902  -0.48366
 Alpha  occ. eigenvalues --   -0.47501  -0.46575  -0.44675  -0.43536  -0.39913
 Alpha  occ. eigenvalues --   -0.38706  -0.38133  -0.37063  -0.34771  -0.34065
 Alpha  occ. eigenvalues --   -0.32374  -0.31919  -0.29092  -0.27792
 Alpha virt. eigenvalues --    0.03346   0.03904   0.04199   0.04683   0.04775
 Alpha virt. eigenvalues --    0.05342   0.05501   0.05939   0.06300   0.06706
 Alpha virt. eigenvalues --    0.06792   0.07251   0.07478   0.07683   0.08299

 Mulliken charges:
               1
     1  C   -1.479464
     2  C   -3.718294
     3  C   -3.295795
     4  C   -2.408329
     5  C    8.555591
     6  C    4.847028
     7  C   -4.651982
     8  C    2.000951
     9  C    6.404745
    10  C   -3.862295
    11  H    1.359521
    12  H    1.038879
    13  H    0.565366
    14  H    0.598907
    15  H    0.709963
    16  H    0.695453
    17  H    1.543564
    18  H    1.561148
    19  H    1.716874
    20  H    2.296586
    21  H    2.076709
    22  H    0.610429
    23  H    0.513416
    24  H    1.441557
    25  H    1.084960
    26  H    1.343958
    27  H    0.587376
    28  H    2.136468
    29  H    2.279226
    30  H    0.549393
    31  H    1.723775
    32  N   -3.314508
    33  N   -2.851737
    34  N   -2.201747
    35  N   -2.937852
    36  N   -2.828593
    37  O   -3.540929
    38  O   -3.554899
    39  O   -3.534935
    40  O   -4.060483
 Sum of Mulliken charges =   0.00000

 Dipole moment (field-independent basis, Debye):
    X=             -2.4937    Y=              0.7377    Z=              1.0469  Tot=              2.8034

 Test job not archived.
 1\1\GINC-SE132\SP\RHF\Aug-CC-pVDZ\C10H21N5O4\OHZDE\08-Apr-2025\0\\#t h
 f aug-cc-pvdz iop(5/13=1,5/36=2,99/5=2) pseudo=read geom=check guess=(
 read,tcheck) scf=(maxcycle=1)\\title\\0,1\C,0,2.4318,-1.11078,-0.45050
 3\C,0,-2.78703,-1.47844,-0.503688\C,0,-1.76556,-0.478661,-1.07233\C,0,
 -0.777392,0.137796,0.0723254\C,0,0.730671,2.00243,0.728936\C,0,-4.8837
 9,-0.240482,0.0205389\C,0,2.39768,-1.95381,1.97339\C,0,2.75198,-0.8362
 94,0.978416\C,0,2.24515,0.235702,-1.2648\C,0,0.0615767,1.28491,-0.3961
 8\H,0,-1.23598,-1.02142,-1.8831\H,0,1.71831,3.50859,1.04845\H,0,-6.500

 Normal termination of Gaussian 16 at Tue Apr  8 22:44:41 2025.
