 Gaussian 16, Revision C.01,

 ----------------------------------------------------------------------
 #t hf aug-cc-pvdz symm=none int=(grid=ultrafine) guess=(read,tcheck) s
 table=(opt,rrhf)
 ----------------------------------------------------------------------
 -----
 title
 -----
 Symbolic Z-matrix:
 Charge =  0 Multiplicity = 1

 SCF Done:  E(RHF) =  -672.935672851     A.U. after   17 cycles
 Normal termination of Gaussian 16 at Tue Apr  8 19:35:17 2025.
 Gaussian 16:  ES64L-G16RevC.01  3-Jul-2019

 ----------------------------------------------------------------------
 #t hf aug-cc-pvdz iop(5/13=1,5/36=2,99/5=2) pseudo=read geom=check gue
 ss=(read,tcheck) scf=(maxcycle=1)
 ----------------------------------------------------------------------
 -----
 title
 -----
 Structure from the checkpoint file:  "ANI1ccx_1321_conf5_mol2.chk"
 Charge =  0 Multiplicity = 1

                         Standard orientation:
 ---------------------------------------------------------------------
 Center     Atomic      Atomic             Coordinates (Angstroms)
 Number     Number       Type             X           Y           Z
 ---------------------------------------------------------------------
      1          6           0        1.250181   -0.848915    0.117983
      2          6           0        0.417617   -2.042050    0.469900
      3          6           0       -0.871002   -2.145220   -0.354364
      4          6           0       -1.555859   -0.829044   -0.209435
      5          6           0       -0.882941    0.406206    0.034250
      6          6           0        0.594518    0.476098    0.071488
      7          1           0        1.266631    3.423840    0.037053
      8          1           0       -0.667051   -2.398670   -1.385510
      9          1           0       -1.525699   -2.916690    0.031021
     10          1           0        1.036141   -2.909510    0.354364
     11          1           0        2.910361    0.775843   -0.233339
     12          1           0        0.213112   -1.980750    1.543870
     13          7           0        2.501041   -1.074150   -0.030446
     14          7           0       -2.835229   -0.584676   -0.121690
     15          7           0       -1.759349    1.348320    0.169296
     16          7           0        1.324901    1.550470    0.023246
     17          8           0       -2.949689    0.764718    0.077613
     18          8           0        3.391701   -0.074804   -0.171905
     19          8           0        0.611969    2.713050   -0.081863
 ---------------------------------------------------------------------

 SCF Done:  E(RHF) =  -675.896078245     A.U. after    2 cycles

 The electronic state is 1-A.
 Alpha  occ. eigenvalues --  -21.16958 -21.14023 -21.10567 -15.83178 -15.83027
 Alpha  occ. eigenvalues --  -15.81497 -15.80434 -11.54587 -11.51247 -11.49173
 Alpha  occ. eigenvalues --  -11.46681 -11.45364 -11.41312  -2.00012  -1.84728
 Alpha  occ. eigenvalues --   -1.82075  -1.41757  -1.34855  -1.29763  -1.26475
 Alpha  occ. eigenvalues --   -1.16843  -1.01610  -0.96745  -0.86559  -0.85678
 Alpha  occ. eigenvalues --   -0.76392  -0.71712  -0.69534  -0.66645  -0.65469
 Alpha  occ. eigenvalues --   -0.63929  -0.62609  -0.61947  -0.57672  -0.55773
 Alpha  occ. eigenvalues --   -0.52423  -0.51653  -0.48418  -0.46972  -0.45879
 Alpha  occ. eigenvalues --   -0.43454  -0.42573  -0.41697  -0.39518  -0.34879
 Alpha  occ. eigenvalues --   -0.33771  -0.28830
 Alpha virt. eigenvalues --    0.03010   0.04596   0.05608   0.05862   0.06149
 Alpha virt. eigenvalues --    0.07304   0.07918   0.09679   0.10273   0.11068
 Alpha virt. eigenvalues --    0.11182   0.11920   0.12241   0.13141   0.13399

 Mulliken charges:
               1
     1  C    4.090460
     2  C   -3.186783
     3  C   -3.537429
     4  C    3.562460
     5  C    3.535129
     6  C    1.231726
     7  H    0.882304
     8  H    1.238742
     9  H    1.157265
    10  H    1.260224
    11  H    1.124856
    12  H    1.307671
    13  N   -1.240759
    14  N   -1.643365
    15  N   -1.072692
    16  N   -0.792261
    17  O   -2.579196
    18  O   -2.690004
    19  O   -2.648348
 Sum of Mulliken charges =  -0.00000

 Dipole moment (field-independent basis, Debye):
    X=              0.0000    Y=              0.9554    Z=              0.0160  Tot=              0.9555

 Test job not archived.
 1\1\GINC-SE462\SP\RHF\Aug-CC-pVDZ\C6H6N4O3\OHZDE\08-Apr-2025\0\\#t hf
 aug-cc-pvdz iop(5/13=1,5/36=2,99/5=2) pseudo=read geom=check guess=(re
 ad,tcheck) scf=(maxcycle=1)\\title\\0,1\C,0,1.25018,-0.848915,0.117983
 \C,0,0.417616,-2.04205,0.4699\C,0,-0.871003,-2.14522,-0.354364\C,0,-1.
 55586,-0.829044,-0.209435\C,0,-0.882942,0.406206,0.0342504\C,0,0.59451
 7,0.476098,0.0714883\H,0,1.26663,3.42384,0.0370527\H,0,-0.667052,-2.39
 867,-1.38551\H,0,-1.5257,-2.91669,0.0310212\H,0,1.03614,-2.90951,0.354
 364\H,0,2.91036,0.775843,-0.233339\H,0,0.213111,-1.98075,1.54387\N,0,2

 Normal termination of Gaussian 16 at Tue Apr  8 19:35:32 2025.
