 Gaussian 16, Revision C.01,

 ----------------------------------------------------------------------
 #t hf aug-cc-pvdz symm=none int=(grid=ultrafine) guess=(read,tcheck) s
 table=(opt,rrhf)
 ----------------------------------------------------------------------
 -----
 title
 -----
 Symbolic Z-matrix:
 Charge =  0 Multiplicity = 1

 SCF Done:  E(RHF) =  -965.954696925     A.U. after   15 cycles
 Normal termination of Gaussian 16 at Tue Apr  8 22:15:14 2025.
 Gaussian 16:  ES64L-G16RevC.01  3-Jul-2019

 ----------------------------------------------------------------------
 #t hf aug-cc-pvdz iop(5/13=1,5/36=2,99/5=2) pseudo=read geom=check gue
 ss=(read,tcheck) scf=(maxcycle=1)
 ----------------------------------------------------------------------
 -----
 title
 -----
 Structure from the checkpoint file:  "ANI1ccx_291_conf1_mol1.chk"
 Charge =  0 Multiplicity = 1

                         Standard orientation:
 ---------------------------------------------------------------------
 Center     Atomic      Atomic             Coordinates (Angstroms)
 Number     Number       Type             X           Y           Z
 ---------------------------------------------------------------------
      1          6           0        1.838400    1.627290   -0.237400
      2          6           0       -4.741280    1.479920   -0.394857
      3          6           0       -4.196700    0.128607   -0.824954
      4          6           0       -2.687460    0.106159   -1.170120
      5          6           0       -1.464270   -0.887365    0.874568
      6          6           0       -1.731970    0.385137   -0.001082
      7          6           0       -4.605160   -0.946375    0.202450
      8          6           0        4.058280   -0.955263   -0.075474
      9          6           0        4.166230    0.555385    0.101039
     10          6           0        2.936460    1.195150    0.760282
     11          6           0        0.457494    1.404500    0.349318
     12          6           0        1.784800   -1.785570   -0.698445
     13          1           0       -2.468650    0.873965   -1.926360
     14          1           0       -2.428670   -0.836340   -1.650500
     15          1           0       -4.708500   -0.146351   -1.769570
     16          1           0       -4.336550    1.687820    0.604054
     17          1           0       -5.838940    1.463790   -0.351588
     18          1           0       -4.257390   -0.734222    1.229840
     19          1           0       -4.246620   -1.975490   -0.032238
     20          1           0       -5.701440   -1.065440    0.252280
     21          1           0       -0.848703    0.376491    2.168170
     22          1           0       -2.121130    1.154730    0.688763
     23          1           0       -4.436100    2.278530   -1.079330
     24          1           0        0.010513    0.190322   -1.200460
     25          1           0       -0.068056   -1.961730   -1.140660
     26          1           0        2.340470   -3.038030    0.773819
     27          1           0        2.932150    3.144240   -1.057100
     28          1           0        1.326440    3.269940   -1.279150
     29          1           0        0.740903   -2.838940    0.688591
     30          1           0        2.484580    0.435588    1.427830
     31          1           0        3.203220    2.037350    1.410710
     32          1           0        1.886620    0.987331   -1.172900
     33          1           0        4.298420    1.035200   -0.881489
     34          1           0        3.878430   -1.383540    0.924475
     35          1           0        5.018930   -1.277250   -0.508266
     36          1           0        3.193230   -0.879866   -1.839320
     37          1           0        5.050720    0.775606    0.707210
     38          7           0        2.038230    3.019970   -0.595158
     39          7           0        3.049410   -1.373600   -0.955407
     40          7           0        0.820351   -1.562420   -1.493040
     41          7           0        1.626280   -2.341810    0.553094
     42          7           0       -0.423444    0.774764   -0.488813
     43          8           0       -1.449250   -2.010640    0.441655
     44          8           0        0.107282    1.696670    1.492280
     45          8           0       -1.104110   -0.565715    2.135630
 ---------------------------------------------------------------------

 SCF Done:  E(RHF) =  -970.473486661     A.U. after    2 cycles

 The electronic state is 1-A.
 Alpha  occ. eigenvalues --  -21.09494 -21.04815 -21.03499 -15.76022 -15.75928
 Alpha  occ. eigenvalues --  -15.75216 -15.74558 -15.68935 -11.56411 -11.55360
 Alpha  occ. eigenvalues --  -11.49436 -11.48726 -11.47688 -11.46285 -11.44348
 Alpha  occ. eigenvalues --  -11.41961 -11.40362 -11.38699 -11.37782 -11.35717
 Alpha  occ. eigenvalues --   -1.81153  -1.72604  -1.65843  -1.51855  -1.42632
 Alpha  occ. eigenvalues --   -1.37205  -1.33564  -1.25461  -1.24051  -1.17741
 Alpha  occ. eigenvalues --   -1.11250  -1.04770  -0.99503  -0.97505  -0.93780
 Alpha  occ. eigenvalues --   -0.86999  -0.83445  -0.82073  -0.78622  -0.78010
 Alpha  occ. eigenvalues --   -0.71559  -0.70627  -0.69594  -0.68704  -0.68015
 Alpha  occ. eigenvalues --   -0.66787  -0.63851  -0.62627  -0.61591  -0.60743
 Alpha  occ. eigenvalues --   -0.60306  -0.58442  -0.57983  -0.57216  -0.56115
 Alpha  occ. eigenvalues --   -0.53921  -0.53370  -0.52629  -0.52150  -0.51257
 Alpha  occ. eigenvalues --   -0.50294  -0.50117  -0.48737  -0.48194  -0.46506
 Alpha  occ. eigenvalues --   -0.45616  -0.43613  -0.43322  -0.42624  -0.42281
 Alpha  occ. eigenvalues --   -0.39102  -0.37877  -0.35587  -0.34601  -0.32124
 Alpha  occ. eigenvalues --   -0.31014  -0.29412  -0.27022
 Alpha virt. eigenvalues --    0.03637   0.04151   0.04338   0.04553   0.05119
 Alpha virt. eigenvalues --    0.05312   0.05527   0.05785   0.05934   0.06035
 Alpha virt. eigenvalues --    0.06550   0.06816   0.06876   0.07709   0.08210

 Mulliken charges:
               1
     1  C   -1.316733
     2  C   -4.713436
     3  C   -0.858966
     4  C   -3.555003
     5  C    7.187284
     6  C   -0.625854
     7  C   -4.927536
     8  C   -3.002892
     9  C   -3.505029
    10  C   -3.244492
    11  C    7.875197
    12  C    7.184283
    13  H    1.723319
    14  H    1.340621
    15  H    1.569858
    16  H    1.485562
    17  H    1.192096
    18  H    1.464780
    19  H    1.392350
    20  H    1.099127
    21  H    1.400255
    22  H    2.720310
    23  H    1.324939
    24  H    0.995532
    25  H    0.761470
    26  H    0.729680
    27  H    0.620676
    28  H    0.575253
    29  H    0.720707
    30  H    1.820695
    31  H    1.221828
    32  H    2.309819
    33  H    1.595880
    34  H    1.876601
    35  H    1.325800
    36  H    0.695957
    37  H    1.361328
    38  N   -3.398434
    39  N   -2.931747
    40  N   -3.643227
    41  N   -3.556328
    42  N   -4.454267
    43  O   -3.629263
    44  O   -4.298420
    45  O   -3.909582
 Sum of Mulliken charges =  -0.00000

 Dipole moment (field-independent basis, Debye):
    X=              2.5817    Y=             -0.4793    Z=             -0.7626  Tot=              2.7343

 Test job not archived.
 1\1\GINC-SE212\SP\RHF\Aug-CC-pVDZ\C12H25N5O3\OHZDE\08-Apr-2025\0\\#t h
 f aug-cc-pvdz iop(5/13=1,5/36=2,99/5=2) pseudo=read geom=check guess=(
 read,tcheck) scf=(maxcycle=1)\\title\\0,1\C,0,1.8384,1.62729,-0.2374\C
 ,0,-4.74128,1.47992,-0.394857\C,0,-4.1967,0.128607,-0.824954\C,0,-2.68
 746,0.106159,-1.17012\C,0,-1.46427,-0.887365,0.874568\C,0,-1.73197,0.3
 85137,-0.00108158\C,0,-4.60516,-0.946375,0.20245\C,0,4.05828,-0.955263
 ,-0.0754742\C,0,4.16623,0.555385,0.101039\C,0,2.93646,1.19515,0.760282
 \C,0,0.457494,1.4045,0.349318\C,0,1.7848,-1.78557,-0.698445\H,0,-2.468

 Normal termination of Gaussian 16 at Tue Apr  8 22:17:06 2025.
