 Gaussian 16, Revision C.01,

 ----------------------------------------------------------------------
 #t hf aug-cc-pvdz symm=none int=(grid=ultrafine) guess=(read,tcheck) s
 table=(opt,rrhf)
 ----------------------------------------------------------------------
 -----
 title
 -----
 Symbolic Z-matrix:
 Charge =  0 Multiplicity = 1

 SCF Done:  E(RHF) =  -756.529137651     A.U. after   15 cycles
 Normal termination of Gaussian 16 at Tue Apr  8 19:58:00 2025.
 Gaussian 16:  ES64L-G16RevC.01  3-Jul-2019

 ----------------------------------------------------------------------
 #t hf aug-cc-pvdz iop(5/13=1,5/36=2,99/5=2) pseudo=read geom=check gue
 ss=(read,tcheck) scf=(maxcycle=1)
 ----------------------------------------------------------------------
 -----
 title
 -----
 Structure from the checkpoint file:  "ANI1ccx_1435_conf21_mol1.chk"
 Charge =  0 Multiplicity = 1

                         Standard orientation:
 ---------------------------------------------------------------------
 Center     Atomic      Atomic             Coordinates (Angstroms)
 Number     Number       Type             X           Y           Z
 ---------------------------------------------------------------------
      1          6           0        1.564850   -0.800783    0.148515
      2          6           0        0.469569   -0.894985    1.210350
      3          6           0        2.167759    0.623590   -0.015436
      4          6           0        3.715889    0.363392   -0.301350
      5          6           0       -1.403871    0.040289   -0.274712
      6          6           0       -1.720072    1.486518    0.104117
      7          6           0       -2.635170   -0.819481   -0.657526
      8          1           0        0.094936    1.921390   -0.366998
      9          1           0       -2.802289   -2.714322   -1.211610
     10          1           0       -3.200511   -0.228290   -1.405840
     11          1           0       -3.211860   -0.908198    0.292683
     12          1           0       -0.677713   -0.112813   -1.022370
     13          1           0       -1.364620   -0.573459    1.746140
     14          1           0        3.863689   -0.176792   -1.256570
     15          1           0        4.250159   -0.229042    0.411196
     16          1           0        4.348169    1.280462   -0.511802
     17          1           0        1.301259    0.672725   -1.697390
     18          1           0        2.071509    1.156821    0.933269
     19          1           0        2.344670   -1.348209    0.687691
     20          1           0        0.419862   -1.924530   -1.038510
     21          1           0        1.896840   -1.657559   -1.676670
     22          7           0        1.140790   -1.252480   -1.133000
     23          7           0       -0.785613   -0.555558    0.928989
     24          8           0        0.745611   -1.297100    2.314690
     25          8           0        1.618459    1.354180   -1.068940
     26          8           0       -2.804312    1.906298    0.447356
     27          8           0       -2.073630   -2.109062   -1.076830
     28          8           0       -0.582886    2.334039    0.166367
 ---------------------------------------------------------------------

 SCF Done:  E(RHF) =  -759.882510030     A.U. after    2 cycles

 The electronic state is 1-A.
 Alpha  occ. eigenvalues --  -21.10563 -21.10036 -21.09425 -21.06902 -21.02894
 Alpha  occ. eigenvalues --  -15.77500 -15.77349 -11.55733 -11.54401 -11.50417
 Alpha  occ. eigenvalues --  -11.50089 -11.45965 -11.43797 -11.39007  -1.80039
 Alpha  occ. eigenvalues --   -1.76328  -1.72872  -1.72378  -1.65239  -1.43528
 Alpha  occ. eigenvalues --   -1.38203  -1.15136  -1.13565  -1.02480  -0.95472
 Alpha  occ. eigenvalues --   -0.89119  -0.83267  -0.81535  -0.74517  -0.72012
 Alpha  occ. eigenvalues --   -0.69297  -0.67531  -0.64963  -0.63626  -0.61678
 Alpha  occ. eigenvalues --   -0.60148  -0.59375  -0.57875  -0.55561  -0.54208
 Alpha  occ. eigenvalues --   -0.52763  -0.51053  -0.50788  -0.49289  -0.46982
 Alpha  occ. eigenvalues --   -0.45648  -0.44572  -0.41778  -0.39396  -0.36374
 Alpha  occ. eigenvalues --   -0.34758  -0.33684  -0.32848  -0.28848  -0.28682
 Alpha virt. eigenvalues --    0.03312   0.03736   0.04265   0.04794   0.05394
 Alpha virt. eigenvalues --    0.05644   0.06400   0.06487   0.06831   0.07578
 Alpha virt. eigenvalues --    0.07990   0.08743   0.09381   0.09861   0.10972

 Mulliken charges:
               1
     1  C   -2.115315
     2  C    7.076569
     3  C    1.107511
     4  C   -4.539918
     5  C   -2.934840
     6  C    6.607027
     7  C   -1.676399
     8  H    1.885849
     9  H    0.858830
    10  H    1.291395
    11  H    1.345438
    12  H    3.012284
    13  H    0.758780
    14  H    1.298398
    15  H    1.285060
    16  H    1.155420
    17  H    0.803788
    18  H    2.218447
    19  H    1.563523
    20  H    0.763898
    21  H    0.581374
    22  N   -2.678749
    23  N   -2.391052
    24  O   -4.025067
    25  O   -3.455417
    26  O   -3.596183
    27  O   -2.681336
    28  O   -3.519314
 Sum of Mulliken charges =   0.00000

 Dipole moment (field-independent basis, Debye):
    X=              0.8153    Y=             -2.5723    Z=             -2.8701  Tot=              3.9394

 Test job not archived.
 1\1\GINC-SE021\SP\RHF\Aug-CC-pVDZ\C7H14N2O5\OHZDE\08-Apr-2025\0\\#t hf
  aug-cc-pvdz iop(5/13=1,5/36=2,99/5=2) pseudo=read geom=check guess=(r
 ead,tcheck) scf=(maxcycle=1)\\title\\0,1\C,0,1.56485,-0.800783,0.14851
 5\C,0,0.469569,-0.894985,1.21035\C,0,2.16776,0.623589,-0.0154354\C,0,3
 .71589,0.36339,-0.30135\C,0,-1.40387,0.0402904,-0.274712\C,0,-1.72007,
 1.48652,0.104117\C,0,-2.63517,-0.819479,-0.657526\H,0,0.094938,1.92139
 ,-0.366998\H,0,-2.80229,-2.71432,-1.21161\H,0,-3.20051,-0.228288,-1.40
 584\H,0,-3.21186,-0.908196,0.292683\H,0,-0.677712,-0.112812,-1.02237\H

 Normal termination of Gaussian 16 at Tue Apr  8 19:58:29 2025.
