 Gaussian 16, Revision C.01,

 ----------------------------------------------------------------------
 #t hf aug-cc-pvdz symm=none int=(grid=ultrafine) guess=(read,tcheck) s
 table=(opt,rrhf)
 ----------------------------------------------------------------------
 -----
 title
 -----
 Symbolic Z-matrix:
 Charge =  0 Multiplicity = 1

 SCF Done:  E(RHF) =  -689.352208247     A.U. after   14 cycles
 Normal termination of Gaussian 16 at Tue Apr  8 21:57:50 2025.
 Gaussian 16:  ES64L-G16RevC.01  3-Jul-2019

 ----------------------------------------------------------------------
 #t hf aug-cc-pvdz iop(5/13=1,5/36=2,99/5=2) pseudo=read geom=check gue
 ss=(read,tcheck) scf=(maxcycle=1)
 ----------------------------------------------------------------------
 -----
 title
 -----
 Structure from the checkpoint file:  "ANI1ccx_756_conf6_mol2.chk"
 Charge =  0 Multiplicity = 1

                         Standard orientation:
 ---------------------------------------------------------------------
 Center     Atomic      Atomic             Coordinates (Angstroms)
 Number     Number       Type             X           Y           Z
 ---------------------------------------------------------------------
      1          6           0       -2.728520   -0.160712   -0.207487
      2          6           0        0.122720    1.483280    0.496206
      3          6           0        1.965060    0.118144    0.094026
      4          1           0        3.878930    0.954645    0.267182
      5          1           0       -0.385270    2.195770    1.159770
      6          1           0       -0.224449    0.243887   -1.044100
      7          1           0        3.223591   -1.428839   -0.863948
      8          1           0       -2.700449   -1.950730    0.567278
      9          1           0       -0.190302   -1.254060    0.690596
     10          1           0       -2.496650    1.574170   -1.063250
     11          7           0       -2.019819   -1.267290    0.236576
     12          7           0       -1.994210    1.031350   -0.365381
     13          7           0       -0.605577    1.018410   -0.529208
     14          7           0        1.339510    1.219790    0.711616
     15          7           0        3.278720    0.171790    0.072672
     16          8           0        1.354131   -0.891466   -0.409677
     17          8           0       -1.037989   -1.088000    1.179720
     18          8           0       -3.918360   -0.224811   -0.535981
     19          8           0        3.945801   -0.820405   -0.595802
 ---------------------------------------------------------------------

 SCF Done:  E(RHF) =  -692.302305320     A.U. after    2 cycles

 The electronic state is 1-A.
 Alpha  occ. eigenvalues --  -21.12279 -21.10629 -21.05131 -21.04603 -15.83581
 Alpha  occ. eigenvalues --  -15.81527 -15.80672 -15.80471 -15.74628 -11.53892
 Alpha  occ. eigenvalues --  -11.51861 -11.50132  -1.85897  -1.82744  -1.71840
 Alpha  occ. eigenvalues --   -1.71147  -1.57178  -1.41538  -1.29739  -1.25047
 Alpha  occ. eigenvalues --   -1.18255  -0.95498  -0.88633  -0.86166  -0.76266
 Alpha  occ. eigenvalues --   -0.74425  -0.68729  -0.66867  -0.65478  -0.64263
 Alpha  occ. eigenvalues --   -0.62819  -0.62591  -0.58221  -0.56446  -0.52093
 Alpha  occ. eigenvalues --   -0.50745  -0.49161  -0.46261  -0.42624  -0.38930
 Alpha  occ. eigenvalues --   -0.36959  -0.36101  -0.33588  -0.31513  -0.30294
 Alpha  occ. eigenvalues --   -0.28673
 Alpha virt. eigenvalues --    0.03786   0.04894   0.05440   0.05825   0.06166
 Alpha virt. eigenvalues --    0.07151   0.08324   0.09232   0.10126   0.11117
 Alpha virt. eigenvalues --    0.11772   0.12852   0.13274   0.13713   0.14264

 Mulliken charges:
               1
     1  C    5.375731
     2  C    1.648087
     3  C    5.345549
     4  H    0.827564
     5  H    1.978393
     6  H    0.834687
     7  H    0.868801
     8  H    0.600816
     9  H    1.092963
    10  H    0.588810
    11  N   -0.268678
    12  N   -1.819933
    13  N   -2.166196
    14  N   -3.290742
    15  N   -0.939996
    16  O   -2.459777
    17  O   -2.696697
    18  O   -3.014237
    19  O   -2.505144
 Sum of Mulliken charges =  -0.00000

 Dipole moment (field-independent basis, Debye):
    X=              1.7261    Y=              0.8648    Z=             -0.4938  Tot=              1.9928

 Test job not archived.
 1\1\GINC-SE368\SP\RHF\Aug-CC-pVDZ\C3H7N5O4\OHZDE\08-Apr-2025\0\\#t hf
 aug-cc-pvdz iop(5/13=1,5/36=2,99/5=2) pseudo=read geom=check guess=(re
 ad,tcheck) scf=(maxcycle=1)\\title\\0,1\C,0,-2.72852,-0.160712,-0.2074
 87\C,0,0.12272,1.48328,0.496206\C,0,1.96506,0.118144,0.094026\H,0,3.87
 893,0.954644,0.267182\H,0,-0.38527,2.19577,1.15977\H,0,-0.224449,0.243
 887,-1.0441\H,0,3.22359,-1.42884,-0.863948\H,0,-2.70045,-1.95073,0.567
 278\H,0,-0.190303,-1.25406,0.690596\H,0,-2.49665,1.57417,-1.06325\N,0,
 -2.01982,-1.26729,0.236576\N,0,-1.99421,1.03135,-0.365381\N,0,-0.60557

 Normal termination of Gaussian 16 at Tue Apr  8 21:57:59 2025.
