 Gaussian 16, Revision C.01,

 ----------------------------------------------------------------------
 #t hf aug-cc-pvdz symm=none int=(grid=ultrafine) guess=(read,tcheck) s
 table=(opt,rrhf)
 ----------------------------------------------------------------------
 -----
 title
 -----
 Symbolic Z-matrix:
 Charge =  0 Multiplicity = 1

 SCF Done:  E(RHF) =  -445.616804798     A.U. after   16 cycles
 Normal termination of Gaussian 16 at Tue Apr  8 21:46:00 2025.
 Gaussian 16:  ES64L-G16RevC.01  3-Jul-2019

 ----------------------------------------------------------------------
 #t hf aug-cc-pvdz iop(5/13=1,5/36=2,99/5=2) pseudo=read geom=check gue
 ss=(read,tcheck) scf=(maxcycle=1)
 ----------------------------------------------------------------------
 -----
 title
 -----
 Structure from the checkpoint file:  "ANI1ccx_521_conf7_mol1.chk"
 Charge =  0 Multiplicity = 1

                         Standard orientation:
 ---------------------------------------------------------------------
 Center     Atomic      Atomic             Coordinates (Angstroms)
 Number     Number       Type             X           Y           Z
 ---------------------------------------------------------------------
      1          6           0       -1.312252    0.358053    0.027882
      2          6           0        1.345449   -0.369577   -0.060072
      3          1           0       -2.892481   -0.371403   -1.066349
      4          1           0       -2.432601   -1.382272    0.247239
      5          1           0        2.666268    0.796086   -1.088319
      6          1           0        2.553608    1.090561    0.649386
      7          7           0       -2.201741   -0.620774   -0.373532
      8          7           0       -0.596358   -0.085483    1.205781
      9          7           0        0.622267   -0.330637    1.204641
     10          7           0        2.202068    0.710816   -0.193815
     11          8           0       -1.124342    1.434079   -0.505796
     12          8           0        1.089639   -1.156740   -0.925494
 ---------------------------------------------------------------------

 SCF Done:  E(RHF) =  -447.518279015     A.U. after    2 cycles

 The electronic state is 1-A.
 Alpha  occ. eigenvalues --  -21.06342 -21.06005 -15.84017 -15.83368 -15.79840
 Alpha  occ. eigenvalues --  -15.79724 -11.53237 -11.53000  -1.75885  -1.73651
 Alpha  occ. eigenvalues --   -1.55710  -1.37235  -1.35346  -1.09830  -0.90121
 Alpha  occ. eigenvalues --   -0.77786  -0.74499  -0.70887  -0.68844  -0.64478
 Alpha  occ. eigenvalues --   -0.60050  -0.55129  -0.54205  -0.48922  -0.48522
 Alpha  occ. eigenvalues --   -0.41820  -0.36193  -0.35443  -0.33045  -0.28512
 Alpha virt. eigenvalues --    0.03373   0.04910   0.05528   0.06511   0.09098
 Alpha virt. eigenvalues --    0.09872   0.10619   0.11986   0.12423   0.13111
 Alpha virt. eigenvalues --    0.13797   0.14590   0.15297   0.15733   0.16699

 Mulliken charges:
               1
     1  C    5.289629
     2  C    5.583143
     3  H    0.640667
     4  H    0.694622
     5  H    0.644504
     6  H    0.699938
     7  N   -2.795623
     8  N   -1.170626
     9  N   -1.216374
    10  N   -2.845244
    11  O   -2.775728
    12  O   -2.748907
 Sum of Mulliken charges =   0.00000

 Dipole moment (field-independent basis, Debye):
    X=              0.0855    Y=              0.0525    Z=             -0.8233  Tot=              0.8294

 Test job not archived.
 1\1\GINC-SE457\SP\RHF\Aug-CC-pVDZ\C2H4N4O2\OHZDE\08-Apr-2025\0\\#t hf
 aug-cc-pvdz iop(5/13=1,5/36=2,99/5=2) pseudo=read geom=check guess=(re
 ad,tcheck) scf=(maxcycle=1)\\title\\0,1\C,0,-1.31225,0.358054,0.027881
 5\C,0,1.34545,-0.369578,-0.0600725\H,0,-2.89248,-0.371401,-1.06635\H,0
 ,-2.4326,-1.38227,0.247238\H,0,2.66627,0.796085,-1.08832\H,0,2.55361,1
 .09056,0.649385\N,0,-2.20174,-0.620772,-0.373533\N,0,-0.596356,-0.0854
 829,1.20578\N,0,0.622268,-0.330637,1.20464\N,0,2.20207,0.710815,-0.193
 816\O,0,-1.12434,1.43408,-0.505797\O,0,1.08964,-1.15674,-0.925495\\Ver

 Normal termination of Gaussian 16 at Tue Apr  8 21:46:04 2025.
