 Gaussian 16, Revision C.01,

 ----------------------------------------------------------------------
 #t hf aug-cc-pvdz symm=none int=(grid=ultrafine) guess=(read,tcheck) s
 table=(opt,rrhf)
 ----------------------------------------------------------------------
 -----
 title
 -----
 Symbolic Z-matrix:
 Charge =  0 Multiplicity = 1

 SCF Done:  E(RHF) =  -532.302131699     A.U. after   11 cycles
 Normal termination of Gaussian 16 at Tue Apr  8 21:11:06 2025.
 Gaussian 16:  ES64L-G16RevC.01  3-Jul-2019

 ----------------------------------------------------------------------
 #t hf aug-cc-pvdz iop(5/13=1,5/36=2,99/5=2) pseudo=read geom=check gue
 ss=(read,tcheck) scf=(maxcycle=1)
 ----------------------------------------------------------------------
 -----
 title
 -----
 Structure from the checkpoint file:  "ANI1ccx_1845_conf263_mol1.chk"
 Charge =  0 Multiplicity = 1

                         Standard orientation:
 ---------------------------------------------------------------------
 Center     Atomic      Atomic             Coordinates (Angstroms)
 Number     Number       Type             X           Y           Z
 ---------------------------------------------------------------------
      1          1           0       -1.771902    3.553669   -0.182087
      2          1           0        0.482562    2.064321    0.804846
      3          1           0        0.339052    0.948507   -0.171629
      4          1           0       -3.035419   -0.194225   -0.105162
      5          1           0       -3.906820    1.208297   -0.175591
      6          1           0       -1.821961    2.031129    0.133817
      7          1           0       -1.526967   -2.057831   -0.006521
      8          1           0        2.899672   -0.827169   -0.630939
      9          1           0       -2.914606   -2.633822    0.222064
     10          1           0        2.854480    1.050373   -0.193654
     11          1           0        4.266490    1.358504   -0.575307
     12          1           0        0.312772   -2.485369    1.085200
     13          1           0        0.747487   -2.357109   -0.335916
     14          1           0        1.555092   -0.608439    0.081358
     15          8           0       -1.225191    2.856629    0.161483
     16          8           0        2.138482   -1.314248   -0.136474
     17          8           0       -3.038609    0.745097   -0.345048
     18          8           0        3.747361    0.686237   -0.146187
     19          8           0        1.002180    1.400241    0.314365
     20          8           0       -2.471117   -1.854472   -0.059325
     21          8           0        0.036903   -2.650839    0.217378
 ---------------------------------------------------------------------

 SCF Done:  E(RHF) =  -534.584303633     A.U. after    2 cycles

 The electronic state is 1-A.
 Alpha  occ. eigenvalues --  -21.10269 -21.09502 -21.09462 -21.08390 -21.08263
 Alpha  occ. eigenvalues --  -21.08009 -21.07257  -1.70912  -1.69195  -1.68016
 Alpha  occ. eigenvalues --   -1.66973  -1.65182  -1.63597  -1.63266  -0.67009
 Alpha  occ. eigenvalues --   -0.66293  -0.65624  -0.64922  -0.64341  -0.62917
 Alpha  occ. eigenvalues --   -0.61358  -0.52638  -0.52177  -0.48681  -0.48097
 Alpha  occ. eigenvalues --   -0.43890  -0.42602  -0.40719  -0.37128  -0.36059
 Alpha  occ. eigenvalues --   -0.35570  -0.34910  -0.34551  -0.33765  -0.33442
 Alpha virt. eigenvalues --    0.03489   0.04532   0.04847   0.05884   0.06660
 Alpha virt. eigenvalues --    0.06970   0.07573   0.09033   0.09255   0.09464
 Alpha virt. eigenvalues --    0.10336   0.11511   0.12514   0.13491   0.17515

 Mulliken charges:
               1
     1  H    0.909551
     2  H    1.219604
     3  H    0.930281
     4  H    1.535394
     5  H    0.861072
     6  H    1.466565
     7  H    1.817577
     8  H    1.174428
     9  H    0.805381
    10  H    1.392439
    11  H    0.865625
    12  H    0.946810
    13  H    1.391245
    14  H    1.368202
    15  O   -2.129871
    16  O   -2.532394
    17  O   -2.279631
    18  O   -2.031591
    19  O   -2.448333
    20  O   -2.519049
    21  O   -2.743304
 Sum of Mulliken charges =  -0.00000

 Dipole moment (field-independent basis, Debye):
    X=             -0.8138    Y=              0.8044    Z=              0.1169  Tot=              1.1502

 Test job not archived.
 1\1\GINC-SE249\SP\RHF\Aug-CC-pVDZ\H14O7\OHZDE\08-Apr-2025\0\\#t hf aug
 -cc-pvdz iop(5/13=1,5/36=2,99/5=2) pseudo=read geom=check guess=(read,
 tcheck) scf=(maxcycle=1)\\title\\0,1\H,0,-1.7719,3.55367,-0.182087\H,0
 ,0.482563,2.06432,0.804846\H,0,0.339052,0.948506,-0.171629\H,0,-3.0354
 2,-0.194223,-0.105162\H,0,-3.90682,1.2083,-0.175591\H,0,-1.82196,2.031
 13,0.133817\H,0,-1.52697,-2.05783,-0.00652038\H,0,2.89967,-0.827172,-0
 .630939\H,0,-2.91461,-2.63382,0.222064\H,0,2.85448,1.05037,-0.193654\H
 ,0,4.26649,1.3585,-0.575307\H,0,0.312769,-2.48537,1.0852\H,0,0.747484,

 Normal termination of Gaussian 16 at Tue Apr  8 21:11:13 2025.
