 Gaussian 16, Revision C.01,

 ----------------------------------------------------------------------
 #t hf aug-cc-pvdz symm=none int=(grid=ultrafine) guess=(read,tcheck) s
 table=(opt,rrhf)
 ----------------------------------------------------------------------
 -----
 title
 -----
 Symbolic Z-matrix:
 Charge =  0 Multiplicity = 1

 SCF Done:  E(RHF) =  -509.546510933     A.U. after   14 cycles
 Normal termination of Gaussian 16 at Tue Apr  8 22:13:27 2025.
 Gaussian 16:  ES64L-G16RevC.01  3-Jul-2019

 ----------------------------------------------------------------------
 #t hf aug-cc-pvdz iop(5/13=1,5/36=2,99/5=2) pseudo=read geom=check gue
 ss=(read,tcheck) scf=(maxcycle=1)
 ----------------------------------------------------------------------
 -----
 title
 -----
 Structure from the checkpoint file:  "ANI1ccx_939_conf20_mol1.chk"
 Charge =  0 Multiplicity = 1

                         Standard orientation:
 ---------------------------------------------------------------------
 Center     Atomic      Atomic             Coordinates (Angstroms)
 Number     Number       Type             X           Y           Z
 ---------------------------------------------------------------------
      1          6           0       -0.790615    0.538112   -0.731162
      2          6           0       -1.446909   -0.493330    0.074175
      3          6           0        0.696227    0.263501   -1.036820
      4          6           0        1.623131   -0.067308    0.097169
      5          1           0       -1.078739    2.582490   -0.774990
      6          1           0       -1.673169    1.768460    0.559687
      7          1           0       -1.271049    0.501288   -1.730280
      8          1           0        0.813594   -0.551610   -1.783620
      9          1           0        1.190821    1.134400   -1.495640
     10          1           0        2.282681    0.298004    1.745100
     11          1           0       -1.293099   -2.386670    0.353357
     12          7           0       -0.877532    1.819510   -0.086817
     13          8           0       -2.300789   -0.292272    0.861777
     14          8           0        2.673281   -0.677153   -0.177445
     15          8           0        1.461061    0.511198    1.276570
     16          8           0       -0.998466   -1.732870   -0.296661
 ---------------------------------------------------------------------

 SCF Done:  E(RHF) =  -511.721286126     A.U. after    2 cycles

 The electronic state is 1-A.
 Alpha  occ. eigenvalues --  -21.13307 -21.13279 -21.07767 -21.03791 -15.73982
 Alpha  occ. eigenvalues --  -11.55193 -11.53511 -11.47354 -11.41243  -1.84866
 Alpha  occ. eigenvalues --   -1.83538  -1.68707  -1.63488  -1.37427  -1.14225
 Alpha  occ. eigenvalues --   -1.01117  -0.83500  -0.77333  -0.71476  -0.68435
 Alpha  occ. eigenvalues --   -0.65165  -0.61080  -0.60799  -0.58756  -0.56250
 Alpha  occ. eigenvalues --   -0.53525  -0.51315  -0.49712  -0.46555  -0.44671
 Alpha  occ. eigenvalues --   -0.36714  -0.36355  -0.32862  -0.31741  -0.28948
 Alpha virt. eigenvalues --    0.03254   0.04534   0.05385   0.05744   0.05969
 Alpha virt. eigenvalues --    0.06670   0.08075   0.10172   0.10610   0.11466
 Alpha virt. eigenvalues --    0.11677   0.13070   0.13724   0.14138   0.14986

 Mulliken charges:
               1
     1  C   -2.098699
     2  C    6.739745
     3  C   -2.549479
     4  C    5.358214
     5  H    0.452095
     6  H    0.610275
     7  H    1.638213
     8  H    1.263057
     9  H    1.465471
    10  H    0.762182
    11  H    0.882230
    12  N   -2.506264
    13  O   -3.215993
    14  O   -2.849650
    15  O   -2.927192
    16  O   -3.024205
 Sum of Mulliken charges =  -0.00000

 Dipole moment (field-independent basis, Debye):
    X=             -1.4150    Y=              0.5619    Z=             -0.5418  Tot=              1.6160

 Test job not archived.
 1\1\GINC-SE118\SP\RHF\Aug-CC-pVDZ\C4H7N1O4\OHZDE\08-Apr-2025\0\\#t hf
 aug-cc-pvdz iop(5/13=1,5/36=2,99/5=2) pseudo=read geom=check guess=(re
 ad,tcheck) scf=(maxcycle=1)\\title\\0,1\C,0,-0.790616,0.538112,-0.7311
 62\C,0,-1.44691,-0.49333,0.0741748\C,0,0.696226,0.263501,-1.03682\C,0,
 1.62313,-0.0673079,0.0971684\H,0,-1.07874,2.58249,-0.77499\H,0,-1.6731
 7,1.76846,0.559687\H,0,-1.27105,0.501288,-1.73028\H,0,0.813593,-0.5516
 1,-1.78362\H,0,1.19082,1.1344,-1.49564\H,0,2.28268,0.298004,1.7451\H,0
 ,-1.2931,-2.38667,0.353357\N,0,-0.877533,1.81951,-0.086817\O,0,-2.3007

 Normal termination of Gaussian 16 at Tue Apr  8 22:13:34 2025.
