 Gaussian 16, Revision C.01,

 ----------------------------------------------------------------------
 #t hf aug-cc-pvdz symm=none int=(grid=ultrafine) guess=(read,tcheck) s
 table=(opt,rrhf)
 ----------------------------------------------------------------------
 -----
 title
 -----
 Symbolic Z-matrix:
 Charge =  0 Multiplicity = 1

 SCF Done:  E(RHF) =  -487.415909107     A.U. after   15 cycles
 Normal termination of Gaussian 16 at Tue Apr  8 22:06:15 2025.
 Gaussian 16:  ES64L-G16RevC.01  3-Jul-2019

 ----------------------------------------------------------------------
 #t hf aug-cc-pvdz iop(5/13=1,5/36=2,99/5=2) pseudo=read geom=check gue
 ss=(read,tcheck) scf=(maxcycle=1)
 ----------------------------------------------------------------------
 -----
 title
 -----
 Structure from the checkpoint file:  "ANI1ccx_877_conf3_mol1.chk"
 Charge =  0 Multiplicity = 1

                         Standard orientation:
 ---------------------------------------------------------------------
 Center     Atomic      Atomic             Coordinates (Angstroms)
 Number     Number       Type             X           Y           Z
 ---------------------------------------------------------------------
      1          6           0        1.440132   -0.054334   -0.013127
      2          6           0        0.707787    1.257373    0.126164
      3          6           0       -0.751255    1.209998   -0.079807
      4          6           0       -0.728903   -1.212762    0.019779
      5          1           0        0.866204    1.407964    1.179150
      6          1           0        1.237964    2.048305   -0.297225
      7          1           0       -2.296228   -0.071042   -0.214687
      8          1           0        1.194369   -2.024695   -0.113990
      9          7           0       -1.338518   -0.028870   -0.102192
     10          7           0        0.696001   -1.166307   -0.007725
     11          8           0        2.660721   -0.013453   -0.086300
     12          8           0       -1.380277    2.229725   -0.008513
     13          8           0       -1.344350   -2.240765    0.082078
 ---------------------------------------------------------------------

 SCF Done:  E(RHF) =  -489.490260128     A.U. after    2 cycles

 The electronic state is 1-A.
 Alpha  occ. eigenvalues --  -21.07901 -21.07591 -21.06044 -15.83659 -15.82956
 Alpha  occ. eigenvalues --  -11.57375 -11.55723 -11.54903 -11.43817  -1.79531
 Alpha  occ. eigenvalues --   -1.76351  -1.73370  -1.49899  -1.40316  -1.19349
 Alpha  occ. eigenvalues --   -0.96717  -0.92678  -0.85714  -0.76041  -0.71769
 Alpha  occ. eigenvalues --   -0.66320  -0.62778  -0.61133  -0.59061  -0.57717
 Alpha  occ. eigenvalues --   -0.53889  -0.51973  -0.45572  -0.36965  -0.36582
 Alpha  occ. eigenvalues --   -0.35953  -0.34383  -0.28865
 Alpha virt. eigenvalues --    0.02614   0.05510   0.05946   0.06259   0.08591
 Alpha virt. eigenvalues --    0.09037   0.09605   0.10192   0.10916   0.11612
 Alpha virt. eigenvalues --    0.12479   0.12969   0.13584   0.14089   0.14750

 Mulliken charges:
               1
     1  C    5.283871
     2  C   -3.801867
     3  C    4.957107
     4  C    4.844918
     5  H    1.384171
     6  H    1.396669
     7  H    0.635500
     8  H    0.662823
     9  N   -2.566172
    10  N   -2.652734
    11  O   -3.496886
    12  O   -3.434371
    13  O   -3.213030
 Sum of Mulliken charges =   0.00000

 Dipole moment (field-independent basis, Debye):
    X=             -0.4133    Y=             -0.1418    Z=             -0.0102  Tot=              0.4370

 Test job not archived.
 1\1\GINC-SE220\SP\RHF\Aug-CC-pVDZ\C4H4N2O3\OHZDE\08-Apr-2025\0\\#t hf
 aug-cc-pvdz iop(5/13=1,5/36=2,99/5=2) pseudo=read geom=check guess=(re
 ad,tcheck) scf=(maxcycle=1)\\title\\0,1\C,0,1.44013,-0.0543394,-0.0131
 272\C,0,0.70779,1.25737,0.126164\C,0,-0.751252,1.21,-0.079807\C,0,-0.7
 28909,-1.21276,0.019779\H,0,0.866208,1.40796,1.17915\H,0,1.23797,2.048
 3,-0.297225\H,0,-2.29623,-0.0710343,-0.214687\H,0,1.19436,-2.0247,-0.1
 1399\N,0,-1.33852,-0.0288651,-0.102192\N,0,0.695995,-1.16631,-0.007724
 69\O,0,2.66072,-0.0134638,-0.0863001\O,0,-1.38027,2.22973,-0.00851316\

 Normal termination of Gaussian 16 at Tue Apr  8 22:06:21 2025.
