 Gaussian 16, Revision C.01,

 ----------------------------------------------------------------------
 #t hf aug-cc-pvdz symm=none int=(grid=ultrafine) guess=(read,tcheck) s
 table=(opt,rrhf)
 ----------------------------------------------------------------------
 -----
 title
 -----
 Symbolic Z-matrix:
 Charge =  0 Multiplicity = 1

 SCF Done:  E(RHF) =  -431.400554063     A.U. after   15 cycles
 Normal termination of Gaussian 16 at Tue Apr  8 21:44:52 2025.
 Gaussian 16:  ES64L-G16RevC.01  3-Jul-2019

 ----------------------------------------------------------------------
 #t hf aug-cc-pvdz iop(5/13=1,5/36=2,99/5=2) pseudo=read geom=check gue
 ss=(read,tcheck) scf=(maxcycle=1)
 ----------------------------------------------------------------------
 -----
 title
 -----
 Structure from the checkpoint file:  "ANI1ccx_499_conf3_mol1.chk"
 Charge =  0 Multiplicity = 1

                         Standard orientation:
 ---------------------------------------------------------------------
 Center     Atomic      Atomic             Coordinates (Angstroms)
 Number     Number       Type             X           Y           Z
 ---------------------------------------------------------------------
      1          6           0        0.307016    0.739846   -0.146546
      2          6           0       -0.985062   -0.110143    0.033568
      3          1           0        1.598835   -1.792545   -0.070455
      4          1           0        2.252698    0.668660    0.137946
      5          1           0       -1.787275   -1.738044   -0.647484
      6          7           0        1.498300    0.067227   -0.200823
      7          8           0        1.566873   -1.096635    0.575769
      8          8           0        0.239558    1.929721   -0.242667
      9          8           0       -0.932701   -1.246982   -0.690841
     10          8           0       -1.934240    0.240536    0.690692
 ---------------------------------------------------------------------

 SCF Done:  E(RHF) =  -433.169763673     A.U. after    2 cycles

 The electronic state is 1-A.
 Alpha  occ. eigenvalues --  -21.15032 -21.13841 -21.08701 -21.08052 -15.82213
 Alpha  occ. eigenvalues --  -11.56528 -11.51887  -1.86460  -1.82586  -1.74246
 Alpha  occ. eigenvalues --   -1.67908  -1.27528  -0.99984  -0.78987  -0.71159
 Alpha  occ. eigenvalues --   -0.67306  -0.66126  -0.61758  -0.59147  -0.53391
 Alpha  occ. eigenvalues --   -0.50121  -0.48757  -0.40659  -0.35600  -0.35507
 Alpha  occ. eigenvalues --   -0.35024  -0.29889
 Alpha virt. eigenvalues --    0.03452   0.04924   0.05437   0.09996   0.10456
 Alpha virt. eigenvalues --    0.10743   0.11736   0.12812   0.13091   0.13668
 Alpha virt. eigenvalues --    0.14747   0.16287   0.17731   0.18650   0.19070

 Mulliken charges:
               1
     1  C    3.773773
     2  C    5.030763
     3  H    0.831004
     4  H    0.696126
     5  H    0.883861
     6  N   -0.497026
     7  O   -2.231848
     8  O   -2.937259
     9  O   -2.769169
    10  O   -2.780225
 Sum of Mulliken charges =   0.00000

 Dipole moment (field-independent basis, Debye):
    X=              1.1160    Y=             -2.3525    Z=             -0.3474  Tot=              2.6269

 Test job not archived.
 1\1\GINC-SE094\SP\RHF\Aug-CC-pVDZ\C2H3N1O4\OHZDE\08-Apr-2025\0\\#t hf
 aug-cc-pvdz iop(5/13=1,5/36=2,99/5=2) pseudo=read geom=check guess=(re
 ad,tcheck) scf=(maxcycle=1)\\title\\0,1\C,0,0.307018,0.739845,-0.14654
 6\C,0,-0.985063,-0.110141,0.033568\H,0,1.59883,-1.79255,-0.0704546\H,0
 ,2.2527,0.668653,0.137946\H,0,-1.78728,-1.73804,-0.647484\N,0,1.4983,0
 .0672227,-0.200823\O,0,1.56687,-1.09664,0.575769\O,0,0.239563,1.92972,
 -0.242667\O,0,-0.932705,-1.24698,-0.690841\O,0,-1.93424,0.240541,0.690
 692\\Version=ES64L-G16RevC.01\State=1-A\HF=-433.1697637\RMSD=1.346e-01

 Normal termination of Gaussian 16 at Tue Apr  8 21:44:56 2025.
