 Gaussian 16, Revision C.01,

 ----------------------------------------------------------------------
 #t hf aug-cc-pvdz symm=none int=(grid=ultrafine) guess=(read,tcheck) s
 table=(opt,rrhf)
 ----------------------------------------------------------------------
 -----
 title
 -----
 Symbolic Z-matrix:
 Charge =  0 Multiplicity = 1

 SCF Done:  E(RHF) =  -304.186130980     A.U. after   11 cycles
 Normal termination of Gaussian 16 at Tue Apr  8 21:15:26 2025.
 Gaussian 16:  ES64L-G16RevC.01  3-Jul-2019

 ----------------------------------------------------------------------
 #t hf aug-cc-pvdz iop(5/13=1,5/36=2,99/5=2) pseudo=read geom=check gue
 ss=(read,tcheck) scf=(maxcycle=1)
 ----------------------------------------------------------------------
 -----
 title
 -----
 Structure from the checkpoint file:  "ANI1ccx_1904_conf15_mol2.chk"
 Charge =  0 Multiplicity = 1

                         Standard orientation:
 ---------------------------------------------------------------------
 Center     Atomic      Atomic             Coordinates (Angstroms)
 Number     Number       Type             X           Y           Z
 ---------------------------------------------------------------------
      1          1           0        0.265344   -2.397051   -0.722841
      2          1           0       -0.551204   -1.294660   -0.007287
      3          1           0        1.472360   -0.603112   -0.055187
      4          1           0        2.448671    0.297493    0.725594
      5          1           0        0.554951    1.372479    0.062525
      6          1           0       -0.296409    2.403520   -0.722226
      7          1           0       -1.453419    0.605726   -0.015553
      8          1           0       -2.330250   -0.391387    0.802875
      9          8           0        0.283869   -1.839131    0.067349
     10          8           0        1.919551    0.281471   -0.066762
     11          8           0       -0.308605    1.847840    0.064497
     12          8           0       -1.908570   -0.289306   -0.073572
 ---------------------------------------------------------------------

 SCF Done:  E(RHF) =  -305.505302967     A.U. after    2 cycles

 The electronic state is 1-A.
 Alpha  occ. eigenvalues --  -21.08809 -21.08415 -21.08055 -21.07991  -1.69209
 Alpha  occ. eigenvalues --   -1.66484  -1.66025  -1.62962  -0.65140  -0.64324
 Alpha  occ. eigenvalues --   -0.63815  -0.63355  -0.52762  -0.47950  -0.47316
 Alpha  occ. eigenvalues --   -0.42162  -0.35277  -0.34863  -0.34057  -0.33645
 Alpha virt. eigenvalues --    0.04039   0.05437   0.05542   0.06071   0.08068
 Alpha virt. eigenvalues --    0.09179   0.09443   0.10721   0.16639   0.19253
 Alpha virt. eigenvalues --    0.20920   0.21019   0.21946   0.22736   0.23210

 Mulliken charges:
               1
     1  H    0.748217
     2  H    1.544209
     3  H    1.408606
     4  H    0.779144
     5  H    1.448081
     6  H    0.776343
     7  H    1.434540
     8  H    0.737087
     9  O   -2.233190
    10  O   -2.185880
    11  O   -2.268926
    12  O   -2.188231
 Sum of Mulliken charges =   0.00000

 Dipole moment (field-independent basis, Debye):
    X=              0.0971    Y=              0.0801    Z=              0.0288  Tot=              0.1291

 Test job not archived.
 1\1\GINC-SE159\SP\RHF\Aug-CC-pVDZ\H8O4\OHZDE\08-Apr-2025\0\\#t hf aug-
 cc-pvdz iop(5/13=1,5/36=2,99/5=2) pseudo=read geom=check guess=(read,t
 check) scf=(maxcycle=1)\\title\\0,1\H,0,0.265346,-2.39705,-0.722841\H,
 0,-0.551203,-1.29466,-0.00728734\H,0,1.47236,-0.60311,-0.0551867\H,0,2
 .44867,0.297496,0.725594\H,0,0.554949,1.37248,0.0625251\H,0,-0.296412,
 2.40352,-0.722226\H,0,-1.45342,0.605725,-0.0155533\H,0,-2.33025,-0.391
 389,0.802875\O,0,0.28387,-1.83913,0.0673494\O,0,1.91955,0.281473,-0.06
 67618\O,0,-0.308608,1.84784,0.0644966\O,0,-1.90857,-0.289308,-0.073571

 Normal termination of Gaussian 16 at Tue Apr  8 21:15:29 2025.
