 Gaussian 16, Revision C.01,

 ----------------------------------------------------------------------
 #t hf aug-cc-pvdz symm=none int=(grid=ultrafine) guess=(read,tcheck) s
 table=(opt,rrhf)
 ----------------------------------------------------------------------
 -----
 title
 -----
 Symbolic Z-matrix:
 Charge =  0 Multiplicity = 1

 SCF Done:  E(RHF) =  -943.005053216     A.U. after   15 cycles
 Normal termination of Gaussian 16 at Tue Apr  8 20:18:30 2025.
 Gaussian 16:  ES64L-G16RevC.01  3-Jul-2019

 ----------------------------------------------------------------------
 #t hf aug-cc-pvdz iop(5/13=1,5/36=2,99/5=2) pseudo=read geom=check gue
 ss=(read,tcheck) scf=(maxcycle=1)
 ----------------------------------------------------------------------
 -----
 title
 -----
 Structure from the checkpoint file:  "ANI1ccx_1569_conf40_mol1.chk"
 Charge =  0 Multiplicity = 1

                         Standard orientation:
 ---------------------------------------------------------------------
 Center     Atomic      Atomic             Coordinates (Angstroms)
 Number     Number       Type             X           Y           Z
 ---------------------------------------------------------------------
      1          6           0       -2.576641   -1.015841   -0.271923
      2          6           0       -1.114670   -1.405290   -0.546283
      3          6           0       -2.649021    0.477807    0.082451
      4          6           0       -1.745471    1.404640   -0.719379
      5          6           0        0.879100   -0.622286    0.718884
      6          6           0        0.526121    0.800169    1.067130
      7          6           0        1.747679   -0.724630   -0.462872
      8          6           0        3.217439   -0.422798   -0.164761
      9          1           0        0.786447    2.478960    0.996714
     10          1           0        4.757589    0.411539   -0.694495
     11          1           0        1.241369   -0.190987   -1.285040
     12          1           0        1.828590   -1.756710   -0.746818
     13          1           0        1.492119   -1.086870    1.505040
     14          1           0       -0.993712   -1.288280    1.395120
     15          1           0       -2.575611    0.632212    1.154630
     16          1           0       -3.650641    0.843981   -0.128452
     17          1           0       -3.242921   -1.257251   -1.178700
     18          1           0       -2.707860   -2.811661    0.597708
     19          1           0       -3.983950   -1.862781    1.090990
     20          1           0       -0.779373    2.895240   -0.540089
     21          7           0       -2.956060   -1.818391    0.865993
     22          7           0       -0.318975   -1.460160    0.645721
     23          8           0        3.854779    0.458731   -0.931447
     24          8           0       -0.602118   -1.697970   -1.604070
     25          8           0       -1.044151    1.138020   -1.629770
     26          8           0       -1.602981    2.595240   -0.131784
     27          8           0       -0.209607    1.041320    1.939110
     28          8           0        3.830249   -0.995181    0.718022
     29          8           0        0.904577    1.833820    0.268928
 ---------------------------------------------------------------------

 SCF Done:  E(RHF) =  -947.050364757     A.U. after    2 cycles

 The electronic state is 1-A.
 Alpha  occ. eigenvalues --  -21.13475 -21.13334 -21.11774 -21.07514 -21.06158
 Alpha  occ. eigenvalues --  -21.04994 -21.04713 -15.76571 -15.75289 -11.57823
 Alpha  occ. eigenvalues --  -11.55238 -11.54705 -11.54058 -11.49755 -11.49215
 Alpha  occ. eigenvalues --  -11.42951 -11.41779  -1.88116  -1.85966  -1.84607
 Alpha  occ. eigenvalues --   -1.72073  -1.68542  -1.66822  -1.65014  -1.43633
 Alpha  occ. eigenvalues --   -1.36678  -1.18967  -1.15828  -1.01694  -0.96827
 Alpha  occ. eigenvalues --   -0.85573  -0.82286  -0.79983  -0.74504  -0.72857
 Alpha  occ. eigenvalues --   -0.70122  -0.68411  -0.67646  -0.66004  -0.64888
 Alpha  occ. eigenvalues --   -0.63381  -0.62684  -0.61454  -0.59983  -0.59019
 Alpha  occ. eigenvalues --   -0.57282  -0.54992  -0.53695  -0.52947  -0.51596
 Alpha  occ. eigenvalues --   -0.49927  -0.48472  -0.47520  -0.46252  -0.45490
 Alpha  occ. eigenvalues --   -0.45240  -0.39306  -0.36312  -0.35542  -0.34895
 Alpha  occ. eigenvalues --   -0.33644  -0.31309  -0.30335  -0.29768  -0.27954
 Alpha virt. eigenvalues --    0.03028   0.04105   0.04264   0.05157   0.05449
 Alpha virt. eigenvalues --    0.05833   0.06242   0.06829   0.07267   0.07881
 Alpha virt. eigenvalues --    0.08965   0.09388   0.09766   0.10938   0.11390

 Mulliken charges:
               1
     1  C   -1.345371
     2  C    7.166647
     3  C   -4.152423
     4  C    6.832281
     5  C   -0.653865
     6  C    7.980545
     7  C   -6.099061
     8  C    7.707897
     9  H    0.459491
    10  H    0.927670
    11  H    1.716309
    12  H    1.510424
    13  H    2.105568
    14  H    0.746017
    15  H    1.664483
    16  H    1.400873
    17  H    1.492113
    18  H    0.624436
    19  H    0.600478
    20  H    0.874039
    21  N   -2.772645
    22  N   -3.403354
    23  O   -3.382031
    24  O   -4.151048
    25  O   -3.573916
    26  O   -3.676183
    27  O   -3.984200
    28  O   -3.301559
    29  O   -3.313615
 Sum of Mulliken charges =  -0.00000

 Dipole moment (field-independent basis, Debye):
    X=             -1.8804    Y=              1.1917    Z=             -0.0050  Tot=              2.2262

 Test job not archived.
 1\1\GINC-SE132\SP\RHF\Aug-CC-pVDZ\C8H12N2O7\OHZDE\08-Apr-2025\0\\#t hf
  aug-cc-pvdz iop(5/13=1,5/36=2,99/5=2) pseudo=read geom=check guess=(r
 ead,tcheck) scf=(maxcycle=1)\\title\\0,1\C,0,-2.57664,-1.01584,-0.2719
 23\C,0,-1.11467,-1.40529,-0.546283\C,0,-2.64902,0.477808,0.0824509\C,0
 ,-1.74547,1.40464,-0.719379\C,0,0.879101,-0.622286,0.718884\C,0,0.5261
 22,0.800169,1.06713\C,0,1.74768,-0.72463,-0.462872\C,0,3.21744,-0.4227
 99,-0.164761\H,0,0.786448,2.47896,0.996714\H,0,4.75759,0.411538,-0.694
 495\H,0,1.24137,-0.190987,-1.28504\H,0,1.82859,-1.75671,-0.746818\H,0,

 Normal termination of Gaussian 16 at Tue Apr  8 20:19:12 2025.
