 Gaussian 16, Revision C.01,

 ----------------------------------------------------------------------
 #t hf aug-cc-pvdz symm=none int=(grid=ultrafine) guess=(read,tcheck) s
 table=(opt,rrhf)
 ----------------------------------------------------------------------
 -----
 title
 -----
 Symbolic Z-matrix:
 Charge =  0 Multiplicity = 1

 SCF Done:  E(RHF) =  -336.784399547     A.U. after   13 cycles
 Normal termination of Gaussian 16 at Tue Apr  8 21:45:50 2025.
 Gaussian 16:  ES64L-G16RevC.01  3-Jul-2019

 ----------------------------------------------------------------------
 #t hf aug-cc-pvdz iop(5/13=1,5/36=2,99/5=2) pseudo=read geom=check gue
 ss=(read,tcheck) scf=(maxcycle=1)
 ----------------------------------------------------------------------
 -----
 title
 -----
 Structure from the checkpoint file:  "ANI1ccx_515_conf3_mol2.chk"
 Charge =  0 Multiplicity = 1

                         Standard orientation:
 ---------------------------------------------------------------------
 Center     Atomic      Atomic             Coordinates (Angstroms)
 Number     Number       Type             X           Y           Z
 ---------------------------------------------------------------------
      1          6           0        0.745397    0.238240   -0.006994
      2          6           0       -0.730321   -0.233117   -0.012930
      3          1           0        2.578740   -0.647875    0.092018
      4          1           0        1.181704   -1.747435    0.008894
      5          1           0       -2.585714    0.658231    0.035039
      6          1           0       -1.210907    1.739807    0.001714
      7          7           0        1.587251   -0.821534    0.019169
      8          7           0       -1.598144    0.809505    0.032890
      9          8           0        1.045524    1.418264   -0.025406
     10          8           0       -1.042777   -1.411923   -0.022411
 ---------------------------------------------------------------------

 SCF Done:  E(RHF) =  -338.229038079     A.U. after    2 cycles

 The electronic state is 1-A.
 Alpha  occ. eigenvalues --  -21.05407 -21.05208 -15.79439 -15.79297 -11.53797
 Alpha  occ. eigenvalues --  -11.49420  -1.74863  -1.70555  -1.36265  -1.35705
 Alpha  occ. eigenvalues --   -0.96985  -0.79396  -0.75882  -0.70955  -0.61310
 Alpha  occ. eigenvalues --   -0.59819  -0.56445  -0.50611  -0.49309  -0.37583
 Alpha  occ. eigenvalues --   -0.35352  -0.33178  -0.27526
 Alpha virt. eigenvalues --    0.03423   0.05167   0.06574   0.07030   0.10366
 Alpha virt. eigenvalues --    0.11982   0.12203   0.12439   0.12579   0.12696
 Alpha virt. eigenvalues --    0.14917   0.16157   0.16876   0.17459   0.18802

 Mulliken charges:
               1
     1  C    4.378780
     2  C    4.354684
     3  H    0.735217
     4  H    0.791721
     5  H    0.752242
     6  H    0.775792
     7  N   -2.796453
     8  N   -2.803066
     9  O   -3.091944
    10  O   -3.096972
 Sum of Mulliken charges =  -0.00000

 Dipole moment (field-independent basis, Debye):
    X=              0.0017    Y=             -0.0094    Z=              0.0967  Tot=              0.0972

 Test job not archived.
 1\1\GINC-SE044\SP\RHF\Aug-CC-pVDZ\C2H4N2O2\OHZDE\08-Apr-2025\0\\#t hf
 aug-cc-pvdz iop(5/13=1,5/36=2,99/5=2) pseudo=read geom=check guess=(re
 ad,tcheck) scf=(maxcycle=1)\\title\\0,1\C,0,0.7454,0.238237,-0.0069937
 7\C,0,-0.73032,-0.233115,-0.0129298\H,0,2.57874,-0.647884,0.0920177\H,
 0,1.1817,-1.74744,0.00889421\H,0,-2.58571,0.658239,0.0350395\H,0,-1.21
 09,1.73981,0.00171369\N,0,1.58725,-0.82154,0.0191687\N,0,-1.59814,0.80
 9509,0.0328902\O,0,1.04553,1.41826,-0.0254057\O,0,-1.04278,-1.41192,-0
 .0224112\\Version=ES64L-G16RevC.01\State=1-A\HF=-338.2290381\RMSD=1.82

 Normal termination of Gaussian 16 at Tue Apr  8 21:45:53 2025.
