 Gaussian 16, Revision C.01,

 ----------------------------------------------------------------------
 #t hf aug-cc-pvdz symm=none int=(grid=ultrafine) guess=(read,tcheck) s
 table=(opt,rrhf)
 ----------------------------------------------------------------------
 -----
 title
 -----
 Symbolic Z-matrix:
 Charge =  0 Multiplicity = 1

 SCF Done:  E(RHF) =  -451.824559783     A.U. after   13 cycles
 Normal termination of Gaussian 16 at Tue Apr  8 21:57:19 2025.
 Gaussian 16:  ES64L-G16RevC.01  3-Jul-2019

 ----------------------------------------------------------------------
 #t hf aug-cc-pvdz iop(5/13=1,5/36=2,99/5=2) pseudo=read geom=check gue
 ss=(read,tcheck) scf=(maxcycle=1)
 ----------------------------------------------------------------------
 -----
 title
 -----
 Structure from the checkpoint file:  "ANI1ccx_764_conf16_mol1.chk"
 Charge =  0 Multiplicity = 1

                         Standard orientation:
 ---------------------------------------------------------------------
 Center     Atomic      Atomic             Coordinates (Angstroms)
 Number     Number       Type             X           Y           Z
 ---------------------------------------------------------------------
      1          6           0       -2.223591   -0.004917    0.599745
      2          6           0        0.102625    0.686419   -0.162483
      3          6           0        1.895209   -0.964941   -0.312802
      4          1           0       -2.941701   -1.704011   -0.130495
      5          1           0       -3.124461    0.575269    0.864829
      6          1           0       -1.818891   -0.484664    1.512390
      7          1           0       -1.537271    1.873080   -0.042654
      8          1           0       -0.168806   -1.270500   -0.272248
      9          1           0        1.983059   -2.028050   -0.096327
     10          1           0        2.104129   -0.775833   -1.404170
     11          1           0        2.680959    0.665777    0.342868
     12          7           0       -1.244431    0.922385    0.058875
     13          7           0        0.518562   -0.644148   -0.026039
     14          8           0       -2.405281   -0.959585   -0.441149
     15          8           0        0.854706    1.606380   -0.414519
     16          8           0        2.707899   -0.284056    0.636818
 ---------------------------------------------------------------------

 SCF Done:  E(RHF) =  -453.803517329     A.U. after    2 cycles

 The electronic state is 1-A.
 Alpha  occ. eigenvalues --  -21.09661 -21.05487 -21.01947 -15.75874 -15.75074
 Alpha  occ. eigenvalues --  -11.50640 -11.46251 -11.43362  -1.75121  -1.72713
 Alpha  occ. eigenvalues --   -1.68827  -1.40448  -1.33018  -1.00050  -0.95207
 Alpha  occ. eigenvalues --   -0.79987  -0.74233  -0.71093  -0.66607  -0.65619
 Alpha  occ. eigenvalues --   -0.60670  -0.56927  -0.54073  -0.52868  -0.49686
 Alpha  occ. eigenvalues --   -0.45174  -0.43059  -0.36074  -0.35438  -0.32693
 Alpha  occ. eigenvalues --   -0.30926  -0.28884
 Alpha virt. eigenvalues --    0.03042   0.04501   0.05053   0.05488   0.06215
 Alpha virt. eigenvalues --    0.06531   0.08089   0.08635   0.10669   0.11235
 Alpha virt. eigenvalues --    0.12757   0.13763   0.14108   0.14843   0.15445

 Mulliken charges:
               1
     1  C   -0.731563
     2  C    5.427455
     3  C   -0.754436
     4  H    0.806339
     5  H    1.408539
     6  H    1.662399
     7  H    0.545238
     8  H    0.862941
     9  H    1.486073
    10  H    1.435742
    11  H    0.867089
    12  N   -2.554942
    13  N   -2.724483
    14  O   -2.397722
    15  O   -2.927245
    16  O   -2.411424
 Sum of Mulliken charges =  -0.00000

 Dipole moment (field-independent basis, Debye):
    X=             -3.1610    Y=             -1.6711    Z=              0.3230  Tot=              3.5901

 Test job not archived.
 1\1\GINC-SE105\SP\RHF\Aug-CC-pVDZ\C3H8N2O3\OHZDE\08-Apr-2025\0\\#t hf
 aug-cc-pvdz iop(5/13=1,5/36=2,99/5=2) pseudo=read geom=check guess=(re
 ad,tcheck) scf=(maxcycle=1)\\title\\0,1\C,0,-2.22359,-0.0049163,0.5997
 45\C,0,0.102626,0.686419,-0.162483\C,0,1.89521,-0.964941,-0.312802\H,0
 ,-2.9417,-1.70401,-0.130495\H,0,-3.12446,0.57527,0.864829\H,0,-1.81889
 ,-0.484664,1.51239\H,0,-1.53727,1.87308,-0.0426542\H,0,-0.168805,-1.27
 05,-0.272248\H,0,1.98306,-2.02805,-0.096327\H,0,2.10413,-0.775833,-1.4
 0417\H,0,2.68096,0.665777,0.342868\N,0,-1.24443,0.922385,0.0588746\N,0

 Normal termination of Gaussian 16 at Tue Apr  8 21:57:25 2025.
