 Gaussian 16, Revision C.01,

 ----------------------------------------------------------------------
 #t hf aug-cc-pvdz symm=none int=(grid=ultrafine) guess=(read,tcheck) s
 table=(opt,rrhf)
 ----------------------------------------------------------------------
 -----
 title
 -----
 Symbolic Z-matrix:
 Charge =  0 Multiplicity = 1

 SCF Done:  E(RHF) =  -447.704743667     A.U. after   14 cycles
 Normal termination of Gaussian 16 at Tue Apr  8 22:11:58 2025.
 Gaussian 16:  ES64L-G16RevC.01  3-Jul-2019

 ----------------------------------------------------------------------
 #t hf aug-cc-pvdz iop(5/13=1,5/36=2,99/5=2) pseudo=read geom=check gue
 ss=(read,tcheck) scf=(maxcycle=1)
 ----------------------------------------------------------------------
 -----
 title
 -----
 Structure from the checkpoint file:  "ANI1ccx_921_conf2_mol1.chk"
 Charge =  0 Multiplicity = 1

                         Standard orientation:
 ---------------------------------------------------------------------
 Center     Atomic      Atomic             Coordinates (Angstroms)
 Number     Number       Type             X           Y           Z
 ---------------------------------------------------------------------
      1          6           0       -1.353529   -0.135053    0.009745
      2          6           0       -0.929944    1.105466    0.070387
      3          6           0        0.523836    1.416711   -0.026175
      4          6           0        0.982601   -0.877277   -0.013290
      5          1           0       -2.853455   -1.335351    0.581934
      6          1           0       -3.351690    0.148745   -0.020370
      7          1           0       -1.606077    1.963634    0.072553
      8          1           0        1.519940   -2.714705    0.587771
      9          1           0        2.754166   -1.693061    0.045641
     10          1           0       -0.693349   -1.995023   -0.502251
     11          7           0       -2.654218   -0.596413   -0.093203
     12          7           0        1.421529    0.338017    0.027774
     13          7           0        1.788047   -1.990674   -0.069789
     14          7           0       -0.409573   -1.168242    0.010132
     15          8           0        0.984022    2.560983   -0.016710
 ---------------------------------------------------------------------

 SCF Done:  E(RHF) =  -449.713809202     A.U. after    2 cycles

 The electronic state is 1-A.
 Alpha  occ. eigenvalues --  -21.00323 -15.79991 -15.79774 -15.79383 -15.71581
 Alpha  occ. eigenvalues --  -11.51945 -11.50881 -11.48593 -11.37861  -1.67268
 Alpha  occ. eigenvalues --   -1.55488  -1.42927  -1.30483  -1.28537  -1.11983
 Alpha  occ. eigenvalues --   -0.91213  -0.88676  -0.75965  -0.73546  -0.69806
 Alpha  occ. eigenvalues --   -0.68004  -0.63522  -0.62150  -0.59989  -0.55070
 Alpha  occ. eigenvalues --   -0.51773  -0.48283  -0.46256  -0.41760  -0.37441
 Alpha  occ. eigenvalues --   -0.34453  -0.27738  -0.26094
 Alpha virt. eigenvalues --    0.02379   0.03672   0.04552   0.05614   0.06385
 Alpha virt. eigenvalues --    0.06675   0.09953   0.11152   0.11269   0.11862
 Alpha virt. eigenvalues --    0.12473   0.13890   0.14101   0.14307   0.14765

 Mulliken charges:
               1
     1  C    4.045732
     2  C   -0.953931
     3  C    4.063987
     4  C    3.797855
     5  H    0.542176
     6  H    0.534290
     7  H    1.353781
     8  H    0.548782
     9  H    0.602826
    10  H    0.598976
    11  N   -3.345052
    12  N   -2.773569
    13  N   -2.970772
    14  N   -2.697312
    15  O   -3.347770
 Sum of Mulliken charges =  -0.00000

 Dipole moment (field-independent basis, Debye):
    X=             -3.2410    Y=             -5.7963    Z=              1.0919  Tot=              6.7301

 Test job not archived.
 1\1\GINC-SE036\SP\RHF\Aug-CC-pVDZ\C4H6N4O1\OHZDE\08-Apr-2025\0\\#t hf
 aug-cc-pvdz iop(5/13=1,5/36=2,99/5=2) pseudo=read geom=check guess=(re
 ad,tcheck) scf=(maxcycle=1)\\title\\0,1\C,0,-1.35353,-0.135048,0.00974
 496\C,0,-0.92994,1.10547,0.0703872\C,0,0.523841,1.41671,-0.0261748\C,0
 ,0.982598,-0.87728,-0.0132897\H,0,-2.85346,-1.33534,0.581934\H,0,-3.35
 169,0.148758,-0.0203705\H,0,-1.60607,1.96364,0.0725533\H,0,1.51993,-2.
 71471,0.587771\H,0,2.75416,-1.69307,0.0456412\H,0,-0.693356,-1.99502,-
 0.502251\N,0,-2.65422,-0.596403,-0.0932035\N,0,1.42153,0.338013,0.0277

 Normal termination of Gaussian 16 at Tue Apr  8 22:12:06 2025.
