 Gaussian 16, Revision C.01,

 ----------------------------------------------------------------------
 #t hf aug-cc-pvdz symm=none int=(grid=ultrafine) guess=(read,tcheck) s
 table=(opt,rrhf)
 ----------------------------------------------------------------------
 -----
 title
 -----
 Symbolic Z-matrix:
 Charge =  0 Multiplicity = 1

 SCF Done:  E(RHF) =  -279.018893785     A.U. after   13 cycles
 Normal termination of Gaussian 16 at Tue Apr  8 21:39:34 2025.
 Gaussian 16:  ES64L-G16RevC.01  3-Jul-2019

 ----------------------------------------------------------------------
 #t hf aug-cc-pvdz iop(5/13=1,5/36=2,99/5=2) pseudo=read geom=check gue
 ss=(read,tcheck) scf=(maxcycle=1)
 ----------------------------------------------------------------------
 -----
 title
 -----
 Structure from the checkpoint file:  "ANI1ccx_417_conf5_mol2.chk"
 Charge =  0 Multiplicity = 1

                         Standard orientation:
 ---------------------------------------------------------------------
 Center     Atomic      Atomic             Coordinates (Angstroms)
 Number     Number       Type             X           Y           Z
 ---------------------------------------------------------------------
      1          6           0        0.619325   -0.077769    0.000951
      2          1           0       -2.388861    0.126229   -0.739671
      3          1           0       -2.269901   -0.191124    0.887026
      4          1           0       -0.659568   -1.730591    0.032327
      5          1           0        1.481319    1.750670   -0.025775
      6          1           0       -0.254844    1.784579   -0.014738
      7          7           0       -1.729401    0.133051    0.064690
      8          7           0       -0.659940   -0.716572   -0.126348
      9          7           0        0.598415    1.316660   -0.004975
     10          8           0        1.614049   -0.800640    0.040194
 ---------------------------------------------------------------------

 SCF Done:  E(RHF) =  -280.267556934     A.U. after    2 cycles

 The electronic state is 1-A.
 Alpha  occ. eigenvalues --  -21.00872 -15.78218 -15.77251 -15.76598 -11.49520
 Alpha  occ. eigenvalues --   -1.69478  -1.49232  -1.32620  -1.12055  -0.83071
 Alpha  occ. eigenvalues --   -0.73451  -0.69090  -0.67399  -0.61483  -0.54267
 Alpha  occ. eigenvalues --   -0.48193  -0.42057  -0.36555  -0.30208  -0.28447
 Alpha virt. eigenvalues --    0.03309   0.04879   0.05284   0.05659   0.07504
 Alpha virt. eigenvalues --    0.12387   0.12945   0.13203   0.15341   0.16025
 Alpha virt. eigenvalues --    0.17210   0.17626   0.18113   0.19101   0.20286

 Mulliken charges:
               1
     1  C    4.982781
     2  H    0.689504
     3  H    0.644116
     4  H    0.632190
     5  H    0.645111
     6  H    0.742193
     7  N   -1.704244
     8  N   -1.411814
     9  N   -2.494826
    10  O   -2.725011
 Sum of Mulliken charges =  -0.00000

 Dipole moment (field-independent basis, Debye):
    X=             -3.2819    Y=              0.9960    Z=              0.1817  Tot=              3.4345

 Test job not archived.
 1\1\GINC-SE092\SP\RHF\Aug-CC-pVDZ\C1H5N3O1\OHZDE\08-Apr-2025\0\\#t hf
 aug-cc-pvdz iop(5/13=1,5/36=2,99/5=2) pseudo=read geom=check guess=(re
 ad,tcheck) scf=(maxcycle=1)\\title\\0,1\C,0,0.619326,-0.0777685,0.0009
 51\H,0,-2.38886,0.12623,-0.739671\H,0,-2.2699,-0.191123,0.887026\H,0,-
 0.659567,-1.73059,0.0323275\H,0,1.48132,1.75067,-0.0257745\H,0,-0.2548
 43,1.78458,-0.0147381\N,0,-1.7294,0.133052,0.0646905\N,0,-0.659939,-0.
 716571,-0.126348\N,0,0.598416,1.31666,-0.00497489\O,0,1.61405,-0.80064
 ,0.0401942\\Version=ES64L-G16RevC.01\State=1-A\HF=-280.2675569\RMSD=4.

 Normal termination of Gaussian 16 at Tue Apr  8 21:39:38 2025.
