 Gaussian 16, Revision C.01,

 ----------------------------------------------------------------------
 #t hf aug-cc-pvdz symm=none int=(grid=ultrafine) guess=(read,tcheck) s
 table=(opt,rrhf)
 ----------------------------------------------------------------------
 -----
 title
 -----
 Symbolic Z-matrix:
 Charge =  0 Multiplicity = 1

 SCF Done:  E(RHF) =  -943.036912335     A.U. after   15 cycles
 Normal termination of Gaussian 16 at Tue Apr  8 20:20:13 2025.
 Gaussian 16:  ES64L-G16RevC.01  3-Jul-2019

 ----------------------------------------------------------------------
 #t hf aug-cc-pvdz iop(5/13=1,5/36=2,99/5=2) pseudo=read geom=check gue
 ss=(read,tcheck) scf=(maxcycle=1)
 ----------------------------------------------------------------------
 -----
 title
 -----
 Structure from the checkpoint file:  "ANI1ccx_1569_conf25_mol1.chk"
 Charge =  0 Multiplicity = 1

                         Standard orientation:
 ---------------------------------------------------------------------
 Center     Atomic      Atomic             Coordinates (Angstroms)
 Number     Number       Type             X           Y           Z
 ---------------------------------------------------------------------
      1          6           0        1.592269   -1.844251    0.306215
      2          6           0        0.158945   -1.330670   -0.026447
      3          6           0        2.671680   -0.898615   -0.166370
      4          6           0        2.344080    0.481533    0.132801
      5          6           0       -1.565720    0.253200    0.569422
      6          6           0       -2.762760   -0.666773    0.252917
      7          6           0       -1.445679    1.302360   -0.523713
      8          6           0       -0.370451    2.300650   -0.291008
      9          1           0       -1.844061   -1.699370   -1.077940
     10          1           0        0.694913    3.626999   -0.952448
     11          1           0       -2.407839    1.884581   -0.482295
     12          1           0       -1.334410    0.849439   -1.534450
     13          1           0       -1.721510    0.754941    1.515260
     14          1           0        0.289869   -0.101109    1.607400
     15          1           0        2.824910   -0.980064   -1.262900
     16          1           0        3.661940   -1.202662    0.287543
     17          1           0        1.726479   -1.903621    1.379420
     18          1           0        1.309299   -3.256491   -1.117600
     19          1           0        1.290109   -3.816441    0.373561
     20          1           0        1.804321    1.729429    1.633760
     21          7           0        1.769319   -3.183941   -0.222288
     22          7           0       -0.348169   -0.458310    0.812119
     23          8           0        0.034203    2.998240   -1.287770
     24          8           0       -0.320512   -1.534910   -1.200870
     25          8           0        2.108511    1.311299   -0.797588
     26          8           0        2.115870    0.786763    1.486930
     27          8           0       -3.761770   -0.457241    0.919934
     28          8           0        0.066207    2.503640    0.836577
     29          8           0       -2.739540   -1.604599   -0.709846
 ---------------------------------------------------------------------

 SCF Done:  E(RHF) =  -947.098378215     A.U. after    2 cycles

 The electronic state is 1-A.
 Alpha  occ. eigenvalues --  -21.14615 -21.13962 -21.09560 -21.07596 -21.05513
 Alpha  occ. eigenvalues --  -21.05490 -21.04142 -15.80818 -15.76063 -11.59067
 Alpha  occ. eigenvalues --  -11.57322 -11.56782 -11.54499 -11.50795 -11.50299
 Alpha  occ. eigenvalues --  -11.44027 -11.43446  -1.87647  -1.81495  -1.81277
 Alpha  occ. eigenvalues --   -1.73208  -1.67419  -1.66303  -1.64275  -1.46731
 Alpha  occ. eigenvalues --   -1.38834  -1.21346  -1.17926  -1.04697  -0.97272
 Alpha  occ. eigenvalues --   -0.87892  -0.83112  -0.82451  -0.77877  -0.76319
 Alpha  occ. eigenvalues --   -0.73508  -0.70297  -0.68029  -0.67126  -0.64579
 Alpha  occ. eigenvalues --   -0.63728  -0.63515  -0.62654  -0.59617  -0.58696
 Alpha  occ. eigenvalues --   -0.56754  -0.54913  -0.54277  -0.52114  -0.51545
 Alpha  occ. eigenvalues --   -0.50753  -0.49303  -0.48201  -0.47015  -0.45901
 Alpha  occ. eigenvalues --   -0.44544  -0.38976  -0.36996  -0.35461  -0.34372
 Alpha  occ. eigenvalues --   -0.32812  -0.31872  -0.31292  -0.30356  -0.28260
 Alpha virt. eigenvalues --    0.03268   0.04205   0.04305   0.04584   0.05315
 Alpha virt. eigenvalues --    0.05582   0.06191   0.07091   0.07281   0.07649
 Alpha virt. eigenvalues --    0.08013   0.08610   0.09492   0.10138   0.10654

 Mulliken charges:
               1
     1  C   -1.845831
     2  C    7.966155
     3  C   -4.193885
     4  C    6.621563
     5  C   -1.637058
     6  C    6.458250
     7  C   -4.542634
     8  C    7.300572
     9  H    1.598329
    10  H    0.707758
    11  H    1.404324
    12  H    1.515963
    13  H    2.095420
    14  H    0.821283
    15  H    1.336153
    16  H    1.369082
    17  H    1.839908
    18  H    0.493420
    19  H    0.551878
    20  H    1.162566
    21  N   -2.793786
    22  N   -3.295418
    23  O   -3.591376
    24  O   -3.816004
    25  O   -3.486856
    26  O   -3.567246
    27  O   -3.468676
    28  O   -3.486885
    29  O   -3.516968
 Sum of Mulliken charges =   0.00000

 Dipole moment (field-independent basis, Debye):
    X=              3.2000    Y=              1.1644    Z=              0.2834  Tot=              3.4170

 Test job not archived.
 1\1\GINC-SE109\SP\RHF\Aug-CC-pVDZ\C8H12N2O7\OHZDE\08-Apr-2025\0\\#t hf
  aug-cc-pvdz iop(5/13=1,5/36=2,99/5=2) pseudo=read geom=check guess=(r
 ead,tcheck) scf=(maxcycle=1)\\title\\0,1\C,0,1.59227,-1.84425,0.306215
 \C,0,0.158945,-1.33067,-0.0264468\C,0,2.67168,-0.898614,-0.16637\C,0,2
 .34408,0.481534,0.132801\C,0,-1.56572,0.2532,0.569422\C,0,-2.76276,-0.
 666774,0.252917\C,0,-1.44568,1.30236,-0.523713\C,0,-0.370452,2.30065,-
 0.291008\H,0,-1.84406,-1.69937,-1.07794\H,0,0.694912,3.627,-0.952448\H
 ,0,-2.40784,1.88458,-0.482295\H,0,-1.33441,0.849439,-1.53445\H,0,-1.72

 Normal termination of Gaussian 16 at Tue Apr  8 20:20:54 2025.
