 Gaussian 16, Revision C.01,

 ----------------------------------------------------------------------
 #t hf aug-cc-pvdz symm=none int=(grid=ultrafine) guess=(read,tcheck) s
 table=(opt,rrhf)
 ----------------------------------------------------------------------
 -----
 title
 -----
 Symbolic Z-matrix:
 Charge =  0 Multiplicity = 1

 SCF Done:  E(RHF) =  -499.469338823     A.U. after   15 cycles
 Normal termination of Gaussian 16 at Tue Apr  8 21:46:10 2025.
 Gaussian 16:  ES64L-G16RevC.01  3-Jul-2019

 ----------------------------------------------------------------------
 #t hf aug-cc-pvdz iop(5/13=1,5/36=2,99/5=2) pseudo=read geom=check gue
 ss=(read,tcheck) scf=(maxcycle=1)
 ----------------------------------------------------------------------
 -----
 title
 -----
 Structure from the checkpoint file:  "ANI1ccx_508_conf1_mol2.chk"
 Charge =  0 Multiplicity = 1

                         Standard orientation:
 ---------------------------------------------------------------------
 Center     Atomic      Atomic             Coordinates (Angstroms)
 Number     Number       Type             X           Y           Z
 ---------------------------------------------------------------------
      1          6           0        0.926882    0.632629   -0.024403
      2          6           0       -1.499789   -0.244966    0.011473
      3          1           0        0.999429    2.414381    0.866876
      4          1           0        1.023621    2.455321   -0.818523
      5          1           0       -1.118019    1.641950    0.022789
      6          7           0        0.634952    2.016651    0.004819
      7          7           0        2.084981    0.048533    0.001025
      8          7           0        1.831541   -1.308679   -0.013951
      9          7           0        0.589985   -1.541019    0.015277
     10          7           0       -0.058031   -0.340598    0.016122
     11          8           0       -1.925149    1.065820   -0.010538
     12          8           0       -2.206299   -1.186050   -0.009039
 ---------------------------------------------------------------------

 SCF Done:  E(RHF) =  -501.608199480     A.U. after    2 cycles

 The electronic state is 1-A.
 Alpha  occ. eigenvalues --  -21.13582 -21.08963 -15.85634 -15.84006 -15.83785
 Alpha  occ. eigenvalues --  -15.82609 -15.79079 -11.58785 -11.53050  -1.85633
 Alpha  occ. eigenvalues --   -1.76670  -1.70117  -1.45328  -1.41343  -1.27924
 Alpha  occ. eigenvalues --   -0.99581  -0.91699  -0.82650  -0.77293  -0.77006
 Alpha  occ. eigenvalues --   -0.69903  -0.66687  -0.58934  -0.58657  -0.56876
 Alpha  occ. eigenvalues --   -0.53895  -0.45257  -0.44645  -0.42729  -0.42058
 Alpha  occ. eigenvalues --   -0.41617  -0.36569  -0.34138
 Alpha virt. eigenvalues --    0.01976   0.04313   0.05798   0.07824   0.09667
 Alpha virt. eigenvalues --    0.10101   0.10930   0.11597   0.11706   0.12930
 Alpha virt. eigenvalues --    0.13211   0.13688   0.14841   0.14965   0.15669

 Mulliken charges:
               1
     1  C    4.605368
     2  C    5.710825
     3  H    0.589831
     4  H    0.614317
     5  H    1.540762
     6  N   -3.061557
     7  N   -1.911246
     8  N   -0.527960
     9  N    0.093727
    10  N   -1.707065
    11  O   -2.964317
    12  O   -2.982685
 Sum of Mulliken charges =  -0.00000

 Dipole moment (field-independent basis, Debye):
    X=             -0.2149    Y=              4.8544    Z=              0.0468  Tot=              4.8594

 Test job not archived.
 1\1\GINC-SE159\SP\RHF\Aug-CC-pVDZ\C2H3N5O2\OHZDE\08-Apr-2025\0\\#t hf
 aug-cc-pvdz iop(5/13=1,5/36=2,99/5=2) pseudo=read geom=check guess=(re
 ad,tcheck) scf=(maxcycle=1)\\title\\0,1\C,0,0.926881,0.632628,-0.02440
 28\C,0,-1.49979,-0.244966,0.0114733\H,0,0.999428,2.41438,0.866876\H,0,
 1.02362,2.45532,-0.818523\H,0,-1.11802,1.64195,0.0227887\N,0,0.634951,
 2.01665,0.00481904\N,0,2.08498,0.048532,0.0010253\N,0,1.83154,-1.30868
 ,-0.0139508\N,0,0.589984,-1.54102,0.0152774\N,0,-0.0580316,-0.340599,0
 .016122\O,0,-1.92515,1.06582,-0.0105384\O,0,-2.2063,-1.18605,-0.009038

 Normal termination of Gaussian 16 at Tue Apr  8 21:46:16 2025.
