 Gaussian 16, Revision C.01,

 ----------------------------------------------------------------------
 #t hf aug-cc-pvdz symm=none int=(grid=ultrafine) guess=(read,tcheck) s
 table=(opt,rrhf)
 ----------------------------------------------------------------------
 -----
 title
 -----
 Symbolic Z-matrix:
 Charge =  0 Multiplicity = 1

 SCF Done:  E(RHF) =  -585.408605483     A.U. after   15 cycles
 Normal termination of Gaussian 16 at Tue Apr  8 22:17:37 2025.
 Gaussian 16:  ES64L-G16RevC.01  3-Jul-2019

 ----------------------------------------------------------------------
 #t hf aug-cc-pvdz iop(5/13=1,5/36=2,99/5=2) pseudo=read geom=check gue
 ss=(read,tcheck) scf=(maxcycle=1)
 ----------------------------------------------------------------------
 -----
 title
 -----
 Structure from the checkpoint file:  "ANI1ccx_978_conf10_mol2.chk"
 Charge =  0 Multiplicity = 1

                         Standard orientation:
 ---------------------------------------------------------------------
 Center     Atomic      Atomic             Coordinates (Angstroms)
 Number     Number       Type             X           Y           Z
 ---------------------------------------------------------------------
      1          6           0        0.263573   -1.441821   -0.250084
      2          6           0       -0.137367   -0.132830    0.446236
      3          6           0       -1.568790   -0.269511    1.006380
      4          6           0        0.935206    0.260019    1.475240
      5          1           0        2.551240   -0.027577    0.475718
      6          1           0        1.097690   -0.587672    2.129160
      7          1           0        0.574303    1.115549    2.101420
      8          1           0       -1.845010    0.742288    1.290930
      9          1           0       -3.215600   -0.940665    0.261124
     10          1           0        0.313713   -2.246161    0.487943
     11          1           0       -0.487022   -1.746181   -1.004390
     12          1           0        1.437430   -0.797093   -1.529920
     13          1           0       -1.512730   -0.888777    1.928120
     14          7           0       -0.231136    0.948237   -0.652931
     15          8           0        0.212085    0.651307   -1.783070
     16          8           0        1.547450   -1.467251   -0.857245
     17          8           0       -2.317910   -0.867697   -0.042680
     18          8           0        2.091860    0.707294    0.851652
     19          8           0       -0.814956    2.006779   -0.373183
 ---------------------------------------------------------------------

 SCF Done:  E(RHF) =  -587.942877466     A.U. after    2 cycles

 The electronic state is 1-A.
 Alpha  occ. eigenvalues --  -21.10791 -21.10692 -21.09954 -21.08527 -21.07270
 Alpha  occ. eigenvalues --  -15.99055 -11.51150 -11.49058 -11.48278 -11.42070
 Alpha  occ. eigenvalues --   -1.97889  -1.76505  -1.74036  -1.72261  -1.68604
 Alpha  occ. eigenvalues --   -1.27323  -1.01532  -1.00050  -0.99313  -0.79760
 Alpha  occ. eigenvalues --   -0.74268  -0.71958  -0.67980  -0.66774  -0.63413
 Alpha  occ. eigenvalues --   -0.62351  -0.59987  -0.59090  -0.55086  -0.54005
 Alpha  occ. eigenvalues --   -0.51849  -0.46687  -0.44708  -0.41883  -0.36587
 Alpha  occ. eigenvalues --   -0.35800  -0.33961  -0.31937  -0.31330  -0.30080
 Alpha virt. eigenvalues --    0.03282   0.04153   0.04817   0.04988   0.05487
 Alpha virt. eigenvalues --    0.05961   0.07230   0.07695   0.08711   0.11216
 Alpha virt. eigenvalues --    0.11914   0.12150   0.12638   0.13874   0.14406

 Mulliken charges:
               1
     1  C    0.532922
     2  C   -0.421277
     3  C   -0.643358
     4  C    0.095907
     5  H    0.874640
     6  H    1.268678
     7  H    1.300939
     8  H    1.517094
     9  H    0.797487
    10  H    1.279948
    11  H    1.386618
    12  H    0.929047
    13  H    1.380550
    14  N    3.955379
    15  O   -2.695809
    16  O   -2.768387
    17  O   -2.820734
    18  O   -2.938736
    19  O   -3.030907
 Sum of Mulliken charges =   0.00000

 Dipole moment (field-independent basis, Debye):
    X=             -1.3499    Y=             -1.5527    Z=              1.7294  Tot=              2.6878

 Test job not archived.
 1\1\GINC-SE458\SP\RHF\Aug-CC-pVDZ\C4H9N1O5\OHZDE\08-Apr-2025\0\\#t hf
 aug-cc-pvdz iop(5/13=1,5/36=2,99/5=2) pseudo=read geom=check guess=(re
 ad,tcheck) scf=(maxcycle=1)\\title\\0,1\C,0,0.263573,-1.44182,-0.25008
 4\C,0,-0.137367,-0.132829,0.446236\C,0,-1.56879,-0.26951,1.00638\C,0,0
 .935206,0.26002,1.47524\H,0,2.55124,-0.0275762,0.475718\H,0,1.09769,-0
 .587671,2.12916\H,0,0.574303,1.11555,2.10142\H,0,-1.84501,0.742289,1.2
 9093\H,0,-3.2156,-0.940664,0.261124\H,0,0.313713,-2.24616,0.487943\H,0
 ,-0.487022,-1.74618,-1.00439\H,0,1.43743,-0.797092,-1.52992\H,0,-1.512

 Normal termination of Gaussian 16 at Tue Apr  8 22:17:47 2025.
