 Gaussian 16, Revision C.01,

 ----------------------------------------------------------------------
 #t hf aug-cc-pvdz symm=none int=(grid=ultrafine) guess=(read,tcheck) s
 table=(opt,rrhf)
 ----------------------------------------------------------------------
 -----
 title
 -----
 Symbolic Z-matrix:
 Charge =  0 Multiplicity = 1

 SCF Done:  E(RHF) =  -723.903579736     A.U. after   15 cycles
 Normal termination of Gaussian 16 at Tue Apr  8 22:14:45 2025.
 Gaussian 16:  ES64L-G16RevC.01  3-Jul-2019

 ----------------------------------------------------------------------
 #t hf aug-cc-pvdz iop(5/13=1,5/36=2,99/5=2) pseudo=read geom=check gue
 ss=(read,tcheck) scf=(maxcycle=1)
 ----------------------------------------------------------------------
 -----
 title
 -----
 Structure from the checkpoint file:  "ANI1ccx_85_conf11_mol2.chk"
 Charge =  0 Multiplicity = 1

                         Standard orientation:
 ---------------------------------------------------------------------
 Center     Atomic      Atomic             Coordinates (Angstroms)
 Number     Number       Type             X           Y           Z
 ---------------------------------------------------------------------
      1          6           0       -1.557039    0.285568   -0.339061
      2          6           0        3.636501    0.998185   -1.182790
      3          6           0        2.681351    1.032580    0.047299
      4          6           0        1.887551   -1.485360   -0.031994
      5          6           0        1.471171   -0.015156   -0.042987
      6          6           0        2.217530    2.431820    0.371109
      7          6           0       -3.883599   -0.573526    0.466753
      8          6           0       -3.034929    0.578931   -0.065122
      9          6           0       -0.772244    0.187243    1.018770
     10          6           0       -3.799209    1.096189   -1.349860
     11          1           0        0.842757    0.106259   -0.919834
     12          1           0        0.366564   -1.791630   -1.188390
     13          1           0        1.507360    2.441840    1.205350
     14          1           0        3.028710    3.134770    0.518351
     15          1           0        1.749750    2.810910   -0.571615
     16          1           0        3.033151    1.262960   -2.074170
     17          1           0        4.464650    1.675260   -1.104430
     18          1           0        4.014231   -0.022678   -1.349070
     19          1           0        3.213611    0.702237    0.985630
     20          1           0        0.971409    0.039189    1.960110
     21          1           0       -4.748790    1.582939   -1.092570
     22          1           0       -4.003139    0.228655   -1.974230
     23          1           0       -3.532929   -0.922667    1.425020
     24          1           0       -4.955889   -0.270796    0.561078
     25          1           0       -3.869969   -1.406941   -0.260533
     26          1           0       -3.174460    1.427409    0.598699
     27          1           0       -1.180769    1.022920   -1.056120
     28          1           0       -1.844069   -1.134760   -1.859370
     29          1           0       -1.551379   -1.745690   -0.380388
     30          1           0       -3.191950    1.808379   -1.890910
     31          7           0       -1.238379   -0.986924   -1.011200
     32          7           0        0.601786    0.140806    1.038610
     33          8           0        2.921941   -1.862370    0.498091
     34          8           0       -1.426509    0.087107    2.035500
     35          8           0        1.033921   -2.255310   -0.668238
 ---------------------------------------------------------------------

 SCF Done:  E(RHF) =  -727.295237954     A.U. after    2 cycles

 The electronic state is 1-A.
 Alpha  occ. eigenvalues --  -21.10581 -21.03829 -21.03823 -15.77349 -15.77336
 Alpha  occ. eigenvalues --  -11.54500 -11.53738 -11.48891 -11.47325 -11.43285
 Alpha  occ. eigenvalues --  -11.42735 -11.39899 -11.39353 -11.37381 -11.37261
 Alpha  occ. eigenvalues --   -1.82371  -1.72866  -1.64739  -1.44922  -1.38787
 Alpha  occ. eigenvalues --   -1.22040  -1.21773  -1.05749  -1.02569  -1.00591
 Alpha  occ. eigenvalues --   -1.00446  -0.87047  -0.85087  -0.80926  -0.79385
 Alpha  occ. eigenvalues --   -0.73315  -0.71460  -0.66965  -0.65407  -0.64846
 Alpha  occ. eigenvalues --   -0.62354  -0.61171  -0.59374  -0.58442  -0.56684
 Alpha  occ. eigenvalues --   -0.55504  -0.54970  -0.54015  -0.53004  -0.52113
 Alpha  occ. eigenvalues --   -0.51498  -0.50250  -0.48729  -0.47965  -0.45791
 Alpha  occ. eigenvalues --   -0.45543  -0.43821  -0.43285  -0.42195  -0.38127
 Alpha  occ. eigenvalues --   -0.34083  -0.32162  -0.29735  -0.26796
 Alpha virt. eigenvalues --    0.03322   0.03852   0.04193   0.04264   0.04920
 Alpha virt. eigenvalues --    0.05335   0.05582   0.05730   0.06211   0.06660
 Alpha virt. eigenvalues --    0.07022   0.07195   0.07598   0.08038   0.08551

 Mulliken charges:
               1
     1  C   -2.136102
     2  C   -4.821718
     3  C   -1.509540
     4  C    7.129242
     5  C   -2.717634
     6  C   -4.518544
     7  C   -4.815178
     8  C   -0.313892
     9  C    7.208378
    10  C   -4.963987
    11  H    3.010845
    12  H    1.709479
    13  H    1.372519
    14  H    1.188393
    15  H    1.378641
    16  H    1.280447
    17  H    1.272403
    18  H    1.333088
    19  H    1.600343
    20  H    0.719902
    21  H    1.099133
    22  H    1.455832
    23  H    1.324711
    24  H    1.192997
    25  H    1.365589
    26  H    1.864224
    27  H    2.155823
    28  H    0.527661
    29  H    0.541443
    30  H    1.186797
    31  N   -1.798159
    32  N   -2.658460
    33  O   -3.677132
    34  O   -4.003769
    35  O   -3.983772
 Sum of Mulliken charges =  -0.00000

 Dipole moment (field-independent basis, Debye):
    X=             -1.9827    Y=              1.6898    Z=             -1.7955  Tot=              3.1640

 Test job not archived.
 1\1\GINC-SE362\SP\RHF\Aug-CC-pVDZ\C10H20N2O3\OHZDE\08-Apr-2025\0\\#t h
 f aug-cc-pvdz iop(5/13=1,5/36=2,99/5=2) pseudo=read geom=check guess=(
 read,tcheck) scf=(maxcycle=1)\\title\\0,1\C,0,-1.55704,0.285568,-0.339
 061\C,0,3.6365,0.998185,-1.18279\C,0,2.68135,1.03258,0.047299\C,0,1.88
 755,-1.48536,-0.0319935\C,0,1.47117,-0.0151561,-0.0429866\C,0,2.21753,
 2.43182,0.371109\C,0,-3.8836,-0.573525,0.466753\C,0,-3.03493,0.578932,
 -0.0651217\C,0,-0.772245,0.187243,1.01877\C,0,-3.79921,1.09619,-1.3498
 6\H,0,0.842756,0.106259,-0.919834\H,0,0.366563,-1.79163,-1.18839\H,0,1

 Normal termination of Gaussian 16 at Tue Apr  8 22:15:25 2025.
