 Gaussian 16, Revision C.01,

 ----------------------------------------------------------------------
 #t hf aug-cc-pvdz symm=none int=(grid=ultrafine) guess=(read,tcheck) s
 table=(opt,rrhf)
 ----------------------------------------------------------------------
 -----
 title
 -----
 Symbolic Z-matrix:
 Charge =  0 Multiplicity = 1

 SCF Done:  E(RHF) =  -813.591886667     A.U. after   15 cycles
 Normal termination of Gaussian 16 at Tue Apr  8 21:17:58 2025.
 Gaussian 16:  ES64L-G16RevC.01  3-Jul-2019

 ----------------------------------------------------------------------
 #t hf aug-cc-pvdz iop(5/13=1,5/36=2,99/5=2) pseudo=read geom=check gue
 ss=(read,tcheck) scf=(maxcycle=1)
 ----------------------------------------------------------------------
 -----
 title
 -----
 Structure from the checkpoint file:  "ANI1ccx_1770_conf9_mol1.chk"
 Charge =  0 Multiplicity = 1

                         Standard orientation:
 ---------------------------------------------------------------------
 Center     Atomic      Atomic             Coordinates (Angstroms)
 Number     Number       Type             X           Y           Z
 ---------------------------------------------------------------------
      1          6           0       -1.120810   -0.903272   -0.345280
      2          6           0        1.899719    0.596872   -0.910893
      3          6           0        0.171196    2.256590   -0.032328
      4          6           0        1.161109    1.066521    0.341047
      5          6           0        2.867280   -0.588949   -0.415368
      6          6           0       -3.085070   -0.221248    1.133720
      7          6           0       -2.349201    0.010870   -0.192427
      8          6           0       -0.188934   -1.028800    0.750616
      9          6           0       -3.069730   -0.100165   -1.546260
     10          1           0        1.137380   -0.229046    1.895180
     11          1           0       -0.634505    3.980649    0.600718
     12          1           0        1.828911   -2.171149   -1.351210
     13          1           0        3.034451   -2.695898   -0.336167
     14          1           0        1.263519    0.220300   -1.629560
     15          1           0        2.541569    1.391001   -1.298910
     16          1           0        1.905408    1.593791    0.985685
     17          1           0       -2.216151    0.121543   -2.236330
     18          1           0       -3.818631    0.613417   -1.713950
     19          1           0       -4.065401    0.239374    1.232780
     20          1           0       -3.013320   -1.311002    1.365000
     21          1           0       -2.572041    0.207701    1.957510
     22          1           0       -2.028491    1.074038   -0.103664
     23          1           0       -0.538615   -0.482011   -1.171140
     24          1           0       -0.917398   -2.838751   -0.307399
     25          1           0       -2.456709   -2.495022   -0.153823
     26          1           0       -3.365230   -1.097913   -1.789230
     27          7           0       -1.649949   -2.307211   -0.687816
     28          7           0        0.550865    0.061907    1.102260
     29          7           0        2.500761   -1.916499   -0.635306
     30          8           0        3.834850   -0.291642    0.186922
     31          8           0       -0.162297   -1.994610    1.562760
     32          8           0       -0.121801    2.497620   -1.161950
     33          8           0       -0.251982    3.098770    1.025210
 ---------------------------------------------------------------------

 SCF Done:  E(RHF) =  -817.308353548     A.U. after    2 cycles

 The electronic state is 1-A.
 Alpha  occ. eigenvalues --  -21.12571 -21.08390 -21.04761 -21.03224 -15.78817
 Alpha  occ. eigenvalues --  -15.77785 -15.73360 -11.57694 -11.56114 -11.53345
 Alpha  occ. eigenvalues --  -11.50535 -11.48572 -11.43951 -11.43276 -11.39121
 Alpha  occ. eigenvalues --  -11.36945  -1.81760  -1.74071  -1.70940  -1.66442
 Alpha  occ. eigenvalues --   -1.44632  -1.36672  -1.34480  -1.20172  -1.17383
 Alpha  occ. eigenvalues --   -1.05343  -1.02772  -0.99698  -0.86168  -0.82614
 Alpha  occ. eigenvalues --   -0.81628  -0.75666  -0.73684  -0.71749  -0.70118
 Alpha  occ. eigenvalues --   -0.67983  -0.66738  -0.64449  -0.61508  -0.60508
 Alpha  occ. eigenvalues --   -0.58943  -0.58024  -0.56405  -0.56137  -0.55389
 Alpha  occ. eigenvalues --   -0.53838  -0.53366  -0.52914  -0.51053  -0.49993
 Alpha  occ. eigenvalues --   -0.46986  -0.46001  -0.45104  -0.43854  -0.42974
 Alpha  occ. eigenvalues --   -0.36631  -0.36119  -0.35028  -0.33421  -0.30938
 Alpha  occ. eigenvalues --   -0.29874  -0.29148
 Alpha virt. eigenvalues --    0.03418   0.04316   0.04683   0.04826   0.05251
 Alpha virt. eigenvalues --    0.05648   0.05883   0.06415   0.06893   0.07250
 Alpha virt. eigenvalues --    0.07374   0.07486   0.08229   0.08914   0.09494

 Mulliken charges:
               1
     1  C   -1.401054
     2  C   -4.164562
     3  C    7.035351
     4  C   -1.891442
     5  C    6.239216
     6  C   -5.283415
     7  C   -0.706958
     8  C    8.513463
     9  C   -5.103821
    10  H    0.571857
    11  H    0.709727
    12  H    0.693854
    13  H    0.801405
    14  H    2.034938
    15  H    1.185449
    16  H    2.057985
    17  H    1.128264
    18  H    1.237804
    19  H    1.276963
    20  H    1.226992
    21  H    1.255533
    22  H    2.012170
    23  H    2.447323
    24  H    0.541263
    25  H    0.671544
    26  H    1.408325
    27  N   -3.053722
    28  N   -3.650327
    29  N   -3.424734
    30  O   -3.724554
    31  O   -3.962844
    32  O   -3.407858
    33  O   -3.274137
 Sum of Mulliken charges =   0.00000

 Dipole moment (field-independent basis, Debye):
    X=             -0.5331    Y=              0.6748    Z=             -0.0956  Tot=              0.8652

 Test job not archived.
 1\1\GINC-SE110\SP\RHF\Aug-CC-pVDZ\C9H17N3O4\OHZDE\08-Apr-2025\0\\#t hf
  aug-cc-pvdz iop(5/13=1,5/36=2,99/5=2) pseudo=read geom=check guess=(r
 ead,tcheck) scf=(maxcycle=1)\\title\\0,1\C,0,-1.12081,-0.903271,-0.345
 28\C,0,1.89972,0.596871,-0.910893\C,0,0.171198,2.25659,-0.0323286\C,0,
 1.16111,1.06652,0.341047\C,0,2.86728,-0.588951,-0.415368\C,0,-3.08507,
 -0.221246,1.13372\C,0,-2.3492,0.0108718,-0.192427\C,0,-0.188934,-1.028
 8,0.750616\C,0,-3.06973,-0.100163,-1.54626\H,0,1.13738,-0.229047,1.895
 18\H,0,-0.634502,3.98065,0.600718\H,0,1.82891,-2.17115,-1.35121\H,0,3.

 Normal termination of Gaussian 16 at Tue Apr  8 21:18:46 2025.
