 Gaussian 16, Revision C.01,

 ----------------------------------------------------------------------
 #t hf aug-cc-pvdz symm=none int=(grid=ultrafine) guess=(read,tcheck) s
 table=(opt,rrhf)
 ----------------------------------------------------------------------
 -----
 title
 -----
 Symbolic Z-matrix:
 Charge =  0 Multiplicity = 1

 SCF Done:  E(RHF) =  -635.453298199     A.U. after   17 cycles

 1\1\GINC-SE143\Stability\RHF\Aug-CC-pVDZ\C8H10N6\OHZDE\08-Apr-2025\0\\
 #t hf aug-cc-pvdz symm=none int=(grid=ultrafine) guess=(read,tcheck) s
 table=(opt,rrhf)\\title\\0,1\C,0,1.3455,0.740764,0.00244797\C,0,-1.103
 59,0.66887,0.0132082\C,0,-2.33662,1.31812,-0.0487871\C,0,-3.52123,0.62
 6276,-0.0642291\C,0,-3.45709,-0.766153,0.0278107\C,0,-2.25722,-1.44264
 ,0.00396645\C,0,-1.05076,-0.706161,0.0486029\C,0,1.37283,-0.730573,-0.
 0542282\H,0,3.43533,-2.97598,-0.171828\H,0,2.21236,-2.97959,0.932224\H
 ,0,0.236566,-2.36257,-0.197641\H,0,-2.25025,-2.54162,0.0973304\H,0,-4.

 Normal termination of Gaussian 16 at Tue Apr  8 20:05:41 2025.
 Gaussian 16:  ES64L-G16RevC.01  3-Jul-2019

 ----------------------------------------------------------------------
 #t hf aug-cc-pvdz iop(5/13=1,5/36=2,99/5=2) pseudo=read geom=check gue
 ss=(read,tcheck) scf=(maxcycle=1)
 ----------------------------------------------------------------------
 -----
 title
 -----
 Structure from the checkpoint file:  "ANI1ccx_1548_conf3_mol1.chk"
 Charge =  0 Multiplicity = 1

                         Standard orientation:
 ---------------------------------------------------------------------
 Center     Atomic      Atomic             Coordinates (Angstroms)
 Number     Number       Type             X           Y           Z
 ---------------------------------------------------------------------
      1          6           0        1.345501    0.740764    0.002448
      2          6           0       -1.103589    0.668871    0.013208
      3          6           0       -2.336619    1.318122   -0.048787
      4          6           0       -3.521229    0.626279   -0.064229
      5          6           0       -3.457090   -0.766150    0.027811
      6          6           0       -2.257221   -1.442638    0.003966
      7          6           0       -1.050760   -0.706160    0.048603
      8          6           0        1.372830   -0.730573   -0.054228
      9          1           0        3.435328   -2.975982   -0.171828
     10          1           0        2.212358   -2.979591    0.932224
     11          1           0        0.236565   -2.362570   -0.197641
     12          1           0       -2.250252   -2.541618    0.097330
     13          1           0       -4.368671   -1.374336    0.077305
     14          1           0       -2.299318    2.422532   -0.116227
     15          1           0        0.198326    2.343020    0.118971
     16          1           0        2.941413    3.313548    0.385344
     17          1           0        2.005323    3.138889   -0.926568
     18          1           0       -4.524849    1.076074    0.001630
     19          7           0        2.505699   -1.317211   -0.172050
     20          7           0        2.081963    2.867879    0.085171
     21          7           0        2.439341    1.442769    0.102622
     22          7           0        0.119309    1.335421   -0.015116
     23          7           0        0.162684   -1.370690    0.094656
     24          7           0        2.471408   -2.716891   -0.062895
 ---------------------------------------------------------------------

 SCF Done:  E(RHF) =  -638.395251294     A.U. after    2 cycles

 The electronic state is 1-A.
 Alpha  occ. eigenvalues --  -15.78108 -15.77201 -15.76275 -15.75417 -15.73435
 Alpha  occ. eigenvalues --  -15.72525 -11.54742 -11.53030 -11.47862 -11.46184
 Alpha  occ. eigenvalues --  -11.43618 -11.42654 -11.41990 -11.37584  -1.58530
 Alpha  occ. eigenvalues --   -1.48122  -1.43883  -1.35592  -1.29715  -1.19068
 Alpha  occ. eigenvalues --   -1.12594  -1.06727  -1.06607  -0.93363  -0.88328
 Alpha  occ. eigenvalues --   -0.87656  -0.74924  -0.72528  -0.71135  -0.69198
 Alpha  occ. eigenvalues --   -0.66988  -0.65962  -0.62636  -0.61743  -0.59010
 Alpha  occ. eigenvalues --   -0.58381  -0.56629  -0.54162  -0.52922  -0.50688
 Alpha  occ. eigenvalues --   -0.49554  -0.47471  -0.46150  -0.45612  -0.40247
 Alpha  occ. eigenvalues --   -0.37809  -0.33501  -0.33186  -0.27333  -0.24576
 Alpha virt. eigenvalues --    0.03269   0.04670   0.04971   0.05636   0.05781
 Alpha virt. eigenvalues --    0.06312   0.06560   0.07098   0.08290   0.09389
 Alpha virt. eigenvalues --    0.09686   0.11007   0.11471   0.11544   0.12038

 Mulliken charges:
               1
     1  C    3.616027
     2  C    3.662901
     3  C    0.912929
     4  C   -2.009837
     5  C   -1.734393
     6  C   -3.518646
     7  C    3.155817
     8  C    4.531655
     9  H    0.792519
    10  H    0.530577
    11  H    0.630598
    12  H    1.764585
    13  H    1.471429
    14  H    1.751671
    15  H    0.657532
    16  H    0.811826
    17  H    0.585798
    18  H    1.511740
    19  N   -2.658353
    20  N   -2.054639
    21  N   -2.519845
    22  N   -5.044542
    23  N   -4.953873
    24  N   -1.893478
 Sum of Mulliken charges =  -0.00000

 Dipole moment (field-independent basis, Debye):
    X=             -1.8483    Y=             -0.2714    Z=              0.2452  Tot=              1.8842

 Test job not archived.
 1\1\GINC-SE143\SP\RHF\Aug-CC-pVDZ\C8H10N6\OHZDE\08-Apr-2025\0\\#t hf a
 ug-cc-pvdz iop(5/13=1,5/36=2,99/5=2) pseudo=read geom=check guess=(rea
 d,tcheck) scf=(maxcycle=1)\\title\\0,1\C,0,1.3455,0.740764,0.00244797\
 C,0,-1.10359,0.66887,0.0132082\C,0,-2.33662,1.31812,-0.0487871\C,0,-3.
 52123,0.626276,-0.0642291\C,0,-3.45709,-0.766153,0.0278107\C,0,-2.2572
 2,-1.44264,0.00396645\C,0,-1.05076,-0.706161,0.0486029\C,0,1.37283,-0.
 730573,-0.0542282\H,0,3.43533,-2.97598,-0.171828\H,0,2.21236,-2.97959,
 0.932224\H,0,0.236566,-2.36257,-0.197641\H,0,-2.25025,-2.54162,0.09733

 Normal termination of Gaussian 16 at Tue Apr  8 20:06:04 2025.
