 Gaussian 16, Revision C.01,

 ----------------------------------------------------------------------
 #t hf aug-cc-pvdz symm=none int=(grid=ultrafine) guess=(read,tcheck) s
 table=(opt,rrhf)
 ----------------------------------------------------------------------
 -----
 title
 -----
 Symbolic Z-matrix:
 Charge =  0 Multiplicity = 1

 SCF Done:  E(RHF) =  -1021.09948212     A.U. after   14 cycles
 Normal termination of Gaussian 16 at Tue Apr  8 22:10:17 2025.
 Gaussian 16:  ES64L-G16RevC.01  3-Jul-2019

 ----------------------------------------------------------------------
 #t hf aug-cc-pvdz iop(5/13=1,5/36=2,99/5=2) pseudo=read geom=check gue
 ss=(read,tcheck) scf=(maxcycle=1)
 ----------------------------------------------------------------------
 -----
 title
 -----
 Structure from the checkpoint file:  "ANI1ccx_54_conf9_mol1.chk"
 Charge =  0 Multiplicity = 1

                         Standard orientation:
 ---------------------------------------------------------------------
 Center     Atomic      Atomic             Coordinates (Angstroms)
 Number     Number       Type             X           Y           Z
 ---------------------------------------------------------------------
      1          6           0        1.424140   -0.650192    1.240510
      2          6           0       -4.316670   -0.445380   -0.530929
      3          6           0       -2.076630   -0.640759    0.765885
      4          6           0       -1.203570    1.772290    0.472739
      5          6           0       -1.265780    0.309338   -0.203023
      6          6           0       -3.180420   -1.331130   -0.031549
      7          6           0        3.806040   -0.102257    0.563551
      8          6           0        2.497060    0.475852    1.200800
      9          6           0        0.995406   -1.026440   -0.199018
     10          6           0        4.035410    0.538795   -0.785745
     11          1           0       -1.922070    0.524528   -1.033360
     12          1           0       -3.100400    1.906950    0.164452
     13          1           0       -5.971850   -0.310370   -1.195650
     14          1           0       -2.836270   -1.901350   -0.926021
     15          1           0       -3.698190   -2.113270    0.543956
     16          1           0       -2.561240   -0.136816    1.615180
     17          1           0       -1.405230   -1.364010    1.224900
     18          1           0       -0.216965   -0.698483   -1.647550
     19          1           0        4.967740    0.371995   -2.394840
     20          1           0        4.695060   -0.094080    1.147830
     21          1           0        3.680730   -1.163731    0.304976
     22          1           0        2.541200    0.915007    2.209270
     23          1           0        2.040570    1.279310    0.652350
     24          1           0        0.603142   -0.194061    1.884040
     25          1           0        1.230110   -2.338020    2.413080
     26          1           0        1.988990   -2.631130    1.080740
     27          7           0        1.910220   -1.936050    1.847460
     28          7           0       -0.052048   -0.305348   -0.730716
     29          8           0        1.558880   -1.904460   -0.826005
     30          8           0        3.431870    1.510349   -1.192150
     31          8           0        4.914930   -0.152804   -1.558940
     32          8           0       -0.078887    2.260080    0.713707
     33          8           0       -4.215310    0.796764   -0.493974
     34          8           0       -5.420690   -1.060520   -0.930268
     35          8           0       -2.357350    2.330170    0.685137
 ---------------------------------------------------------------------

 SCF Done:  E(RHF) =  -1025.57943602     A.U. after    2 cycles

 The electronic state is 1-A.
 Alpha  occ. eigenvalues --  -21.18794 -21.12309 -21.10398 -21.10078 -21.04179
 Alpha  occ. eigenvalues --  -21.04028 -21.03171 -15.77426 -15.72590 -11.59558
 Alpha  occ. eigenvalues --  -11.54949 -11.54034 -11.51532 -11.51347 -11.47541
 Alpha  occ. eigenvalues --  -11.46506 -11.43438 -11.41390 -11.37915  -1.89241
 Alpha  occ. eigenvalues --   -1.82542  -1.80359  -1.72807  -1.70716  -1.64040
 Alpha  occ. eigenvalues --   -1.63034  -1.41702  -1.33338  -1.24185  -1.16722
 Alpha  occ. eigenvalues --   -1.09176  -1.02860  -0.96812  -0.90534  -0.83657
 Alpha  occ. eigenvalues --   -0.81014  -0.77173  -0.76034  -0.72857  -0.72711
 Alpha  occ. eigenvalues --   -0.69994  -0.68074  -0.66132  -0.64981  -0.63472
 Alpha  occ. eigenvalues --   -0.61861  -0.60655  -0.59984  -0.58486  -0.56886
 Alpha  occ. eigenvalues --   -0.56823  -0.56141  -0.54469  -0.52369  -0.52109
 Alpha  occ. eigenvalues --   -0.51194  -0.49913  -0.49231  -0.47858  -0.47340
 Alpha  occ. eigenvalues --   -0.45878  -0.44776  -0.43532  -0.41411  -0.39305
 Alpha  occ. eigenvalues --   -0.35711  -0.34989  -0.33328  -0.32670  -0.32130
 Alpha  occ. eigenvalues --   -0.29605  -0.27899  -0.27779
 Alpha virt. eigenvalues --    0.02388   0.03560   0.03860   0.04177   0.05173
 Alpha virt. eigenvalues --    0.05593   0.05938   0.06401   0.07001   0.07083
 Alpha virt. eigenvalues --    0.07466   0.07693   0.08169   0.08721   0.09908

 Mulliken charges:
               1
     1  C    1.439201
     2  C    6.120653
     3  C   -3.945452
     4  C    6.192327
     5  C   -0.303075
     6  C   -3.879268
     7  C   -4.693691
     8  C   -3.475085
     9  C    5.791606
    10  C    6.256537
    11  H    2.537400
    12  H    1.634172
    13  H    0.860818
    14  H    1.542093
    15  H    1.441867
    16  H    1.509894
    17  H    1.895311
    18  H    0.447028
    19  H    0.788510
    20  H    1.450084
    21  H    1.667511
    22  H    1.140076
    23  H    2.023648
    24  H    2.002359
    25  H    0.661925
    26  H    0.483983
    27  N   -3.602511
    28  N   -4.313901
    29  O   -3.936441
    30  O   -3.014805
    31  O   -3.127772
    32  O   -3.432930
    33  O   -3.200470
    34  O   -3.399212
    35  O   -3.562391
 Sum of Mulliken charges =   0.00000

 Dipole moment (field-independent basis, Debye):
    X=             -5.9627    Y=             -2.6582    Z=             -0.7787  Tot=              6.5747

 Test job not archived.
 1\1\GINC-SE195\SP\RHF\Aug-CC-pVDZ\C10H16N2O7\OHZDE\08-Apr-2025\0\\#t h
 f aug-cc-pvdz iop(5/13=1,5/36=2,99/5=2) pseudo=read geom=check guess=(
 read,tcheck) scf=(maxcycle=1)\\title\\0,1\C,0,1.42414,-0.650192,1.2405
 1\C,0,-4.31667,-0.44538,-0.530929\C,0,-2.07663,-0.640759,0.765885\C,0,
 -1.20357,1.77229,0.472739\C,0,-1.26578,0.309338,-0.203023\C,0,-3.18042
 ,-1.33113,-0.0315497\C,0,3.80604,-0.102256,0.563551\C,0,2.49706,0.4758
 53,1.2008\C,0,0.995406,-1.02644,-0.199018\C,0,4.03541,0.538796,-0.7857
 45\H,0,-1.92207,0.524528,-1.03336\H,0,-3.1004,1.90695,0.164452\H,0,-5.

 Normal termination of Gaussian 16 at Tue Apr  8 22:11:18 2025.
