 Gaussian 16, Revision C.01,

 ----------------------------------------------------------------------
 #t hf aug-cc-pvdz symm=none int=(grid=ultrafine) guess=(read,tcheck) s
 table=(opt,rrhf)
 ----------------------------------------------------------------------
 -----
 title
 -----
 Symbolic Z-matrix:
 Charge =  0 Multiplicity = 1

 SCF Done:  E(RHF) =  -380.198999832     A.U. after   11 cycles
 Normal termination of Gaussian 16 at Tue Apr  8 21:05:27 2025.
 Gaussian 16:  ES64L-G16RevC.01  3-Jul-2019

 ----------------------------------------------------------------------
 #t hf aug-cc-pvdz iop(5/13=1,5/36=2,99/5=2) pseudo=read geom=check gue
 ss=(read,tcheck) scf=(maxcycle=1)
 ----------------------------------------------------------------------
 -----
 title
 -----
 Structure from the checkpoint file:  "ANI1ccx_1843_conf203_mol1.chk"
 Charge =  0 Multiplicity = 1

                         Standard orientation:
 ---------------------------------------------------------------------
 Center     Atomic      Atomic             Coordinates (Angstroms)
 Number     Number       Type             X           Y           Z
 ---------------------------------------------------------------------
      1          1           0       -1.889990   -1.381722    0.219019
      2          1           0       -2.542891   -0.388155    1.232170
      3          1           0        0.944537   -1.541831   -0.067444
      4          1           0       -0.125996   -0.650067   -0.662998
      5          1           0        2.922960   -0.996315    0.809462
      6          1           0        2.316519    0.101660   -0.170652
      7          1           0        0.404609    1.395969   -0.145403
      8          1           0        1.377928    2.438159    0.562970
      9          1           0       -1.850171    0.621057   -0.001799
     10          1           0       -1.466102    1.593888   -1.212220
     11          8           0       -2.627681   -0.674740    0.246220
     12          8           0       -0.030871   -1.495702   -0.222857
     13          8           0        2.534040   -0.864976   -0.066486
     14          8           0        1.348648    1.524919    0.254354
     15          8           0       -1.235561    1.361418   -0.281619
 ---------------------------------------------------------------------

 SCF Done:  E(RHF) =  -381.853562213     A.U. after    2 cycles

 The electronic state is 1-A.
 Alpha  occ. eigenvalues --  -21.10443 -21.08564 -21.07602 -21.07192 -21.06605
 Alpha  occ. eigenvalues --   -1.70486  -1.66828  -1.66036  -1.63368  -1.62539
 Alpha  occ. eigenvalues --   -0.67800  -0.65023  -0.64617  -0.63491  -0.59940
 Alpha  occ. eigenvalues --   -0.53141  -0.52016  -0.47053  -0.45861  -0.40682
 Alpha  occ. eigenvalues --   -0.36016  -0.35549  -0.34108  -0.33300  -0.32396
 Alpha virt. eigenvalues --    0.03712   0.04961   0.05495   0.05708   0.07621
 Alpha virt. eigenvalues --    0.08019   0.08436   0.09289   0.09812   0.11252
 Alpha virt. eigenvalues --    0.18469   0.18940   0.19941   0.21190   0.21443

 Mulliken charges:
               1
     1  H    1.121017
     2  H    0.652831
     3  H    1.482609
     4  H    1.038204
     5  H    0.854000
     6  H    1.349963
     7  H    1.672987
     8  H    0.928670
     9  H    1.862781
    10  H    0.655343
    11  O   -2.195595
    12  O   -2.413797
    13  O   -2.190416
    14  O   -2.385226
    15  O   -2.433372
 Sum of Mulliken charges =  -0.00000

 Dipole moment (field-independent basis, Debye):
    X=             -0.7136    Y=              1.0596    Z=              0.8435  Tot=              1.5308

 Test job not archived.
 1\1\GINC-SE087\SP\RHF\Aug-CC-pVDZ\H10O5\OHZDE\08-Apr-2025\0\\#t hf aug
 -cc-pvdz iop(5/13=1,5/36=2,99/5=2) pseudo=read geom=check guess=(read,
 tcheck) scf=(maxcycle=1)\\title\\0,1\H,0,-1.88999,-1.38172,0.219019\H,
 0,-2.54289,-0.388152,1.23217\H,0,0.944537,-1.54183,-0.0674441\H,0,-0.1
 25995,-0.650065,-0.662998\H,0,2.92296,-0.996315,0.809462\H,0,2.31652,0
 .101661,-0.170652\H,0,0.40461,1.39597,-0.145403\H,0,1.37793,2.43816,0.
 56297\H,0,-1.85017,0.621059,-0.00179885\H,0,-1.4661,1.59389,-1.21222\O
 ,0,-2.62768,-0.674737,0.24622\O,0,-0.0308713,-1.4957,-0.222857\O,0,2.5

 Normal termination of Gaussian 16 at Tue Apr  8 21:05:30 2025.
