 Gaussian 16, Revision C.01,

 ----------------------------------------------------------------------
 #t hf aug-cc-pvdz symm=none int=(grid=ultrafine) guess=(read,tcheck) s
 table=(opt,rrhf)
 ----------------------------------------------------------------------
 -----
 title
 -----
 Symbolic Z-matrix:
 Charge =  0 Multiplicity = 1

 SCF Done:  E(RHF) =  -486.384971339     A.U. after   14 cycles
 Normal termination of Gaussian 16 at Tue Apr  8 21:46:02 2025.
 Gaussian 16:  ES64L-G16RevC.01  3-Jul-2019

 ----------------------------------------------------------------------
 #t hf aug-cc-pvdz iop(5/13=1,5/36=2,99/5=2) pseudo=read geom=check gue
 ss=(read,tcheck) scf=(maxcycle=1)
 ----------------------------------------------------------------------
 -----
 title
 -----
 Structure from the checkpoint file:  "ANI1ccx_517_conf1_mol1.chk"
 Charge =  0 Multiplicity = 1

                         Standard orientation:
 ---------------------------------------------------------------------
 Center     Atomic      Atomic             Coordinates (Angstroms)
 Number     Number       Type             X           Y           Z
 ---------------------------------------------------------------------
      1          6           0       -0.698046    0.302485   -0.023956
      2          6           0        0.689841   -0.286541   -0.019633
      3          1           0       -2.889771    0.763029    0.098380
      4          1           0       -1.484552   -1.623600   -0.022040
      5          1           0        1.520449    1.620599    0.027390
      6          1           0        2.866348   -0.774114   -0.068015
      7          7           0       -1.646542   -0.616298   -0.001662
      8          7           0        1.667109    0.623530   -0.033301
      9          8           0       -2.961372   -0.217247    0.041766
     10          8           0       -0.927601    1.508420   -0.030690
     11          8           0        0.903403   -1.496250   -0.023068
     12          8           0        2.972168    0.188552    0.070813
 ---------------------------------------------------------------------

 SCF Done:  E(RHF) =  -488.407533960     A.U. after    2 cycles

 The electronic state is 1-A.
 Alpha  occ. eigenvalues --  -21.13559 -21.13498 -21.06822 -21.06527 -15.83814
 Alpha  occ. eigenvalues --  -15.83697 -11.56592 -11.51596  -1.87110  -1.84344
 Alpha  occ. eigenvalues --   -1.73080  -1.71508  -1.30653  -1.28698  -0.96448
 Alpha  occ. eigenvalues --   -0.85626  -0.81246  -0.66730  -0.66343  -0.64572
 Alpha  occ. eigenvalues --   -0.60043  -0.58839  -0.52795  -0.51116  -0.48135
 Alpha  occ. eigenvalues --   -0.45801  -0.41984  -0.38549  -0.31016  -0.29997
 Alpha  occ. eigenvalues --   -0.27892
 Alpha virt. eigenvalues --    0.04013   0.06013   0.06163   0.06392   0.10035
 Alpha virt. eigenvalues --    0.11223   0.11775   0.11927   0.12177   0.12359
 Alpha virt. eigenvalues --    0.14796   0.16048   0.16652   0.17165   0.17915

 Mulliken charges:
               1
     1  C    5.143631
     2  C    5.088986
     3  H    0.823005
     4  H    0.888380
     5  H    0.883237
     6  H    0.823378
     7  N   -0.685349
     8  N   -0.793255
     9  O   -2.679926
    10  O   -3.459420
    11  O   -3.446396
    12  O   -2.586271
 Sum of Mulliken charges =   0.00000

 Dipole moment (field-independent basis, Debye):
    X=              0.0040    Y=             -0.0909    Z=              0.0878  Tot=              0.1264

 Test job not archived.
 1\1\GINC-SE273\SP\RHF\Aug-CC-pVDZ\C2H4N2O4\OHZDE\08-Apr-2025\0\\#t hf
 aug-cc-pvdz iop(5/13=1,5/36=2,99/5=2) pseudo=read geom=check guess=(re
 ad,tcheck) scf=(maxcycle=1)\\title\\0,1\C,0,-0.698044,0.302485,-0.0239
 559\C,0,0.689843,-0.286541,-0.0196335\H,0,-2.88977,0.763028,0.0983799\
 H,0,-1.48455,-1.6236,-0.02204\H,0,1.52045,1.6206,0.0273902\H,0,2.86635
 ,-0.774113,-0.0680152\N,0,-1.64654,-0.616298,-0.00166234\N,0,1.66711,0
 .623531,-0.0333009\O,0,-2.96137,-0.217248,0.0417664\O,0,-0.9276,1.5084
 2,-0.0306899\O,0,0.903405,-1.49625,-0.0230685\O,0,2.97217,0.188553,0.0

 Normal termination of Gaussian 16 at Tue Apr  8 21:46:08 2025.
