 Gaussian 16, Revision C.01,

 ----------------------------------------------------------------------
 #t hf aug-cc-pvdz symm=none int=(grid=ultrafine) guess=(read,tcheck) s
 table=(opt,rrhf)
 ----------------------------------------------------------------------
 -----
 title
 -----
 Symbolic Z-matrix:
 Charge =  0 Multiplicity = 1

 SCF Done:  E(RHF) =  -489.654998070     A.U. after   14 cycles
 Normal termination of Gaussian 16 at Tue Apr  8 22:15:49 2025.
 Gaussian 16:  ES64L-G16RevC.01  3-Jul-2019

 ----------------------------------------------------------------------
 #t hf aug-cc-pvdz iop(5/13=1,5/36=2,99/5=2) pseudo=read geom=check gue
 ss=(read,tcheck) scf=(maxcycle=1)
 ----------------------------------------------------------------------
 -----
 title
 -----
 Structure from the checkpoint file:  "ANI1ccx_957_conf133_mol1.chk"
 Charge =  0 Multiplicity = 1

                         Standard orientation:
 ---------------------------------------------------------------------
 Center     Atomic      Atomic             Coordinates (Angstroms)
 Number     Number       Type             X           Y           Z
 ---------------------------------------------------------------------
      1          6           0        0.655768    0.790812    0.539480
      2          6           0        1.446360   -0.456704    0.199709
      3          6           0       -0.750556    0.348196    1.114780
      4          6           0       -1.736630   -0.128829   -0.067315
      5          1           0        2.227860    0.838718   -0.628837
      6          1           0       -0.251729   -1.443771   -0.593354
      7          1           0       -1.709819   -1.775221   -1.406210
      8          1           0       -0.603827   -0.497184    1.704200
      9          1           0        1.055940    1.186050    1.448400
     10          1           0        0.118976    2.612470   -0.332226
     11          1           0        0.708425    1.540780   -1.516470
     12          1           0       -1.270061    1.281829    1.453210
     13          7           0        0.720443    1.766360   -0.414834
     14          7           0       -1.255299   -1.259021   -0.729393
     15          8           0       -2.840960    0.356290   -0.236237
     16          8           0        1.220991   -1.577590    0.634721
     17          8           0        2.342290   -0.105687   -0.753363
 ---------------------------------------------------------------------

 SCF Done:  E(RHF) =  -491.810449653     A.U. after    2 cycles

 The electronic state is 1-A.
 Alpha  occ. eigenvalues --  -21.14224 -21.07891 -21.03161 -15.78165 -15.76696
 Alpha  occ. eigenvalues --  -11.56748 -11.50356 -11.48012 -11.41970  -1.85426
 Alpha  occ. eigenvalues --   -1.70102  -1.69151  -1.41203  -1.33271  -1.13732
 Alpha  occ. eigenvalues --   -0.99848  -0.82949  -0.78538  -0.76746  -0.71669
 Alpha  occ. eigenvalues --   -0.69247  -0.65231  -0.62270  -0.59846  -0.55231
 Alpha  occ. eigenvalues --   -0.54325  -0.53871  -0.50404  -0.47390  -0.45867
 Alpha  occ. eigenvalues --   -0.38203  -0.35442  -0.33383  -0.31397  -0.27905
 Alpha virt. eigenvalues --    0.03193   0.03855   0.05045   0.05677   0.06263
 Alpha virt. eigenvalues --    0.06670   0.07335   0.08559   0.09642   0.11045
 Alpha virt. eigenvalues --    0.11889   0.12611   0.12671   0.13695   0.14001

 Mulliken charges:
               1
     1  C   -0.750379
     2  C    6.351118
     3  C   -3.386000
     4  C    5.380077
     5  H    1.335496
     6  H    0.823579
     7  H    0.842496
     8  H    1.457553
     9  H    1.470723
    10  H    0.719388
    11  H    0.427138
    12  H    1.136988
    13  N   -3.134223
    14  N   -3.043049
    15  O   -3.221122
    16  O   -3.164290
    17  O   -3.245495
 Sum of Mulliken charges =  -0.00000

 Dipole moment (field-independent basis, Debye):
    X=              1.6491    Y=              1.4587    Z=             -0.8114  Tot=              2.3465

 Test job not archived.
 1\1\GINC-SE177\SP\RHF\Aug-CC-pVDZ\C4H8N2O3\OHZDE\08-Apr-2025\0\\#t hf
 aug-cc-pvdz iop(5/13=1,5/36=2,99/5=2) pseudo=read geom=check guess=(re
 ad,tcheck) scf=(maxcycle=1)\\title\\0,1\C,0,0.655768,0.790812,0.53948\
 C,0,1.44636,-0.456704,0.199709\C,0,-0.750556,0.348197,1.11478\C,0,-1.7
 3663,-0.128827,-0.0673152\H,0,2.22786,0.838717,-0.628837\H,0,-0.25173,
 -1.44377,-0.593354\H,0,-1.70982,-1.77522,-1.40621\H,0,-0.603828,-0.497
 183,1.7042\H,0,1.05594,1.18605,1.4484\H,0,0.118977,2.61247,-0.332226\H
 ,0,0.708426,1.54078,-1.51647\H,0,-1.27006,1.28183,1.45321\N,0,0.720444

 Normal termination of Gaussian 16 at Tue Apr  8 22:15:57 2025.
