 Gaussian 16, Revision C.01,

 ----------------------------------------------------------------------
 #t hf aug-cc-pvdz symm=none int=(grid=ultrafine) guess=(read,tcheck) s
 table=(opt,rrhf)
 ----------------------------------------------------------------------
 -----
 title
 -----
 Symbolic Z-matrix:
 Charge =  0 Multiplicity = 1

 SCF Done:  E(RHF) =  -239.974383502     A.U. after   12 cycles
 Normal termination of Gaussian 16 at Tue Apr  8 21:13:20 2025.
 Gaussian 16:  ES64L-G16RevC.01  3-Jul-2019

 ----------------------------------------------------------------------
 #t hf aug-cc-pvdz iop(5/13=1,5/36=2,99/5=2) pseudo=read geom=check gue
 ss=(read,tcheck) scf=(maxcycle=1)
 ----------------------------------------------------------------------
 -----
 title
 -----
 Structure from the checkpoint file:  "ANI1ccx_1874_conf11_mol2.chk"
 Charge =  0 Multiplicity = 1

                         Standard orientation:
 ---------------------------------------------------------------------
 Center     Atomic      Atomic             Coordinates (Angstroms)
 Number     Number       Type             X           Y           Z
 ---------------------------------------------------------------------
      1          1           0        1.119302    0.898298    0.169761
      2          1           0        2.772612   -0.816002   -0.802224
      3          1           0        2.704972   -0.854049    0.806940
      4          7           0       -2.167068   -0.056777    0.008452
      5          7           0       -3.250698   -0.022889   -0.012301
      6          7           0        2.147122   -0.679976    0.000423
      7          8           0        2.037202    0.761156   -0.018811
 ---------------------------------------------------------------------

 SCF Done:  E(RHF) =  -240.987368446     A.U. after    2 cycles

 The electronic state is 1-A.
 Alpha  occ. eigenvalues --  -21.08561 -15.87373 -15.87263 -15.78101  -1.74966
 Alpha  occ. eigenvalues --   -1.57449  -1.16460  -0.78665  -0.67188  -0.59047
 Alpha  occ. eigenvalues --   -0.58654  -0.58466  -0.58465  -0.54199  -0.36425
 Alpha  occ. eigenvalues --   -0.32379
 Alpha virt. eigenvalues --    0.04632   0.06278   0.06547   0.11414   0.13272
 Alpha virt. eigenvalues --    0.13715   0.14432   0.15220   0.15234   0.18233
 Alpha virt. eigenvalues --    0.19049   0.19670   0.21230   0.22292   0.23081

 Mulliken charges:
               1
     1  H    0.930596
     2  H    0.761497
     3  H    0.763141
     4  N   -0.469786
     5  N    0.500899
     6  N   -0.370763
     7  O   -2.115584
 Sum of Mulliken charges =  -0.00000

 Dipole moment (field-independent basis, Debye):
    X=              0.4918    Y=             -0.1617    Z=              0.1984  Tot=              0.5544

 Test job not archived.
 1\1\GINC-SE036\SP\RHF\Aug-CC-pVDZ\H3N3O1\OHZDE\08-Apr-2025\0\\#t hf au
 g-cc-pvdz iop(5/13=1,5/36=2,99/5=2) pseudo=read geom=check guess=(read
 ,tcheck) scf=(maxcycle=1)\\title\\0,1\H,0,1.1193,0.898298,0.169761\H,0
 ,2.77261,-0.816003,-0.802224\H,0,2.70497,-0.85405,0.80694\N,0,-2.16707
 ,-0.0567765,0.00845152\N,0,-3.2507,-0.0228882,-0.0123014\N,0,2.14712,-
 0.679977,0.00042293\O,0,2.0372,0.761155,-0.0188111\\Version=ES64L-G16R
 evC.01\State=1-A\HF=-240.9873684\RMSD=1.058e-01\Dipole=0.1934894,-0.06
 36315,0.0780529\Quadrupole=1.5065956,-1.373633,-0.1329626,-2.3218782,-

 Normal termination of Gaussian 16 at Tue Apr  8 21:13:22 2025.
