 Gaussian 16, Revision C.01,

 ----------------------------------------------------------------------
 #t hf aug-cc-pvdz symm=none int=(grid=ultrafine) guess=(read,tcheck) s
 table=(opt,rrhf)
 ----------------------------------------------------------------------
 -----
 title
 -----
 Symbolic Z-matrix:
 Charge =  0 Multiplicity = 1

 SCF Done:  E(RHF) =  -336.777071676     A.U. after   14 cycles
 Normal termination of Gaussian 16 at Tue Apr  8 21:45:50 2025.
 Gaussian 16:  ES64L-G16RevC.01  3-Jul-2019

 ----------------------------------------------------------------------
 #t hf aug-cc-pvdz iop(5/13=1,5/36=2,99/5=2) pseudo=read geom=check gue
 ss=(read,tcheck) scf=(maxcycle=1)
 ----------------------------------------------------------------------
 -----
 title
 -----
 Structure from the checkpoint file:  "ANI1ccx_515_conf6_mol1.chk"
 Charge =  0 Multiplicity = 1

                         Standard orientation:
 ---------------------------------------------------------------------
 Center     Atomic      Atomic             Coordinates (Angstroms)
 Number     Number       Type             X           Y           Z
 ---------------------------------------------------------------------
      1          6           0        0.735001   -0.206405   -0.004099
      2          6           0       -0.773399    0.254487   -0.047074
      3          1           0        2.626189    0.527831    0.094162
      4          1           0        1.301865    1.714393    0.246821
      5          1           0       -2.628067   -0.677154    0.018075
      6          1           0       -1.160414   -1.732264   -0.087281
      7          7           0        1.660488    0.780636   -0.006841
      8          7           0       -1.603917   -0.829059    0.072324
      9          8           0        1.027015   -1.402047   -0.022818
     10          8           0       -1.065164    1.429256   -0.030071
 ---------------------------------------------------------------------

 SCF Done:  E(RHF) =  -338.221475768     A.U. after    2 cycles

 The electronic state is 1-A.
 Alpha  occ. eigenvalues --  -21.05933 -21.04895 -15.79480 -15.79092 -11.53826
 Alpha  occ. eigenvalues --  -11.49269  -1.74629  -1.70459  -1.35664  -1.35088
 Alpha  occ. eigenvalues --   -0.95787  -0.78734  -0.75094  -0.70528  -0.61399
 Alpha  occ. eigenvalues --   -0.59447  -0.56039  -0.51216  -0.48698  -0.37563
 Alpha  occ. eigenvalues --   -0.35468  -0.33488  -0.27330
 Alpha virt. eigenvalues --    0.03434   0.05149   0.06546   0.07036   0.10341
 Alpha virt. eigenvalues --    0.11396   0.12064   0.12273   0.12513   0.13389
 Alpha virt. eigenvalues --    0.15100   0.16138   0.16904   0.17331   0.19003

 Mulliken charges:
               1
     1  C    4.421777
     2  C    4.275256
     3  H    0.767265
     4  H    0.721438
     5  H    0.721988
     6  H    0.772073
     7  N   -2.824851
     8  N   -2.694641
     9  O   -3.109661
    10  O   -3.050644
 Sum of Mulliken charges =   0.00000

 Dipole moment (field-independent basis, Debye):
    X=              0.0736    Y=             -0.0054    Z=              0.2352  Tot=              0.2465

 Test job not archived.
 1\1\GINC-SE094\SP\RHF\Aug-CC-pVDZ\C2H4N2O2\OHZDE\08-Apr-2025\0\\#t hf
 aug-cc-pvdz iop(5/13=1,5/36=2,99/5=2) pseudo=read geom=check guess=(re
 ad,tcheck) scf=(maxcycle=1)\\title\\0,1\C,0,0.735,-0.206407,-0.0040989
 1\C,0,-0.773399,0.25449,-0.0470742\H,0,2.62619,0.527824,0.0941624\H,0,
 1.30187,1.71439,0.246821\H,0,-2.62807,-0.677145,0.0180746\H,0,-1.16042
 ,-1.73226,-0.0872811\N,0,1.66049,0.780631,-0.00684141\N,0,-1.60392,-0.
 829054,0.0723238\O,0,1.02701,-1.40205,-0.0228184\O,0,-1.06516,1.42926,
 -0.030071\\Version=ES64L-G16RevC.01\State=1-A\HF=-338.2214758\RMSD=1.5

 Normal termination of Gaussian 16 at Tue Apr  8 21:45:53 2025.
