 Gaussian 16, Revision C.01,

 ----------------------------------------------------------------------
 #t hf aug-cc-pvdz symm=none int=(grid=ultrafine) guess=(read,tcheck) s
 table=(opt,rrhf)
 ----------------------------------------------------------------------
 -----
 title
 -----
 Symbolic Z-matrix:
 Charge =  0 Multiplicity = 1

 SCF Done:  E(RHF) =  -430.234744676     A.U. after   15 cycles
 Normal termination of Gaussian 16 at Tue Apr  8 21:42:08 2025.
 Gaussian 16:  ES64L-G16RevC.01  3-Jul-2019

 ----------------------------------------------------------------------
 #t hf aug-cc-pvdz iop(5/13=1,5/36=2,99/5=2) pseudo=read geom=check gue
 ss=(read,tcheck) scf=(maxcycle=1)
 ----------------------------------------------------------------------
 -----
 title
 -----
 Structure from the checkpoint file:  "ANI1ccx_470_conf1_mol2.chk"
 Charge =  0 Multiplicity = 1

                         Standard orientation:
 ---------------------------------------------------------------------
 Center     Atomic      Atomic             Coordinates (Angstroms)
 Number     Number       Type             X           Y           Z
 ---------------------------------------------------------------------
      1          6           0       -1.114640   -0.175845   -0.044108
      2          6           0        1.084100   -0.184870    0.055752
      3          1           0       -1.081690    1.916231    0.404567
      4          7           0       -0.660493    1.178570   -0.121944
      5          8           0       -2.221321   -0.591958   -0.067820
      6          8           0        0.764277    1.149770    0.074199
      7          8           0        2.227729   -0.576432   -0.134335
      8          8           0       -0.034637   -0.981622    0.175353
 ---------------------------------------------------------------------

 SCF Done:  E(RHF) =  -431.961150741     A.U. after    2 cycles

 The electronic state is 1-A.
 Alpha  occ. eigenvalues --  -21.19482 -21.18700 -21.10967 -21.10258 -15.86850
 Alpha  occ. eigenvalues --  -11.61053 -11.58442  -2.02819  -1.84359  -1.75520
 Alpha  occ. eigenvalues --   -1.70684  -1.31732  -0.93013  -0.90511  -0.75824
 Alpha  occ. eigenvalues --   -0.71041  -0.65164  -0.59116  -0.56707  -0.56181
 Alpha  occ. eigenvalues --   -0.53157  -0.48597  -0.39160  -0.37528  -0.33725
 Alpha  occ. eigenvalues --   -0.33293
 Alpha virt. eigenvalues --    0.02905   0.07678   0.09166   0.09924   0.10605
 Alpha virt. eigenvalues --    0.11140   0.11439   0.11617   0.14262   0.14652
 Alpha virt. eigenvalues --    0.15687   0.16028   0.16240   0.18172   0.21481

 Mulliken charges:
               1
     1  C    5.082641
     2  C    5.669178
     3  H    0.758706
     4  N   -0.738190
     5  O   -2.804415
     6  O   -2.510014
     7  O   -2.802402
     8  O   -2.655504
 Sum of Mulliken charges =  -0.00000

 Dipole moment (field-independent basis, Debye):
    X=             -0.8186    Y=              1.7506    Z=              0.9628  Tot=              2.1591

 Test job not archived.
 1\1\GINC-SE424\SP\RHF\Aug-CC-pVDZ\C2H1N1O4\OHZDE\08-Apr-2025\0\\#t hf
 aug-cc-pvdz iop(5/13=1,5/36=2,99/5=2) pseudo=read geom=check guess=(re
 ad,tcheck) scf=(maxcycle=1)\\title\\0,1\C,0,-1.11464,-0.175846,-0.0441
 081\C,0,1.0841,-0.18487,0.0557523\H,0,-1.08169,1.91623,0.404567\N,0,-0
 .660493,1.17857,-0.121944\O,0,-2.22132,-0.591959,-0.0678197\O,0,0.7642
 77,1.14977,0.0741987\O,0,2.22773,-0.576431,-0.134335\O,0,-0.0346366,-0
 .981622,0.175353\\Version=ES64L-G16RevC.01\State=1-A\HF=-431.9611507\R
 MSD=5.637e-02\Dipole=-0.3220453,0.6887434,0.3788069\Quadrupole=-3.8052

 Normal termination of Gaussian 16 at Tue Apr  8 21:42:10 2025.
