 Gaussian 16, Revision C.01,

 ----------------------------------------------------------------------
 #t hf aug-cc-pvdz symm=none int=(grid=ultrafine) guess=(read,tcheck) s
 table=(opt,rrhf)
 ----------------------------------------------------------------------
 -----
 title
 -----
 Symbolic Z-matrix:
 Charge =  0 Multiplicity = 1

 SCF Done:  E(RHF) =  -256.793898663     A.U. after   15 cycles
 Normal termination of Gaussian 16 at Tue Apr  8 21:35:31 2025.
 Gaussian 16:  ES64L-G16RevC.01  3-Jul-2019

 ----------------------------------------------------------------------
 #t hf aug-cc-pvdz iop(5/13=1,5/36=2,99/5=2) pseudo=read geom=check gue
 ss=(read,tcheck) scf=(maxcycle=1)
 ----------------------------------------------------------------------
 -----
 title
 -----
 Structure from the checkpoint file:  "ANI1ccx_377_conf38_mol1.chk"
 Charge =  0 Multiplicity = 1

                         Standard orientation:
 ---------------------------------------------------------------------
 Center     Atomic      Atomic             Coordinates (Angstroms)
 Number     Number       Type             X           Y           Z
 ---------------------------------------------------------------------
      1          6           0       -1.047581   -0.264291   -0.026496
      2          1           0       -2.101832   -0.532347   -0.028969
      3          1           0        1.829167   -0.794344    0.057945
      4          7           0       -0.610075    0.992243    0.031230
      5          7           0        0.683296    0.915193   -0.016382
      6          7           0        0.958938   -0.333605   -0.016154
      7          7           0       -0.095281   -1.157768    0.019878
 ---------------------------------------------------------------------

 SCF Done:  E(RHF) =  -257.929440295     A.U. after    2 cycles

 The electronic state is 1-A.
 Alpha  occ. eigenvalues --  -15.87152 -15.83063 -15.79006 -15.77142 -11.43067
 Alpha  occ. eigenvalues --   -1.79288  -1.39682  -1.30419  -0.94277  -0.88111
 Alpha  occ. eigenvalues --   -0.77906  -0.70293  -0.60433  -0.53794  -0.45333
 Alpha  occ. eigenvalues --   -0.42481  -0.40945  -0.39943
 Alpha virt. eigenvalues --    0.03729   0.05001   0.10202   0.10928   0.11287
 Alpha virt. eigenvalues --    0.12631   0.14494   0.14763   0.16614   0.17322
 Alpha virt. eigenvalues --    0.17476   0.19100   0.19741   0.20445   0.20778

 Mulliken charges:
               1
     1  C    1.312561
     2  H    1.547758
     3  H    0.972930
     4  N   -1.711421
     5  N   -0.037384
     6  N   -0.295273
     7  N   -1.789171
 Sum of Mulliken charges =  -0.00000

 Dipole moment (field-independent basis, Debye):
    X=              1.2081    Y=             -1.7761    Z=              0.0341  Tot=              2.1483

 Test job not archived.
 1\1\GINC-SE048\SP\RHF\Aug-CC-pVDZ\C1H2N4\OHZDE\08-Apr-2025\0\\#t hf au
 g-cc-pvdz iop(5/13=1,5/36=2,99/5=2) pseudo=read geom=check guess=(read
 ,tcheck) scf=(maxcycle=1)\\title\\0,1\C,0,-1.04758,-0.264296,-0.026495
 6\H,0,-2.10183,-0.532356,-0.0289694\H,0,1.82917,-0.794338,0.0579447\N,
 0,-0.610079,0.992239,0.0312297\N,0,0.683292,0.915194,-0.0163821\N,0,0.
 958939,-0.333602,-0.0161541\N,0,-0.0952772,-1.15777,0.0198777\\Version
 =ES64L-G16RevC.01\State=1-A\HF=-257.9294403\RMSD=1.016e-01\Dipole=0.47
 53079,-0.6987511,0.0133973\Quadrupole=4.5941209,-4.3190783,-0.2750426,

 Normal termination of Gaussian 16 at Tue Apr  8 21:35:33 2025.
