 Gaussian 16, Revision C.01,

 ----------------------------------------------------------------------
 #t hf aug-cc-pvdz symm=none int=(grid=ultrafine) guess=(read,tcheck) s
 table=(opt,rrhf)
 ----------------------------------------------------------------------
 -----
 title
 -----
 Symbolic Z-matrix:
 Charge =  0 Multiplicity = 1

 SCF Done:  E(RHF) =  -659.115294171     A.U. after   14 cycles
 Normal termination of Gaussian 16 at Tue Apr  8 19:38:44 2025.
 Gaussian 16:  ES64L-G16RevC.01  3-Jul-2019

 ----------------------------------------------------------------------
 #t hf aug-cc-pvdz iop(5/13=1,5/36=2,99/5=2) pseudo=read geom=check gue
 ss=(read,tcheck) scf=(maxcycle=1)
 ----------------------------------------------------------------------
 -----
 title
 -----
 Structure from the checkpoint file:  "ANI1ccx_1265_conf4_mol2.chk"
 Charge =  0 Multiplicity = 1

                         Standard orientation:
 ---------------------------------------------------------------------
 Center     Atomic      Atomic             Coordinates (Angstroms)
 Number     Number       Type             X           Y           Z
 ---------------------------------------------------------------------
      1          6           0       -2.018230    0.166327   -0.604554
      2          6           0       -0.616889    2.003340    0.224924
      3          6           0        0.790435    1.807500   -0.250268
      4          6           0        1.720561    1.231359    0.839223
      5          6           0        2.533760    0.018564    0.377676
      6          6           0        1.753590   -1.229981    0.036590
      7          1           0       -0.117822   -0.426985    0.623934
      8          1           0        3.714330   -0.511331   -1.179900
      9          1           0        4.218841    0.907090   -0.470226
     10          1           0        3.039720   -0.276760    1.330980
     11          1           0        1.077971    0.946372    1.672960
     12          1           0        2.414982    1.989479    1.197750
     13          1           0        0.810093    1.149930   -1.126620
     14          1           0        1.200812    2.787749   -0.562098
     15          1           0       -0.533274    2.521930    1.207840
     16          1           0       -1.268568    2.615251   -0.411366
     17          1           0       -1.829159    0.676394    1.310920
     18          1           0       -3.843529    0.654656   -0.105844
     19          1           0       -3.543489    0.658595   -1.699600
     20          1           0       -1.393209    0.352453   -1.516110
     21          1           0       -1.419281   -1.773969   -0.465734
     22          1           0       -2.365211   -1.855099    1.502340
     23          1           0       -3.617671   -2.198698    0.619379
     24          7           0       -2.975791   -1.408928    0.792119
     25          7           0       -2.310050   -1.245549   -0.462606
     26          7           0       -3.180199    0.990977   -0.814879
     27          7           0       -1.197469    0.683774    0.528610
     28          7           0        3.413411    0.357883   -0.737846
     29          8           0        0.517365   -1.337380    0.496643
     30          8           0        2.260859   -2.143471   -0.597633
 ---------------------------------------------------------------------

 SCF Done:  E(RHF) =  -662.191879389     A.U. after    2 cycles

 The electronic state is 1-A.
 Alpha  occ. eigenvalues --  -21.05353 -21.01777 -15.76749 -15.75020 -15.74677
 Alpha  occ. eigenvalues --  -15.73977 -15.72669 -11.51280 -11.48671 -11.46276
 Alpha  occ. eigenvalues --  -11.45087 -11.41004 -11.37253  -1.78441  -1.61293
 Alpha  occ. eigenvalues --   -1.53406  -1.40939  -1.34851  -1.30245  -1.18259
 Alpha  occ. eigenvalues --   -1.12122  -1.04704  -0.94761  -0.88764  -0.84543
 Alpha  occ. eigenvalues --   -0.77530  -0.73341  -0.71549  -0.68735  -0.67585
 Alpha  occ. eigenvalues --   -0.66315  -0.64832  -0.61437  -0.61022  -0.59619
 Alpha  occ. eigenvalues --   -0.58084  -0.54484  -0.52677  -0.50830  -0.50458
 Alpha  occ. eigenvalues --   -0.49447  -0.46855  -0.45926  -0.45407  -0.43292
 Alpha  occ. eigenvalues --   -0.41697  -0.38288  -0.35565  -0.34895  -0.32254
 Alpha  occ. eigenvalues --   -0.30116  -0.27312
 Alpha virt. eigenvalues --    0.03822   0.04229   0.04465   0.04844   0.04992
 Alpha virt. eigenvalues --    0.05144   0.05711   0.06423   0.06790   0.07548
 Alpha virt. eigenvalues --    0.08115   0.08278   0.08525   0.08851   0.09697

 Mulliken charges:
               1
     1  C    1.913308
     2  C   -3.503935
     3  C   -3.331853
     4  C   -2.076460
     5  C   -1.179888
     6  C    6.510784
     7  H    1.899577
     8  H    0.617729
     9  H    0.554449
    10  H    1.568345
    11  H    1.697632
    12  H    1.189361
    13  H    2.112790
    14  H    1.293059
    15  H    1.514380
    16  H    1.331930
    17  H    0.531147
    18  H    0.581049
    19  H    0.458545
    20  H    2.080194
    21  H    0.736856
    22  H    0.660876
    23  H    0.672778
    24  N   -2.018036
    25  N   -1.632474
    26  N   -2.972351
    27  N   -1.002124
    28  N   -2.847626
    29  O   -3.982953
    30  O   -3.377089
 Sum of Mulliken charges =   0.00000

 Dipole moment (field-independent basis, Debye):
    X=             -2.0765    Y=              1.4330    Z=              1.6027  Tot=              2.9890

 Test job not archived.
 1\1\GINC-SE186\SP\RHF\Aug-CC-pVDZ\C6H17N5O2\OHZDE\08-Apr-2025\0\\#t hf
  aug-cc-pvdz iop(5/13=1,5/36=2,99/5=2) pseudo=read geom=check guess=(r
 ead,tcheck) scf=(maxcycle=1)\\title\\0,1\C,0,-2.01823,0.166326,-0.6045
 54\C,0,-0.616891,2.00334,0.224924\C,0,0.790434,1.8075,-0.250268\C,0,1.
 72056,1.23136,0.839223\C,0,2.53376,0.0185658,0.377676\C,0,1.75359,-1.2
 2998,0.0365899\H,0,-0.117822,-0.426985,0.623934\H,0,3.71433,-0.511329,
 -1.1799\H,0,4.21884,0.907093,-0.470226\H,0,3.03972,-0.276758,1.33098\H
 ,0,1.07797,0.946373,1.67296\H,0,2.41498,1.98948,1.19775\H,0,0.810092,1

 Normal termination of Gaussian 16 at Tue Apr  8 19:39:15 2025.
