 Gaussian 16, Revision C.01,

 ----------------------------------------------------------------------
 #t hf aug-cc-pvdz symm=none int=(grid=ultrafine) guess=(read,tcheck) s
 table=(opt,rrhf)
 ----------------------------------------------------------------------
 -----
 title
 -----
 Symbolic Z-matrix:
 Charge =  0 Multiplicity = 1

 SCF Done:  E(RHF) =  -556.617052371     A.U. after   16 cycles
 Normal termination of Gaussian 16 at Tue Apr  8 22:12:32 2025.
 Gaussian 16:  ES64L-G16RevC.01  3-Jul-2019

 ----------------------------------------------------------------------
 #t hf aug-cc-pvdz iop(5/13=1,5/36=2,99/5=2) pseudo=read geom=check gue
 ss=(read,tcheck) scf=(maxcycle=1)
 ----------------------------------------------------------------------
 -----
 title
 -----
 Structure from the checkpoint file:  "ANI1ccx_926_conf2_mol2.chk"
 Charge =  0 Multiplicity = 1

                         Standard orientation:
 ---------------------------------------------------------------------
 Center     Atomic      Atomic             Coordinates (Angstroms)
 Number     Number       Type             X           Y           Z
 ---------------------------------------------------------------------
      1          6           0        2.033690   -0.301699   -0.015342
      2          6           0        0.529391   -0.216496    0.031270
      3          6           0       -2.073600   -0.172024   -0.029745
      4          6           0       -0.152687    1.080179   -0.014577
      5          1           0        0.042275    3.131539    0.018180
      6          1           0       -3.881440   -1.154034    0.185372
      7          1           0        1.522438    2.219281   -0.080443
      8          1           0        3.607511   -1.480678    0.109698
      9          1           0        2.021301   -2.317389   -0.005638
     10          1           0       -4.034031    0.542489    0.073049
     11          7           0        0.541977    2.211730    0.044658
     12          7           0        2.603591   -1.504379    0.042673
     13          7           0       -0.128446   -1.334761   -0.006402
     14          7           0       -1.448349   -1.383722   -0.021659
     15          7           0       -3.422210   -0.284533   -0.043487
     16          7           0       -1.491121    1.038248    0.036725
     17          8           0        2.764139    0.690119   -0.062176
 ---------------------------------------------------------------------

 SCF Done:  E(RHF) =  -559.100915396     A.U. after    2 cycles

 The electronic state is 1-A.
 Alpha  occ. eigenvalues --  -21.02073 -15.80148 -15.79060 -15.78045 -15.77467
 Alpha  occ. eigenvalues --  -15.74288 -15.74170 -11.54416 -11.51775 -11.49420
 Alpha  occ. eigenvalues --  -11.42266  -1.71887  -1.59869  -1.43686  -1.40909
 Alpha  occ. eigenvalues --   -1.34634  -1.27907  -1.17833  -0.97105  -0.94090
 Alpha  occ. eigenvalues --   -0.83713  -0.74968  -0.74042  -0.73424  -0.67035
 Alpha  occ. eigenvalues --   -0.65065  -0.64410  -0.60775  -0.60122  -0.55593
 Alpha  occ. eigenvalues --   -0.51513  -0.50677  -0.47030  -0.46814  -0.45119
 Alpha  occ. eigenvalues --   -0.35768  -0.32958  -0.32470  -0.29983  -0.29436
 Alpha virt. eigenvalues --    0.03499   0.04561   0.05553   0.06132   0.07210
 Alpha virt. eigenvalues --    0.07582   0.09515   0.10427   0.10938   0.11540
 Alpha virt. eigenvalues --    0.12136   0.12689   0.13360   0.13563   0.14526

 Mulliken charges:
               1
     1  C    6.538433
     2  C    2.198369
     3  C    4.098358
     4  C    3.414467
     5  H    0.826552
     6  H    0.718145
     7  H    0.586971
     8  H    0.886957
     9  H    0.737837
    10  H    0.637504
    11  N   -3.293600
    12  N   -3.621256
    13  N   -1.956309
    14  N   -1.797843
    15  N   -2.992486
    16  N   -3.337683
    17  O   -3.644416
 Sum of Mulliken charges =   0.00000

 Dipole moment (field-independent basis, Debye):
    X=             -1.1944    Y=              1.4311    Z=              0.3062  Tot=              1.8890

 Test job not archived.
 1\1\GINC-SE073\SP\RHF\Aug-CC-pVDZ\C4H6N6O1\OHZDE\08-Apr-2025\0\\#t hf
 aug-cc-pvdz iop(5/13=1,5/36=2,99/5=2) pseudo=read geom=check guess=(re
 ad,tcheck) scf=(maxcycle=1)\\title\\0,1\C,0,2.03369,-0.3017,-0.0153416
 \C,0,0.529391,-0.216496,0.0312696\C,0,-2.0736,-0.172022,-0.0297449\C,0
 ,-0.152686,1.08018,-0.0145769\H,0,0.0422778,3.13154,0.0181799\H,0,-3.8
 8144,-1.15403,0.185372\H,0,1.52244,2.21928,-0.0804429\H,0,3.60751,-1.4
 8068,0.109698\H,0,2.0213,-2.31739,-0.00563786\H,0,-4.03403,0.542493,0.
 0730487\N,0,0.541979,2.21173,0.0446577\N,0,2.60359,-1.50438,0.0426729\

 Normal termination of Gaussian 16 at Tue Apr  8 22:12:41 2025.
