 Gaussian 16, Revision C.01,

 ----------------------------------------------------------------------
 #t hf aug-cc-pvdz symm=none int=(grid=ultrafine) guess=(read,tcheck) s
 table=(opt,rrhf)
 ----------------------------------------------------------------------
 -----
 title
 -----
 Symbolic Z-matrix:
 Charge =  0 Multiplicity = 1

 SCF Done:  E(RHF) =  -241.010599069     A.U. after   14 cycles
 Normal termination of Gaussian 16 at Tue Apr  8 21:14:23 2025.
 Gaussian 16:  ES64L-G16RevC.01  3-Jul-2019

 ----------------------------------------------------------------------
 #t hf aug-cc-pvdz iop(5/13=1,5/36=2,99/5=2) pseudo=read geom=check gue
 ss=(read,tcheck) scf=(maxcycle=1)
 ----------------------------------------------------------------------
 -----
 title
 -----
 Structure from the checkpoint file:  "ANI1ccx_1892_conf13_mol1.chk"
 Charge =  0 Multiplicity = 1

                         Standard orientation:
 ---------------------------------------------------------------------
 Center     Atomic      Atomic             Coordinates (Angstroms)
 Number     Number       Type             X           Y           Z
 ---------------------------------------------------------------------
      1          1           0        1.666288   -0.962948    0.831836
      2          1           0        3.083458    0.675181    0.590814
      3          1           0        3.154128   -0.361557   -0.703212
      4          1           0       -1.886812    1.291979   -0.253158
      5          1           0       -1.308512   -0.857794   -0.503872
      6          7           0        2.590308    0.344861   -0.228927
      7          7           0       -2.566992    0.580677    0.129889
      8          7           0       -2.293702   -0.577203   -0.129107
      9          8           0        1.398018   -0.277902    0.204326
 ---------------------------------------------------------------------

 SCF Done:  E(RHF) =  -242.063129720     A.U. after    2 cycles

 The electronic state is 1-A.
 Alpha  occ. eigenvalues --  -21.10632 -15.79991 -15.79300 -15.79057  -1.77814
 Alpha  occ. eigenvalues --   -1.49122  -1.16950  -0.93903  -0.70974  -0.69100
 Alpha  occ. eigenvalues --   -0.66442  -0.52053  -0.49270  -0.48721  -0.38827
 Alpha  occ. eigenvalues --   -0.35370  -0.33767
 Alpha virt. eigenvalues --    0.03108   0.05180   0.05242   0.06271   0.07215
 Alpha virt. eigenvalues --    0.12707   0.14426   0.14807   0.17157   0.17724
 Alpha virt. eigenvalues --    0.19138   0.19326   0.19881   0.20366   0.21085

 Mulliken charges:
               1
     1  H    0.701523
     2  H    0.712517
     3  H    0.712633
     4  H    0.673403
     5  H    0.691884
     6  N   -0.226818
     7  N   -0.725521
     8  N   -0.648954
     9  O   -1.890667
 Sum of Mulliken charges =  -0.00000

 Dipole moment (field-independent basis, Debye):
    X=              3.8286    Y=             -0.4225    Z=              0.0706  Tot=              3.8525

 Test job not archived.
 1\1\GINC-SE099\SP\RHF\Aug-CC-pVDZ\H5N3O1\OHZDE\08-Apr-2025\0\\#t hf au
 g-cc-pvdz iop(5/13=1,5/36=2,99/5=2) pseudo=read geom=check guess=(read
 ,tcheck) scf=(maxcycle=1)\\title\\0,1\H,0,1.66629,-0.962948,0.831836\H
 ,0,3.08346,0.67518,0.590814\H,0,3.15413,-0.361558,-0.703212\H,0,-1.886
 81,1.29198,-0.253158\H,0,-1.30851,-0.857794,-0.503872\N,0,2.59031,0.34
 4861,-0.228927\N,0,-2.56699,0.580678,0.129889\N,0,-2.2937,-0.577202,-0
 .129107\O,0,1.39802,-0.277902,0.204326\\Version=ES64L-G16RevC.01\State
 =1-A\HF=-242.0631297\RMSD=6.274e-02\Dipole=1.5062814,-0.1662268,0.0277

 Normal termination of Gaussian 16 at Tue Apr  8 21:14:25 2025.
