 Gaussian 16, Revision C.01,

 ----------------------------------------------------------------------
 #t hf aug-cc-pvdz symm=none int=(grid=ultrafine) guess=(read,tcheck) s
 table=(opt,rrhf)
 ----------------------------------------------------------------------
 -----
 title
 -----
 Symbolic Z-matrix:
 Charge =  0 Multiplicity = 1

 SCF Done:  E(RHF) =  -603.561537977     A.U. after   15 cycles
 Normal termination of Gaussian 16 at Tue Apr  8 22:21:34 2025.
 Gaussian 16:  ES64L-G16RevC.01  3-Jul-2019

 ----------------------------------------------------------------------
 #t hf aug-cc-pvdz iop(5/13=1,5/36=2,99/5=2) pseudo=read geom=check gue
 ss=(read,tcheck) scf=(maxcycle=1)
 ----------------------------------------------------------------------
 -----
 title
 -----
 Structure from the checkpoint file:  "ANI1ccx_999_conf11_mol1.chk"
 Charge =  0 Multiplicity = 1

                         Standard orientation:
 ---------------------------------------------------------------------
 Center     Atomic      Atomic             Coordinates (Angstroms)
 Number     Number       Type             X           Y           Z
 ---------------------------------------------------------------------
      1          6           0       -1.728851    0.967578    0.509541
      2          6           0       -1.840160   -0.045226   -0.570094
      3          6           0        0.807420   -0.193716   -0.964163
      4          6           0        1.488700   -0.941933    0.177384
      5          6           0        1.338929    1.246291   -0.892530
      6          1           0       -0.095123   -0.755356    1.435739
      7          1           0        2.052409    1.807052    0.911502
      8          1           0        2.408519    1.232232   -1.230661
      9          1           0        0.832475    1.887641   -1.527181
     10          1           0        1.395140   -0.589008   -1.851691
     11          1           0       -0.958714    1.742590    0.248219
     12          1           0       -2.742231    1.314159    0.518226
     13          1           0       -2.130130   -0.455491    2.050399
     14          1           0       -1.155911    0.655825    2.554169
     15          1           0       -0.774427   -1.397860   -1.665461
     16          7           0       -1.384820    0.080841    1.681069
     17          7           0       -0.661643   -0.474632   -1.227161
     18          8           0        1.323008    2.058021    0.305637
     19          8           0       -2.892200   -0.696185   -0.865513
     20          8           0        2.646010   -1.220238    0.070064
     21          8           0        0.810307   -1.251999    1.217129
 ---------------------------------------------------------------------

 SCF Done:  E(RHF) =  -606.218006499     A.U. after    2 cycles

 The electronic state is 1-A.
 Alpha  occ. eigenvalues --  -21.09139 -21.07363 -21.04372 -21.02751 -15.80183
 Alpha  occ. eigenvalues --  -15.77715 -11.54041 -11.52753 -11.49782 -11.46054
 Alpha  occ. eigenvalues --  -11.43935  -1.82272  -1.72236  -1.69629  -1.63880
 Alpha  occ. eigenvalues --   -1.40388  -1.36324  -1.13907  -1.07278  -0.94683
 Alpha  occ. eigenvalues --   -0.82029  -0.79163  -0.73232  -0.71754  -0.69085
 Alpha  occ. eigenvalues --   -0.66166  -0.64518  -0.61430  -0.60384  -0.57349
 Alpha  occ. eigenvalues --   -0.55882  -0.53227  -0.50464  -0.49399  -0.47487
 Alpha  occ. eigenvalues --   -0.46848  -0.42641  -0.36515  -0.34865  -0.33570
 Alpha  occ. eigenvalues --   -0.31600  -0.30157  -0.27180
 Alpha virt. eigenvalues --    0.02795   0.04161   0.04442   0.04880   0.05630
 Alpha virt. eigenvalues --    0.05943   0.06539   0.07534   0.08093   0.08290
 Alpha virt. eigenvalues --    0.10059   0.11210   0.11799   0.12183   0.12477

 Mulliken charges:
               1
     1  C   -3.481866
     2  C    5.241584
     3  C   -0.616236
     4  C    7.184117
     5  C   -1.276634
     6  H    1.950362
     7  H    0.685220
     8  H    1.218439
     9  H    1.357187
    10  H    1.517471
    11  H    1.797096
    12  H    1.218074
    13  H    0.745122
    14  H    0.608006
    15  H    0.555460
    16  N   -2.331913
    17  N   -3.180827
    18  O   -2.382051
    19  O   -3.261724
    20  O   -3.541412
    21  O   -4.005476
 Sum of Mulliken charges =   0.00000

 Dipole moment (field-independent basis, Debye):
    X=             -1.8379    Y=              2.4172    Z=              1.5014  Tot=              3.3875

 Test job not archived.
 1\1\GINC-SE086\SP\RHF\Aug-CC-pVDZ\C5H10N2O4\OHZDE\08-Apr-2025\0\\#t hf
  aug-cc-pvdz iop(5/13=1,5/36=2,99/5=2) pseudo=read geom=check guess=(r
 ead,tcheck) scf=(maxcycle=1)\\title\\0,1\C,0,-1.72885,0.967579,0.50954
 2\C,0,-1.84016,-0.045225,-0.570093\C,0,0.80742,-0.193717,-0.964162\C,0
 ,1.4887,-0.941934,0.177385\C,0,1.33893,1.24629,-0.892529\H,0,-0.095122
 8,-0.755356,1.43574\H,0,2.05241,1.80705,0.911503\H,0,2.40852,1.23223,-
 1.23066\H,0,0.832477,1.88764,-1.52718\H,0,1.39514,-0.589009,-1.85169\H
 ,0,-0.958713,1.74259,0.24822\H,0,-2.74223,1.31416,0.518227\H,0,-2.1301

 Normal termination of Gaussian 16 at Tue Apr  8 22:21:48 2025.
