 Gaussian 16, Revision C.01,

 ----------------------------------------------------------------------
 #t hf aug-cc-pvdz symm=none int=(grid=ultrafine) guess=(read,tcheck) s
 table=(opt,rrhf)
 ----------------------------------------------------------------------
 -----
 title
 -----
 Symbolic Z-matrix:
 Charge =  0 Multiplicity = 1

 SCF Done:  E(RHF) =  -371.956321435     A.U. after   14 cycles
 Normal termination of Gaussian 16 at Tue Apr  8 21:48:11 2025.
 Gaussian 16:  ES64L-G16RevC.01  3-Jul-2019

 ----------------------------------------------------------------------
 #t hf aug-cc-pvdz iop(5/13=1,5/36=2,99/5=2) pseudo=read geom=check gue
 ss=(read,tcheck) scf=(maxcycle=1)
 ----------------------------------------------------------------------
 -----
 title
 -----
 Structure from the checkpoint file:  "ANI1ccx_554_conf2_mol1.chk"
 Charge =  0 Multiplicity = 1

                         Standard orientation:
 ---------------------------------------------------------------------
 Center     Atomic      Atomic             Coordinates (Angstroms)
 Number     Number       Type             X           Y           Z
 ---------------------------------------------------------------------
      1          6           0       -1.252759   -0.160905    0.005559
      2          6           0        1.299331   -0.197122   -0.028157
      3          1           0       -2.269569    1.437530    0.292783
      4          1           0       -0.724667    1.603450    0.958666
      5          1           0       -3.242819   -0.362361    0.031931
      6          1           0       -0.092516   -1.771580    0.210004
      7          1           0        0.541314    1.671219   -0.550892
      8          1           0        2.276001    1.590629   -0.381373
      9          7           0       -1.268749    1.210120    0.245081
     10          7           0       -2.303009   -0.897240   -0.254322
     11          7           0        0.008527   -0.777023    0.004185
     12          7           0        1.376981    1.159279   -0.287222
     13          8           0        2.317071   -0.860835    0.202552
 ---------------------------------------------------------------------

 SCF Done:  E(RHF) =  -373.619185415     A.U. after    2 cycles

 The electronic state is 1-A.
 Alpha  occ. eigenvalues --  -21.02607 -15.79986 -15.78972 -15.78324 -15.72867
 Alpha  occ. eigenvalues --  -11.52694 -11.50508  -1.71039  -1.51188  -1.35795
 Alpha  occ. eigenvalues --   -1.31826  -1.22941  -0.90654  -0.83935  -0.76316
 Alpha  occ. eigenvalues --   -0.72496  -0.66614  -0.62051  -0.60208  -0.58737
 Alpha  occ. eigenvalues --   -0.54064  -0.49474  -0.41986  -0.39198  -0.35202
 Alpha  occ. eigenvalues --   -0.31428  -0.30437
 Alpha virt. eigenvalues --    0.02733   0.04314   0.05314   0.05856   0.07043
 Alpha virt. eigenvalues --    0.07604   0.10687   0.11375   0.12399   0.13289
 Alpha virt. eigenvalues --    0.14023   0.14381   0.15116   0.15330   0.16685

 Mulliken charges:
               1
     1  C    4.175616
     2  C    5.003105
     3  H    0.487679
     4  H    0.755791
     5  H    0.441151
     6  H    0.522646
     7  H    0.744359
     8  H    0.619025
     9  N   -2.245687
    10  N   -2.835771
    11  N   -2.156982
    12  N   -2.521553
    13  O   -2.989377
 Sum of Mulliken charges =  -0.00000

 Dipole moment (field-independent basis, Debye):
    X=             -0.8817    Y=              3.9187    Z=              1.0843  Tot=              4.1604

 Test job not archived.
 1\1\GINC-SE048\SP\RHF\Aug-CC-pVDZ\C2H6N4O1\OHZDE\08-Apr-2025\0\\#t hf
 aug-cc-pvdz iop(5/13=1,5/36=2,99/5=2) pseudo=read geom=check guess=(re
 ad,tcheck) scf=(maxcycle=1)\\title\\0,1\C,0,-1.25276,-0.160905,0.00555
 951\C,0,1.29933,-0.197121,-0.0281574\H,0,-2.26957,1.43753,0.292783\H,0
 ,-0.724668,1.60345,0.958666\H,0,-3.24282,-0.362361,0.0319313\H,0,-0.09
 25166,-1.77158,0.210004\H,0,0.541313,1.67122,-0.550892\H,0,2.276,1.590
 63,-0.381373\N,0,-1.26875,1.21012,0.245081\N,0,-2.30301,-0.89724,-0.25
 4322\N,0,0.00852645,-0.777022,0.00418494\N,0,1.37698,1.15928,-0.287222

 Normal termination of Gaussian 16 at Tue Apr  8 21:48:15 2025.
