 Gaussian 16, Revision C.01,

 ----------------------------------------------------------------------
 #t hf aug-cc-pvdz symm=none int=(grid=ultrafine) guess=(read,tcheck) s
 table=(opt,rrhf)
 ----------------------------------------------------------------------
 -----
 title
 -----
 Symbolic Z-matrix:
 Charge =  0 Multiplicity = 1

 SCF Done:  E(RHF) =  -451.830578427     A.U. after   13 cycles
 Normal termination of Gaussian 16 at Tue Apr  8 21:57:32 2025.
 Gaussian 16:  ES64L-G16RevC.01  3-Jul-2019

 ----------------------------------------------------------------------
 #t hf aug-cc-pvdz iop(5/13=1,5/36=2,99/5=2) pseudo=read geom=check gue
 ss=(read,tcheck) scf=(maxcycle=1)
 ----------------------------------------------------------------------
 -----
 title
 -----
 Structure from the checkpoint file:  "ANI1ccx_764_conf4_mol1.chk"
 Charge =  0 Multiplicity = 1

                         Standard orientation:
 ---------------------------------------------------------------------
 Center     Atomic      Atomic             Coordinates (Angstroms)
 Number     Number       Type             X           Y           Z
 ---------------------------------------------------------------------
      1          6           0        2.175300   -0.225187   -0.549212
      2          6           0       -0.055682    0.621392    0.016883
      3          6           0       -1.845050   -0.929223    0.281553
      4          1           0        1.961610   -1.517490    0.875975
      5          1           0        3.090860    0.198486   -1.008610
      6          1           0        1.806260   -1.008040   -1.265840
      7          1           0        1.553341    1.698160   -0.119837
      8          1           0       -0.231894   -1.158579   -1.003330
      9          1           0       -2.097231   -1.973759    0.049930
     10          1           0       -1.812310   -0.714534    1.356110
     11          1           0       -2.545829    0.791050   -0.126150
     12          7           0        1.196291    0.860777   -0.516043
     13          7           0       -0.519439   -0.646646   -0.182031
     14          8           0        2.463520   -0.684964    0.738106
     15          8           0       -0.690222    1.486431    0.602096
     16          8           0       -2.787070   -0.128479   -0.386087
 ---------------------------------------------------------------------

 SCF Done:  E(RHF) =  -453.806735597     A.U. after    2 cycles

 The electronic state is 1-A.
 Alpha  occ. eigenvalues --  -21.09344 -21.05758 -21.03220 -15.76539 -15.76158
 Alpha  occ. eigenvalues --  -11.51073 -11.46207 -11.43805  -1.75955  -1.73836
 Alpha  occ. eigenvalues --   -1.69977  -1.42683  -1.34048  -1.00277  -0.96074
 Alpha  occ. eigenvalues --   -0.81869  -0.76307  -0.69205  -0.67008  -0.63570
 Alpha  occ. eigenvalues --   -0.61062  -0.60224  -0.56335  -0.53218  -0.50510
 Alpha  occ. eigenvalues --   -0.45947  -0.43966  -0.37944  -0.35967  -0.32132
 Alpha  occ. eigenvalues --   -0.31013  -0.30225
 Alpha virt. eigenvalues --    0.03161   0.04509   0.04907   0.05485   0.06301
 Alpha virt. eigenvalues --    0.06721   0.07929   0.08367   0.10597   0.11628
 Alpha virt. eigenvalues --    0.12290   0.12652   0.14062   0.14990   0.15263

 Mulliken charges:
               1
     1  C   -0.524648
     2  C    5.832797
     3  C   -0.534443
     4  H    0.828147
     5  H    1.360054
     6  H    1.549176
     7  H    0.400439
     8  H    0.623449
     9  H    1.416354
    10  H    1.467840
    11  H    0.768049
    12  N   -2.536541
    13  N   -2.583200
    14  O   -2.652867
    15  O   -2.947505
    16  O   -2.467101
 Sum of Mulliken charges =  -0.00000

 Dipole moment (field-independent basis, Debye):
    X=              1.8493    Y=             -1.9488    Z=             -0.7544  Tot=              2.7905

 Test job not archived.
 1\1\GINC-SE250\SP\RHF\Aug-CC-pVDZ\C3H8N2O3\OHZDE\08-Apr-2025\0\\#t hf
 aug-cc-pvdz iop(5/13=1,5/36=2,99/5=2) pseudo=read geom=check guess=(re
 ad,tcheck) scf=(maxcycle=1)\\title\\0,1\C,0,2.1753,-0.225187,-0.549212
 \C,0,-0.055683,0.621391,0.0168825\C,0,-1.84505,-0.929224,0.281553\H,0,
 1.96161,-1.51749,0.875975\H,0,3.09086,0.198487,-1.00861\H,0,1.80626,-1
 .00804,-1.26584\H,0,1.55334,1.69816,-0.119837\H,0,-0.231894,-1.15858,-
 1.00333\H,0,-2.09723,-1.97376,0.0499301\H,0,-1.81231,-0.714535,1.35611
 \H,0,-2.54583,0.791048,-0.12615\N,0,1.19629,0.860777,-0.516043\N,0,-0.

 Normal termination of Gaussian 16 at Tue Apr  8 21:57:38 2025.
