 Gaussian 16, Revision C.01,

 ----------------------------------------------------------------------
 #t hf aug-cc-pvdz symm=none int=(grid=ultrafine) guess=(read,tcheck) s
 table=(opt,rrhf)
 ----------------------------------------------------------------------
 -----
 title
 -----
 Symbolic Z-matrix:
 Charge =  0 Multiplicity = 1

 SCF Done:  E(RHF) =  -374.212334115     A.U. after   13 cycles
 Normal termination of Gaussian 16 at Tue Apr  8 21:42:38 2025.
 Gaussian 16:  ES64L-G16RevC.01  3-Jul-2019

 ----------------------------------------------------------------------
 #t hf aug-cc-pvdz iop(5/13=1,5/36=2,99/5=2) pseudo=read geom=check gue
 ss=(read,tcheck) scf=(maxcycle=1)
 ----------------------------------------------------------------------
 -----
 title
 -----
 Structure from the checkpoint file:  "ANI1ccx_461_conf1_mol1.chk"
 Charge =  0 Multiplicity = 1

                         Standard orientation:
 ---------------------------------------------------------------------
 Center     Atomic      Atomic             Coordinates (Angstroms)
 Number     Number       Type             X           Y           Z
 ---------------------------------------------------------------------
      1          6           0        1.529730   -0.029406    0.806289
      2          6           0       -0.896440    0.144585    0.223779
      3          1           0        3.871290    0.206795   -1.632730
      4          1           0        3.784170   -0.854457   -0.549118
      5          1           0       -2.966550    0.862594   -0.851447
      6          1           0       -1.785800   -1.657991   -0.338069
      7          1           0       -3.977900   -0.141384   -0.078285
      8          1           0        0.058270   -1.399990    1.071480
      9          1           0        1.454460    0.385850    1.836680
     10          1           0        2.291140   -0.845511    0.882850
     11          1           0        1.903570    0.790970    0.181928
     12          1           0       -0.137029    1.899620    0.340972
     13          7           0       -3.173450   -0.122353   -0.698638
     14          7           0        0.271856   -0.682062    0.403705
     15          7           0       -1.003770    1.417460    0.189205
     16          7           0       -1.970420   -0.673152   -0.108710
     17          8           0        4.104390    0.060398   -0.692949
 ---------------------------------------------------------------------

 SCF Done:  E(RHF) =  -375.946213684     A.U. after    2 cycles

 The electronic state is 1-A.
 Alpha  occ. eigenvalues --  -21.10141 -15.75822 -15.75426 -15.75392 -15.70313
 Alpha  occ. eigenvalues --  -11.47325 -11.40501  -1.66207  -1.51451  -1.37673
 Alpha  occ. eigenvalues --   -1.25908  -1.13110  -0.97466  -0.81166  -0.72164
 Alpha  occ. eigenvalues --   -0.66248  -0.63918  -0.63008  -0.60589  -0.58113
 Alpha  occ. eigenvalues --   -0.54619  -0.54176  -0.50385  -0.47869  -0.41982
 Alpha  occ. eigenvalues --   -0.39020  -0.35848  -0.33757  -0.29548
 Alpha virt. eigenvalues --    0.03241   0.04799   0.05325   0.05555   0.06180
 Alpha virt. eigenvalues --    0.06918   0.07078   0.07929   0.08363   0.10024
 Alpha virt. eigenvalues --    0.11518   0.13871   0.14691   0.15386   0.15786

 Mulliken charges:
               1
     1  C   -3.451687
     2  C    4.773882
     3  H    0.804617
     4  H    1.038191
     5  H    0.630145
     6  H    0.759563
     7  H    0.682789
     8  H    0.620435
     9  H    1.215675
    10  H    1.443566
    11  H    1.518630
    12  H    0.692297
    13  N   -1.808874
    14  N   -2.496026
    15  N   -2.861540
    16  N   -1.711437
    17  O   -1.850228
 Sum of Mulliken charges =   0.00000

 Dipole moment (field-independent basis, Debye):
    X=              1.0702    Y=             -2.0865    Z=              0.7627  Tot=              2.4659

 Test job not archived.
 1\1\GINC-SE088\SP\RHF\Aug-CC-pVDZ\C2H10N4O1\OHZDE\08-Apr-2025\0\\#t hf
  aug-cc-pvdz iop(5/13=1,5/36=2,99/5=2) pseudo=read geom=check guess=(r
 ead,tcheck) scf=(maxcycle=1)\\title\\0,1\C,0,1.52973,-0.0294062,0.8062
 89\C,0,-0.89644,0.144585,0.223779\H,0,3.87129,0.206795,-1.63273\H,0,3.
 78417,-0.854457,-0.549118\H,0,-2.96655,0.862595,-0.851447\H,0,-1.7858,
 -1.65799,-0.338069\H,0,-3.9779,-0.141383,-0.0782848\H,0,0.0582699,-1.3
 9999,1.07148\H,0,1.45446,0.38585,1.83668\H,0,2.29114,-0.845511,0.88285
 \H,0,1.90357,0.79097,0.181928\H,0,-0.137029,1.89962,0.340972\N,0,-3.17

 Normal termination of Gaussian 16 at Tue Apr  8 21:42:44 2025.
