 Gaussian 16, Revision C.01,

 ----------------------------------------------------------------------
 #t hf aug-cc-pvdz symm=none int=(grid=ultrafine) guess=(read,tcheck) s
 table=(opt,rrhf)
 ----------------------------------------------------------------------
 -----
 title
 -----
 Symbolic Z-matrix:
 Charge =  0 Multiplicity = 1

 SCF Done:  E(RHF) =  -464.387025108     A.U. after   15 cycles
 Normal termination of Gaussian 16 at Tue Apr  8 21:42:52 2025.
 Gaussian 16:  ES64L-G16RevC.01  3-Jul-2019

 ----------------------------------------------------------------------
 #t hf aug-cc-pvdz iop(5/13=1,5/36=2,99/5=2) pseudo=read geom=check gue
 ss=(read,tcheck) scf=(maxcycle=1)
 ----------------------------------------------------------------------
 -----
 title
 -----
 Structure from the checkpoint file:  "ANI1ccx_474_conf11_mol2.chk"
 Charge =  0 Multiplicity = 1

                         Standard orientation:
 ---------------------------------------------------------------------
 Center     Atomic      Atomic             Coordinates (Angstroms)
 Number     Number       Type             X           Y           Z
 ---------------------------------------------------------------------
      1          6           0        1.210390   -0.508693    0.161506
      2          6           0        0.092656    1.573860   -0.010846
      3          1           0        2.588070   -0.406513   -1.135601
      4          7           0        0.967926    0.794014   -0.346398
      5          7           0       -2.081670   -0.621169   -0.397681
      6          7           0       -2.875921   -1.347497   -0.137112
      7          8           0        2.292389   -1.049582   -0.446712
      8          8           0       -0.699665    2.389181    0.212238
      9          8           0        0.597441   -1.059840    1.034469
 ---------------------------------------------------------------------

 SCF Done:  E(RHF) =  -466.282462672     A.U. after    2 cycles

 The electronic state is 1-A.
 Alpha  occ. eigenvalues --  -21.17735 -21.14842 -21.07838 -15.87657 -15.87372
 Alpha  occ. eigenvalues --  -15.80605 -11.63241 -11.57389  -1.85268  -1.81940
 Alpha  occ. eigenvalues --   -1.68916  -1.56182  -1.42582  -0.94608  -0.79667
 Alpha  occ. eigenvalues --   -0.76185  -0.67958  -0.66798  -0.65056  -0.58337
 Alpha  occ. eigenvalues --   -0.57789  -0.57566  -0.56291  -0.55656  -0.50160
 Alpha  occ. eigenvalues --   -0.44016  -0.39002  -0.35412  -0.33105
 Alpha virt. eigenvalues --    0.03747   0.07416   0.09455   0.10083   0.10648
 Alpha virt. eigenvalues --    0.11027   0.11714   0.12294   0.13072   0.13595
 Alpha virt. eigenvalues --    0.14245   0.14345   0.14888   0.15881   0.17369

 Mulliken charges:
               1
     1  C    5.661414
     2  C    3.695976
     3  H    0.932422
     4  N   -2.478535
     5  N   -0.254681
     6  N    0.289380
     7  O   -2.712829
     8  O   -2.514069
     9  O   -2.619078
 Sum of Mulliken charges =  -0.00000

 Dipole moment (field-independent basis, Debye):
    X=             -0.2201    Y=              1.5308    Z=             -0.7556  Tot=              1.7213

 Test job not archived.
 1\1\GINC-SE110\SP\RHF\Aug-CC-pVDZ\C2H1N3O3\OHZDE\08-Apr-2025\0\\#t hf
 aug-cc-pvdz iop(5/13=1,5/36=2,99/5=2) pseudo=read geom=check guess=(re
 ad,tcheck) scf=(maxcycle=1)\\title\\0,1\C,0,1.21039,-0.508692,0.161507
 \C,0,0.0926539,1.57386,-0.0108454\H,0,2.58807,-0.406511,-1.1356\N,0,0.
 967925,0.794015,-0.346397\N,0,-2.08167,-0.621172,-0.39768\N,0,-2.87592
 ,-1.3475,-0.137111\O,0,2.29239,-1.04958,-0.446711\O,0,-0.699668,2.3891
 8,0.212239\O,0,0.597442,-1.05984,1.03447\\Version=ES64L-G16RevC.01\Sta
 te=1-A\HF=-466.2824627\RMSD=7.913e-02\Dipole=-0.0865917,0.6022761,-0.2

 Normal termination of Gaussian 16 at Tue Apr  8 21:42:55 2025.
