 Gaussian 16, Revision C.01,

 ----------------------------------------------------------------------
 #t hf aug-cc-pvdz symm=none int=(grid=ultrafine) guess=(read,tcheck) s
 table=(opt,rrhf)
 ----------------------------------------------------------------------
 -----
 title
 -----
 Symbolic Z-matrix:
 Charge =  0 Multiplicity = 1

 SCF Done:  E(RHF) =  -982.049119376     A.U. after   15 cycles
 Normal termination of Gaussian 16 at Tue Apr  8 21:00:40 2025.
 Gaussian 16:  ES64L-G16RevC.01  3-Jul-2019

 ----------------------------------------------------------------------
 #t hf aug-cc-pvdz iop(5/13=1,5/36=2,99/5=2) pseudo=read geom=check gue
 ss=(read,tcheck) scf=(maxcycle=1)
 ----------------------------------------------------------------------
 -----
 title
 -----
 Structure from the checkpoint file:  "ANI1ccx_1743_conf33_mol1.chk"
 Charge =  0 Multiplicity = 1

                         Standard orientation:
 ---------------------------------------------------------------------
 Center     Atomic      Atomic             Coordinates (Angstroms)
 Number     Number       Type             X           Y           Z
 ---------------------------------------------------------------------
      1          6           0        1.612251    1.653789    0.418743
      2          6           0        0.342220    1.809699   -0.511680
      3          6           0        2.764711    1.194609   -0.528483
      4          6           0        2.770210   -0.234920   -1.055500
      5          6           0        2.799550   -1.137901    0.129758
      6          6           0       -0.897301   -0.349090    0.280946
      7          6           0       -1.164590   -1.471951   -0.725068
      8          6           0       -2.074000   -0.090822    1.315350
      9          6           0       -3.330750    0.363621    0.554213
     10          1           0        0.375008   -2.361831   -0.380945
     11          1           0       -5.227990    0.080535    0.801112
     12          1           0       -1.641540    0.689001    2.021650
     13          1           0       -2.183000   -0.996098    1.923560
     14          1           0       -0.125921   -0.596277    0.995588
     15          1           0       -1.340169    0.926048   -1.350800
     16          1           0        3.760830   -1.511862    1.675600
     17          1           0        3.699780   -0.455901   -1.710260
     18          1           0        1.770330   -0.389164   -1.517690
     19          1           0        2.711161    1.848639   -1.344200
     20          1           0        3.661311    1.371978    0.028137
     21          1           0        1.895551    2.714349    0.625521
     22          1           0        2.304330    0.439356    2.070260
     23          1           0        0.954141    1.426509    2.420860
     24          7           0        1.421190    0.867232    1.656810
     25          7           0       -0.615648    0.797270   -0.621328
     26          8           0        0.313758    2.785629   -1.206410
     27          8           0        2.023570   -2.043281    0.264065
     28          8           0        3.744060   -0.770359    1.070400
     29          8           0       -2.109980   -1.337890   -1.523860
     30          8           0       -3.297619    1.090750   -0.397467
     31          8           0       -4.411080   -0.314982    1.089300
     32          8           0       -0.411012   -2.567241   -0.893087
 ---------------------------------------------------------------------

 SCF Done:  E(RHF) =  -986.314736624     A.U. after    2 cycles

 The electronic state is 1-A.
 Alpha  occ. eigenvalues --  -21.16194 -21.12610 -21.11500 -21.09636 -21.06082
 Alpha  occ. eigenvalues --  -21.02962 -21.02469 -15.75634 -15.75505 -11.57845
 Alpha  occ. eigenvalues --  -11.54450 -11.54033 -11.52630 -11.48972 -11.48747
 Alpha  occ. eigenvalues --  -11.46696 -11.43499 -11.40845  -1.86543  -1.81979
 Alpha  occ. eigenvalues --   -1.81021  -1.71934  -1.71044  -1.67027  -1.62580
 Alpha  occ. eigenvalues --   -1.39365  -1.34812  -1.22341  -1.16382  -1.05712
 Alpha  occ. eigenvalues --   -1.00187  -0.92458  -0.83638  -0.82574  -0.79343
 Alpha  occ. eigenvalues --   -0.76744  -0.71678  -0.70831  -0.68955  -0.67435
 Alpha  occ. eigenvalues --   -0.64981  -0.64586  -0.64133  -0.62337  -0.61128
 Alpha  occ. eigenvalues --   -0.59520  -0.58977  -0.57653  -0.55718  -0.54867
 Alpha  occ. eigenvalues --   -0.52713  -0.52568  -0.51842  -0.50692  -0.48841
 Alpha  occ. eigenvalues --   -0.47799  -0.47361  -0.45807  -0.43985  -0.43047
 Alpha  occ. eigenvalues --   -0.39267  -0.37023  -0.35315  -0.33871  -0.32814
 Alpha  occ. eigenvalues --   -0.31346  -0.28611  -0.28093  -0.26936
 Alpha virt. eigenvalues --    0.02642   0.03545   0.04007   0.04215   0.05011
 Alpha virt. eigenvalues --    0.05371   0.05828   0.06351   0.06724   0.07485
 Alpha virt. eigenvalues --    0.07953   0.08621   0.09392   0.09632   0.10113

 Mulliken charges:
               1
     1  C   -0.607620
     2  C    5.762365
     3  C   -2.614983
     4  C   -4.937401
     5  C    7.552342
     6  C   -0.425355
     7  C    6.420434
     8  C   -5.757983
     9  C    6.239122
    10  H    1.360666
    11  H    0.936287
    12  H    1.354552
    13  H    1.486700
    14  H    2.087436
    15  H    0.941394
    16  H    0.840404
    17  H    1.362008
    18  H    1.781387
    19  H    1.251671
    20  H    1.555117
    21  H    1.404472
    22  H    0.715436
    23  H    0.597400
    24  N   -2.925616
    25  N   -2.326191
    26  O   -3.961728
    27  O   -3.773913
    28  O   -3.424733
    29  O   -3.265038
    30  O   -3.083703
    31  O   -3.195450
    32  O   -3.349481
 Sum of Mulliken charges =   0.00000

 Dipole moment (field-independent basis, Debye):
    X=              3.7235    Y=             -0.3272    Z=              3.6745  Tot=              5.2415

 Test job not archived.
 1\1\GINC-SE454\SP\RHF\Aug-CC-pVDZ\C9H14N2O7\OHZDE\08-Apr-2025\0\\#t hf
  aug-cc-pvdz iop(5/13=1,5/36=2,99/5=2) pseudo=read geom=check guess=(r
 ead,tcheck) scf=(maxcycle=1)\\title\\0,1\C,0,1.61225,1.65379,0.418743\
 C,0,0.342219,1.8097,-0.51168\C,0,2.76471,1.19461,-0.528483\C,0,2.77021
 ,-0.234919,-1.0555\C,0,2.79955,-1.1379,0.129758\C,0,-0.897301,-0.34908
 9,0.280946\C,0,-1.16459,-1.47195,-0.725068\C,0,-2.074,-0.0908219,1.315
 35\C,0,-3.33075,0.363621,0.554213\H,0,0.375008,-2.36183,-0.380945\H,0,
 -5.22799,0.0805344,0.801112\H,0,-1.64154,0.689001,2.02165\H,0,-2.183,-

 Normal termination of Gaussian 16 at Tue Apr  8 21:01:28 2025.
