 Gaussian 16, Revision C.01,

 ----------------------------------------------------------------------
 #t hf aug-cc-pvdz symm=none int=(grid=ultrafine) guess=(read,tcheck) s
 table=(opt,rrhf)
 ----------------------------------------------------------------------
 -----
 title
 -----
 Symbolic Z-matrix:
 Charge =  0 Multiplicity = 1

 SCF Done:  E(RHF) =  -318.602479571     A.U. after   16 cycles
 Normal termination of Gaussian 16 at Tue Apr  8 21:36:39 2025.
 Gaussian 16:  ES64L-G16RevC.01  3-Jul-2019

 ----------------------------------------------------------------------
 #t hf aug-cc-pvdz iop(5/13=1,5/36=2,99/5=2) pseudo=read geom=check gue
 ss=(read,tcheck) scf=(maxcycle=1)
 ----------------------------------------------------------------------
 -----
 title
 -----
 Structure from the checkpoint file:  "ANI1ccx_387_conf1_mol1.chk"
 Charge =  0 Multiplicity = 1

                         Standard orientation:
 ---------------------------------------------------------------------
 Center     Atomic      Atomic             Coordinates (Angstroms)
 Number     Number       Type             X           Y           Z
 ---------------------------------------------------------------------
      1          6           0       -1.899231    0.091531    0.332949
      2          1           0        3.827239   -0.588749    0.458158
      3          1           0       -0.016746   -0.164872    0.078126
      4          1           0       -1.638011    0.438437    1.349860
      5          7           0        2.798669   -0.480507    0.167356
      6          8           0        2.572179    0.654008   -0.177907
      7          8           0       -0.853631   -0.368525   -0.365225
      8          8           0       -3.014521    0.105710   -0.088783
 ---------------------------------------------------------------------

 SCF Done:  E(RHF) =  -319.901415170     A.U. after    2 cycles

 The electronic state is 1-A.
 Alpha  occ. eigenvalues --  -21.17527 -21.12863 -21.05812 -15.90710 -11.50919
 Alpha  occ. eigenvalues --   -1.88497  -1.82266  -1.65786  -1.05870  -0.86256
 Alpha  occ. eigenvalues --   -0.73160  -0.69380  -0.57893  -0.54642  -0.54521
 Alpha  occ. eigenvalues --   -0.53451  -0.47065  -0.33966  -0.32503  -0.31015
 Alpha virt. eigenvalues --    0.02885   0.04316   0.08179   0.08672   0.10298
 Alpha virt. eigenvalues --    0.11351   0.11959   0.14234   0.14751   0.16405
 Alpha virt. eigenvalues --    0.17004   0.17854   0.19313   0.21514   0.22509

 Mulliken charges:
               1
     1  C    2.471387
     2  H    0.865788
     3  H    1.165860
     4  H    1.405087
     5  N    0.922693
     6  O   -1.728800
     7  O   -2.628763
     8  O   -2.473252
 Sum of Mulliken charges =   0.00000

 Dipole moment (field-independent basis, Debye):
    X=              3.6775    Y=              0.5143    Z=              1.1360  Tot=              3.8831

 Test job not archived.
 1\1\GINC-SE364\SP\RHF\Aug-CC-pVDZ\C1H3N1O3\OHZDE\08-Apr-2025\0\\#t hf
 aug-cc-pvdz iop(5/13=1,5/36=2,99/5=2) pseudo=read geom=check guess=(re
 ad,tcheck) scf=(maxcycle=1)\\title\\0,1\C,0,-1.89923,0.0915305,0.33294
 9\H,0,3.82724,-0.588749,0.458158\H,0,-0.0167452,-0.164872,0.0781258\H,
 0,-1.63801,0.438437,1.34986\N,0,2.79867,-0.480507,0.167356\O,0,2.57218
 ,0.654008,-0.177907\O,0,-0.85363,-0.368525,-0.365225\O,0,-3.01452,0.10
 571,-0.0887832\\Version=ES64L-G16RevC.01\State=1-A\HF=-319.9014152\RMS
 D=4.920e-02\Dipole=1.4468243,0.2023396,0.4469181\Quadrupole=0.6021598,

 Normal termination of Gaussian 16 at Tue Apr  8 21:36:41 2025.
