 Gaussian 16, Revision C.01,

 ----------------------------------------------------------------------
 #t hf aug-cc-pvdz symm=none int=(grid=ultrafine) guess=(read,tcheck) s
 table=(opt,rrhf)
 ----------------------------------------------------------------------
 -----
 title
 -----
 Symbolic Z-matrix:
 Charge =  0 Multiplicity = 1

 SCF Done:  E(RHF) =  -584.422513352     A.U. after   14 cycles
 Normal termination of Gaussian 16 at Tue Apr  8 22:14:48 2025.
 Gaussian 16:  ES64L-G16RevC.01  3-Jul-2019

 ----------------------------------------------------------------------
 #t hf aug-cc-pvdz iop(5/13=1,5/36=2,99/5=2) pseudo=read geom=check gue
 ss=(read,tcheck) scf=(maxcycle=1)
 ----------------------------------------------------------------------
 -----
 title
 -----
 Structure from the checkpoint file:  "ANI1ccx_940_conf12_mol1.chk"
 Charge =  0 Multiplicity = 1

                         Standard orientation:
 ---------------------------------------------------------------------
 Center     Atomic      Atomic             Coordinates (Angstroms)
 Number     Number       Type             X           Y           Z
 ---------------------------------------------------------------------
      1          6           0       -0.737265   -0.602900   -0.016980
      2          6           0        0.506454   -0.754623   -0.910878
      3          6           0        1.739959   -0.029044   -0.399034
      4          6           0       -0.984006    0.925813    0.268180
      5          1           0       -2.466772    0.648388   -0.697638
      6          1           0        2.937759   -0.003028    0.960917
      7          1           0        0.715967   -1.780809   -1.012030
      8          1           0        0.359808   -0.385737   -1.911440
      9          1           0       -2.589480   -1.584223    0.067708
     10          1           0       -1.627909   -2.010472   -1.185900
     11          1           0        0.351064   -1.244710    1.534670
     12          7           0       -1.960650   -1.170672   -0.619844
     13          8           0       -2.045773    1.452298   -0.420109
     14          8           0       -0.564949   -1.190101    1.209530
     15          8           0        2.138859   -0.498280    0.770581
     16          8           0        2.363928    0.837371   -0.943404
     17          8           0       -0.280408    1.563690    1.000260
 ---------------------------------------------------------------------

 SCF Done:  E(RHF) =  -586.898853094     A.U. after    2 cycles

 The electronic state is 1-A.
 Alpha  occ. eigenvalues --  -21.14432 -21.11653 -21.09176 -21.06850 -21.05771
 Alpha  occ. eigenvalues --  -15.77947 -11.55728 -11.54952 -11.51508 -11.44689
 Alpha  occ. eigenvalues --   -1.87516  -1.82637  -1.76347  -1.67087  -1.66425
 Alpha  occ. eigenvalues --   -1.35266  -1.17888  -0.98838  -0.84933  -0.77410
 Alpha  occ. eigenvalues --   -0.73528  -0.72132  -0.66986  -0.66321  -0.63160
 Alpha  occ. eigenvalues --   -0.61281  -0.57200  -0.54845  -0.52796  -0.51314
 Alpha  occ. eigenvalues --   -0.49655  -0.48421  -0.43972  -0.41896  -0.35632
 Alpha  occ. eigenvalues --   -0.34811  -0.33233  -0.31623  -0.28485
 Alpha virt. eigenvalues --    0.02982   0.04243   0.04558   0.05558   0.05892
 Alpha virt. eigenvalues --    0.06635   0.07446   0.10361   0.10648   0.11182
 Alpha virt. eigenvalues --    0.11911   0.12655   0.13146   0.13799   0.14235

 Mulliken charges:
               1
     1  C    5.354119
     2  C   -5.060246
     3  C    7.248681
     4  C    6.269401
     5  H    1.129959
     6  H    0.998587
     7  H    1.419353
     8  H    1.242872
     9  H    0.460229
    10  H    0.486718
    11  H    0.871329
    12  N   -3.362299
    13  O   -3.250236
    14  O   -3.777262
    15  O   -3.332988
    16  O   -3.456051
    17  O   -3.242167
 Sum of Mulliken charges =   0.00000

 Dipole moment (field-independent basis, Debye):
    X=             -0.3176    Y=             -3.4241    Z=             -0.1694  Tot=              3.4429

 Test job not archived.
 1\1\GINC-SE221\SP\RHF\Aug-CC-pVDZ\C4H7N1O5\OHZDE\08-Apr-2025\0\\#t hf
 aug-cc-pvdz iop(5/13=1,5/36=2,99/5=2) pseudo=read geom=check guess=(re
 ad,tcheck) scf=(maxcycle=1)\\title\\0,1\C,0,-0.737264,-0.602899,-0.016
 9801\C,0,0.506454,-0.754623,-0.910878\C,0,1.73996,-0.0290459,-0.399034
 \C,0,-0.984004,0.925814,0.26818\H,0,-2.46677,0.648391,-0.697638\H,0,2.
 93776,-0.00303042,0.960917\H,0,0.715966,-1.78081,-1.01203\H,0,0.359809
 ,-0.385737,-1.91144\H,0,-2.58948,-1.58422,0.0677081\H,0,-1.62791,-2.01
 047,-1.1859\H,0,0.351064,-1.24471,1.53467\N,0,-1.96065,-1.17067,-0.619

 Normal termination of Gaussian 16 at Tue Apr  8 22:14:56 2025.
