 Gaussian 16, Revision C.01,

 ----------------------------------------------------------------------
 #t hf aug-cc-pvdz symm=none int=(grid=ultrafine) guess=(read,tcheck) s
 table=(opt,rrhf)
 ----------------------------------------------------------------------
 -----
 title
 -----
 Symbolic Z-matrix:
 Charge =  0 Multiplicity = 1

 SCF Done:  E(RHF) =  -792.017590254     A.U. after   14 cycles
 Normal termination of Gaussian 16 at Tue Apr  8 19:36:22 2025.
 Gaussian 16:  ES64L-G16RevC.01  3-Jul-2019

 ----------------------------------------------------------------------
 #t hf aug-cc-pvdz iop(5/13=1,5/36=2,99/5=2) pseudo=read geom=check gue
 ss=(read,tcheck) scf=(maxcycle=1)
 ----------------------------------------------------------------------
 -----
 title
 -----
 Structure from the checkpoint file:  "ANI1ccx_1216_conf3_mol1.chk"
 Charge =  0 Multiplicity = 1

                         Standard orientation:
 ---------------------------------------------------------------------
 Center     Atomic      Atomic             Coordinates (Angstroms)
 Number     Number       Type             X           Y           Z
 ---------------------------------------------------------------------
      1          6           0        1.728852    1.251377    0.505597
      2          6           0       -1.371787    1.559213   -0.611008
      3          6           0       -1.270072   -0.813235   -1.584330
      4          6           0        1.958878   -0.806690   -0.684235
      5          6           0        1.030308   -0.882938    1.631160
      6          6           0       -2.086251   -0.379339    0.690826
      7          1           0       -2.899620    0.219318    1.116850
      8          1           0       -2.329043   -1.444805    0.570507
      9          1           0        1.575346   -1.789492    1.800780
     10          1           0        1.056379   -0.248636    2.540230
     11          1           0        2.163876   -1.886133   -0.530735
     12          1           0        2.851859   -0.359205   -1.100840
     13          1           0       -2.064593   -1.613315   -1.602600
     14          1           0       -1.139106    1.844913   -1.640270
     15          1           0       -2.268626    2.065655   -0.303146
     16          1           0        1.702603    1.621957    1.566710
     17          1           0        2.709083    1.535415    0.088522
     18          1           0       -1.314471   -0.271899   -2.520910
     19          7           0       -1.619890    0.135424   -0.533941
     20          7           0        1.618770   -0.170135    0.522920
     21          8           0       -0.270453   -1.404559    1.591070
     22          8           0        0.865213    1.984819   -0.363612
     23          8           0       -0.401850    2.071302    0.273889
     24          8           0       -0.063236   -1.539499   -1.486090
     25          8           0        1.027109   -0.634046   -1.722910
     26          8           0       -1.153711   -0.353157    1.758150
 ---------------------------------------------------------------------

 SCF Done:  E(RHF) =  -795.461569186     A.U. after    2 cycles

 The electronic state is 1-A.
 Alpha  occ. eigenvalues --  -21.08947 -21.08735 -21.08472 -21.08270 -21.08090
 Alpha  occ. eigenvalues --  -21.07133 -15.72687 -15.72110 -11.45264 -11.44807
 Alpha  occ. eigenvalues --  -11.44614 -11.43989 -11.43436 -11.43129  -2.01131
 Alpha  occ. eigenvalues --   -1.97968  -1.97103  -1.55836  -1.48046  -1.46828
 Alpha  occ. eigenvalues --   -1.40995  -1.32359  -1.02122  -1.01935  -0.96865
 Alpha  occ. eigenvalues --   -0.96488  -0.84341  -0.82825  -0.72101  -0.71339
 Alpha  occ. eigenvalues --   -0.70328  -0.68965  -0.65597  -0.64996  -0.62807
 Alpha  occ. eigenvalues --   -0.62218  -0.60638  -0.57921  -0.57383  -0.56603
 Alpha  occ. eigenvalues --   -0.54048  -0.50723  -0.49082  -0.48378  -0.44121
 Alpha  occ. eigenvalues --   -0.40871  -0.40003  -0.38292  -0.37510  -0.33186
 Alpha  occ. eigenvalues --   -0.32537  -0.30376  -0.27061  -0.26128  -0.24518
 Alpha virt. eigenvalues --    0.04139   0.04252   0.04450   0.05715   0.05755
 Alpha virt. eigenvalues --    0.06072   0.06532   0.06730   0.07113   0.07607
 Alpha virt. eigenvalues --    0.08110   0.09193   0.09846   0.11012   0.12028

 Mulliken charges:
               1
     1  C   -0.153242
     2  C   -0.287128
     3  C    0.046302
     4  C   -0.463455
     5  C    0.175067
     6  C   -0.685040
     7  H    1.640229
     8  H    1.826135
     9  H    1.618100
    10  H    1.723241
    11  H    1.858224
    12  H    1.586803
    13  H    1.549574
    14  H    1.862858
    15  H    1.651360
    16  H    1.740826
    17  H    1.540896
    18  H    1.775629
    19  N   -3.696710
    20  N   -3.905883
    21  O   -1.956576
    22  O   -1.900050
    23  O   -1.827732
    24  O   -1.995509
    25  O   -1.898423
    26  O   -1.825499
 Sum of Mulliken charges =  -0.00000

 Dipole moment (field-independent basis, Debye):
    X=              0.0906    Y=             -0.0171    Z=             -0.2405  Tot=              0.2576

 Test job not archived.
 1\1\GINC-SE232\SP\RHF\Aug-CC-pVDZ\C6H12N2O6\OHZDE\08-Apr-2025\0\\#t hf
  aug-cc-pvdz iop(5/13=1,5/36=2,99/5=2) pseudo=read geom=check guess=(r
 ead,tcheck) scf=(maxcycle=1)\\title\\0,1\C,0,1.72885,1.25138,0.505597\
 C,0,-1.37179,1.55921,-0.611008\C,0,-1.27007,-0.813238,-1.58433\C,0,1.9
 5888,-0.806687,-0.684235\C,0,1.03031,-0.882937,1.63116\C,0,-2.08625,-0
 .379344,0.690826\H,0,-2.89962,0.219312,1.11685\H,0,-2.32904,-1.44481,0
 .570507\H,0,1.57535,-1.78949,1.80078\H,0,1.05638,-0.248635,2.54023\H,0
 ,2.16388,-1.88613,-0.530735\H,0,2.85186,-0.3592,-1.10084\H,0,-2.06459,

 Normal termination of Gaussian 16 at Tue Apr  8 19:36:50 2025.
