 Gaussian 16, Revision C.01,

 ----------------------------------------------------------------------
 #t hf aug-cc-pvdz symm=none int=(grid=ultrafine) guess=(read,tcheck) s
 table=(opt,rrhf)
 ----------------------------------------------------------------------
 -----
 title
 -----
 Symbolic Z-matrix:
 Charge =  0 Multiplicity = 1

 SCF Done:  E(RHF) =  -833.496577213     A.U. after   14 cycles
 Normal termination of Gaussian 16 at Tue Apr  8 21:06:38 2025.
 Gaussian 16:  ES64L-G16RevC.01  3-Jul-2019

 ----------------------------------------------------------------------
 #t hf aug-cc-pvdz iop(5/13=1,5/36=2,99/5=2) pseudo=read geom=check gue
 ss=(read,tcheck) scf=(maxcycle=1)
 ----------------------------------------------------------------------
 -----
 title
 -----
 Structure from the checkpoint file:  "ANI1ccx_1760_conf14_mol2.chk"
 Charge =  0 Multiplicity = 1

                         Standard orientation:
 ---------------------------------------------------------------------
 Center     Atomic      Atomic             Coordinates (Angstroms)
 Number     Number       Type             X           Y           Z
 ---------------------------------------------------------------------
      1          6           0        2.323498   -1.093393    0.298491
      2          6           0       -2.273120    0.059759    1.952070
      3          6           0       -2.384831   -0.910237    0.822048
      4          6           0       -1.724439    0.905183   -0.852617
      5          6           0       -3.850522   -1.158505    0.318536
      6          6           0        2.147722    1.462367    0.365665
      7          6           0        2.922130    0.265024   -0.141868
      8          6           0        0.970960   -1.292772   -0.345611
      9          6           0       -1.380431   -0.519154   -0.357736
     10          1           0       -1.246960    0.318902    2.282090
     11          1           0       -2.648698    1.850363   -2.060620
     12          1           0       -4.436800   -0.227307    0.253714
     13          1           0       -3.895792   -1.634895   -0.698543
     14          1           0       -4.418993   -1.825104    0.909154
     15          1           0       -2.842031   -0.327462    2.786730
     16          1           0       -2.691509    1.043073    1.739600
     17          1           0       -2.001753   -1.923608    1.127330
     18          1           0        0.120425    0.210891    0.880184
     19          1           0        1.937434    3.280597   -0.023959
     20          1           0        3.938060    0.274668    0.216307
     21          1           0        3.089640    0.326651   -1.205070
     22          1           0        2.100308   -1.046243    1.364610
     23          1           0        2.974446   -2.656684   -0.869097
     24          1           0        3.165166   -2.821265    0.750906
     25          1           0       -1.512712   -1.260948   -1.126830
     26          7           0        3.247777   -2.153895   -0.030941
     27          7           0       -0.062016   -0.522882    0.202666
     28          8           0       -1.499248    1.951902   -0.278392
     29          8           0        0.822905   -1.961871   -1.321860
     30          8           0        1.580182    1.469798    1.469470
     31          8           0        2.325043    2.501297   -0.448595
     32          8           0       -2.533429    0.894648   -1.905930
 ---------------------------------------------------------------------

 SCF Done:  E(RHF) =  -837.214181824     A.U. after    2 cycles

 The electronic state is 1-A.
 Alpha  occ. eigenvalues --  -21.14858 -21.13041 -21.06273 -21.05603 -21.03648
 Alpha  occ. eigenvalues --  -15.74961 -15.73716 -11.55397 -11.54782 -11.53175
 Alpha  occ. eigenvalues --  -11.47737 -11.46507 -11.42653 -11.41256 -11.38712
 Alpha  occ. eigenvalues --  -11.36493  -1.85029  -1.84305  -1.73239  -1.66866
 Alpha  occ. eigenvalues --   -1.65438  -1.41735  -1.35876  -1.22014  -1.14665
 Alpha  occ. eigenvalues --   -1.05634  -1.01192  -0.96390  -0.86367  -0.83717
 Alpha  occ. eigenvalues --   -0.78439  -0.78154  -0.72857  -0.67890  -0.65935
 Alpha  occ. eigenvalues --   -0.65477  -0.64014  -0.63599  -0.62034  -0.60571
 Alpha  occ. eigenvalues --   -0.59327  -0.58305  -0.56468  -0.55016  -0.53634
 Alpha  occ. eigenvalues --   -0.53414  -0.53024  -0.51681  -0.48760  -0.48025
 Alpha  occ. eigenvalues --   -0.47438  -0.45964  -0.45622  -0.44333  -0.42038
 Alpha  occ. eigenvalues --   -0.36918  -0.35473  -0.34151  -0.32100  -0.31577
 Alpha  occ. eigenvalues --   -0.29869  -0.28782
 Alpha virt. eigenvalues --    0.03748   0.04507   0.04655   0.05265   0.05362
 Alpha virt. eigenvalues --    0.05719   0.06107   0.06249   0.06404   0.06854
 Alpha virt. eigenvalues --    0.07189   0.07943   0.08352   0.08560   0.10264

 Mulliken charges:
               1
     1  C   -1.656343
     2  C   -5.046322
     3  C   -0.443687
     4  C    7.439975
     5  C   -4.969678
     6  C    6.811704
     7  C   -4.422535
     8  C    7.356886
     9  C   -2.473599
    10  H    1.424262
    11  H    0.674411
    12  H    1.391522
    13  H    1.293873
    14  H    1.182405
    15  H    1.166435
    16  H    1.447561
    17  H    1.735025
    18  H    1.494979
    19  H    0.902729
    20  H    1.527199
    21  H    1.412271
    22  H    1.878723
    23  H    0.518747
    24  H    0.394720
    25  H    2.133242
    26  N   -2.783407
    27  N   -2.802044
    28  O   -3.390762
    29  O   -3.981776
    30  O   -3.274338
    31  O   -3.595040
    32  O   -3.347138
 Sum of Mulliken charges =   0.00000

 Dipole moment (field-independent basis, Debye):
    X=             -0.8610    Y=              0.6263    Z=              0.2790  Tot=              1.1006

 Test job not archived.
 1\1\GINC-SE079\SP\RHF\Aug-CC-pVDZ\C9H16N2O5\OHZDE\08-Apr-2025\0\\#t hf
  aug-cc-pvdz iop(5/13=1,5/36=2,99/5=2) pseudo=read geom=check guess=(r
 ead,tcheck) scf=(maxcycle=1)\\title\\0,1\C,0,2.3235,-1.09339,0.298491\
 C,0,-2.27312,0.0597567,1.95207\C,0,-2.38483,-0.91024,0.822048\C,0,-1.7
 2444,0.905181,-0.852617\C,0,-3.85052,-1.15851,0.318536\C,0,2.14772,1.4
 6237,0.365665\C,0,2.92213,0.265028,-0.141868\C,0,0.970962,-1.29277,-0.
 345611\C,0,-1.38043,-0.519155,-0.357736\H,0,-1.24696,0.318901,2.28209\
 H,0,-2.6487,1.85036,-2.06062\H,0,-4.4368,-0.227313,0.253714\H,0,-3.895

 Normal termination of Gaussian 16 at Tue Apr  8 21:07:20 2025.
