 Gaussian 16, Revision C.01,

 ----------------------------------------------------------------------
 #t hf aug-cc-pvdz symm=none int=(grid=ultrafine) guess=(read,tcheck) s
 table=(opt,rrhf)
 ----------------------------------------------------------------------
 -----
 title
 -----
 Symbolic Z-matrix:
 Charge =  0 Multiplicity = 1

 SCF Done:  E(RHF) =  -502.212350405     A.U. after   17 cycles
 Normal termination of Gaussian 16 at Tue Apr  8 21:50:04 2025.
 Gaussian 16:  ES64L-G16RevC.01  3-Jul-2019

 ----------------------------------------------------------------------
 #t hf aug-cc-pvdz iop(5/13=1,5/36=2,99/5=2) pseudo=read geom=check gue
 ss=(read,tcheck) scf=(maxcycle=1)
 ----------------------------------------------------------------------
 -----
 title
 -----
 Structure from the checkpoint file:  "ANI1ccx_650_conf1_mol2.chk"
 Charge =  0 Multiplicity = 1

                         Standard orientation:
 ---------------------------------------------------------------------
 Center     Atomic      Atomic             Coordinates (Angstroms)
 Number     Number       Type             X           Y           Z
 ---------------------------------------------------------------------
      1          6           0       -2.401289   -0.003983   -0.382741
      2          6           0       -0.968042    0.042310    0.117038
      3          6           0        0.788776    1.584399   -0.016449
      4          1           0       -2.684089    0.690003   -1.201070
      5          7           0       -0.360267    1.268400   -0.258499
      6          7           0        2.194440   -1.093753   -0.295042
      7          7           0        2.719309   -2.076033   -0.198517
      8          8           0       -3.147820   -0.851644    0.035548
      9          8           0        1.841943    2.031857    0.210180
     10          8           0       -0.407491   -0.819795    0.774070
 ---------------------------------------------------------------------

 SCF Done:  E(RHF) =  -504.267542159     A.U. after    2 cycles

 The electronic state is 1-A.
 Alpha  occ. eigenvalues --  -21.17704 -21.11826 -21.10508 -15.87702 -15.87409
 Alpha  occ. eigenvalues --  -15.80915 -11.63323 -11.56910 -11.51195  -1.81625
 Alpha  occ. eigenvalues --   -1.78085  -1.72799  -1.55582  -1.43773  -1.06793
 Alpha  occ. eigenvalues --   -0.85645  -0.80032  -0.75638  -0.68279  -0.66121
 Alpha  occ. eigenvalues --   -0.63891  -0.58845  -0.57453  -0.57196  -0.56648
 Alpha  occ. eigenvalues --   -0.55420  -0.54032  -0.46128  -0.44239  -0.36570
 Alpha  occ. eigenvalues --   -0.36040  -0.32390
 Alpha virt. eigenvalues --    0.03442   0.06097   0.07138   0.08835   0.09503
 Alpha virt. eigenvalues --    0.09762   0.10418   0.11135   0.11704   0.12471
 Alpha virt. eigenvalues --    0.12885   0.13664   0.13738   0.14167   0.15180

 Mulliken charges:
               1
     1  C    0.780719
     2  C    4.290451
     3  C    4.016320
     4  H    1.592031
     5  N   -2.712168
     6  N   -0.378353
     7  N    0.416794
     8  O   -2.460322
     9  O   -2.584190
    10  O   -2.961283
 Sum of Mulliken charges =   0.00000

 Dipole moment (field-independent basis, Debye):
    X=              1.2750    Y=              0.8269    Z=             -0.1830  Tot=              1.5306

 Test job not archived.
 1\1\GINC-SE074\SP\RHF\Aug-CC-pVDZ\C3H1N3O3\OHZDE\08-Apr-2025\0\\#t hf
 aug-cc-pvdz iop(5/13=1,5/36=2,99/5=2) pseudo=read geom=check guess=(re
 ad,tcheck) scf=(maxcycle=1)\\title\\0,1\C,0,-2.40129,-0.003985,-0.3827
 41\C,0,-0.968043,0.0423099,0.117038\C,0,0.788774,1.5844,-0.016449\H,0,
 -2.68409,0.690001,-1.20107\N,0,-0.360269,1.2684,-0.258499\N,0,2.19444,
 -1.09375,-0.295042\N,0,2.71931,-2.07603,-0.198517\O,0,-3.14782,-0.8516
 46,0.0355484\O,0,1.84194,2.03186,0.21018\O,0,-0.407491,-0.819795,0.774
 07\\Version=ES64L-G16RevC.01\State=1-A\HF=-504.2675422\RMSD=1.340e-01\

 Normal termination of Gaussian 16 at Tue Apr  8 21:50:09 2025.
