 Gaussian 16, Revision C.01,

 ----------------------------------------------------------------------
 #t hf aug-cc-pvdz symm=none int=(grid=ultrafine) guess=(read,tcheck) s
 table=(opt,rrhf)
 ----------------------------------------------------------------------
 -----
 title
 -----
 Symbolic Z-matrix:
 Charge =  0 Multiplicity = 1

 SCF Done:  E(RHF) =  -371.628273560     A.U. after   16 cycles
 Normal termination of Gaussian 16 at Tue Apr  8 22:06:17 2025.
 Gaussian 16:  ES64L-G16RevC.01  3-Jul-2019

 ----------------------------------------------------------------------
 #t hf aug-cc-pvdz iop(5/13=1,5/36=2,99/5=2) pseudo=read geom=check gue
 ss=(read,tcheck) scf=(maxcycle=1)
 ----------------------------------------------------------------------
 -----
 title
 -----
 Structure from the checkpoint file:  "ANI1ccx_880_conf1_mol1.chk"
 Charge =  0 Multiplicity = 1

                         Standard orientation:
 ---------------------------------------------------------------------
 Center     Atomic      Atomic             Coordinates (Angstroms)
 Number     Number       Type             X           Y           Z
 ---------------------------------------------------------------------
      1          6           0        1.420900   -0.087474   -0.073745
      2          6           0       -0.149803    1.329310    0.010349
      3          6           0       -0.796289    0.115152   -0.038311
      4          6           0       -2.221250   -0.176914   -0.014223
      5          1           0        2.582420   -1.591780    0.560178
      6          1           0        3.412340   -0.087399    0.126918
      7          1           0       -0.620891    2.320539   -0.000804
      8          1           0        0.104532   -1.836230   -0.262600
      9          7           0        2.634680   -0.720566   -0.013466
     10          7           0        1.174710    1.192020    0.027519
     11          7           0        0.261603   -0.835904   -0.038805
     12          7           0       -3.356670   -0.476346    0.063593
 ---------------------------------------------------------------------

 SCF Done:  E(RHF) =  -373.297447270     A.U. after    2 cycles

 The electronic state is 1-A.
 Alpha  occ. eigenvalues --  -15.81514 -15.79826 -15.76802 -15.73335 -11.51002
 Alpha  occ. eigenvalues --  -11.49222 -11.45269 -11.42305  -1.60679  -1.36818
 Alpha  occ. eigenvalues --   -1.31137  -1.28675  -1.09102  -0.90193  -0.84767
 Alpha  occ. eigenvalues --   -0.79358  -0.71789  -0.64719  -0.62554  -0.60218
 Alpha  occ. eigenvalues --   -0.57471  -0.51781  -0.49744  -0.45475  -0.43690
 Alpha  occ. eigenvalues --   -0.40550  -0.40060  -0.28637
 Alpha virt. eigenvalues --    0.02548   0.04415   0.05256   0.06267   0.08965
 Alpha virt. eigenvalues --    0.09461   0.10501   0.10898   0.11513   0.12104
 Alpha virt. eigenvalues --    0.12938   0.13583   0.13817   0.14025   0.15311

 Mulliken charges:
               1
     1  C    4.668627
     2  C   -0.032025
     3  C    2.895130
     4  C    1.246157
     5  H    0.540666
     6  H    0.662105
     7  H    1.348330
     8  H    0.748596
     9  N   -2.976746
    10  N   -3.282447
    11  N   -3.277024
    12  N   -2.541369
 Sum of Mulliken charges =   0.00000

 Dipole moment (field-independent basis, Debye):
    X=              4.5322    Y=             -2.1772    Z=              0.4256  Tot=              5.0460

 Test job not archived.
 1\1\GINC-SE365\SP\RHF\Aug-CC-pVDZ\C4H4N4\OHZDE\08-Apr-2025\0\\#t hf au
 g-cc-pvdz iop(5/13=1,5/36=2,99/5=2) pseudo=read geom=check guess=(read
 ,tcheck) scf=(maxcycle=1)\\title\\0,1\C,0,1.4209,-0.0874736,-0.0737448
 \C,0,-0.149803,1.32931,0.0103491\C,0,-0.796289,0.115153,-0.038311\C,0,
 -2.22125,-0.176913,-0.0142228\H,0,2.58242,-1.59178,0.560178\H,0,3.4123
 4,-0.0873993,0.126918\H,0,-0.620891,2.32054,-0.000804\H,0,0.104532,-1.
 83623,-0.2626\N,0,2.63468,-0.720566,-0.0134661\N,0,1.17471,1.19202,0.0
 275195\N,0,0.261603,-0.835904,-0.0388053\N,0,-3.35667,-0.476345,0.0635

 Normal termination of Gaussian 16 at Tue Apr  8 22:06:21 2025.
