 Gaussian 16, Revision C.01,

 ----------------------------------------------------------------------
 #t hf aug-cc-pvdz symm=none int=(grid=ultrafine) guess=(read,tcheck) s
 table=(opt,rrhf)
 ----------------------------------------------------------------------
 -----
 title
 -----
 Symbolic Z-matrix:
 Charge =  0 Multiplicity = 1

 SCF Done:  E(RHF) =  -903.391491161     A.U. after   14 cycles
 Normal termination of Gaussian 16 at Tue Apr  8 20:33:56 2025.
 Gaussian 16:  ES64L-G16RevC.01  3-Jul-2019

 ----------------------------------------------------------------------
 #t hf aug-cc-pvdz iop(5/13=1,5/36=2,99/5=2) pseudo=read geom=check gue
 ss=(read,tcheck) scf=(maxcycle=1)
 ----------------------------------------------------------------------
 -----
 title
 -----
 Structure from the checkpoint file:  "ANI1ccx_1597_conf3_mol1.chk"
 Charge =  0 Multiplicity = 1

                         Standard orientation:
 ---------------------------------------------------------------------
 Center     Atomic      Atomic             Coordinates (Angstroms)
 Number     Number       Type             X           Y           Z
 ---------------------------------------------------------------------
      1          6           0        1.966509   -1.359942    0.275791
      2          6           0        0.693934   -1.102301   -0.476566
      3          6           0        3.127789   -0.519701   -0.176832
      4          6           0        2.958210    0.960024    0.304258
      5          6           0       -1.173280    0.454297   -0.869950
      6          6           0       -1.681679    1.823770   -0.529975
      7          6           0       -2.347901   -0.525614   -0.868440
      8          6           0       -2.876671   -0.975259    0.523463
      9          1           0       -1.577979    3.177770    0.768451
     10          1           0       -1.845210    0.399215    1.688810
     11          1           0       -2.980971   -0.692566    2.524680
     12          1           0       -2.087461   -1.458819   -1.335640
     13          1           0       -3.211890   -0.088999   -1.403200
     14          1           0       -0.811555    0.608306   -1.940650
     15          1           0        0.153522    0.516863    0.778789
     16          1           0        4.938420    1.269337   -0.251130
     17          1           0        4.061579   -0.853923    0.307894
     18          1           0        3.342379   -0.584564   -1.254900
     19          1           0        1.761279   -1.239401    1.333770
     20          1           0        1.438418   -3.308371    0.692088
     21          1           0        2.121798   -3.111692   -0.724572
     22          1           0        4.152821    2.637677    0.408156
     23          7           0        2.216218   -2.797362    0.231063
     24          7           0        4.081711    1.700227    0.065570
     25          7           0       -0.132575   -0.091080   -0.013344
     26          7           0       -2.679680   -0.223089    1.646010
     27          8           0       -3.559551   -1.975158    0.611683
     28          8           0        0.408457   -1.723741   -1.503700
     29          8           0        2.013791    1.421148    0.952339
     30          8           0       -2.432049    2.482001   -1.229820
     31          8           0       -1.162689    2.305330    0.645985
 ---------------------------------------------------------------------

 SCF Done:  E(RHF) =  -907.365408346     A.U. after    2 cycles

 The electronic state is 1-A.
 Alpha  occ. eigenvalues --  -21.14210 -21.07339 -21.05474 -21.03856 -21.01434
 Alpha  occ. eigenvalues --  -15.80283 -15.76598 -15.76468 -15.73967 -11.57174
 Alpha  occ. eigenvalues --  -11.54885 -11.54595 -11.50960 -11.48947 -11.48905
 Alpha  occ. eigenvalues --  -11.42913 -11.40671  -1.84193  -1.73322  -1.71715
 Alpha  occ. eigenvalues --   -1.69914  -1.66989  -1.41948  -1.38533  -1.35331
 Alpha  occ. eigenvalues --   -1.32269  -1.17539  -1.14118  -1.02018  -0.96821
 Alpha  occ. eigenvalues --   -0.84678  -0.83313  -0.79524  -0.78158  -0.73926
 Alpha  occ. eigenvalues --   -0.73328  -0.70598  -0.68544  -0.67296  -0.66043
 Alpha  occ. eigenvalues --   -0.64412  -0.62503  -0.61372  -0.59161  -0.58729
 Alpha  occ. eigenvalues --   -0.55516  -0.54552  -0.53283  -0.52476  -0.50591
 Alpha  occ. eigenvalues --   -0.49925  -0.49316  -0.48587  -0.47406  -0.47150
 Alpha  occ. eigenvalues --   -0.44838  -0.37365  -0.36251  -0.35306  -0.33957
 Alpha  occ. eigenvalues --   -0.32115  -0.31930  -0.30287  -0.29955  -0.27408
 Alpha virt. eigenvalues --    0.02519   0.04003   0.04373   0.04462   0.04896
 Alpha virt. eigenvalues --    0.05728   0.06319   0.06517   0.06961   0.07440
 Alpha virt. eigenvalues --    0.07823   0.08741   0.09176   0.09551   0.10025

 Mulliken charges:
               1
     1  C   -1.612588
     2  C    7.253531
     3  C   -3.706873
     4  C    5.324902
     5  C   -3.283317
     6  C    7.529006
     7  C   -2.957045
     8  C    5.068694
     9  H    0.952984
    10  H    0.800296
    11  H    0.772805
    12  H    1.470282
    13  H    1.349382
    14  H    1.431066
    15  H    0.948245
    16  H    0.802497
    17  H    1.446638
    18  H    1.401820
    19  H    1.981057
    20  H    0.523929
    21  H    0.585045
    22  H    0.772958
    23  N   -2.844283
    24  N   -3.339614
    25  N   -2.053969
    26  N   -3.345136
    27  O   -3.434877
    28  O   -3.744174
    29  O   -3.318305
    30  O   -3.542797
    31  O   -3.232159
 Sum of Mulliken charges =  -0.00000

 Dipole moment (field-independent basis, Debye):
    X=              5.1113    Y=              3.0973    Z=              1.5823  Tot=              6.1824

 Test job not archived.
 1\1\GINC-SE036\SP\RHF\Aug-CC-pVDZ\C8H14N4O5\OHZDE\08-Apr-2025\0\\#t hf
  aug-cc-pvdz iop(5/13=1,5/36=2,99/5=2) pseudo=read geom=check guess=(r
 ead,tcheck) scf=(maxcycle=1)\\title\\0,1\C,0,1.96651,-1.35994,0.275791
 \C,0,0.693935,-1.1023,-0.476566\C,0,3.12779,-0.519699,-0.176832\C,0,2.
 95821,0.960026,0.304258\C,0,-1.17328,0.454297,-0.86995\C,0,-1.68168,1.
 82377,-0.529975\C,0,-2.3479,-0.525615,-0.86844\C,0,-2.87667,-0.97526,0
 .523463\H,0,-1.57798,3.17777,0.768451\H,0,-1.84521,0.399214,1.68881\H,
 0,-2.98097,-0.692567,2.52468\H,0,-2.08746,-1.45882,-1.33564\H,0,-3.211

 Normal termination of Gaussian 16 at Tue Apr  8 20:34:40 2025.
