 Gaussian 16, Revision C.01,

 ----------------------------------------------------------------------
 #t hf aug-cc-pvdz symm=none int=(grid=ultrafine) guess=(read,tcheck) s
 table=(opt,rrhf)
 ----------------------------------------------------------------------
 -----
 title
 -----
 Symbolic Z-matrix:
 Charge =  0 Multiplicity = 1

 SCF Done:  E(RHF) =  -794.440790266     A.U. after   14 cycles
 Normal termination of Gaussian 16 at Tue Apr  8 20:25:32 2025.
 Gaussian 16:  ES64L-G16RevC.01  3-Jul-2019

 ----------------------------------------------------------------------
 #t hf aug-cc-pvdz iop(5/13=1,5/36=2,99/5=2) pseudo=read geom=check gue
 ss=(read,tcheck) scf=(maxcycle=1)
 ----------------------------------------------------------------------
 -----
 title
 -----
 Structure from the checkpoint file:  "ANI1ccx_1592_conf15_mol1.chk"
 Charge =  0 Multiplicity = 1

                         Standard orientation:
 ---------------------------------------------------------------------
 Center     Atomic      Atomic             Coordinates (Angstroms)
 Number     Number       Type             X           Y           Z
 ---------------------------------------------------------------------
      1          6           0        0.550285    1.450499   -0.301021
      2          6           0       -0.855869    1.868870    0.005743
      3          6           0        1.450282    1.163578    0.912245
      4          6           0        2.703712    0.381527    0.502752
      5          6           0        2.536260   -1.096643    0.020560
      6          6           0       -1.471909   -0.520211    0.569402
      7          6           0       -2.089040   -1.326699   -0.531969
      8          6           0       -2.124780   -0.997632    1.827070
      9          1           0       -0.331314   -2.052410   -0.859755
     10          1           0       -3.200019   -0.689775    1.676980
     11          1           0       -1.689269   -0.665614    2.794310
     12          1           0       -2.058661   -2.109649    1.835440
     13          1           0       -0.402773   -0.659376    0.654019
     14          1           0       -2.672468    0.984643    0.278650
     15          1           0        3.584908   -2.767614   -0.032225
     16          1           0        3.155892    0.833998   -0.382887
     17          1           0        3.396482    0.415746    1.411640
     18          1           0        1.896873    2.053917    1.385770
     19          1           0        0.981589    0.580993    1.775340
     20          1           0        0.456453    0.522484   -0.793976
     21          1           0        0.718955    2.403839   -2.117140
     22          1           0        1.063665    3.438098   -0.830804
     23          7           0        1.144844    2.450938   -1.200890
     24          7           0       -1.708738    0.851275    0.381906
     25          8           0       -1.351986    2.984331   -0.069011
     26          8           0        1.533680   -1.591912   -0.460435
     27          8           0        3.679379   -1.784494    0.103678
     28          8           0       -3.280450   -1.329947   -0.767697
     29          8           0       -1.223961   -2.146039   -1.192930
 ---------------------------------------------------------------------

 SCF Done:  E(RHF) =  -797.948395604     A.U. after    2 cycles

 The electronic state is 1-A.
 Alpha  occ. eigenvalues --  -21.15159 -21.11507 -21.08784 -21.05064 -21.02956
 Alpha  occ. eigenvalues --  -15.75797 -15.74350 -11.57859 -11.54918 -11.53554
 Alpha  occ. eigenvalues --  -11.50272 -11.47128 -11.46365 -11.42347 -11.40586
 Alpha  occ. eigenvalues --   -1.86052  -1.81576  -1.71282  -1.68858  -1.65361
 Alpha  occ. eigenvalues --   -1.44154  -1.36061  -1.20661  -1.15776  -1.05681
 Alpha  occ. eigenvalues --   -0.96001  -0.94788  -0.82257  -0.81561  -0.80522
 Alpha  occ. eigenvalues --   -0.73292  -0.71437  -0.69353  -0.67583  -0.65074
 Alpha  occ. eigenvalues --   -0.63640  -0.62358  -0.61153  -0.58825  -0.56916
 Alpha  occ. eigenvalues --   -0.54950  -0.54355  -0.54036  -0.52863  -0.51357
 Alpha  occ. eigenvalues --   -0.51137  -0.48382  -0.47698  -0.47091  -0.46454
 Alpha  occ. eigenvalues --   -0.42998  -0.37670  -0.36939  -0.34054  -0.33135
 Alpha  occ. eigenvalues --   -0.32513  -0.29004  -0.27623
 Alpha virt. eigenvalues --    0.02973   0.03519   0.04005   0.05105   0.05480
 Alpha virt. eigenvalues --    0.05919   0.06085   0.06575   0.07106   0.07611
 Alpha virt. eigenvalues --    0.08116   0.08636   0.09216   0.09506   0.10537

 Mulliken charges:
               1
     1  C   -1.587600
     2  C    5.840216
     3  C   -3.424696
     4  C   -3.095991
     5  C    5.839386
     6  C   -1.339435
     7  C    6.885151
     8  C   -5.013838
     9  H    1.519216
    10  H    1.254912
    11  H    1.158783
    12  H    0.905229
    13  H    3.089729
    14  H    0.692013
    15  H    0.956035
    16  H    1.523124
    17  H    1.198690
    18  H    1.226371
    19  H    1.770050
    20  H    2.960265
    21  H    0.538800
    22  H    0.500684
    23  N   -2.862541
    24  N   -3.179226
    25  O   -3.826675
    26  O   -3.090347
    27  O   -3.445196
    28  O   -3.463713
    29  O   -3.529398
 Sum of Mulliken charges =  -0.00000

 Dipole moment (field-independent basis, Debye):
    X=              4.2516    Y=             -1.1695    Z=              1.4480  Tot=              4.6412

 Test job not archived.
 1\1\GINC-SE079\SP\RHF\Aug-CC-pVDZ\C8H14N2O5\OHZDE\08-Apr-2025\0\\#t hf
  aug-cc-pvdz iop(5/13=1,5/36=2,99/5=2) pseudo=read geom=check guess=(r
 ead,tcheck) scf=(maxcycle=1)\\title\\0,1\C,0,0.550282,1.4505,-0.301021
 \C,0,-0.855872,1.86887,0.00574362\C,0,1.45028,1.16358,0.912245\C,0,2.7
 0371,0.38153,0.502752\C,0,2.53626,-1.09664,0.0205601\C,0,-1.47191,-0.5
 20212,0.569402\C,0,-2.08904,-1.3267,-0.531969\C,0,-2.12478,-0.997633,1
 .82707\H,0,-0.331313,-2.05241,-0.859755\H,0,-3.20002,-0.689778,1.67698
 \H,0,-1.68927,-0.665615,2.79431\H,0,-2.05866,-2.10965,1.83544\H,0,-0.4

 Normal termination of Gaussian 16 at Tue Apr  8 20:26:06 2025.
