 Gaussian 16, Revision C.01,

 ----------------------------------------------------------------------
 #t hf aug-cc-pvdz symm=none int=(grid=ultrafine) guess=(read,tcheck) s
 table=(opt,rrhf)
 ----------------------------------------------------------------------
 -----
 title
 -----
 Symbolic Z-matrix:
 Charge =  0 Multiplicity = 1

 SCF Done:  E(RHF) =  -963.574784737     A.U. after   15 cycles
 Normal termination of Gaussian 16 at Tue Apr  8 21:50:32 2025.
 Gaussian 16:  ES64L-G16RevC.01  3-Jul-2019

 ----------------------------------------------------------------------
 #t hf aug-cc-pvdz iop(5/13=1,5/36=2,99/5=2) pseudo=read geom=check gue
 ss=(read,tcheck) scf=(maxcycle=1)
 ----------------------------------------------------------------------
 -----
 title
 -----
 Structure from the checkpoint file:  "ANI1ccx_272_conf9_mol1.chk"
 Charge =  0 Multiplicity = 1

                         Standard orientation:
 ---------------------------------------------------------------------
 Center     Atomic      Atomic             Coordinates (Angstroms)
 Number     Number       Type             X           Y           Z
 ---------------------------------------------------------------------
      1          6           0        1.607370    1.555381   -0.663024
      2          6           0       -4.830010   -1.388609   -0.075068
      3          6           0       -2.425780   -1.668499   -0.970720
      4          6           0       -1.540150   -1.154779    0.146763
      5          6           0       -1.904160    1.368391    0.052057
      6          6           0       -0.966628    0.211712   -0.057775
      7          6           0       -3.769980   -0.970160   -1.108460
      8          6           0        4.287720   -0.773087   -0.611675
      9          6           0        2.907380   -0.712195   -0.611695
     10          6           0        2.062600    0.263531   -1.395000
     11          6           0        1.156010    1.216601    0.807422
     12          6           0        3.506750   -2.319230    0.784751
     13          1           0       -2.646790   -2.739739   -0.814409
     14          1           0       -2.812890    2.636921   -0.768502
     15          1           0       -4.490310    0.175125    1.096460
     16          1           0       -5.291260   -1.130589    1.863050
     17          1           0       -5.845660   -1.179439   -0.503572
     18          1           0       -4.812220   -2.458839   -0.120096
     19          1           0       -4.159340   -1.109489   -2.181350
     20          1           0       -3.606510    0.077721   -1.105310
     21          1           0       -1.917620   -1.610899   -1.939040
     22          1           0       -0.672741   -1.849199    0.182509
     23          1           0       -0.306999    0.524356    1.975320
     24          1           0       -0.600358    0.345081   -1.027810
     25          1           0        3.086290    2.504410    0.368143
     26          1           0       -2.036720   -1.166519    1.086890
     27          1           0        0.734243    1.945041   -1.201100
     28          1           0        2.565330    0.516802   -2.321160
     29          1           0        2.219720    3.425170   -0.639116
     30          1           0        4.987020   -0.177593   -1.252600
     31          1           0        3.349770   -3.135080    1.446360
     32          1           0        5.611970   -2.037410    0.436964
     33          1           0        1.192970   -0.352935   -1.598270
     34          7           0        2.656430    2.510650   -0.547144
     35          7           0        2.464430   -1.717980    0.239756
     36          7           0        4.642700   -1.739290    0.311810
     37          7           0       -0.008084    0.529975    1.005920
     38          7           0       -4.587770   -0.835308    1.180230
     39          8           0       -2.537760    1.574451    1.065700
     40          8           0        1.919840    1.548630    1.739650
     41          8           0       -2.040650    2.100221   -1.068210
 ---------------------------------------------------------------------

 SCF Done:  E(RHF) =  -968.028144284     A.U. after    2 cycles

 The electronic state is 1-A.
 Alpha  occ. eigenvalues --  -21.14585 -21.05915 -21.01024 -15.79683 -15.75810
 Alpha  occ. eigenvalues --  -15.71977 -15.71280 -15.70561 -11.57784 -11.51979
 Alpha  occ. eigenvalues --  -11.49886 -11.47417 -11.45040 -11.44874 -11.43164
 Alpha  occ. eigenvalues --  -11.42270 -11.41780 -11.39177 -11.37560 -11.36233
 Alpha  occ. eigenvalues --   -1.85398  -1.68333  -1.67004  -1.54988  -1.42306
 Alpha  occ. eigenvalues --   -1.35660  -1.34434  -1.25515  -1.22126  -1.14257
 Alpha  occ. eigenvalues --   -1.10846  -1.03816  -1.01101  -0.93464  -0.91044
 Alpha  occ. eigenvalues --   -0.84110  -0.83595  -0.79414  -0.78981  -0.76233
 Alpha  occ. eigenvalues --   -0.73405  -0.69920  -0.67723  -0.67130  -0.66741
 Alpha  occ. eigenvalues --   -0.64554  -0.63417  -0.63103  -0.60775  -0.59861
 Alpha  occ. eigenvalues --   -0.58218  -0.57610  -0.57397  -0.56332  -0.55369
 Alpha  occ. eigenvalues --   -0.55143  -0.52664  -0.52263  -0.51053  -0.48697
 Alpha  occ. eigenvalues --   -0.48158  -0.47344  -0.45414  -0.44627  -0.43665
 Alpha  occ. eigenvalues --   -0.43209  -0.42293  -0.36775  -0.35715  -0.35373
 Alpha  occ. eigenvalues --   -0.34022  -0.33382  -0.31548  -0.29774  -0.28329
 Alpha  occ. eigenvalues --   -0.27092
 Alpha virt. eigenvalues --    0.03643   0.04324   0.04563   0.04734   0.05023
 Alpha virt. eigenvalues --    0.05264   0.05380   0.05727   0.05811   0.06485
 Alpha virt. eigenvalues --    0.06606   0.07785   0.07912   0.08412   0.08514

 Mulliken charges:
               1
     1  C    1.111510
     2  C   -2.026225
     3  C   -3.792451
     4  C   -3.999484
     5  C    8.488214
     6  C   -1.467098
     7  C   -3.834955
     8  C   -3.239554
     9  C    6.332293
    10  C   -4.877134
    11  C    5.444470
    12  C    0.563546
    13  H    1.634368
    14  H    0.775025
    15  H    0.693482
    16  H    0.621285
    17  H    1.382487
    18  H    1.466054
    19  H    1.222187
    20  H    2.298273
    21  H    1.416026
    22  H    1.455916
    23  H    0.803565
    24  H    3.360665
    25  H    0.548393
    26  H    1.622292
    27  H    2.082935
    28  H    1.303949
    29  H    0.404238
    30  H    1.450687
    31  H    1.834797
    32  H    0.830937
    33  H    1.832340
    34  N   -3.495135
    35  N   -3.867827
    36  N   -3.268945
    37  N   -3.189192
    38  N   -2.434614
    39  O   -3.918991
    40  O   -3.806426
    41  O   -3.761904
 Sum of Mulliken charges =   0.00000

 Dipole moment (field-independent basis, Debye):
    X=              0.4226    Y=             -1.2750    Z=             -0.8047  Tot=              1.5658

 Test job not archived.
 1\1\GINC-SE072\SP\RHF\Aug-CC-pVDZ\C12H21N5O3\OHZDE\08-Apr-2025\0\\#t h
 f aug-cc-pvdz iop(5/13=1,5/36=2,99/5=2) pseudo=read geom=check guess=(
 read,tcheck) scf=(maxcycle=1)\\title\\0,1\C,0,1.60737,1.55538,-0.66302
 4\C,0,-4.83001,-1.38861,-0.0750688\C,0,-2.42578,-1.6685,-0.97072\C,0,-
 1.54015,-1.15478,0.146763\C,0,-1.90416,1.36839,0.052057\C,0,-0.966628,
 0.211711,-0.0577759\C,0,-3.76998,-0.970161,-1.10846\C,0,4.28772,-0.773
 087,-0.611675\C,0,2.90738,-0.712195,-0.611695\C,0,2.0626,0.263531,-1.3
 95\C,0,1.15601,1.2166,0.807422\C,0,3.50675,-2.31923,0.784751\H,0,-2.64

 Normal termination of Gaussian 16 at Tue Apr  8 21:52:00 2025.
