 Gaussian 16, Revision C.01,

 ----------------------------------------------------------------------
 #t hf aug-cc-pvdz symm=none int=(grid=ultrafine) guess=(read,tcheck) s
 table=(opt,rrhf)
 ----------------------------------------------------------------------
 -----
 title
 -----
 Symbolic Z-matrix:
 Charge =  0 Multiplicity = 1

 SCF Done:  E(RHF) =  -604.208382369     A.U. after   14 cycles
 Normal termination of Gaussian 16 at Tue Apr  8 22:13:10 2025.
 Gaussian 16:  ES64L-G16RevC.01  3-Jul-2019

 ----------------------------------------------------------------------
 #t hf aug-cc-pvdz iop(5/13=1,5/36=2,99/5=2) pseudo=read geom=check gue
 ss=(read,tcheck) scf=(maxcycle=1)
 ----------------------------------------------------------------------
 -----
 title
 -----
 Structure from the checkpoint file:  "ANI1ccx_934_conf8_mol1.chk"
 Charge =  0 Multiplicity = 1

                         Standard orientation:
 ---------------------------------------------------------------------
 Center     Atomic      Atomic             Coordinates (Angstroms)
 Number     Number       Type             X           Y           Z
 ---------------------------------------------------------------------
      1          6           0        0.563734   -1.007200    0.018850
      2          6           0       -0.729992   -0.510921   -0.740518
      3          6           0       -1.068070    0.826933   -0.136575
      4          6           0        1.583300    0.132798    0.009514
      5          1           0       -0.629277   -1.645140    1.402860
      6          1           0        0.823446   -1.907960   -0.564581
      7          1           0       -0.609309   -0.527448   -1.804100
      8          1           0       -2.556000   -1.080570   -0.489489
      9          1           0       -2.621370    1.848470    0.212104
     10          1           0        1.933130   -0.629187   -1.666230
     11          8           0        0.240582   -1.183290    1.345210
     12          8           0       -1.638800   -1.425730   -0.345831
     13          8           0       -2.325980    0.934978    0.174808
     14          8           0       -0.266130    1.737990   -0.020805
     15          8           0        2.258530    0.126614   -1.152210
     16          8           0        1.927490    0.720958    0.999054
 ---------------------------------------------------------------------

 SCF Done:  E(RHF) =  -606.729727055     A.U. after    2 cycles

 The electronic state is 1-A.
 Alpha  occ. eigenvalues --  -21.15903 -21.12385 -21.11027 -21.08186 -21.06476
 Alpha  occ. eigenvalues --  -21.03156 -11.55360 -11.53322 -11.51134 -11.45139
 Alpha  occ. eigenvalues --   -1.89592  -1.83052  -1.78887  -1.72465  -1.67823
 Alpha  occ. eigenvalues --   -1.64332  -1.15177  -1.00121  -0.86829  -0.79484
 Alpha  occ. eigenvalues --   -0.74732  -0.73617  -0.66453  -0.64936  -0.63858
 Alpha  occ. eigenvalues --   -0.60241  -0.56151  -0.51842  -0.51026  -0.49738
 Alpha  occ. eigenvalues --   -0.45441  -0.45202  -0.42356  -0.39659  -0.35994
 Alpha  occ. eigenvalues --   -0.34228  -0.32681  -0.28878  -0.28030
 Alpha virt. eigenvalues --    0.02717   0.03838   0.04212   0.05064   0.05884
 Alpha virt. eigenvalues --    0.06289   0.09161   0.11070   0.11424   0.11663
 Alpha virt. eigenvalues --    0.11971   0.13197   0.13731   0.14150   0.14671

 Mulliken charges:
               1
     1  C   -0.084050
     2  C   -0.389102
     3  C    6.624025
     4  C    7.043598
     5  H    0.655871
     6  H    1.400919
     7  H    1.664005
     8  H    0.800484
     9  H    0.827870
    10  H    1.004591
    11  O   -3.270898
    12  O   -3.375688
    13  O   -3.192984
    14  O   -3.016737
    15  O   -3.345419
    16  O   -3.346485
 Sum of Mulliken charges =   0.00000

 Dipole moment (field-independent basis, Debye):
    X=             -3.0106    Y=             -0.9438    Z=             -1.4699  Tot=              3.4807

 Test job not archived.
 1\1\GINC-SE342\SP\RHF\Aug-CC-pVDZ\C4H6O6\OHZDE\08-Apr-2025\0\\#t hf au
 g-cc-pvdz iop(5/13=1,5/36=2,99/5=2) pseudo=read geom=check guess=(read
 ,tcheck) scf=(maxcycle=1)\\title\\0,1\C,0,0.563734,-1.0072,0.0188494\C
 ,0,-0.729992,-0.510921,-0.740518\C,0,-1.06807,0.826933,-0.136575\C,0,1
 .5833,0.132798,0.00951406\H,0,-0.629277,-1.64514,1.40286\H,0,0.823446,
 -1.90796,-0.564581\H,0,-0.609309,-0.527448,-1.8041\H,0,-2.556,-1.08057
 ,-0.489489\H,0,-2.62137,1.84847,0.212104\H,0,1.93313,-0.629187,-1.6662
 3\O,0,0.240582,-1.18329,1.34521\O,0,-1.6388,-1.42573,-0.345831\O,0,-2.

 Normal termination of Gaussian 16 at Tue Apr  8 22:13:17 2025.
