 Gaussian 16, Revision C.01,

 ----------------------------------------------------------------------
 #t hf aug-cc-pvdz symm=none int=(grid=ultrafine) guess=(read,tcheck) s
 table=(opt,rrhf)
 ----------------------------------------------------------------------
 -----
 title
 -----
 Symbolic Z-matrix:
 Charge =  0 Multiplicity = 1

 SCF Done:  E(RHF) =  -507.437564534     A.U. after   16 cycles
 Normal termination of Gaussian 16 at Tue Apr  8 19:57:03 2025.
 Gaussian 16:  ES64L-G16RevC.01  3-Jul-2019

 ----------------------------------------------------------------------
 #t hf aug-cc-pvdz iop(5/13=1,5/36=2,99/5=2) pseudo=read geom=check gue
 ss=(read,tcheck) scf=(maxcycle=1)
 ----------------------------------------------------------------------
 -----
 title
 -----
 Structure from the checkpoint file:  "ANI1ccx_1510_conf2_mol1.chk"
 Charge =  0 Multiplicity = 1

                         Standard orientation:
 ---------------------------------------------------------------------
 Center     Atomic      Atomic             Coordinates (Angstroms)
 Number     Number       Type             X           Y           Z
 ---------------------------------------------------------------------
      1          6           0        2.227890   -0.213135    0.032578
      2          6           0        0.149552   -0.561836    0.007104
      3          6           0       -1.153250   -1.142890    0.008693
      4          6           0       -2.199940   -0.281307   -0.007226
      5          6           0       -2.031920    1.114240    0.002381
      6          6           0       -0.794820    1.706951   -0.012780
      7          6           0        0.323606    0.804136   -0.019308
      8          1           0        2.145300    1.824731   -0.255213
      9          1           0       -0.703673    2.784051    0.130202
     10          1           0       -2.942220    1.705740   -0.013334
     11          1           0        4.182490    0.222625    0.505370
     12          1           0       -1.221189   -2.227650    0.031477
     13          1           0        3.906120   -1.333208    0.022116
     14          1           0       -3.445489   -1.689050    0.005032
     15          7           0        1.655470    0.987351    0.027469
     16          7           0        3.618350   -0.365113   -0.095825
     17          7           0        1.413030   -1.194889    0.001103
     18          8           0       -3.482000   -0.729455   -0.002941
 ---------------------------------------------------------------------

 SCF Done:  E(RHF) =  -509.748931941     A.U. after    2 cycles

 The electronic state is 1-A.
 Alpha  occ. eigenvalues --  -21.09104 -15.79011 -15.77416 -15.70356 -11.51825
 Alpha  occ. eigenvalues --  -11.47612 -11.45205 -11.43789 -11.42237 -11.40111
 Alpha  occ. eigenvalues --  -11.36671  -1.75454  -1.60750  -1.35014  -1.29139
 Alpha  occ. eigenvalues --   -1.24847  -1.08055  -1.04352  -0.89242  -0.84603
 Alpha  occ. eigenvalues --   -0.82719  -0.73412  -0.70325  -0.66818  -0.64720
 Alpha  occ. eigenvalues --   -0.63347  -0.59320  -0.56508  -0.55509  -0.52756
 Alpha  occ. eigenvalues --   -0.50563  -0.47076  -0.45444  -0.41628  -0.40024
 Alpha  occ. eigenvalues --   -0.38314  -0.37404  -0.28640  -0.24217
 Alpha virt. eigenvalues --    0.03152   0.04266   0.05010   0.05966   0.06640
 Alpha virt. eigenvalues --    0.06885   0.07401   0.09821   0.10469   0.11476
 Alpha virt. eigenvalues --    0.11684   0.12350   0.12983   0.13516   0.14139

 Mulliken charges:
               1
     1  C    4.922962
     2  C    3.112128
     3  C   -3.225469
     4  C    5.892182
     5  C   -2.475303
     6  C   -2.242986
     7  C    1.836142
     8  H    0.728212
     9  H    1.557201
    10  H    1.710337
    11  H    0.585033
    12  H    1.702985
    13  H    0.614162
    14  H    1.102649
    15  N   -3.916481
    16  N   -3.110907
    17  N   -4.156443
    18  O   -4.636404
 Sum of Mulliken charges =  -0.00000

 Dipole moment (field-independent basis, Debye):
    X=              2.2479    Y=              2.0157    Z=              0.6428  Tot=              3.0869

 Test job not archived.
 1\1\GINC-SE081\SP\RHF\Aug-CC-pVDZ\C7H7N3O1\OHZDE\08-Apr-2025\0\\#t hf
 aug-cc-pvdz iop(5/13=1,5/36=2,99/5=2) pseudo=read geom=check guess=(re
 ad,tcheck) scf=(maxcycle=1)\\title\\0,1\C,0,2.22789,-0.213136,0.032578
 4\C,0,0.149552,-0.561837,0.00710361\C,0,-1.15325,-1.14289,0.0086932\C,
 0,-2.19994,-0.281307,-0.00722554\C,0,-2.03192,1.11424,0.00238065\C,0,-
 0.79482,1.70695,-0.0127802\C,0,0.323606,0.804135,-0.0193083\H,0,2.1453
 ,1.82473,-0.255213\H,0,-0.703672,2.78405,0.130202\H,0,-2.94222,1.70574
 ,-0.0133339\H,0,4.18249,0.222623,0.50537\H,0,-1.22119,-2.22765,0.03147

 Normal termination of Gaussian 16 at Tue Apr  8 19:57:13 2025.
