 Gaussian 16, Revision C.01,

 ----------------------------------------------------------------------
 #t hf aug-cc-pvdz symm=none int=(grid=ultrafine) guess=(read,tcheck) s
 table=(opt,rrhf)
 ----------------------------------------------------------------------
 -----
 title
 -----
 Symbolic Z-matrix:
 Charge =  0 Multiplicity = 1

 SCF Done:  E(RHF) =  -529.681404953     A.U. after   15 cycles
 Normal termination of Gaussian 16 at Tue Apr  8 19:22:20 2025.
 Gaussian 16:  ES64L-G16RevC.01  3-Jul-2019

 ----------------------------------------------------------------------
 #t hf aug-cc-pvdz iop(5/13=1,5/36=2,99/5=2) pseudo=read geom=check gue
 ss=(read,tcheck) scf=(maxcycle=1)
 ----------------------------------------------------------------------
 -----
 title
 -----
 Structure from the checkpoint file:  "ANI1ccx_1029_conf4_mol2.chk"
 Charge =  0 Multiplicity = 1

                         Standard orientation:
 ---------------------------------------------------------------------
 Center     Atomic      Atomic             Coordinates (Angstroms)
 Number     Number       Type             X           Y           Z
 ---------------------------------------------------------------------
      1          6           0        3.456500   -0.201836   -0.056961
      2          6           0        2.051550   -0.813944   -0.178129
      3          6           0        0.847014    1.301769    0.068110
      4          6           0       -0.518461    1.882398    0.326659
      5          6           0       -1.602641    1.305688   -0.585760
      6          1           0       -1.558942    1.831298   -1.550890
      7          1           0       -2.640651    1.288347   -0.139035
      8          1           0       -0.577401    3.039948    0.254240
      9          1           0       -0.840332    1.660358    1.349060
     10          1           0        1.699808    1.889260    0.470680
     11          1           0        0.981457    1.384169   -1.023340
     12          1           0        1.029740   -0.132739    1.482350
     13          1           0        2.118991   -1.841250    0.119039
     14          1           0        1.780570   -0.905219   -1.255960
     15          1           0        3.456119    0.894329   -0.244453
     16          1           0        4.098330   -0.584069   -0.824401
     17          1           0        3.890820   -0.344873    0.893530
     18          7           0        1.017949   -0.083695    0.488325
     19          7           0       -1.498800   -0.947651    0.067282
     20          8           0       -1.417901   -0.074340   -0.922268
     21          8           0       -1.063089   -2.034232   -0.307822
     22          8           0       -1.953550   -0.617003    1.122140
 ---------------------------------------------------------------------

 SCF Done:  E(RHF) =  -532.090305579     A.U. after    2 cycles

 The electronic state is 1-A.
 Alpha  occ. eigenvalues --  -21.12772 -21.10905 -21.08063 -16.04139 -15.70949
 Alpha  occ. eigenvalues --  -11.48106 -11.44829 -11.41100 -11.38751 -11.35242
 Alpha  occ. eigenvalues --   -2.10197  -1.77186  -1.71336  -1.40183  -1.19247
 Alpha  occ. eigenvalues --   -1.09580  -1.01006  -0.91805  -0.86208  -0.81874
 Alpha  occ. eigenvalues --   -0.74254  -0.72680  -0.69191  -0.66239  -0.64120
 Alpha  occ. eigenvalues --   -0.62877  -0.59823  -0.57252  -0.55410  -0.51764
 Alpha  occ. eigenvalues --   -0.50371  -0.48712  -0.48142  -0.46208  -0.44031
 Alpha  occ. eigenvalues --   -0.37592  -0.35681  -0.31966  -0.30959  -0.30123
 Alpha virt. eigenvalues --    0.03792   0.04501   0.04900   0.05261   0.05516
 Alpha virt. eigenvalues --    0.05662   0.06383   0.07156   0.07328   0.07757
 Alpha virt. eigenvalues --    0.08555   0.09041   0.11202   0.12555   0.13594

 Mulliken charges:
               1
     1  C   -3.838452
     2  C   -2.263032
     3  C   -2.367415
     4  C   -3.113119
     5  C   -1.593534
     6  H    1.425733
     7  H    1.520289
     8  H    1.101169
     9  H    1.586742
    10  H    1.590425
    11  H    1.751378
    12  H    0.717730
    13  H    1.470591
    14  H    1.661468
    15  H    1.273056
    16  H    1.162008
    17  H    1.323014
    18  N   -1.969474
    19  N    8.673537
    20  O   -3.588635
    21  O   -3.181351
    22  O   -3.342129
 Sum of Mulliken charges =   0.00000

 Dipole moment (field-independent basis, Debye):
    X=              1.1156    Y=              2.1554    Z=             -0.1904  Tot=              2.4345

 Test job not archived.
 1\1\GINC-SE016\SP\RHF\Aug-CC-pVDZ\C5H12N2O3\OHZDE\08-Apr-2025\0\\#t hf
  aug-cc-pvdz iop(5/13=1,5/36=2,99/5=2) pseudo=read geom=check guess=(r
 ead,tcheck) scf=(maxcycle=1)\\title\\0,1\C,0,3.4565,-0.201837,-0.05696
 08\C,0,2.05155,-0.813944,-0.178129\C,0,0.847015,1.30177,0.0681095\C,0,
 -0.518459,1.8824,0.326659\C,0,-1.60264,1.30569,-0.58576\H,0,-1.55894,1
 .8313,-1.55089\H,0,-2.64065,1.28835,-0.139035\H,0,-0.577398,3.03995,0.
 25424\H,0,-0.84033,1.66036,1.34906\H,0,1.69981,1.88926,0.47068\H,0,0.9
 81459,1.38417,-1.02334\H,0,1.02974,-0.132739,1.48235\H,0,2.11899,-1.84

 Normal termination of Gaussian 16 at Tue Apr  8 19:22:32 2025.
