 Gaussian 16, Revision C.01,

 ----------------------------------------------------------------------
 #t hf aug-cc-pvdz symm=none int=(grid=ultrafine) guess=(read,tcheck) s
 table=(opt,rrhf)
 ----------------------------------------------------------------------
 -----
 title
 -----
 Symbolic Z-matrix:
 Charge =  0 Multiplicity = 1

 SCF Done:  E(RHF) =  -276.583506450     A.U. after   14 cycles
 Normal termination of Gaussian 16 at Tue Apr  8 21:32:33 2025.
 Gaussian 16:  ES64L-G16RevC.01  3-Jul-2019

 ----------------------------------------------------------------------
 #t hf aug-cc-pvdz iop(5/13=1,5/36=2,99/5=2) pseudo=read geom=check gue
 ss=(read,tcheck) scf=(maxcycle=1)
 ----------------------------------------------------------------------
 -----
 title
 -----
 Structure from the checkpoint file:  "ANI1ccx_370_conf94_mol1.chk"
 Charge =  0 Multiplicity = 1

                         Standard orientation:
 ---------------------------------------------------------------------
 Center     Atomic      Atomic             Coordinates (Angstroms)
 Number     Number       Type             X           Y           Z
 ---------------------------------------------------------------------
      1          6           0       -0.971226   -0.389112   -0.003131
      2          1           0       -2.005670   -0.805387    0.063777
      3          7           0       -0.824325    0.880342    0.002400
      4          7           0        0.587494    0.962184   -0.013462
      5          7           0        1.173119   -0.169180    0.024488
      6          8           0        0.159876   -1.071670   -0.017372
 ---------------------------------------------------------------------

 SCF Done:  E(RHF) =  -277.749753022     A.U. after    2 cycles

 The electronic state is 1-A.
 Alpha  occ. eigenvalues --  -21.18480 -15.86689 -15.83183 -15.79934 -11.50347
 Alpha  occ. eigenvalues --   -2.01134  -1.53121  -1.35267  -0.92436  -0.89281
 Alpha  occ. eigenvalues --   -0.76039  -0.70313  -0.58132  -0.50961  -0.46384
 Alpha  occ. eigenvalues --   -0.44452  -0.42534  -0.41866
 Alpha virt. eigenvalues --    0.03204   0.08972   0.09414   0.09910   0.13188
 Alpha virt. eigenvalues --    0.13921   0.14305   0.14528   0.16139   0.17075
 Alpha virt. eigenvalues --    0.18754   0.19896   0.20505   0.22523   0.24608

 Mulliken charges:
               1
     1  C    1.512871
     2  H    1.605379
     3  N   -1.773164
     4  N    0.713242
     5  N    0.600221
     6  O   -2.658550
 Sum of Mulliken charges =  -0.00000

 Dipole moment (field-independent basis, Debye):
    X=             -1.7607    Y=             -2.3959    Z=              0.0352  Tot=              2.9735

 Test job not archived.
 1\1\GINC-SE455\SP\RHF\Aug-CC-pVDZ\C1H1N3O1\OHZDE\08-Apr-2025\0\\#t hf
 aug-cc-pvdz iop(5/13=1,5/36=2,99/5=2) pseudo=read geom=check guess=(re
 ad,tcheck) scf=(maxcycle=1)\\title\\0,1\C,0,-0.971225,-0.38911,-0.0031
 3139\H,0,-2.00567,-0.805384,0.0637769\N,0,-0.824323,0.880343,0.0023998
 \N,0,0.587496,0.962183,-0.0134617\N,0,1.17312,-0.169181,0.0244885\O,0,
 0.159876,-1.07167,-0.0173718\\Version=ES64L-G16RevC.01\State=1-A\HF=-2
 77.749753\RMSD=9.232e-02\Dipole=-0.6927252,-0.9426331,0.0138469\Quadru
 pole=0.8641621,-1.6430994,0.7789374,1.5952743,-0.1012401,-0.026642\PG=

 Normal termination of Gaussian 16 at Tue Apr  8 21:32:35 2025.
