 Gaussian 16, Revision C.01,

 ----------------------------------------------------------------------
 #t hf aug-cc-pvdz symm=none int=(grid=ultrafine) guess=(read,tcheck) s
 table=(opt,rrhf)
 ----------------------------------------------------------------------
 -----
 title
 -----
 Symbolic Z-matrix:
 Charge =  0 Multiplicity = 1

 SCF Done:  E(RHF) =  -205.849576643     A.U. after   15 cycles
 Normal termination of Gaussian 16 at Tue Apr  8 21:12:18 2025.
 Gaussian 16:  ES64L-G16RevC.01  3-Jul-2019

 ----------------------------------------------------------------------
 #t hf aug-cc-pvdz iop(5/13=1,5/36=2,99/5=2) pseudo=read geom=check gue
 ss=(read,tcheck) scf=(maxcycle=1)
 ----------------------------------------------------------------------
 -----
 title
 -----
 Structure from the checkpoint file:  "ANI1ccx_1869_conf27_mol1.chk"
 Charge =  0 Multiplicity = 1

                         Standard orientation:
 ---------------------------------------------------------------------
 Center     Atomic      Atomic             Coordinates (Angstroms)
 Number     Number       Type             X           Y           Z
 ---------------------------------------------------------------------
      1          1           0        2.341290   -0.228951    0.937954
      2          1           0       -2.868050    0.617683    0.482806
      3          1           0       -1.637840    0.111079   -0.278786
      4          7           0        1.978430   -0.322809   -0.067923
      5          8           0        1.047810    0.399814   -0.070269
      6          8           0       -2.508360   -0.179832   -0.013045
 ---------------------------------------------------------------------

 SCF Done:  E(RHF) =  -206.708222957     A.U. after    2 cycles

 The electronic state is 1-A.
 Alpha  occ. eigenvalues --  -21.15800 -21.08938 -15.89438  -1.89666  -1.64372
 Alpha  occ. eigenvalues --   -1.03176  -0.69312  -0.61511  -0.57073  -0.54462
 Alpha  occ. eigenvalues --   -0.46015  -0.34487  -0.30604
 Alpha virt. eigenvalues --    0.03824   0.05156   0.08443   0.10677   0.12978
 Alpha virt. eigenvalues --    0.15334   0.17485   0.18900   0.19644   0.22918
 Alpha virt. eigenvalues --    0.23445   0.24231   0.25007   0.26721   0.28786

 Mulliken charges:
               1
     1  H    0.764438
     2  H    0.820867
     3  H    0.993157
     4  N    0.818135
     5  O   -1.567017
     6  O   -1.829580
 Sum of Mulliken charges =   0.00000

 Dipole moment (field-independent basis, Debye):
    X=              0.8990    Y=              1.0935    Z=              1.2209  Tot=              1.8694

 Test job not archived.
 1\1\GINC-SE220\SP\RHF\Aug-CC-pVDZ\H3N1O2\OHZDE\08-Apr-2025\0\\#t hf au
 g-cc-pvdz iop(5/13=1,5/36=2,99/5=2) pseudo=read geom=check guess=(read
 ,tcheck) scf=(maxcycle=1)\\title\\0,1\H,0,2.34129,-0.228951,0.937954\H
 ,0,-2.86805,0.617683,0.482806\H,0,-1.63784,0.111079,-0.278786\N,0,1.97
 843,-0.322809,-0.0679225\O,0,1.04781,0.399814,-0.0702693\O,0,-2.50836,
 -0.179832,-0.0130452\\Version=ES64L-G16RevC.01\State=1-A\HF=-206.70822
 3\RMSD=5.248e-02\Dipole=0.3536799,0.4302237,0.4803325\Quadrupole=-0.13
 95513,0.2687459,-0.1291946,-1.0053199,0.6115602,-0.0051352\PG=C01 [X(H

 Normal termination of Gaussian 16 at Tue Apr  8 21:12:20 2025.
