 Gaussian 16, Revision C.01,

 ----------------------------------------------------------------------
 #t hf aug-cc-pvdz symm=none int=(grid=ultrafine) guess=(read,tcheck) s
 table=(opt,rrhf)
 ----------------------------------------------------------------------
 -----
 title
 -----
 Symbolic Z-matrix:
 Charge =  0 Multiplicity = 1

 SCF Done:  E(RHF) =  -281.804245036     A.U. after   14 cycles
 Normal termination of Gaussian 16 at Tue Apr  8 21:13:21 2025.
 Gaussian 16:  ES64L-G16RevC.01  3-Jul-2019

 ----------------------------------------------------------------------
 #t hf aug-cc-pvdz iop(5/13=1,5/36=2,99/5=2) pseudo=read geom=check gue
 ss=(read,tcheck) scf=(maxcycle=1)
 ----------------------------------------------------------------------
 -----
 title
 -----
 Structure from the checkpoint file:  "ANI1ccx_1889_conf3_mol1.chk"
 Charge =  0 Multiplicity = 1

                         Standard orientation:
 ---------------------------------------------------------------------
 Center     Atomic      Atomic             Coordinates (Angstroms)
 Number     Number       Type             X           Y           Z
 ---------------------------------------------------------------------
      1          1           0        0.404211   -0.904473   -0.331199
      2          1           0        1.515668    0.511168    1.225200
      3          1           0        2.360408    0.901388   -0.171299
      4          1           0       -1.943301   -0.535886    0.926471
      5          1           0       -0.645212    1.218560    0.000034
      6          7           0        1.411478    0.618442    0.172343
      7          8           0        1.378929   -0.726441   -0.241712
      8          8           0       -1.370691   -0.690522    0.154813
      9          8           0       -1.454752    0.726982   -0.270053
 ---------------------------------------------------------------------

 SCF Done:  E(RHF) =  -282.977794078     A.U. after    2 cycles

 The electronic state is 1-A.
 Alpha  occ. eigenvalues --  -21.14033 -21.11606 -21.06784 -15.78211  -1.90362
 Alpha  occ. eigenvalues --   -1.75659  -1.42435  -1.14417  -0.68464  -0.64437
 Alpha  occ. eigenvalues --   -0.62421  -0.55053  -0.54223  -0.46577  -0.40225
 Alpha  occ. eigenvalues --   -0.34038  -0.32840  -0.30466
 Alpha virt. eigenvalues --    0.03942   0.05104   0.06047   0.06642   0.08333
 Alpha virt. eigenvalues --    0.14062   0.16372   0.17613   0.18563   0.19114
 Alpha virt. eigenvalues --    0.20073   0.21924   0.22775   0.23347   0.23640

 Mulliken charges:
               1
     1  H    1.184398
     2  H    0.661539
     3  H    0.764419
     4  H    1.058136
     5  H    1.130985
     6  N   -0.259464
     7  O   -2.231717
     8  O   -1.184583
     9  O   -1.123714
 Sum of Mulliken charges =   0.00000

 Dipole moment (field-independent basis, Debye):
    X=              0.4687    Y=              0.2305    Z=              1.4922  Tot=              1.5810

 Test job not archived.
 1\1\GINC-SE366\SP\RHF\Aug-CC-pVDZ\H5N1O3\OHZDE\08-Apr-2025\0\\#t hf au
 g-cc-pvdz iop(5/13=1,5/36=2,99/5=2) pseudo=read geom=check guess=(read
 ,tcheck) scf=(maxcycle=1)\\title\\0,1\H,0,0.404212,-0.904473,-0.331199
 \H,0,1.51567,0.511167,1.2252\H,0,2.36041,0.901387,-0.171299\H,0,-1.943
 3,-0.535885,0.926471\H,0,-0.64521,1.21856,0.00003425\N,0,1.41148,0.618
 441,0.172343\O,0,1.37893,-0.726442,-0.241712\O,0,-1.37069,-0.690521,0.
 154813\O,0,-1.45475,0.726983,-0.270053\\Version=ES64L-G16RevC.01\State
 =1-A\HF=-282.9777941\RMSD=3.168e-02\Dipole=0.1844055,0.0907049,0.58708

 Normal termination of Gaussian 16 at Tue Apr  8 21:13:23 2025.
