 Gaussian 16, Revision C.01,

 ----------------------------------------------------------------------
 #t hf aug-cc-pvdz symm=none int=(grid=ultrafine) guess=(read,tcheck) s
 table=(opt,rrhf)
 ----------------------------------------------------------------------
 -----
 title
 -----
 Symbolic Z-matrix:
 Charge =  0 Multiplicity = 1

 SCF Done:  E(RHF) =  -962.224259062     A.U. after   14 cycles
 Normal termination of Gaussian 16 at Tue Apr  8 21:06:48 2025.
 Gaussian 16:  ES64L-G16RevC.01  3-Jul-2019

 ----------------------------------------------------------------------
 #t hf aug-cc-pvdz iop(5/13=1,5/36=2,99/5=2) pseudo=read geom=check gue
 ss=(read,tcheck) scf=(maxcycle=1)
 ----------------------------------------------------------------------
 -----
 title
 -----
 Structure from the checkpoint file:  "ANI1ccx_1756_conf23_mol1.chk"
 Charge =  0 Multiplicity = 1

                         Standard orientation:
 ---------------------------------------------------------------------
 Center     Atomic      Atomic             Coordinates (Angstroms)
 Number     Number       Type             X           Y           Z
 ---------------------------------------------------------------------
      1          6           0       -0.634162   -1.515550    0.035333
      2          6           0        0.198238   -1.320809    1.228730
      3          6           0       -2.143368   -1.788122    0.309770
      4          6           0       -2.927648   -1.059513   -0.748763
      5          6           0       -2.957420    0.427608   -0.552880
      6          6           0        1.736940    0.415989    0.022645
      7          6           0        2.984981   -0.163656   -0.723168
      8          6           0        1.858188    1.909242    0.466475
      9          6           0        0.368724    2.324471    0.386275
     10          1           0        1.913142   -1.774758   -1.139030
     11          1           0       -1.145892    2.572109    1.259480
     12          1           0        2.434228    2.437143   -0.279654
     13          1           0        2.305088    1.852353    1.474310
     14          1           0        0.964815    0.323833   -0.700629
     15          1           0        1.877761   -0.704742    1.858140
     16          1           0       -2.631752    2.111797   -1.619820
     17          1           0       -2.810760    0.698239   -2.591660
     18          1           0       -2.569468   -1.207353   -1.800850
     19          1           0       -3.965578   -1.338324   -0.780627
     20          1           0       -2.517638   -1.670172    1.301120
     21          1           0       -2.317906   -2.820902    0.183923
     22          1           0       -0.581906   -0.616160   -0.537733
     23          1           0       -0.117767   -2.812800   -1.565520
     24          1           0        0.414137   -3.338509   -0.124913
     25          7           0        0.313443   -2.414209   -0.722140
     26          7           0       -2.746841    1.132987   -1.661680
     27          7           0        1.242351   -0.464774    1.145840
     28          8           0        0.070382   -2.063740    2.200940
     29          8           0       -3.107901    0.877482    0.557895
     30          8           0        3.981000    0.523158   -0.921444
     31          8           0       -0.292860    2.316190   -0.683026
     32          8           0       -0.230964    2.644190    1.502960
     33          8           0        2.852842   -1.405747   -1.259470
 ---------------------------------------------------------------------

 SCF Done:  E(RHF) =  -966.462295166     A.U. after    2 cycles

 The electronic state is 1-A.
 Alpha  occ. eigenvalues --  -21.14703 -21.10064 -21.05591 -21.05490 -21.03641
 Alpha  occ. eigenvalues --  -21.03248 -15.79259 -15.78957 -15.78386 -11.56692
 Alpha  occ. eigenvalues --  -11.55968 -11.55526 -11.52593 -11.50433 -11.49349
 Alpha  occ. eigenvalues --  -11.45418 -11.44817 -11.40985  -1.86197  -1.79940
 Alpha  occ. eigenvalues --   -1.72823  -1.72117  -1.65106  -1.64388  -1.43690
 Alpha  occ. eigenvalues --   -1.38165  -1.36514  -1.21316  -1.19156  -1.06247
 Alpha  occ. eigenvalues --   -1.01660  -0.96362  -0.82341  -0.82017  -0.81137
 Alpha  occ. eigenvalues --   -0.80161  -0.74447  -0.72268  -0.72129  -0.69122
 Alpha  occ. eigenvalues --   -0.67256  -0.66275  -0.64794  -0.63363  -0.62512
 Alpha  occ. eigenvalues --   -0.60107  -0.58930  -0.57571  -0.56265  -0.53961
 Alpha  occ. eigenvalues --   -0.53732  -0.52286  -0.51298  -0.50874  -0.50197
 Alpha  occ. eigenvalues --   -0.48929  -0.47261  -0.46543  -0.46188  -0.44697
 Alpha  occ. eigenvalues --   -0.39282  -0.34772  -0.34356  -0.33576  -0.33172
 Alpha  occ. eigenvalues --   -0.31893  -0.30262  -0.29661  -0.28366
 Alpha virt. eigenvalues --    0.02613   0.03517   0.04088   0.04687   0.05584
 Alpha virt. eigenvalues --    0.05835   0.06219   0.06598   0.06770   0.06863
 Alpha virt. eigenvalues --    0.07523   0.08242   0.08904   0.09084   0.09413

 Mulliken charges:
               1
     1  C    0.297819
     2  C    7.020801
     3  C   -3.435357
     4  C   -4.402001
     5  C    6.266420
     6  C   -2.860029
     7  C    5.964123
     8  C   -5.805814
     9  C    7.843551
    10  H    1.855705
    11  H    0.734424
    12  H    1.453478
    13  H    1.417876
    14  H    3.401377
    15  H    0.562939
    16  H    0.904265
    17  H    0.729271
    18  H    1.447648
    19  H    1.564166
    20  H    1.361333
    21  H    1.201019
    22  H    2.120488
    23  H    0.690072
    24  H    0.462428
    25  N   -3.516625
    26  N   -3.450975
    27  N   -2.160292
    28  O   -3.926892
    29  O   -3.620025
    30  O   -3.255423
    31  O   -3.440340
    32  O   -3.630237
    33  O   -3.795194
 Sum of Mulliken charges =   0.00000

 Dipole moment (field-independent basis, Debye):
    X=             -2.9313    Y=             -1.0279    Z=             -2.2689  Tot=              3.8467

 Test job not archived.
 1\1\GINC-SE250\SP\RHF\Aug-CC-pVDZ\C9H15N3O6\OHZDE\08-Apr-2025\0\\#t hf
  aug-cc-pvdz iop(5/13=1,5/36=2,99/5=2) pseudo=read geom=check guess=(r
 ead,tcheck) scf=(maxcycle=1)\\title\\0,1\C,0,-0.634164,-1.51555,0.0353
 329\C,0,0.198236,-1.32081,1.22873\C,0,-2.14337,-1.78812,0.30977\C,0,-2
 .92765,-1.05951,-0.748763\C,0,-2.95742,0.427611,-0.55288\C,0,1.73694,0
 .415987,0.0226455\C,0,2.98498,-0.16366,-0.723168\C,0,1.85819,1.90924,0
 .466475\C,0,0.368726,2.32447,0.386275\H,0,1.91314,-1.77476,-1.13903\H,
 0,-1.14589,2.57211,1.25948\H,0,2.43423,2.43714,-0.279654\H,0,2.30509,1

 Normal termination of Gaussian 16 at Tue Apr  8 21:07:41 2025.
