 Gaussian 16, Revision C.01,

 ----------------------------------------------------------------------
 #t hf aug-cc-pvdz symm=none int=(grid=ultrafine) guess=(read,tcheck) s
 table=(opt,rrhf)
 ----------------------------------------------------------------------
 -----
 title
 -----
 Symbolic Z-matrix:
 Charge =  0 Multiplicity = 1

 SCF Done:  E(RHF) =  -689.333451739     A.U. after   14 cycles
 Normal termination of Gaussian 16 at Tue Apr  8 21:57:43 2025.
 Gaussian 16:  ES64L-G16RevC.01  3-Jul-2019

 ----------------------------------------------------------------------
 #t hf aug-cc-pvdz iop(5/13=1,5/36=2,99/5=2) pseudo=read geom=check gue
 ss=(read,tcheck) scf=(maxcycle=1)
 ----------------------------------------------------------------------
 -----
 title
 -----
 Structure from the checkpoint file:  "ANI1ccx_756_conf6_mol1.chk"
 Charge =  0 Multiplicity = 1

                         Standard orientation:
 ---------------------------------------------------------------------
 Center     Atomic      Atomic             Coordinates (Angstroms)
 Number     Number       Type             X           Y           Z
 ---------------------------------------------------------------------
      1          6           0       -2.706700   -0.129279   -0.143549
      2          6           0        0.006742    1.289140    0.496410
      3          6           0        1.926050    0.127310    0.054823
      4          1           0        3.738690    0.783106    0.926097
      5          1           0       -0.498757    1.742600    1.334310
      6          1           0       -0.367610    0.346417   -1.117790
      7          1           0        3.486600   -0.865364   -1.202370
      8          1           0       -2.728860   -1.957550    0.573878
      9          1           0       -0.177051   -1.481840    0.379060
     10          1           0       -2.623430    1.757480   -0.797262
     11          7           0       -2.030950   -1.365750    0.089542
     12          7           0       -2.111990    1.084450   -0.300821
     13          7           0       -0.715627    1.139200   -0.610356
     14          7           0        1.256090    1.085701    0.704590
     15          7           0        3.250380    0.155222    0.322737
     16          8           0        1.486560   -0.765200   -0.678753
     17          8           0       -0.916672   -1.226450    0.964642
     18          8           0       -3.909580   -0.216165   -0.292091
     19          8           0        4.124510   -0.634639   -0.491532
 ---------------------------------------------------------------------

 SCF Done:  E(RHF) =  -692.274881773     A.U. after    2 cycles

 The electronic state is 1-A.
 Alpha  occ. eigenvalues --  -21.11699 -21.11284 -21.04744 -21.04413 -15.83450
 Alpha  occ. eigenvalues --  -15.82827 -15.81568 -15.80477 -15.74157 -11.53117
 Alpha  occ. eigenvalues --  -11.52745 -11.50902  -1.81841  -1.81128  -1.73990
 Alpha  occ. eigenvalues --   -1.71508  -1.58785  -1.42528  -1.28978  -1.24428
 Alpha  occ. eigenvalues --   -1.20567  -0.96361  -0.89491  -0.85037  -0.76109
 Alpha  occ. eigenvalues --   -0.74430  -0.69531  -0.66085  -0.64889  -0.64517
 Alpha  occ. eigenvalues --   -0.62900  -0.60374  -0.59288  -0.57048  -0.53427
 Alpha  occ. eigenvalues --   -0.50626  -0.47652  -0.45219  -0.42978  -0.39772
 Alpha  occ. eigenvalues --   -0.38350  -0.36250  -0.33725  -0.32020  -0.31104
 Alpha  occ. eigenvalues --   -0.28032
 Alpha virt. eigenvalues --    0.03805   0.05029   0.05384   0.05930   0.06056
 Alpha virt. eigenvalues --    0.07149   0.08126   0.08832   0.09556   0.11119
 Alpha virt. eigenvalues --    0.12015   0.12593   0.12809   0.13677   0.14006

 Mulliken charges:
               1
     1  C    5.300296
     2  C    1.597122
     3  C    5.533209
     4  H    0.850721
     5  H    2.034574
     6  H    0.705500
     7  H    0.854056
     8  H    0.574949
     9  H    1.001712
    10  H    0.792999
    11  N   -0.405848
    12  N   -1.984409
    13  N   -2.119212
    14  N   -3.361497
    15  N   -1.210239
    16  O   -2.510501
    17  O   -2.361834
    18  O   -3.060249
    19  O   -2.231349
 Sum of Mulliken charges =  -0.00000

 Dipole moment (field-independent basis, Debye):
    X=              0.2851    Y=              1.0942    Z=             -0.0068  Tot=              1.1308

 Test job not archived.
 1\1\GINC-SE331\SP\RHF\Aug-CC-pVDZ\C3H7N5O4\OHZDE\08-Apr-2025\0\\#t hf
 aug-cc-pvdz iop(5/13=1,5/36=2,99/5=2) pseudo=read geom=check guess=(re
 ad,tcheck) scf=(maxcycle=1)\\title\\0,1\C,0,-2.7067,-0.129279,-0.14354
 9\C,0,0.00674226,1.28914,0.49641\C,0,1.92605,0.127309,0.0548226\H,0,3.
 73869,0.783105,0.926097\H,0,-0.498757,1.7426,1.33431\H,0,-0.36761,0.34
 6417,-1.11779\H,0,3.4866,-0.865365,-1.20237\H,0,-2.72886,-1.95755,0.57
 3878\H,0,-0.177051,-1.48184,0.37906\H,0,-2.62343,1.75748,-0.797262\N,0
 ,-2.03095,-1.36575,0.0895419\N,0,-2.11199,1.08445,-0.300821\N,0,-0.715

 Normal termination of Gaussian 16 at Tue Apr  8 21:57:54 2025.
