 Gaussian 16, Revision C.01,

 ----------------------------------------------------------------------
 #t hf aug-cc-pvdz symm=none int=(grid=ultrafine) guess=(read,tcheck) s
 table=(opt,rrhf)
 ----------------------------------------------------------------------
 -----
 title
 -----
 Symbolic Z-matrix:
 Charge =  0 Multiplicity = 1

 SCF Done:  E(RHF) =  -735.593079126     A.U. after   14 cycles
 Normal termination of Gaussian 16 at Tue Apr  8 19:50:55 2025.
 Gaussian 16:  ES64L-G16RevC.01  3-Jul-2019

 ----------------------------------------------------------------------
 #t hf aug-cc-pvdz iop(5/13=1,5/36=2,99/5=2) pseudo=read geom=check gue
 ss=(read,tcheck) scf=(maxcycle=1)
 ----------------------------------------------------------------------
 -----
 title
 -----
 Structure from the checkpoint file:  "ANI1ccx_1426_conf3_mol2.chk"
 Charge =  0 Multiplicity = 1

                         Standard orientation:
 ---------------------------------------------------------------------
 Center     Atomic      Atomic             Coordinates (Angstroms)
 Number     Number       Type             X           Y           Z
 ---------------------------------------------------------------------
      1          6           0        1.680769   -1.526281   -0.073765
      2          6           0        0.386630   -1.197910    0.695854
      3          6           0        2.688249   -0.390167    0.036880
      4          6           0        2.353510    0.934177   -0.692741
      5          6           0        1.221741    1.716399   -0.101701
      6          6           0       -2.091891   -0.898620    0.612634
      7          6           0       -2.981890    0.116170   -0.114959
      8          1           0       -1.392260    0.889806   -0.905190
      9          1           0       -1.911981   -0.460817    1.597941
     10          1           0       -2.575851   -1.845059    0.704194
     11          1           0       -0.711960   -1.068550   -1.019529
     12          1           0        2.307721    2.171018    1.559811
     13          1           0        0.668332    2.676639    1.604311
     14          1           0        2.071320    0.782098   -1.709799
     15          1           0        3.265571    1.512218   -0.710169
     16          1           0        3.608399   -0.807415   -0.390296
     17          1           0        2.907510   -0.126242    1.087601
     18          1           0        2.038578   -2.401251    0.536853
     19          1           0        0.838175   -2.729671   -1.497089
     20          1           0        2.352898   -2.095612   -1.922209
     21          7           0        1.415859   -1.879031   -1.433699
     22          7           0        1.450101    2.372769    1.055751
     23          7           0       -0.772206   -0.988295   -0.027195
     24          8           0        0.411677   -1.103420    1.916161
     25          8           0        0.139164    1.792920   -0.707927
     26          8           0       -4.180950    0.135879   -0.069872
     27          8           0       -2.328070    0.979888   -0.922565
 ---------------------------------------------------------------------

 SCF Done:  E(RHF) =  -738.857106346     A.U. after    2 cycles

 The electronic state is 1-A.
 Alpha  occ. eigenvalues --  -21.08589 -21.03749 -21.03501 -21.03092 -15.79970
 Alpha  occ. eigenvalues --  -15.77216 -15.76656 -11.54684 -11.54142 -11.52212
 Alpha  occ. eigenvalues --  -11.49205 -11.45514 -11.43068 -11.40581  -1.80290
 Alpha  occ. eigenvalues --   -1.72124  -1.71673  -1.63186  -1.42420  -1.38079
 Alpha  occ. eigenvalues --   -1.36014  -1.20011  -1.08820  -1.04076  -0.93159
 Alpha  occ. eigenvalues --   -0.82519  -0.79955  -0.79220  -0.74346  -0.72292
 Alpha  occ. eigenvalues --   -0.70552  -0.68123  -0.66803  -0.64700  -0.62259
 Alpha  occ. eigenvalues --   -0.60340  -0.59419  -0.57039  -0.54305  -0.53722
 Alpha  occ. eigenvalues --   -0.51236  -0.49493  -0.48914  -0.48364  -0.47874
 Alpha  occ. eigenvalues --   -0.45891  -0.42429  -0.39235  -0.35263  -0.32012
 Alpha  occ. eigenvalues --   -0.31551  -0.29763  -0.29594  -0.27858
 Alpha virt. eigenvalues --    0.02442   0.03514   0.03716   0.04345   0.04863
 Alpha virt. eigenvalues --    0.05507   0.05948   0.05989   0.07218   0.08014
 Alpha virt. eigenvalues --    0.08685   0.09078   0.09482   0.10568   0.10675

 Mulliken charges:
               1
     1  C   -0.917762
     2  C    7.683620
     3  C   -2.859658
     4  C   -3.907598
     5  C    7.201269
     6  C   -3.881878
     7  C    5.770238
     8  H    1.958405
     9  H    1.899580
    10  H    1.413442
    11  H    0.729737
    12  H    0.717028
    13  H    0.794249
    14  H    1.343541
    15  H    1.332884
    16  H    1.254483
    17  H    1.381801
    18  H    1.587254
    19  H    0.595580
    20  H    0.559763
    21  N   -3.199934
    22  N   -3.957757
    23  N   -2.822356
    24  O   -3.939377
    25  O   -4.042873
    26  O   -3.282950
    27  O   -3.410730
 Sum of Mulliken charges =  -0.00000

 Dipole moment (field-independent basis, Debye):
    X=              5.7784    Y=             -1.2059    Z=             -0.0993  Tot=              5.9037

 Test job not archived.
 1\1\GINC-SE338\SP\RHF\Aug-CC-pVDZ\C7H13N3O4\OHZDE\08-Apr-2025\0\\#t hf
  aug-cc-pvdz iop(5/13=1,5/36=2,99/5=2) pseudo=read geom=check guess=(r
 ead,tcheck) scf=(maxcycle=1)\\title\\0,1\C,0,1.68077,-1.52628,-0.07376
 57\C,0,0.386631,-1.19791,0.695853\C,0,2.68825,-0.390165,0.0368794\C,0,
 2.35351,0.934179,-0.692742\C,0,1.22174,1.7164,-0.101702\C,0,-2.09189,-
 0.898621,0.612633\C,0,-2.98189,0.116168,-0.11496\H,0,-1.39226,0.889805
 ,-0.905191\H,0,-1.91198,-0.460818,1.59794\H,0,-2.57585,-1.84506,0.7041
 93\H,0,-0.711959,-1.06855,-1.01953\H,0,2.30772,2.17102,1.55981\H,0,0.6

 Normal termination of Gaussian 16 at Tue Apr  8 19:51:18 2025.
