 Gaussian 16, Revision C.01,

 ----------------------------------------------------------------------
 #t hf aug-cc-pvdz symm=none int=(grid=ultrafine) guess=(read,tcheck) s
 table=(opt,rrhf)
 ----------------------------------------------------------------------
 -----
 title
 -----
 Symbolic Z-matrix:
 Charge =  0 Multiplicity = 1

 SCF Done:  E(RHF) =  -380.209160094     A.U. after   11 cycles
 Normal termination of Gaussian 16 at Tue Apr  8 21:05:26 2025.
 Gaussian 16:  ES64L-G16RevC.01  3-Jul-2019

 ----------------------------------------------------------------------
 #t hf aug-cc-pvdz iop(5/13=1,5/36=2,99/5=2) pseudo=read geom=check gue
 ss=(read,tcheck) scf=(maxcycle=1)
 ----------------------------------------------------------------------
 -----
 title
 -----
 Structure from the checkpoint file:  "ANI1ccx_1843_conf253_mol1.chk"
 Charge =  0 Multiplicity = 1

                         Standard orientation:
 ---------------------------------------------------------------------
 Center     Atomic      Atomic             Coordinates (Angstroms)
 Number     Number       Type             X           Y           Z
 ---------------------------------------------------------------------
      1          1           0       -3.729311    0.043090    1.144210
      2          1           0       -3.700911   -0.835177   -0.057805
      3          1           0        0.944692    1.617741   -0.209359
      4          1           0        0.601876    2.995361   -0.626282
      5          1           0        2.235659   -0.293666    2.048760
      6          1           0        2.267979   -0.432996    0.507657
      7          1           0        0.886392   -1.282079   -0.438269
      8          1           0        2.032269   -1.121179   -1.344380
      9          1           0       -0.811083    0.658874   -1.098660
     10          1           0       -1.697071   -0.403506   -0.386176
     11          8           0       -3.134961   -0.565717    0.746869
     12          8           0        0.154544    2.215180   -0.394420
     13          8           0        2.193309    0.190026    1.221870
     14          8           0        1.783779   -1.660769   -0.581626
     15          8           0       -0.875483   -0.297028   -0.935156
 ---------------------------------------------------------------------

 SCF Done:  E(RHF) =  -381.842027513     A.U. after    2 cycles

 The electronic state is 1-A.
 Alpha  occ. eigenvalues --  -21.12644 -21.09903 -21.08836 -21.06544 -21.06024
 Alpha  occ. eigenvalues --   -1.69213  -1.67801  -1.66842  -1.63256  -1.62383
 Alpha  occ. eigenvalues --   -0.65617  -0.63839  -0.63053  -0.61130  -0.59732
 Alpha  occ. eigenvalues --   -0.52051  -0.49758  -0.48014  -0.45368  -0.43185
 Alpha  occ. eigenvalues --   -0.36985  -0.35701  -0.34282  -0.32997  -0.31885
 Alpha virt. eigenvalues --    0.03087   0.04469   0.05651   0.05992   0.06470
 Alpha virt. eigenvalues --    0.08143   0.09289   0.09905   0.10846   0.11665
 Alpha virt. eigenvalues --    0.18331   0.19396   0.20222   0.20862   0.21421

 Mulliken charges:
               1
     1  H    0.945081
     2  H    0.784631
     3  H    1.066914
     4  H    0.896850
     5  H    0.755831
     6  H    1.551901
     7  H    1.292384
     8  H    0.784298
     9  H    1.196498
    10  H    1.442515
    11  O   -1.866745
    12  O   -2.048514
    13  O   -2.082872
    14  O   -2.183618
    15  O   -2.535155
 Sum of Mulliken charges =  -0.00000

 Dipole moment (field-independent basis, Debye):
    X=             -2.0423    Y=              0.8942    Z=              0.1000  Tot=              2.2318

 Test job not archived.
 1\1\GINC-SE249\SP\RHF\Aug-CC-pVDZ\H10O5\OHZDE\08-Apr-2025\0\\#t hf aug
 -cc-pvdz iop(5/13=1,5/36=2,99/5=2) pseudo=read geom=check guess=(read,
 tcheck) scf=(maxcycle=1)\\title\\0,1\H,0,-3.72931,0.0430907,1.14421\H,
 0,-3.70091,-0.835177,-0.057805\H,0,0.944693,1.61774,-0.209359\H,0,0.60
 1878,2.99536,-0.626282\H,0,2.23566,-0.293667,2.04876\H,0,2.26798,-0.43
 2997,0.507657\H,0,0.886393,-1.28208,-0.438269\H,0,2.03227,-1.12118,-1.
 34438\H,0,-0.811082,0.658874,-1.09866\H,0,-1.69707,-0.403506,-0.386176
 \O,0,-3.13496,-0.565717,0.746869\O,0,0.154546,2.21518,-0.39442\O,0,2.1

 Normal termination of Gaussian 16 at Tue Apr  8 21:05:29 2025.
