 Gaussian 16, Revision C.01,

 ----------------------------------------------------------------------
 #t hf aug-cc-pvdz symm=none int=(grid=ultrafine) guess=(read,tcheck) s
 table=(opt,rrhf)
 ----------------------------------------------------------------------
 -----
 title
 -----
 Symbolic Z-matrix:
 Charge =  0 Multiplicity = 1

 SCF Done:  E(RHF) =  -541.431244830     A.U. after   16 cycles
 Normal termination of Gaussian 16 at Tue Apr  8 19:58:19 2025.
 Gaussian 16:  ES64L-G16RevC.01  3-Jul-2019

 ----------------------------------------------------------------------
 #t hf aug-cc-pvdz iop(5/13=1,5/36=2,99/5=2) pseudo=read geom=check gue
 ss=(read,tcheck) scf=(maxcycle=1)
 ----------------------------------------------------------------------
 -----
 title
 -----
 Structure from the checkpoint file:  "ANI1ccx_1513_conf2_mol2.chk"
 Charge =  0 Multiplicity = 1

                         Standard orientation:
 ---------------------------------------------------------------------
 Center     Atomic      Atomic             Coordinates (Angstroms)
 Number     Number       Type             X           Y           Z
 ---------------------------------------------------------------------
      1          6           0        1.404551    0.077854   -0.013396
      2          6           0        3.797121   -0.227673   -0.006372
      3          6           0       -1.054899   -0.263030    0.039909
      4          6           0       -1.453459    1.062770    0.009705
      5          6           0       -2.813649    1.348050    0.004567
      6          6           0       -3.743129    0.252415    0.036923
      7          6           0       -2.028719   -1.284710   -0.043121
      8          1           0       -1.731700   -2.334070    0.017562
      9          1           0       -4.823869    0.461120   -0.002682
     10          1           0       -3.177639    2.377420   -0.023187
     11          1           0        0.347673   -1.699830   -0.035015
     12          1           0        2.507461   -1.745360    0.083773
     13          1           0        2.461861    1.647280   -0.010568
     14          1           0       -0.695177    1.837670   -0.034493
     15          7           0        0.255292   -0.699085    0.009871
     16          7           0        1.481971    1.340570   -0.038642
     17          7           0        2.563901   -0.756918   -0.019537
     18          7           0        4.838461    0.264902    0.035573
     19          7           0       -3.358979   -1.054940   -0.010792
 ---------------------------------------------------------------------

 SCF Done:  E(RHF) =  -543.899323921     A.U. after    2 cycles

 The electronic state is 1-A.
 Alpha  occ. eigenvalues --  -15.84523 -15.81097 -15.77731 -15.75648 -15.73971
 Alpha  occ. eigenvalues --  -11.54300 -11.51406 -11.49226 -11.46540 -11.44971
 Alpha  occ. eigenvalues --  -11.43651 -11.39256  -1.57712  -1.46815  -1.39116
 Alpha  occ. eigenvalues --   -1.31623  -1.28015  -1.18191  -1.10299  -0.94518
 Alpha  occ. eigenvalues --   -0.91537  -0.84795  -0.81173  -0.78160  -0.72480
 Alpha  occ. eigenvalues --   -0.68701  -0.65238  -0.64112  -0.59979  -0.58496
 Alpha  occ. eigenvalues --   -0.57371  -0.56134  -0.54510  -0.51747  -0.49952
 Alpha  occ. eigenvalues --   -0.46984  -0.43372  -0.42668  -0.36930  -0.36647
 Alpha  occ. eigenvalues --   -0.36247  -0.29637
 Alpha virt. eigenvalues --    0.02080   0.04360   0.04986   0.05865   0.06220
 Alpha virt. eigenvalues --    0.07510   0.08110   0.08757   0.09218   0.09778
 Alpha virt. eigenvalues --    0.10540   0.10962   0.11173   0.11530   0.12043

 Mulliken charges:
               1
     1  C    4.384514
     2  C    3.169085
     3  C    3.845924
     4  C    0.699456
     5  C   -1.852952
     6  C   -1.673056
     7  C   -1.855891
     8  H    1.594128
     9  H    1.543703
    10  H    1.407675
    11  H    0.920668
    12  H    0.827363
    13  H    0.702563
    14  H    1.810389
    15  N   -3.983191
    16  N   -2.913587
    17  N   -2.406900
    18  N   -2.749480
    19  N   -3.470411
 Sum of Mulliken charges =  -0.00000

 Dipole moment (field-independent basis, Debye):
    X=             -1.0266    Y=             -2.4295    Z=              0.0559  Tot=              2.6381

 Test job not archived.
 1\1\GINC-SE195\SP\RHF\Aug-CC-pVDZ\C7H7N5\OHZDE\08-Apr-2025\0\\#t hf au
 g-cc-pvdz iop(5/13=1,5/36=2,99/5=2) pseudo=read geom=check guess=(read
 ,tcheck) scf=(maxcycle=1)\\title\\0,1\C,0,1.40455,0.0778544,-0.0133963
 \C,0,3.79712,-0.227673,-0.00637211\C,0,-1.0549,-0.26303,0.0399095\C,0,
 -1.45346,1.06277,0.00970542\C,0,-2.81365,1.34805,0.0045669\C,0,-3.7431
 3,0.252415,0.0369232\C,0,-2.02872,-1.28471,-0.0431206\H,0,-1.7317,-2.3
 3407,0.0175623\H,0,-4.82387,0.46112,-0.00268163\H,0,-3.17764,2.37742,-
 0.0231874\H,0,0.347672,-1.69983,-0.0350151\H,0,2.50746,-1.74536,0.0837

 Normal termination of Gaussian 16 at Tue Apr  8 19:58:31 2025.
