 Gaussian 16, Revision C.01,

 ----------------------------------------------------------------------
 #t hf aug-cc-pvdz symm=none int=(grid=ultrafine) guess=(read,tcheck) s
 table=(opt,rrhf)
 ----------------------------------------------------------------------
 -----
 title
 -----
 Symbolic Z-matrix:
 Charge =  0 Multiplicity = 1

 SCF Done:  E(RHF) =  -460.250382530     A.U. after   16 cycles
 Normal termination of Gaussian 16 at Tue Apr  8 21:33:43 2025.
 Gaussian 16:  ES64L-G16RevC.01  3-Jul-2019

 ----------------------------------------------------------------------
 #t hf aug-cc-pvdz iop(5/13=1,5/36=2,99/5=2) pseudo=read geom=check gue
 ss=(read,tcheck) scf=(maxcycle=1)
 ----------------------------------------------------------------------
 -----
 title
 -----
 Structure from the checkpoint file:  "ANI1ccx_373_conf15_mol1.chk"
 Charge =  0 Multiplicity = 1

                         Standard orientation:
 ---------------------------------------------------------------------
 Center     Atomic      Atomic             Coordinates (Angstroms)
 Number     Number       Type             X           Y           Z
 ---------------------------------------------------------------------
      1          6           0        0.034305    0.050134    0.045464
      2          1           0        2.928509    1.063229    0.228014
      3          7           0       -1.457392   -0.015416   -0.065405
      4          7           0        0.799715   -1.104511   -0.062120
      5          7           0        1.988078   -0.752425   -0.092311
      6          7           0        1.971829    0.527463   -0.018210
      7          7           0        0.798193    1.165379    0.142198
      8          8           0       -1.952132   -1.055631    0.148947
      9          8           0       -2.027531    1.042199   -0.127680
 ---------------------------------------------------------------------

 SCF Done:  E(RHF) =  -462.207193712     A.U. after    2 cycles

 The electronic state is 1-A.
 Alpha  occ. eigenvalues --  -21.12764 -21.11068 -16.04332 -15.89643 -15.86787
 Alpha  occ. eigenvalues --  -15.85944 -15.81853 -11.51699  -2.06003  -1.82873
 Alpha  occ. eigenvalues --   -1.73136  -1.45045  -1.33756  -1.09116  -0.94288
 Alpha  occ. eigenvalues --   -0.86045  -0.78681  -0.75729  -0.70223  -0.69215
 Alpha  occ. eigenvalues --   -0.64119  -0.58181  -0.50935  -0.46381  -0.45041
 Alpha  occ. eigenvalues --   -0.42591  -0.37642  -0.33926  -0.33003
 Alpha virt. eigenvalues --    0.02645   0.08186   0.09137   0.10048   0.10264
 Alpha virt. eigenvalues --    0.12069   0.12693   0.13178   0.13267   0.14835
 Alpha virt. eigenvalues --    0.15791   0.16658   0.16953   0.18303   0.19098

 Mulliken charges:
               1
     1  C    3.967084
     2  H    0.879368
     3  N    4.468183
     4  N   -1.280087
     5  N   -0.177642
     6  N    0.086383
     7  N   -1.951815
     8  O   -2.974957
     9  O   -3.016518
 Sum of Mulliken charges =   0.00000

 Dipole moment (field-independent basis, Debye):
    X=              3.3805    Y=              1.6804    Z=              0.4010  Tot=              3.7963

 Test job not archived.
 1\1\GINC-SE455\SP\RHF\Aug-CC-pVDZ\C1H1N5O2\OHZDE\08-Apr-2025\0\\#t hf
 aug-cc-pvdz iop(5/13=1,5/36=2,99/5=2) pseudo=read geom=check guess=(re
 ad,tcheck) scf=(maxcycle=1)\\title\\0,1\C,0,0.0343069,0.0501347,0.0454
 636\H,0,2.92851,1.06323,0.228014\N,0,-1.45739,-0.0154155,-0.0654051\N,
 0,0.799717,-1.10451,-0.0621202\N,0,1.98808,-0.752424,-0.0923106\N,0,1.
 97183,0.527464,-0.0182096\N,0,0.798194,1.16538,0.142198\O,0,-1.95213,-
 1.05563,0.148947\O,0,-2.02753,1.0422,-0.12768\\Version=ES64L-G16RevC.0
 1\State=1-A\HF=-462.2071937\RMSD=1.087e-01\Dipole=1.3299804,0.6611196,

 Normal termination of Gaussian 16 at Tue Apr  8 21:33:47 2025.
