 Gaussian 16, Revision C.01,

 ----------------------------------------------------------------------
 #t hf aug-cc-pvdz symm=none int=(grid=ultrafine) guess=(read,tcheck) s
 table=(opt,rrhf)
 ----------------------------------------------------------------------
 -----
 title
 -----
 Symbolic Z-matrix:
 Charge =  0 Multiplicity = 1

 SCF Done:  E(RHF) =  -207.048389380     A.U. after   12 cycles
 Normal termination of Gaussian 16 at Tue Apr  8 21:13:19 2025.
 Gaussian 16:  ES64L-G16RevC.01  3-Jul-2019

 ----------------------------------------------------------------------
 #t hf aug-cc-pvdz iop(5/13=1,5/36=2,99/5=2) pseudo=read geom=check gue
 ss=(read,tcheck) scf=(maxcycle=1)
 ----------------------------------------------------------------------
 -----
 title
 -----
 Structure from the checkpoint file:  "ANI1ccx_1888_conf25_mol1.chk"
 Charge =  0 Multiplicity = 1

                         Standard orientation:
 ---------------------------------------------------------------------
 Center     Atomic      Atomic             Coordinates (Angstroms)
 Number     Number       Type             X           Y           Z
 ---------------------------------------------------------------------
      1          1           0       -2.535771    0.518185    0.298587
      2          1           0       -1.747891   -0.808480    0.582798
      3          1           0       -0.108434    0.332907   -0.321937
      4          1           0        2.516739   -0.045720    0.092139
      5          1           0        1.408689   -1.089140    0.618941
      6          7           0        1.546429   -0.417727   -0.157694
      7          8           0       -1.982631   -0.156601   -0.115092
      8          8           0        0.687840    0.658643    0.094258
 ---------------------------------------------------------------------

 SCF Done:  E(RHF) =  -207.939423002     A.U. after    2 cycles

 The electronic state is 1-A.
 Alpha  occ. eigenvalues --  -21.11521 -21.06493 -15.76389  -1.75811  -1.67778
 Alpha  occ. eigenvalues --   -1.13211  -0.66424  -0.65122  -0.56488  -0.54889
 Alpha  occ. eigenvalues --   -0.48020  -0.39660  -0.35366  -0.28225
 Alpha virt. eigenvalues --    0.03471   0.05097   0.05926   0.07559   0.09136
 Alpha virt. eigenvalues --    0.14128   0.17977   0.18448   0.19499   0.20667
 Alpha virt. eigenvalues --    0.21387   0.24093   0.24645   0.25172   0.26170

 Mulliken charges:
               1
     1  H    0.896692
     2  H    0.884606
     3  H    1.143703
     4  H    0.717792
     5  H    0.620695
     6  N   -0.135610
     7  O   -1.869101
     8  O   -2.258777
 Sum of Mulliken charges =   0.00000

 Dipole moment (field-independent basis, Debye):
    X=             -0.8947    Y=             -0.2726    Z=              1.6329  Tot=              1.8818

 Test job not archived.
 1\1\GINC-SE332\SP\RHF\Aug-CC-pVDZ\H5N1O2\OHZDE\08-Apr-2025\0\\#t hf au
 g-cc-pvdz iop(5/13=1,5/36=2,99/5=2) pseudo=read geom=check guess=(read
 ,tcheck) scf=(maxcycle=1)\\title\\0,1\H,0,-2.53577,0.518185,0.298587\H
 ,0,-1.74789,-0.80848,0.582798\H,0,-0.108433,0.332907,-0.321937\H,0,2.5
 1674,-0.0457203,0.0921386\H,0,1.40869,-1.08914,0.618941\N,0,1.54643,-0
 .417727,-0.157694\O,0,-1.98263,-0.156601,-0.115092\O,0,0.687841,0.6586
 43,0.094258\\Version=ES64L-G16RevC.01\State=1-A\HF=-207.939423\RMSD=3.
 171e-02\Dipole=-0.3519892,-0.1072645,0.6424389\Quadrupole=2.2998636,-0

 Normal termination of Gaussian 16 at Tue Apr  8 21:13:21 2025.
