 Gaussian 16, Revision C.01,

 ----------------------------------------------------------------------
 #t hf aug-cc-pvdz symm=none int=(grid=ultrafine) guess=(read,tcheck) s
 table=(opt,rrhf)
 ----------------------------------------------------------------------
 -----
 title
 -----
 Symbolic Z-matrix:
 Charge =  0 Multiplicity = 1

 SCF Done:  E(RHF) =  -485.183066265     A.U. after   15 cycles
 Normal termination of Gaussian 16 at Tue Apr  8 21:43:56 2025.
 Gaussian 16:  ES64L-G16RevC.01  3-Jul-2019

 ----------------------------------------------------------------------
 #t hf aug-cc-pvdz iop(5/13=1,5/36=2,99/5=2) pseudo=read geom=check gue
 ss=(read,tcheck) scf=(maxcycle=1)
 ----------------------------------------------------------------------
 -----
 title
 -----
 Structure from the checkpoint file:  "ANI1ccx_484_conf13_mol1.chk"
 Charge =  0 Multiplicity = 1

                         Standard orientation:
 ---------------------------------------------------------------------
 Center     Atomic      Atomic             Coordinates (Angstroms)
 Number     Number       Type             X           Y           Z
 ---------------------------------------------------------------------
      1          6           0        1.269990    0.022250    0.011272
      2          6           0       -0.668586    0.782506   -0.137270
      3          1           0       -2.239809   -0.674068    0.920162
      4          1           0       -2.215999   -2.033770   -0.288802
      5          7           0       -1.547799   -1.371330    0.414722
      6          7           0       -0.696064   -0.585481   -0.468956
      7          8           0        0.692429   -1.002710   -0.349177
      8          8           0        2.474050   -0.119577    0.404263
      9          8           0        0.564963    1.197140   -0.166617
     10          8           0       -1.662140    1.372270    0.174565
 ---------------------------------------------------------------------

 SCF Done:  E(RHF) =  -487.153670116     A.U. after    2 cycles

 The electronic state is 1-A.
 Alpha  occ. eigenvalues --  -21.21158 -21.19489 -21.11295 -21.07095 -15.87210
 Alpha  occ. eigenvalues --  -15.82991 -11.61429 -11.58079  -2.09135  -1.88172
 Alpha  occ. eigenvalues --   -1.76236  -1.67935  -1.45820  -1.17069  -0.92955
 Alpha  occ. eigenvalues --   -0.89167  -0.77728  -0.72047  -0.69694  -0.63345
 Alpha  occ. eigenvalues --   -0.59889  -0.57275  -0.55954  -0.52795  -0.49614
 Alpha  occ. eigenvalues --   -0.42639  -0.39074  -0.36824  -0.34127  -0.31514
 Alpha virt. eigenvalues --    0.02983   0.05342   0.07079   0.09259   0.10162
 Alpha virt. eigenvalues --    0.10750   0.11600   0.11916   0.12075   0.12817
 Alpha virt. eigenvalues --    0.14677   0.15325   0.15937   0.16814   0.17643

 Mulliken charges:
               1
     1  C    5.544248
     2  C    5.885125
     3  H    0.552398
     4  H    0.619216
     5  N   -1.478518
     6  N    0.189706
     7  O   -2.524496
     8  O   -2.723848
     9  O   -3.016105
    10  O   -3.047728
 Sum of Mulliken charges =  -0.00000

 Dipole moment (field-independent basis, Debye):
    X=             -2.3662    Y=             -0.8987    Z=             -0.5674  Tot=              2.5939

 Test job not archived.
 1\1\GINC-SE109\SP\RHF\Aug-CC-pVDZ\C2H2N2O4\OHZDE\08-Apr-2025\0\\#t hf
 aug-cc-pvdz iop(5/13=1,5/36=2,99/5=2) pseudo=read geom=check guess=(re
 ad,tcheck) scf=(maxcycle=1)\\title\\0,1\C,0,1.26999,0.0222501,0.011272
 6\C,0,-0.668586,0.782506,-0.13727\H,0,-2.23981,-0.674068,0.920162\H,0,
 -2.216,-2.03377,-0.288802\N,0,-1.5478,-1.37133,0.414722\N,0,-0.696064,
 -0.585481,-0.468956\O,0,0.692428,-1.00271,-0.349177\O,0,2.47405,-0.119
 577,0.404263\O,0,0.564963,1.19714,-0.166617\O,0,-1.66214,1.37227,0.174
 565\\Version=ES64L-G16RevC.01\State=1-A\HF=-487.1536701\RMSD=6.170e-02

 Normal termination of Gaussian 16 at Tue Apr  8 21:44:00 2025.
