 Gaussian 16, Revision C.01,

 ----------------------------------------------------------------------
 #t hf aug-cc-pvdz symm=none int=(grid=ultrafine) guess=(read,tcheck) s
 table=(opt,rrhf)
 ----------------------------------------------------------------------
 -----
 title
 -----
 Symbolic Z-matrix:
 Charge =  0 Multiplicity = 1

 SCF Done:  E(RHF) =  -908.304820491     A.U. after   14 cycles
 Normal termination of Gaussian 16 at Tue Apr  8 21:13:29 2025.
 Gaussian 16:  ES64L-G16RevC.01  3-Jul-2019

 ----------------------------------------------------------------------
 #t hf aug-cc-pvdz iop(5/13=1,5/36=2,99/5=2) pseudo=read geom=check gue
 ss=(read,tcheck) scf=(maxcycle=1)
 ----------------------------------------------------------------------
 -----
 title
 -----
 Structure from the checkpoint file:  "ANI1ccx_1761_conf44_mol1.chk"
 Charge =  0 Multiplicity = 1

                         Standard orientation:
 ---------------------------------------------------------------------
 Center     Atomic      Atomic             Coordinates (Angstroms)
 Number     Number       Type             X           Y           Z
 ---------------------------------------------------------------------
      1          6           0        2.392700    0.399906    0.823120
      2          6           0       -3.065960    0.455971   -0.831067
      3          6           0       -1.745780    1.254740   -0.704538
      4          6           0       -0.528409   -0.705305   -0.760284
      5          6           0       -3.622770   -0.054522    0.468319
      6          6           0        4.053130   -1.396949    0.631919
      7          6           0        2.979460   -0.630267   -0.180954
      8          6           0        1.905740    1.562090   -0.040871
      9          6           0       -0.489723    0.631416   -0.036819
     10          1           0       -0.714014    0.645804    1.037000
     11          1           0       -1.133020   -2.368270   -0.878374
     12          1           0       -3.550970    0.000516    2.251650
     13          1           0       -3.126410   -0.456010   -1.422540
     14          1           0       -3.932740    0.975506   -1.222440
     15          1           0       -1.543230    1.416540   -1.780930
     16          1           0       -1.904440    2.278050   -0.297911
     17          1           0        0.328031    2.367390   -0.968549
     18          1           0        3.684160   -1.775320    1.608400
     19          1           0        4.267640   -2.290579   -0.002398
     20          1           0        5.041100   -0.835161    0.874633
     21          1           0        1.671970   -1.420220   -1.511700
     22          1           0        3.299480   -0.175280   -1.105280
     23          1           0        3.270620    0.753091    1.326890
     24          1           0        1.754730   -0.783557    2.375450
     25          1           0        0.849232   -0.805638    1.148540
     26          7           0        1.435960   -0.162055    1.704630
     27          7           0        0.599540    1.533470   -0.519436
     28          8           0        2.652740    2.538200   -0.212529
     29          8           0        1.987660   -1.605140   -0.616857
     30          8           0       -0.096020   -0.844330   -1.863480
     31          8           0       -4.256250   -1.087350    0.582630
     32          8           0       -3.275720    0.636033    1.552890
     33          8           0       -1.235030   -1.666070   -0.185376
 ---------------------------------------------------------------------

 SCF Done:  E(RHF) =  -912.320402906     A.U. after    2 cycles

 The electronic state is 1-A.
 Alpha  occ. eigenvalues --  -21.14772 -21.13532 -21.06399 -21.06085 -21.05227
 Alpha  occ. eigenvalues --  -21.02934 -15.77739 -15.74628 -11.59839 -11.54241
 Alpha  occ. eigenvalues --  -11.53552 -11.51396 -11.48603 -11.47265 -11.43400
 Alpha  occ. eigenvalues --  -11.42699 -11.38490  -1.87788  -1.85204  -1.72017
 Alpha  occ. eigenvalues --   -1.69351  -1.67993  -1.65218  -1.42967  -1.36409
 Alpha  occ. eigenvalues --   -1.23026  -1.13985  -1.10446  -1.01607  -0.96017
 Alpha  occ. eigenvalues --   -0.86654  -0.83991  -0.80695  -0.79438  -0.71876
 Alpha  occ. eigenvalues --   -0.70655  -0.69453  -0.67048  -0.66428  -0.63908
 Alpha  occ. eigenvalues --   -0.63602  -0.62131  -0.61520  -0.59693  -0.59209
 Alpha  occ. eigenvalues --   -0.57149  -0.55204  -0.54224  -0.52881  -0.51782
 Alpha  occ. eigenvalues --   -0.51285  -0.50361  -0.48976  -0.47534  -0.46764
 Alpha  occ. eigenvalues --   -0.46045  -0.44826  -0.40609  -0.37841  -0.36555
 Alpha  occ. eigenvalues --   -0.34752  -0.32395  -0.32090  -0.30953  -0.30118
 Alpha  occ. eigenvalues --   -0.26934
 Alpha virt. eigenvalues --    0.03338   0.03832   0.04547   0.05077   0.05227
 Alpha virt. eigenvalues --    0.05412   0.05948   0.06315   0.06604   0.06707
 Alpha virt. eigenvalues --    0.06953   0.07985   0.08017   0.09342   0.09559

 Mulliken charges:
               1
     1  C   -2.554025
     2  C   -5.002062
     3  C   -1.960907
     4  C   11.104309
     5  C    6.263151
     6  C   -4.245160
     7  C    1.316862
     8  C    6.458253
     9  C   -3.765680
    10  H    2.389328
    11  H    0.359140
    12  H    0.780645
    13  H    1.269156
    14  H    1.403722
    15  H    1.108464
    16  H    1.286823
    17  H    0.656761
    18  H    1.224621
    19  H    1.146890
    20  H    1.193603
    21  H    0.916070
    22  H    2.068288
    23  H    1.964978
    24  H    0.634689
    25  H    0.751784
    26  N   -2.778201
    27  N   -2.803655
    28  O   -3.917478
    29  O   -3.354261
    30  O   -4.154283
    31  O   -3.121701
    32  O   -3.042332
    33  O   -3.597791
 Sum of Mulliken charges =  -0.00000

 Dipole moment (field-independent basis, Debye):
    X=             -0.9770    Y=             -1.0011    Z=              0.7793  Tot=              1.6013

 Test job not archived.
 1\1\GINC-SE219\SP\RHF\Aug-CC-pVDZ\C9H16N2O6\OHZDE\08-Apr-2025\0\\#t hf
  aug-cc-pvdz iop(5/13=1,5/36=2,99/5=2) pseudo=read geom=check guess=(r
 ead,tcheck) scf=(maxcycle=1)\\title\\0,1\C,0,2.3927,0.399906,0.82312\C
 ,0,-3.06596,0.455971,-0.831067\C,0,-1.74578,1.25474,-0.704538\C,0,-0.5
 28409,-0.705305,-0.760284\C,0,-3.62277,-0.0545214,0.468319\C,0,4.05313
 ,-1.39695,0.631919\C,0,2.97946,-0.630267,-0.180954\C,0,1.90574,1.56209
 ,-0.0408712\C,0,-0.489723,0.631416,-0.0368191\H,0,-0.714014,0.645804,1
 .037\H,0,-1.13302,-2.36827,-0.878374\H,0,-3.55097,0.00051618,2.25165\H

 Normal termination of Gaussian 16 at Tue Apr  8 21:14:21 2025.
