 Gaussian 16, Revision C.01,

 ----------------------------------------------------------------------
 #t hf aug-cc-pvdz symm=none int=(grid=ultrafine) guess=(read,tcheck) s
 table=(opt,rrhf)
 ----------------------------------------------------------------------
 -----
 title
 -----
 Symbolic Z-matrix:
 Charge =  0 Multiplicity = 1

 SCF Done:  E(RHF) =  -373.429807294     A.U. after   16 cycles
 Normal termination of Gaussian 16 at Tue Apr  8 21:50:58 2025.
 Gaussian 16:  ES64L-G16RevC.01  3-Jul-2019

 ----------------------------------------------------------------------
 #t hf aug-cc-pvdz iop(5/13=1,5/36=2,99/5=2) pseudo=read geom=check gue
 ss=(read,tcheck) scf=(maxcycle=1)
 ----------------------------------------------------------------------
 -----
 title
 -----
 Structure from the checkpoint file:  "ANI1ccx_655_conf5_mol1.chk"
 Charge =  0 Multiplicity = 1

                         Standard orientation:
 ---------------------------------------------------------------------
 Center     Atomic      Atomic             Coordinates (Angstroms)
 Number     Number       Type             X           Y           Z
 ---------------------------------------------------------------------
      1          6           0        1.433661    0.405774    0.078067
      2          6           0       -0.733525   -0.647014   -0.002520
      3          6           0       -1.293449    0.766415   -0.042478
      4          1           0        0.957358    1.360630    0.285745
      5          1           0        1.071469   -1.639900    0.254521
      6          7           0        0.647698   -0.742837    0.078177
      7          7           0       -1.793718    1.799333    0.006638
      8          8           0        2.619661    0.351922   -0.115229
      9          8           0       -1.425511   -1.635328   -0.051319
 ---------------------------------------------------------------------

 SCF Done:  E(RHF) =  -375.001399733     A.U. after    2 cycles

 The electronic state is 1-A.
 Alpha  occ. eigenvalues --  -21.11419 -21.09060 -15.84448 -15.82791 -11.60664
 Alpha  occ. eigenvalues --  -11.53294 -11.48883  -1.78789  -1.75646  -1.45037
 Alpha  occ. eigenvalues --   -1.35401  -1.01375  -0.94871  -0.79848  -0.71295
 Alpha  occ. eigenvalues --   -0.64678  -0.62278  -0.57892  -0.54314  -0.53015
 Alpha  occ. eigenvalues --   -0.50681  -0.47407  -0.38505  -0.36413  -0.33192
 Alpha virt. eigenvalues --    0.03603   0.05303   0.07976   0.08514   0.09456
 Alpha virt. eigenvalues --    0.09889   0.10127   0.10653   0.12008   0.12634
 Alpha virt. eigenvalues --    0.13460   0.14001   0.14054   0.15034   0.15964

 Mulliken charges:
               1
     1  C    2.039640
     2  C    4.755541
     3  C    1.467559
     4  H    1.602803
     5  H    0.705946
     6  N   -2.601720
     7  N   -2.282995
     8  O   -2.669399
     9  O   -3.017375
 Sum of Mulliken charges =   0.00000

 Dipole moment (field-independent basis, Debye):
    X=              1.0209    Y=             -1.7865    Z=              0.4703  Tot=              2.1107

 Test job not archived.
 1\1\GINC-SE048\SP\RHF\Aug-CC-pVDZ\C3H2N2O2\OHZDE\08-Apr-2025\0\\#t hf
 aug-cc-pvdz iop(5/13=1,5/36=2,99/5=2) pseudo=read geom=check guess=(re
 ad,tcheck) scf=(maxcycle=1)\\title\\0,1\C,0,1.43366,0.405774,0.0780668
 \C,0,-0.733525,-0.647016,-0.00251998\C,0,-1.29345,0.766413,-0.0424776\
 H,0,0.957357,1.36063,0.285745\H,0,1.07147,-1.6399,0.254521\N,0,0.64769
 8,-0.742838,0.0781766\N,0,-1.79372,1.79933,0.00663843\O,0,2.61966,0.35
 1923,-0.115229\O,0,-1.42551,-1.63533,-0.0513192\\Version=ES64L-G16RevC
 .01\State=1-A\HF=-375.0013997\RMSD=1.694e-01\Dipole=0.4016535,-0.70285

 Normal termination of Gaussian 16 at Tue Apr  8 21:51:01 2025.
