 Gaussian 16, Revision C.01,

 ----------------------------------------------------------------------
 #t hf aug-cc-pvdz symm=none int=(grid=ultrafine) guess=(read,tcheck) s
 table=(opt,rrhf)
 ----------------------------------------------------------------------
 -----
 title
 -----
 Symbolic Z-matrix:
 Charge =  0 Multiplicity = 1

 SCF Done:  E(RHF) =  -490.245388874     A.U. after   15 cycles
 Normal termination of Gaussian 16 at Tue Apr  8 21:53:49 2025.
 Gaussian 16:  ES64L-G16RevC.01  3-Jul-2019

 ----------------------------------------------------------------------
 #t hf aug-cc-pvdz iop(5/13=1,5/36=2,99/5=2) pseudo=read geom=check gue
 ss=(read,tcheck) scf=(maxcycle=1)
 ----------------------------------------------------------------------
 -----
 title
 -----
 Structure from the checkpoint file:  "ANI1ccx_703_conf49_mol1.chk"
 Charge =  0 Multiplicity = 1

                         Standard orientation:
 ---------------------------------------------------------------------
 Center     Atomic      Atomic             Coordinates (Angstroms)
 Number     Number       Type             X           Y           Z
 ---------------------------------------------------------------------
      1          6           0        0.092191   -0.349014    0.513754
      2          6           0        1.109620    0.475692   -0.069406
      3          6           0       -1.273311   -0.046158    0.037304
      4          1           0       -0.445548   -2.030609   -0.140972
      5          1           0        0.341126   -0.141500    1.588970
      6          1           0        1.758278   -1.203172   -0.219555
      7          1           0       -0.462808    1.572531    0.305665
      8          8           0        0.411650   -1.752710    0.041755
      9          8           0        2.247739   -0.269075   -0.159590
     10          8           0        0.813967    1.720569   -0.194806
     11          8           0       -1.513709    1.323532    0.100461
     12          8           0       -2.054902   -0.857363   -0.340822
 ---------------------------------------------------------------------

 SCF Done:  E(RHF) =  -492.289659588     A.U. after    2 cycles

 The electronic state is 1-A.
 Alpha  occ. eigenvalues --  -21.15849 -21.15661 -21.11755 -21.09403 -21.08669
 Alpha  occ. eigenvalues --  -11.61482 -11.57518 -11.51325  -1.91117  -1.80506
 Alpha  occ. eigenvalues --   -1.77825  -1.71620  -1.65994  -1.19349  -0.90967
 Alpha  occ. eigenvalues --   -0.82754  -0.78507  -0.74767  -0.67605  -0.59931
 Alpha  occ. eigenvalues --   -0.57881  -0.55938  -0.55281  -0.52677  -0.50901
 Alpha  occ. eigenvalues --   -0.45040  -0.42473  -0.38202  -0.34784  -0.32904
 Alpha  occ. eigenvalues --   -0.30839
 Alpha virt. eigenvalues --    0.02447   0.05144   0.06336   0.07421   0.08948
 Alpha virt. eigenvalues --    0.09006   0.09496   0.10414   0.11137   0.11409
 Alpha virt. eigenvalues --    0.13042   0.14113   0.14446   0.14697   0.15885

 Mulliken charges:
               1
     1  C   -0.887995
     2  C    5.173211
     3  C    5.363834
     4  H    0.910654
     5  H    1.380604
     6  H    1.178066
     7  H    1.844404
     8  O   -3.038118
     9  O   -2.903632
    10  O   -3.019185
    11  O   -3.027414
    12  O   -2.974427
 Sum of Mulliken charges =   0.00000

 Dipole moment (field-independent basis, Debye):
    X=              1.9085    Y=             -1.1283    Z=              0.7142  Tot=              2.3293

 Test job not archived.
 1\1\GINC-SE097\SP\RHF\Aug-CC-pVDZ\C3H4O5\OHZDE\08-Apr-2025\0\\#t hf au
 g-cc-pvdz iop(5/13=1,5/36=2,99/5=2) pseudo=read geom=check guess=(read
 ,tcheck) scf=(maxcycle=1)\\title\\0,1\C,0,0.0921923,-0.349014,0.513754
 \C,0,1.10962,0.475693,-0.0694057\C,0,-1.27331,-0.0461593,0.0373042\H,0
 ,-0.445545,-2.03061,-0.140972\H,0,0.341127,-0.1415,1.58897\H,0,1.75828
 ,-1.20317,-0.219555\H,0,-0.462809,1.57253,0.305665\O,0,0.411653,-1.752
 71,0.0417546\O,0,2.24774,-0.269073,-0.15959\O,0,0.813966,1.72057,-0.19
 4806\O,0,-1.51371,1.32353,0.100461\O,0,-2.0549,-0.857366,-0.340822\\Ve

 Normal termination of Gaussian 16 at Tue Apr  8 21:53:54 2025.
