 Gaussian 16, Revision C.01,

 ----------------------------------------------------------------------
 #t hf aug-cc-pvdz symm=none int=(grid=ultrafine) guess=(read,tcheck) s
 table=(opt,rrhf)
 ----------------------------------------------------------------------
 -----
 title
 -----
 Symbolic Z-matrix:
 Charge =  0 Multiplicity = 1

 SCF Done:  E(RHF) =  -424.697819714     A.U. after   15 cycles
 Normal termination of Gaussian 16 at Tue Apr  8 21:45:45 2025.
 Gaussian 16:  ES64L-G16RevC.01  3-Jul-2019

 ----------------------------------------------------------------------
 #t hf aug-cc-pvdz iop(5/13=1,5/36=2,99/5=2) pseudo=read geom=check gue
 ss=(read,tcheck) scf=(maxcycle=1)
 ----------------------------------------------------------------------
 -----
 title
 -----
 Structure from the checkpoint file:  "ANI1ccx_507_conf10_mol2.chk"
 Charge =  0 Multiplicity = 1

                         Standard orientation:
 ---------------------------------------------------------------------
 Center     Atomic      Atomic             Coordinates (Angstroms)
 Number     Number       Type             X           Y           Z
 ---------------------------------------------------------------------
      1          6           0       -1.270511   -0.360184    0.118282
      2          6           0        0.020122    1.547650   -0.031895
      3          1           0       -3.054981   -0.143689   -0.866771
      4          1           0       -2.860519   -1.593494    0.123804
      5          1           0        1.822595    2.020233    0.032307
      6          7           0       -2.469951   -0.773429   -0.311894
      7          7           0       -0.911849    0.901255   -0.482064
      8          7           0        0.893144    2.325721    0.314659
      9          7           0        2.296961   -1.711146   -0.236341
     10          7           0        2.488629   -0.624207   -0.242172
     11          8           0       -0.560412   -1.029401    0.862128
 ---------------------------------------------------------------------

 SCF Done:  E(RHF) =  -426.517803417     A.U. after    2 cycles

 The electronic state is 1-A.
 Alpha  occ. eigenvalues --  -21.03741 -15.87052 -15.86604 -15.79473 -15.78978
 Alpha  occ. eigenvalues --  -15.77543 -11.54725 -11.52788  -1.72609  -1.55772
 Alpha  occ. eigenvalues --   -1.45863  -1.37661  -1.29891  -0.91412  -0.78937
 Alpha  occ. eigenvalues --   -0.76132  -0.73253  -0.66943  -0.62003  -0.60391
 Alpha  occ. eigenvalues --   -0.57800  -0.57068  -0.57021  -0.53439  -0.51675
 Alpha  occ. eigenvalues --   -0.41365  -0.39371  -0.33351  -0.30589
 Alpha virt. eigenvalues --    0.03481   0.05623   0.05812   0.08986   0.10593
 Alpha virt. eigenvalues --    0.11107   0.11613   0.12112   0.12936   0.13812
 Alpha virt. eigenvalues --    0.14152   0.14787   0.15174   0.15924   0.16188

 Mulliken charges:
               1
     1  C    5.429002
     2  C    3.550571
     3  H    0.745362
     4  H    0.636335
     5  H    0.645634
     6  N   -2.717136
     7  N   -2.656645
     8  N   -2.946156
     9  N    0.194039
    10  N   -0.167854
    11  O   -2.713152
 Sum of Mulliken charges =  -0.00000

 Dipole moment (field-independent basis, Debye):
    X=             -1.0875    Y=             -0.6286    Z=             -0.9222  Tot=              1.5583

 Test job not archived.
 1\1\GINC-SE016\SP\RHF\Aug-CC-pVDZ\C2H3N5O1\OHZDE\08-Apr-2025\0\\#t hf
 aug-cc-pvdz iop(5/13=1,5/36=2,99/5=2) pseudo=read geom=check guess=(re
 ad,tcheck) scf=(maxcycle=1)\\title\\0,1\C,0,-1.27051,-0.360182,0.11828
 2\C,0,0.0201256,1.54765,-0.031895\H,0,-3.05498,-0.143684,-0.866771\H,0
 ,-2.86052,-1.59349,0.123804\H,0,1.8226,2.02023,0.0323066\N,0,-2.46995,
 -0.773425,-0.311894\N,0,-0.911846,0.901256,-0.482064\N,0,0.893149,2.32
 572,0.314659\N,0,2.29696,-1.71115,-0.236341\N,0,2.48863,-0.624211,-0.2
 42172\O,0,-0.560412,-1.0294,0.862128\\Version=ES64L-G16RevC.01\State=1

 Normal termination of Gaussian 16 at Tue Apr  8 21:45:49 2025.
