 Gaussian 16, Revision C.01,

 ----------------------------------------------------------------------
 #t hf aug-cc-pvdz symm=none int=(grid=ultrafine) guess=(read,tcheck) s
 table=(opt,rrhf)
 ----------------------------------------------------------------------
 -----
 title
 -----
 Symbolic Z-matrix:
 Charge =  0 Multiplicity = 1

 SCF Done:  E(RHF) =  -833.459706018     A.U. after   15 cycles
 Normal termination of Gaussian 16 at Tue Apr  8 21:06:43 2025.
 Gaussian 16:  ES64L-G16RevC.01  3-Jul-2019

 ----------------------------------------------------------------------
 #t hf aug-cc-pvdz iop(5/13=1,5/36=2,99/5=2) pseudo=read geom=check gue
 ss=(read,tcheck) scf=(maxcycle=1)
 ----------------------------------------------------------------------
 -----
 title
 -----
 Structure from the checkpoint file:  "ANI1ccx_1760_conf15_mol1.chk"
 Charge =  0 Multiplicity = 1

                         Standard orientation:
 ---------------------------------------------------------------------
 Center     Atomic      Atomic             Coordinates (Angstroms)
 Number     Number       Type             X           Y           Z
 ---------------------------------------------------------------------
      1          6           0       -1.780251    0.881703    0.610619
      2          6           0        2.373210   -1.799970   -0.968042
      3          6           0        2.228210   -1.333190    0.453276
      4          6           0        2.466209    1.073270   -0.459025
      5          6           0        3.428810   -1.694809    1.348930
      6          6           0       -3.587110   -0.716034   -0.325839
      7          6           0       -2.836281    0.672566   -0.451998
      8          6           0       -0.539964    0.142867    0.154186
      9          6           0        1.901149    0.163923    0.651008
     10          1           0        1.401930   -1.668360   -1.593080
     11          1           0        2.004009    2.335850   -1.812730
     12          1           0        3.142390   -1.609330    2.387480
     13          1           0        4.292650   -1.066559    1.113940
     14          1           0        3.698960   -2.703189    1.043650
     15          1           0        3.211950   -1.255560   -1.438380
     16          1           0        2.642010   -2.878790   -1.034840
     17          1           0        1.320250   -1.831100    0.873467
     18          1           0        0.385836    1.349340    1.366230
     19          1           0       -4.604111   -0.082533    1.120890
     20          1           0       -3.632841    1.430569   -0.518841
     21          1           0       -2.416421    0.671778   -1.457770
     22          1           0       -2.054511    0.420530    1.636690
     23          1           0       -1.210081    2.812259   -0.040760
     24          1           0       -1.924651    2.842679    1.399630
     25          1           0        2.507999    0.630524    1.450990
     26          7           0       -1.354081    2.260659    0.812635
     27          7           0        0.518959    0.403574    1.003520
     28          8           0        3.622149    0.932113   -0.761436
     29          8           0       -0.593534   -0.663704   -0.780116
     30          8           0       -3.379920   -1.574081   -1.105450
     31          8           0       -4.384300   -0.956360    0.724445
     32          8           0        1.630179    1.963320   -0.988481
 ---------------------------------------------------------------------

 SCF Done:  E(RHF) =  -837.180637253     A.U. after    2 cycles

 The electronic state is 1-A.
 Alpha  occ. eigenvalues --  -21.13979 -21.12729 -21.05117 -21.03773 -21.03664
 Alpha  occ. eigenvalues --  -15.76789 -15.75807 -11.55477 -11.55187 -11.51937
 Alpha  occ. eigenvalues --  -11.49572 -11.48568 -11.42109 -11.41382 -11.37518
 Alpha  occ. eigenvalues --  -11.35178  -1.84375  -1.82950  -1.70972  -1.66934
 Alpha  occ. eigenvalues --   -1.65133  -1.44177  -1.36575  -1.22237  -1.14691
 Alpha  occ. eigenvalues --   -1.06230  -0.98864  -0.96500  -0.86384  -0.81357
 Alpha  occ. eigenvalues --   -0.78979  -0.75875  -0.73242  -0.70963  -0.67982
 Alpha  occ. eigenvalues --   -0.65417  -0.64237  -0.62554  -0.62049  -0.60038
 Alpha  occ. eigenvalues --   -0.59042  -0.57375  -0.57066  -0.54449  -0.52719
 Alpha  occ. eigenvalues --   -0.51273  -0.50972  -0.50366  -0.49560  -0.47168
 Alpha  occ. eigenvalues --   -0.46303  -0.45429  -0.43997  -0.43439  -0.41910
 Alpha  occ. eigenvalues --   -0.39844  -0.35705  -0.34178  -0.33239  -0.28895
 Alpha  occ. eigenvalues --   -0.28202  -0.27502
 Alpha virt. eigenvalues --    0.02488   0.03315   0.03842   0.03968   0.04892
 Alpha virt. eigenvalues --    0.05412   0.06208   0.06461   0.06829   0.07390
 Alpha virt. eigenvalues --    0.07507   0.07936   0.08081   0.08871   0.09740

 Mulliken charges:
               1
     1  C   -1.673670
     2  C   -4.617848
     3  C   -0.485013
     4  C    8.062796
     5  C   -5.175246
     6  C    5.884929
     7  C   -3.287709
     8  C    7.729671
     9  C   -2.325806
    10  H    1.510537
    11  H    0.923480
    12  H    1.156931
    13  H    1.218567
    14  H    1.189219
    15  H    1.387795
    16  H    1.093008
    17  H    1.813706
    18  H    0.647577
    19  H    0.904292
    20  H    1.506033
    21  H    1.283239
    22  H    1.778138
    23  H    0.650362
    24  H    0.616493
    25  H    1.994251
    26  N   -2.943726
    27  N   -3.655285
    28  O   -3.564763
    29  O   -3.788195
    30  O   -3.234454
    31  O   -3.151110
    32  O   -3.448197
 Sum of Mulliken charges =  -0.00000

 Dipole moment (field-independent basis, Debye):
    X=             -1.1956    Y=              3.8616    Z=              1.3381  Tot=              4.2582

 Test job not archived.
 1\1\GINC-SE068\SP\RHF\Aug-CC-pVDZ\C9H16N2O5\OHZDE\08-Apr-2025\0\\#t hf
  aug-cc-pvdz iop(5/13=1,5/36=2,99/5=2) pseudo=read geom=check guess=(r
 ead,tcheck) scf=(maxcycle=1)\\title\\0,1\C,0,-1.78025,0.881704,0.61061
 9\C,0,2.37321,-1.79997,-0.968042\C,0,2.22821,-1.33319,0.453276\C,0,2.4
 6621,1.07327,-0.459025\C,0,3.42881,-1.69481,1.34893\C,0,-3.58711,-0.71
 6033,-0.325839\C,0,-2.83628,0.672567,-0.451998\C,0,-0.539963,0.142868,
 0.154186\C,0,1.90115,0.163923,0.651008\H,0,1.40193,-1.66836,-1.59308\H
 ,0,2.00401,2.33585,-1.81273\H,0,3.14239,-1.60933,2.38748\H,0,4.29265,-

 Normal termination of Gaussian 16 at Tue Apr  8 21:07:25 2025.
