 Gaussian 16, Revision C.01,

 ----------------------------------------------------------------------
 #t hf aug-cc-pvdz symm=none int=(grid=ultrafine) guess=(read,tcheck) s
 table=(opt,rrhf)
 ----------------------------------------------------------------------
 -----
 title
 -----
 Symbolic Z-matrix:
 Charge =  0 Multiplicity = 1

 SCF Done:  E(RHF) =  -810.434390242     A.U. after   14 cycles
 Normal termination of Gaussian 16 at Tue Apr  8 19:59:05 2025.
 Gaussian 16:  ES64L-G16RevC.01  3-Jul-2019

 ----------------------------------------------------------------------
 #t hf aug-cc-pvdz iop(5/13=1,5/36=2,99/5=2) pseudo=read geom=check gue
 ss=(read,tcheck) scf=(maxcycle=1)
 ----------------------------------------------------------------------
 -----
 title
 -----
 Structure from the checkpoint file:  "ANI1ccx_1427_conf4_mol1.chk"
 Charge =  0 Multiplicity = 1

                         Standard orientation:
 ---------------------------------------------------------------------
 Center     Atomic      Atomic             Coordinates (Angstroms)
 Number     Number       Type             X           Y           Z
 ---------------------------------------------------------------------
      1          6           0       -2.083109   -0.850881   -0.570988
      2          6           0       -1.207310    0.274409    0.000513
      3          6           0       -3.472720   -0.729624    0.153668
      4          6           0        1.214610    0.790152    0.396178
      5          6           0        1.420469    2.199960   -0.081733
      6          6           0        2.453580   -0.047853    0.014302
      7          6           0        2.294781   -1.601979    0.094041
      8          1           0       -0.374387    2.369180    0.444827
      9          1           0        4.373341   -1.972118    0.357037
     10          1           0        3.293452   -3.301459    0.314788
     11          1           0        2.853940    0.268807   -1.012200
     12          1           0        3.298310    0.143076    0.692714
     13          1           0        0.967899    0.759790    1.464170
     14          1           0        0.244954   -0.627090   -0.866664
     15          1           0       -3.909640    1.163178   -0.102961
     16          1           0       -3.349629   -0.855228    1.320030
     17          1           0       -4.031069   -1.674512   -0.052268
     18          1           0       -2.269520   -0.622540   -1.628350
     19          1           0       -1.918029   -2.602601    0.495988
     20          1           0       -0.483684   -2.245200   -0.158850
     21          7           0       -1.535639   -2.173931   -0.326412
     22          7           0        0.065750    0.201162   -0.342945
     23          7           0        3.444661   -2.331789    0.106591
     24          8           0       -1.623010    1.181279    0.722679
     25          8           0       -4.381760    0.301918   -0.076401
     26          8           0        2.454259    2.606801   -0.525178
     27          8           0        1.177801   -2.137160    0.127561
     28          8           0        0.342566    2.937600    0.080741
 ---------------------------------------------------------------------

 SCF Done:  E(RHF) =  -813.998932359     A.U. after    2 cycles

 The electronic state is 1-A.
 Alpha  occ. eigenvalues --  -21.10607 -21.06760 -21.06453 -21.05504 -21.04918
 Alpha  occ. eigenvalues --  -15.82301 -15.78173 -15.72560 -11.57104 -11.55203
 Alpha  occ. eigenvalues --  -11.53574 -11.50799 -11.46976 -11.44818 -11.41240
 Alpha  occ. eigenvalues --   -1.83882  -1.75830  -1.74567  -1.70136  -1.66556
 Alpha  occ. eigenvalues --   -1.44855  -1.39179  -1.33555  -1.19219  -1.06358
 Alpha  occ. eigenvalues --   -1.03005  -0.91368  -0.85809  -0.82190  -0.79934
 Alpha  occ. eigenvalues --   -0.75730  -0.73938  -0.71325  -0.69278  -0.65926
 Alpha  occ. eigenvalues --   -0.64701  -0.63118  -0.61180  -0.60886  -0.56636
 Alpha  occ. eigenvalues --   -0.56201  -0.54080  -0.53610  -0.52319  -0.51111
 Alpha  occ. eigenvalues --   -0.50363  -0.49394  -0.48887  -0.45610  -0.40993
 Alpha  occ. eigenvalues --   -0.38127  -0.37365  -0.36038  -0.33529  -0.31600
 Alpha  occ. eigenvalues --   -0.31029  -0.29941  -0.29208
 Alpha virt. eigenvalues --    0.02064   0.03812   0.04281   0.05017   0.05442
 Alpha virt. eigenvalues --    0.05983   0.06392   0.06809   0.07355   0.07879
 Alpha virt. eigenvalues --    0.08362   0.08715   0.09040   0.10350   0.11405

 Mulliken charges:
               1
     1  C   -2.587504
     2  C    6.595454
     3  C    0.087433
     4  C   -3.363053
     5  C    6.705468
     6  C   -2.826359
     7  C    5.672133
     8  H    1.615150
     9  H    0.749157
    10  H    0.744175
    11  H    1.444925
    12  H    1.407545
    13  H    1.954570
    14  H    1.226838
    15  H    0.841489
    16  H    1.204739
    17  H    1.204712
    18  H    1.726869
    19  H    0.470714
    20  H    1.244412
    21  N   -2.569118
    22  N   -2.864036
    23  N   -3.500292
    24  O   -3.535068
    25  O   -3.051030
    26  O   -3.286921
    27  O   -3.753032
    28  O   -3.559369
 Sum of Mulliken charges =   0.00000

 Dipole moment (field-independent basis, Debye):
    X=              4.0035    Y=             -3.5096    Z=              1.4891  Tot=              5.5283

 Test job not archived.
 1\1\GINC-SE247\SP\RHF\Aug-CC-pVDZ\C7H13N3O5\OHZDE\08-Apr-2025\0\\#t hf
  aug-cc-pvdz iop(5/13=1,5/36=2,99/5=2) pseudo=read geom=check guess=(r
 ead,tcheck) scf=(maxcycle=1)\\title\\0,1\C,0,-2.08311,-0.85088,-0.5709
 88\C,0,-1.20731,0.27441,0.0005133\C,0,-3.47272,-0.729622,0.153668\C,0,
 1.21461,0.790152,0.396178\C,0,1.42047,2.19996,-0.0817331\C,0,2.45358,-
 0.0478543,0.0143021\C,0,2.29478,-1.60198,0.0940415\H,0,-0.374386,2.369
 18,0.444827\H,0,4.37334,-1.97212,0.357037\H,0,3.29345,-3.30146,0.31478
 8\H,0,2.85394,0.268806,-1.0122\H,0,3.29831,0.143075,0.692714\H,0,0.967

 Normal termination of Gaussian 16 at Tue Apr  8 19:59:36 2025.
