 Gaussian 16, Revision C.01,

 ----------------------------------------------------------------------
 #t hf aug-cc-pvdz symm=none int=(grid=ultrafine) guess=(read,tcheck) s
 table=(opt,rrhf)
 ----------------------------------------------------------------------
 -----
 title
 -----
 Symbolic Z-matrix:
 Charge =  0 Multiplicity = 1

 SCF Done:  E(RHF) =  -755.426756454     A.U. after   14 cycles
 Normal termination of Gaussian 16 at Tue Apr  8 19:45:36 2025.
 Gaussian 16:  ES64L-G16RevC.01  3-Jul-2019

 ----------------------------------------------------------------------
 #t hf aug-cc-pvdz iop(5/13=1,5/36=2,99/5=2) pseudo=read geom=check gue
 ss=(read,tcheck) scf=(maxcycle=1)
 ----------------------------------------------------------------------
 -----
 title
 -----
 Structure from the checkpoint file:  "ANI1ccx_1405_conf14_mol2.chk"
 Charge =  0 Multiplicity = 1

                         Standard orientation:
 ---------------------------------------------------------------------
 Center     Atomic      Atomic             Coordinates (Angstroms)
 Number     Number       Type             X           Y           Z
 ---------------------------------------------------------------------
      1          6           0        0.794434   -1.589739    0.579857
      2          6           0        0.267092   -1.184549   -0.826072
      3          6           0        0.965024   -0.394161    1.524710
      4          6           0        1.993930    0.653867    1.154050
      5          6           0        1.557020    1.588101    0.052251
      6          6           0       -2.110089   -0.963074   -0.058848
      7          6           0       -2.849920    0.323670    0.196256
      8          1           0       -1.259770    1.225300   -0.446272
      9          1           0       -2.844539   -1.641250   -0.532792
     10          1           0       -1.847839   -1.442160    0.908645
     11          1           0       -1.300860   -0.590505   -1.960120
     12          1           0        2.100129    2.793481   -1.203160
     13          1           0        2.201510    1.301801    2.030420
     14          1           0        2.967490    0.209192    0.907811
     15          1           0        1.353241   -0.761339    2.491140
     16          1           0       -0.012499    0.100168    1.647300
     17          1           0        0.049675   -2.246819    1.047510
     18          1           0        1.903111   -3.160049   -0.031305
     19          1           0        2.712951   -1.757989   -0.196898
     20          7           0        2.091641   -2.276479    0.439763
     21          7           0       -1.030059   -0.830443   -0.993553
     22          8           0        1.032711   -1.155349   -1.785720
     23          8           0        0.404163    1.676981   -0.371508
     24          8           0        2.537720    2.308481   -0.474950
     25          8           0       -3.909200    0.364599    0.759420
     26          8           0       -2.210220    1.444530   -0.192114
 ---------------------------------------------------------------------

 SCF Done:  E(RHF) =  -758.736719137     A.U. after    2 cycles

 The electronic state is 1-A.
 Alpha  occ. eigenvalues --  -21.15305 -21.09226 -21.07305 -21.04232 -21.03739
 Alpha  occ. eigenvalues --  -15.78299 -15.74567 -11.57135 -11.54470 -11.53493
 Alpha  occ. eigenvalues --  -11.49114 -11.46441 -11.45012 -11.41319  -1.86617
 Alpha  occ. eigenvalues --   -1.80789  -1.72214  -1.68269  -1.64014  -1.42816
 Alpha  occ. eigenvalues --   -1.36450  -1.21308  -1.09381  -1.05234  -0.94330
 Alpha  occ. eigenvalues --   -0.82595  -0.80577  -0.78325  -0.72643  -0.71565
 Alpha  occ. eigenvalues --   -0.70316  -0.68652  -0.66625  -0.64100  -0.63006
 Alpha  occ. eigenvalues --   -0.60851  -0.59645  -0.56038  -0.54680  -0.53144
 Alpha  occ. eigenvalues --   -0.52084  -0.50862  -0.49518  -0.48575  -0.46794
 Alpha  occ. eigenvalues --   -0.45989  -0.43307  -0.37745  -0.36515  -0.34558
 Alpha  occ. eigenvalues --   -0.33312  -0.31475  -0.30638  -0.28008
 Alpha virt. eigenvalues --    0.03270   0.03925   0.04581   0.05086   0.05179
 Alpha virt. eigenvalues --    0.05704   0.05957   0.06433   0.07347   0.08331
 Alpha virt. eigenvalues --    0.08994   0.09300   0.09859   0.11065   0.11635

 Mulliken charges:
               1
     1  C    0.230089
     2  C    5.650797
     3  C   -3.536618
     4  C   -3.245872
     5  C    6.262966
     6  C   -3.763198
     7  C    6.245716
     8  H    1.976135
     9  H    1.216432
    10  H    1.726408
    11  H    0.692235
    12  H    0.830521
    13  H    1.418392
    14  H    1.557665
    15  H    1.066435
    16  H    1.752139
    17  H    1.863530
    18  H    0.507702
    19  H    0.600480
    20  N   -3.142324
    21  N   -2.334039
    22  O   -3.730213
    23  O   -3.544837
    24  O   -3.558624
    25  O   -3.383843
    26  O   -3.358075
 Sum of Mulliken charges =  -0.00000

 Dipole moment (field-independent basis, Debye):
    X=              2.9331    Y=             -0.1413    Z=             -0.4464  Tot=              2.9703

 Test job not archived.
 1\1\GINC-SE365\SP\RHF\Aug-CC-pVDZ\C7H12N2O5\OHZDE\08-Apr-2025\0\\#t hf
  aug-cc-pvdz iop(5/13=1,5/36=2,99/5=2) pseudo=read geom=check guess=(r
 ead,tcheck) scf=(maxcycle=1)\\title\\0,1\C,0,0.794433,-1.58974,0.57985
 7\C,0,0.267091,-1.18455,-0.826072\C,0,0.965024,-0.394162,1.52471\C,0,1
 .99393,0.653866,1.15405\C,0,1.55702,1.5881,0.0522511\C,0,-2.11009,-0.9
 63074,-0.0588482\C,0,-2.84992,0.32367,0.196256\H,0,-1.25977,1.2253,-0.
 446272\H,0,-2.84454,-1.64125,-0.532792\H,0,-1.84784,-1.44216,0.908645\
 H,0,-1.30086,-0.590505,-1.96012\H,0,2.10013,2.79348,-1.20316\H,0,2.201

 Normal termination of Gaussian 16 at Tue Apr  8 19:45:57 2025.
