 Gaussian 16, Revision C.01,

 ----------------------------------------------------------------------
 #t hf aug-cc-pvdz symm=none int=(grid=ultrafine) guess=(read,tcheck) s
 table=(opt,rrhf)
 ----------------------------------------------------------------------
 -----
 title
 -----
 Symbolic Z-matrix:
 Charge =  0 Multiplicity = 1

 SCF Done:  E(RHF) =  -445.282402589     A.U. after   15 cycles
 Normal termination of Gaussian 16 at Tue Apr  8 22:02:14 2025.
 Gaussian 16:  ES64L-G16RevC.01  3-Jul-2019

 ----------------------------------------------------------------------
 #t hf aug-cc-pvdz iop(5/13=1,5/36=2,99/5=2) pseudo=read geom=check gue
 ss=(read,tcheck) scf=(maxcycle=1)
 ----------------------------------------------------------------------
 -----
 title
 -----
 Structure from the checkpoint file:  "ANI1ccx_856_conf2_mol2.chk"
 Charge =  0 Multiplicity = 1

                         Standard orientation:
 ---------------------------------------------------------------------
 Center     Atomic      Atomic             Coordinates (Angstroms)
 Number     Number       Type             X           Y           Z
 ---------------------------------------------------------------------
      1          6           0       -1.387950   -0.408338    0.031283
      2          6           0       -1.478831    1.119378   -0.015031
      3          6           0        0.593321    0.769572    0.017450
      4          6           0        1.114291   -1.314420   -0.003584
      5          1           0       -2.406262    1.655997   -0.063924
      6          1           0        1.074512   -2.404450   -0.113919
      7          7           0       -0.365060    1.748799   -0.009488
      8          7           0        1.873099    0.753021   -0.013243
      9          7           0        2.196800   -0.583197   -0.015536
     10          7           0        0.024527   -0.492034    0.065732
     11          8           0       -2.227349   -1.279353   -0.024390
 ---------------------------------------------------------------------

 SCF Done:  E(RHF) =  -447.205422507     A.U. after    2 cycles

 The electronic state is 1-A.
 Alpha  occ. eigenvalues --  -21.13017 -15.82649 -15.81715 -15.78308 -15.77151
 Alpha  occ. eigenvalues --  -11.59418 -11.50329 -11.49154 -11.47268  -1.78703
 Alpha  occ. eigenvalues --   -1.70171  -1.50598  -1.37067  -1.19240  -1.07224
 Alpha  occ. eigenvalues --   -0.92345  -0.86267  -0.83046  -0.71839  -0.68098
 Alpha  occ. eigenvalues --   -0.65993  -0.63871  -0.57405  -0.55886  -0.51356
 Alpha  occ. eigenvalues --   -0.49201  -0.46961  -0.40650  -0.40136  -0.35090
 Alpha  occ. eigenvalues --   -0.34883
 Alpha virt. eigenvalues --    0.02263   0.02734   0.05139   0.07688   0.08972
 Alpha virt. eigenvalues --    0.09412   0.09589   0.10382   0.11031   0.12150
 Alpha virt. eigenvalues --    0.12529   0.12577   0.13486   0.13841   0.14613

 Mulliken charges:
               1
     1  C    4.781649
     2  C   -0.597849
     3  C    4.132586
     4  C    1.394057
     5  H    1.521512
     6  H    1.549289
     7  N   -3.071428
     8  N   -1.867486
     9  N   -2.031418
    10  N   -2.584952
    11  O   -3.225960
 Sum of Mulliken charges =  -0.00000

 Dipole moment (field-independent basis, Debye):
    X=             -3.8803    Y=             -1.6503    Z=             -0.0567  Tot=              4.2170

 Test job not archived.
 1\1\GINC-SE366\SP\RHF\Aug-CC-pVDZ\C4H2N4O1\OHZDE\08-Apr-2025\0\\#t hf
 aug-cc-pvdz iop(5/13=1,5/36=2,99/5=2) pseudo=read geom=check guess=(re
 ad,tcheck) scf=(maxcycle=1)\\title\\0,1\C,0,-1.38795,-0.408336,0.03128
 28\C,0,-1.47883,1.11938,-0.0150306\C,0,0.593322,0.769572,0.01745\C,0,1
 .11429,-1.31442,-0.00358398\H,0,-2.40626,1.656,-0.0639244\H,0,1.07451,
 -2.40445,-0.113919\N,0,-0.365058,1.7488,-0.00948798\N,0,1.8731,0.75302
 ,-0.0132431\N,0,2.1968,-0.583198,-0.0155362\N,0,0.024527,-0.492033,0.0
 657318\O,0,-2.22735,-1.27935,-0.0243897\\Version=ES64L-G16RevC.01\Stat

 Normal termination of Gaussian 16 at Tue Apr  8 22:02:19 2025.
