 Gaussian 16, Revision C.01,

 ----------------------------------------------------------------------
 #t hf aug-cc-pvdz symm=none int=(grid=ultrafine) guess=(read,tcheck) s
 table=(opt,rrhf)
 ----------------------------------------------------------------------
 -----
 title
 -----
 Symbolic Z-matrix:
 Charge =  0 Multiplicity = 1

 SCF Done:  E(RHF) =  -259.156572191     A.U. after   13 cycles
 Normal termination of Gaussian 16 at Tue Apr  8 21:40:36 2025.
 Gaussian 16:  ES64L-G16RevC.01  3-Jul-2019

 ----------------------------------------------------------------------
 #t hf aug-cc-pvdz iop(5/13=1,5/36=2,99/5=2) pseudo=read geom=check gue
 ss=(read,tcheck) scf=(maxcycle=1)
 ----------------------------------------------------------------------
 -----
 title
 -----
 Structure from the checkpoint file:  "ANI1ccx_430_conf33_mol1.chk"
 Charge =  0 Multiplicity = 1

                         Standard orientation:
 ---------------------------------------------------------------------
 Center     Atomic      Atomic             Coordinates (Angstroms)
 Number     Number       Type             X           Y           Z
 ---------------------------------------------------------------------
      1          6           0       -0.497733    0.131484    0.004716
      2          1           0        2.150631    0.463779   -0.712789
      3          1           0        2.031581    0.232135    0.957630
      4          1           0        0.412682   -1.673840    0.036206
      5          1           0       -1.807619   -1.551800    0.037197
      6          1           0       -2.570649   -0.017636    0.043898
      7          1           0        0.476401    1.760430   -0.094769
      8          7           0        1.892891   -0.208222    0.028148
      9          7           0        0.598614   -0.697286   -0.089495
     10          7           0       -1.698399   -0.527866    0.014352
     11          7           0       -0.465480    1.433090    0.004757
 ---------------------------------------------------------------------

 SCF Done:  E(RHF) =  -260.360991260     A.U. after    2 cycles

 The electronic state is 1-A.
 Alpha  occ. eigenvalues --  -15.77653 -15.77134 -15.76499 -15.68399 -11.47298
 Alpha  occ. eigenvalues --   -1.53877  -1.37146  -1.22219  -1.12514  -0.82950
 Alpha  occ. eigenvalues --   -0.72557  -0.69681  -0.68435  -0.61454  -0.55628
 Alpha  occ. eigenvalues --   -0.54282  -0.40004  -0.37765  -0.35989  -0.30509
 Alpha virt. eigenvalues --    0.03462   0.04699   0.05470   0.06478   0.07213
 Alpha virt. eigenvalues --    0.07670   0.12022   0.13031   0.14156   0.15299
 Alpha virt. eigenvalues --    0.16719   0.16899   0.17683   0.18674   0.19028

 Mulliken charges:
               1
     1  C    4.675310
     2  H    0.637063
     3  H    0.603755
     4  H    0.822884
     5  H    0.628632
     6  H    0.632469
     7  H    0.568148
     8  N   -1.725798
     9  N   -1.484810
    10  N   -2.641671
    11  N   -2.715982
 Sum of Mulliken charges =  -0.00000

 Dipole moment (field-independent basis, Debye):
    X=              0.3008    Y=             -2.7785    Z=              0.2777  Tot=              2.8085

 Test job not archived.
 1\1\GINC-SE092\SP\RHF\Aug-CC-pVDZ\C1H6N4\OHZDE\08-Apr-2025\0\\#t hf au
 g-cc-pvdz iop(5/13=1,5/36=2,99/5=2) pseudo=read geom=check guess=(read
 ,tcheck) scf=(maxcycle=1)\\title\\0,1\C,0,-0.497734,0.131484,0.0047157
 8\H,0,2.15063,0.463779,-0.712789\H,0,2.03158,0.232135,0.95763\H,0,0.41
 2681,-1.67384,0.0362056\H,0,-1.80762,-1.5518,0.0371966\H,0,-2.57065,-0
 .0176364,0.0438985\H,0,0.4764,1.76043,-0.0947686\N,0,1.89289,-0.208222
 ,0.0281476\N,0,0.598613,-0.697286,-0.0894951\N,0,-1.6984,-0.527866,0.0
 143522\N,0,-0.465481,1.43309,0.00475718\\Version=ES64L-G16RevC.01\Stat

 Normal termination of Gaussian 16 at Tue Apr  8 21:40:39 2025.
