 Gaussian 16, Revision C.01,

 ----------------------------------------------------------------------
 #t hf aug-cc-pvdz symm=none int=(grid=ultrafine) guess=(read,tcheck) s
 table=(opt,rrhf)
 ----------------------------------------------------------------------
 -----
 title
 -----
 Symbolic Z-matrix:
 Charge =  0 Multiplicity = 1

 SCF Done:  E(RHF) =  -356.586904728     A.U. after   14 cycles
 Normal termination of Gaussian 16 at Tue Apr  8 21:13:23 2025.
 Gaussian 16:  ES64L-G16RevC.01  3-Jul-2019

 ----------------------------------------------------------------------
 #t hf aug-cc-pvdz iop(5/13=1,5/36=2,99/5=2) pseudo=read geom=check gue
 ss=(read,tcheck) scf=(maxcycle=1)
 ----------------------------------------------------------------------
 -----
 title
 -----
 Structure from the checkpoint file:  "ANI1ccx_1890_conf1_mol1.chk"
 Charge =  0 Multiplicity = 1

                         Standard orientation:
 ---------------------------------------------------------------------
 Center     Atomic      Atomic             Coordinates (Angstroms)
 Number     Number       Type             X           Y           Z
 ---------------------------------------------------------------------
      1          1           0       -0.519855    1.036689   -0.870679
      2          1           0       -2.667412   -0.974156   -0.223652
      3          1           0        1.888817    0.683623    1.131560
      4          1           0        2.928547    0.531816   -0.802649
      5          1           0        3.195157   -0.810133    0.106233
      6          7           0        2.482177   -0.311703   -0.443889
      7          8           0       -1.297263    1.168398   -0.315211
      8          8           0       -1.271403    0.036893    0.534429
      9          8           0       -1.696572   -1.075222   -0.223684
     10          8           0        1.490177    0.084190    0.475268
 ---------------------------------------------------------------------

 SCF Done:  E(RHF) =  -358.056983155     A.U. after    2 cycles

 The electronic state is 1-A.
 Alpha  occ. eigenvalues --  -21.13274 -21.11861 -21.11602 -21.08914 -15.78207
 Alpha  occ. eigenvalues --   -2.05360  -1.76513  -1.67691  -1.26079  -1.15716
 Alpha  occ. eigenvalues --   -0.67591  -0.66962  -0.65357  -0.56554  -0.54014
 Alpha  occ. eigenvalues --   -0.53067  -0.47105  -0.38120  -0.34413  -0.33426
 Alpha  occ. eigenvalues --   -0.31390  -0.29524
 Alpha virt. eigenvalues --    0.03584   0.05551   0.05697   0.06215   0.07770
 Alpha virt. eigenvalues --    0.14339   0.15152   0.16401   0.18390   0.19365
 Alpha virt. eigenvalues --    0.19520   0.20956   0.21662   0.22723   0.23047

 Mulliken charges:
               1
     1  H    1.005659
     2  H    0.961654
     3  H    0.694325
     4  H    0.692701
     5  H    0.684952
     6  N   -0.223234
     7  O   -1.235754
     8  O    0.554318
     9  O   -1.214176
    10  O   -1.920445
 Sum of Mulliken charges =  -0.00000

 Dipole moment (field-independent basis, Debye):
    X=              1.6549    Y=              0.7120    Z=              0.2535  Tot=              1.8193

 Test job not archived.
 1\1\GINC-SE460\SP\RHF\Aug-CC-pVDZ\H5N1O4\OHZDE\08-Apr-2025\0\\#t hf au
 g-cc-pvdz iop(5/13=1,5/36=2,99/5=2) pseudo=read geom=check guess=(read
 ,tcheck) scf=(maxcycle=1)\\title\\0,1\H,0,-0.519852,1.03669,-0.870679\
 H,0,-2.66741,-0.974154,-0.223652\H,0,1.88882,0.683623,1.13156\H,0,2.92
 855,0.531815,-0.802649\H,0,3.19516,-0.810134,0.106233\N,0,2.48218,-0.3
 11703,-0.443889\O,0,-1.29726,1.1684,-0.315211\O,0,-1.2714,0.036895,0.5
 34429\O,0,-1.69657,-1.07522,-0.223684\O,0,1.49018,0.0841902,0.475268\\
 Version=ES64L-G16RevC.01\State=1-A\HF=-358.0569832\RMSD=3.222e-02\Dipo

 Normal termination of Gaussian 16 at Tue Apr  8 21:13:26 2025.
