 Gaussian 16, Revision C.01,

 ----------------------------------------------------------------------
 #t hf aug-cc-pvdz symm=none int=(grid=ultrafine) guess=(read,tcheck) s
 table=(opt,rrhf)
 ----------------------------------------------------------------------
 -----
 title
 -----
 Symbolic Z-matrix:
 Charge =  0 Multiplicity = 1

 SCF Done:  E(RHF) =  -674.238157496     A.U. after   17 cycles
 Normal termination of Gaussian 16 at Tue Apr  8 19:40:44 2025.
 Gaussian 16:  ES64L-G16RevC.01  3-Jul-2019

 ----------------------------------------------------------------------
 #t hf aug-cc-pvdz iop(5/13=1,5/36=2,99/5=2) pseudo=read geom=check gue
 ss=(read,tcheck) scf=(maxcycle=1)
 ----------------------------------------------------------------------
 -----
 title
 -----
 Structure from the checkpoint file:  "ANI1ccx_1351_conf3_mol1.chk"
 Charge =  0 Multiplicity = 1

                         Standard orientation:
 ---------------------------------------------------------------------
 Center     Atomic      Atomic             Coordinates (Angstroms)
 Number     Number       Type             X           Y           Z
 ---------------------------------------------------------------------
      1          6           0       -3.467459    0.513428    0.451248
      2          6           0       -1.136119    0.028177   -0.068968
      3          6           0        0.370056    1.789159   -0.180891
      4          6           0        1.227650   -0.303844    0.138508
      5          6           0        3.538300   -0.527320    0.249963
      6          6           0       -0.097293   -0.855779    0.058489
      7          1           0        3.772951   -0.074830   -0.719719
      8          1           0        4.125949   -1.422644    0.394839
      9          1           0        3.659591    0.155619    1.117640
     10          1           0        1.471333    3.451858   -0.555782
     11          1           0       -3.816799    0.840194   -0.539293
     12          1           0       -4.222729   -0.092892    0.947101
     13          1           0       -3.147608    1.414602    1.022100
     14          1           0       -0.252927    3.680339   -0.625515
     15          7           0       -0.929589    1.370190   -0.125979
     16          7           0        0.501302    3.161369   -0.241047
     17          7           0        1.480881    1.038958   -0.050514
     18          7           0       -0.182708   -2.303011   -0.052787
     19          8           0        2.206920   -1.141853    0.245001
     20          8           0       -2.371950   -0.415103    0.203670
     21          8           0       -1.121192   -2.779010   -0.653569
 ---------------------------------------------------------------------

 SCF Done:  E(RHF) =  -677.207379699     A.U. after    2 cycles

 The electronic state is 1-A.
 Alpha  occ. eigenvalues --  -21.11382 -21.09342 -21.08899 -15.84455 -15.78388
 Alpha  occ. eigenvalues --  -15.73922 -15.72744 -11.55587 -11.53980 -11.50660
 Alpha  occ. eigenvalues --  -11.43473 -11.42287 -11.41058  -1.85494  -1.82377
 Alpha  occ. eigenvalues --   -1.79830  -1.51682  -1.32286  -1.29347  -1.19823
 Alpha  occ. eigenvalues --   -1.04774  -1.02682  -0.96665  -0.86988  -0.85126
 Alpha  occ. eigenvalues --   -0.74137  -0.70691  -0.66781  -0.66023  -0.63467
 Alpha  occ. eigenvalues --   -0.62562  -0.61521  -0.59612  -0.59308  -0.58407
 Alpha  occ. eigenvalues --   -0.54613  -0.53301  -0.50096  -0.49068  -0.47458
 Alpha  occ. eigenvalues --   -0.46849  -0.43376  -0.41018  -0.36792  -0.36261
 Alpha  occ. eigenvalues --   -0.32345  -0.28232  -0.24630
 Alpha virt. eigenvalues --    0.03213   0.04260   0.04956   0.05386   0.06010
 Alpha virt. eigenvalues --    0.06566   0.06711   0.07379   0.08430   0.09808
 Alpha virt. eigenvalues --    0.10549   0.11251   0.12089   0.12755   0.13106

 Mulliken charges:
               1
     1  C   -3.188716
     2  C    6.434325
     3  C    3.834341
     4  C    6.686613
     5  C   -3.518953
     6  C   -0.136292
     7  H    1.362220
     8  H    1.487586
     9  H    1.365844
    10  H    0.565353
    11  H    1.378277
    12  H    1.458606
    13  H    1.365570
    14  H    0.686804
    15  N   -3.124151
    16  N   -2.978088
    17  N   -3.265537
    18  N    0.126977
    19  O   -4.366196
    20  O   -4.015525
    21  O   -2.159059
 Sum of Mulliken charges =   0.00000

 Dipole moment (field-independent basis, Debye):
    X=              0.3536    Y=              2.6098    Z=             -0.4706  Tot=              2.6754

 Test job not archived.
 1\1\GINC-SE038\SP\RHF\Aug-CC-pVDZ\C6H8N4O3\OHZDE\08-Apr-2025\0\\#t hf
 aug-cc-pvdz iop(5/13=1,5/36=2,99/5=2) pseudo=read geom=check guess=(re
 ad,tcheck) scf=(maxcycle=1)\\title\\0,1\C,0,-3.46746,0.513426,0.451248
 \C,0,-1.13612,0.028177,-0.0689676\C,0,0.370054,1.78916,-0.180891\C,0,1
 .22765,-0.303842,0.138508\C,0,3.5383,-0.527316,0.249963\C,0,-0.0972927
 ,-0.855778,0.0584888\H,0,3.77295,-0.0748265,-0.719719\H,0,4.12595,-1.4
 2264,0.394839\H,0,3.65959,0.155623,1.11764\H,0,1.47133,3.45186,-0.5557
 82\H,0,-3.8168,0.840192,-0.539293\H,0,-4.22273,-0.0928952,0.947101\H,0

 Normal termination of Gaussian 16 at Tue Apr  8 19:41:00 2025.
