 Gaussian 16, Revision C.01,

 ----------------------------------------------------------------------
 #t hf aug-cc-pvdz symm=none int=(grid=ultrafine) guess=(read,tcheck) s
 table=(opt,rrhf)
 ----------------------------------------------------------------------
 -----
 title
 -----
 Symbolic Z-matrix:
 Charge =  0 Multiplicity = 1

 SCF Done:  E(RHF) =  -489.694923998     A.U. after   14 cycles
 Normal termination of Gaussian 16 at Tue Apr  8 22:16:01 2025.
 Gaussian 16:  ES64L-G16RevC.01  3-Jul-2019

 ----------------------------------------------------------------------
 #t hf aug-cc-pvdz iop(5/13=1,5/36=2,99/5=2) pseudo=read geom=check gue
 ss=(read,tcheck) scf=(maxcycle=1)
 ----------------------------------------------------------------------
 -----
 title
 -----
 Structure from the checkpoint file:  "ANI1ccx_957_conf36_mol1.chk"
 Charge =  0 Multiplicity = 1

                         Standard orientation:
 ---------------------------------------------------------------------
 Center     Atomic      Atomic             Coordinates (Angstroms)
 Number     Number       Type             X           Y           Z
 ---------------------------------------------------------------------
      1          6           0       -0.618592    0.589680   -0.269565
      2          6           0       -1.392771   -0.655581    0.079857
      3          6           0        0.693210    0.791469    0.650025
      4          6           0        1.833489    0.053699   -0.016630
      5          1           0       -2.947971    0.431198    0.063835
      6          1           0        2.813850   -1.672208   -0.465671
      7          1           0        0.619912    0.410164    1.709890
      8          1           0        1.038308    1.846701    0.689429
      9          1           0        1.159660   -1.892209   -0.199156
     10          1           0       -1.198942    2.276180    0.668696
     11          1           0       -1.472672    2.303650   -0.944456
     12          1           0       -0.193757    0.526630   -1.261220
     13          7           0       -1.528401    1.694370   -0.152866
     14          7           0        1.926020   -1.241098   -0.177360
     15          8           0        2.857179    0.734797   -0.168946
     16          8           0       -0.896025   -1.750410    0.201250
     17          8           0       -2.672871   -0.494213   -0.108791
 ---------------------------------------------------------------------

 SCF Done:  E(RHF) =  -491.843158374     A.U. after    2 cycles

 The electronic state is 1-A.
 Alpha  occ. eigenvalues --  -21.11818 -21.05474 -21.00133 -15.77659 -15.77050
 Alpha  occ. eigenvalues --  -11.54294 -11.51113 -11.47145 -11.42010  -1.84967
 Alpha  occ. eigenvalues --   -1.69425  -1.66632  -1.40016  -1.33858  -1.13449
 Alpha  occ. eigenvalues --   -0.99933  -0.82352  -0.80054  -0.75264  -0.71441
 Alpha  occ. eigenvalues --   -0.68170  -0.64544  -0.62309  -0.58723  -0.56317
 Alpha  occ. eigenvalues --   -0.53191  -0.51625  -0.49845  -0.47362  -0.42511
 Alpha  occ. eigenvalues --   -0.40119  -0.34660  -0.31103  -0.30522  -0.26563
 Alpha virt. eigenvalues --    0.02922   0.04367   0.04778   0.05457   0.05797
 Alpha virt. eigenvalues --    0.07023   0.07238   0.08084   0.10551   0.10747
 Alpha virt. eigenvalues --    0.11375   0.12085   0.13094   0.13717   0.14030

 Mulliken charges:
               1
     1  C   -1.095176
     2  C    6.626657
     3  C   -3.311893
     4  C    5.661140
     5  H    1.012304
     6  H    0.719270
     7  H    1.271289
     8  H    1.267822
     9  H    0.796324
    10  H    0.503478
    11  H    0.485374
    12  H    1.828571
    13  N   -2.698444
    14  N   -3.174366
    15  O   -3.357218
    16  O   -3.339998
    17  O   -3.195133
 Sum of Mulliken charges =  -0.00000

 Dipole moment (field-independent basis, Debye):
    X=             -1.7620    Y=              1.2928    Z=             -0.4012  Tot=              2.2219

 Test job not archived.
 1\1\GINC-SE339\SP\RHF\Aug-CC-pVDZ\C4H8N2O3\OHZDE\08-Apr-2025\0\\#t hf
 aug-cc-pvdz iop(5/13=1,5/36=2,99/5=2) pseudo=read geom=check guess=(re
 ad,tcheck) scf=(maxcycle=1)\\title\\0,1\C,0,-0.618591,0.589679,-0.2695
 65\C,0,-1.39277,-0.655581,0.079857\C,0,0.693211,0.791468,0.650025\C,0,
 1.83349,0.0536973,-0.0166298\H,0,-2.94797,0.431198,0.0638347\H,0,2.813
 85,-1.67221,-0.465671\H,0,0.619913,0.410163,1.70989\H,0,1.03831,1.8467
 ,0.689429\H,0,1.15966,-1.89221,-0.199156\H,0,-1.19894,2.27618,0.668696
 \H,0,-1.47267,2.30365,-0.944456\H,0,-0.193756,0.526629,-1.26122\N,0,-1

 Normal termination of Gaussian 16 at Tue Apr  8 22:16:08 2025.
