 Gaussian 16, Revision C.01,

 ----------------------------------------------------------------------
 #t hf aug-cc-pvdz symm=none int=(grid=ultrafine) guess=(read,tcheck) s
 table=(opt,rrhf)
 ----------------------------------------------------------------------
 -----
 title
 -----
 Symbolic Z-matrix:
 Charge =  0 Multiplicity = 1

 SCF Done:  E(RHF) =  -276.586599515     A.U. after   15 cycles
 Normal termination of Gaussian 16 at Tue Apr  8 21:29:29 2025.
 Gaussian 16:  ES64L-G16RevC.01  3-Jul-2019

 ----------------------------------------------------------------------
 #t hf aug-cc-pvdz iop(5/13=1,5/36=2,99/5=2) pseudo=read geom=check gue
 ss=(read,tcheck) scf=(maxcycle=1)
 ----------------------------------------------------------------------
 -----
 title
 -----
 Structure from the checkpoint file:  "ANI1ccx_370_conf33_mol1.chk"
 Charge =  0 Multiplicity = 1

                         Standard orientation:
 ---------------------------------------------------------------------
 Center     Atomic      Atomic             Coordinates (Angstroms)
 Number     Number       Type             X           Y           Z
 ---------------------------------------------------------------------
      1          6           0        1.034732    0.104276   -0.012211
      2          1           0        2.127331    0.047692    0.094938
      3          7           0        0.289105    1.142357    0.008917
      4          7           0       -0.990920    0.604280   -0.020267
      5          7           0       -0.975172   -0.675076    0.031554
      6          8           0        0.425399   -1.021784   -0.020387
 ---------------------------------------------------------------------

 SCF Done:  E(RHF) =  -277.751131986     A.U. after    2 cycles

 The electronic state is 1-A.
 Alpha  occ. eigenvalues --  -21.17921 -15.86862 -15.84883 -15.79227 -11.50514
 Alpha  occ. eigenvalues --   -1.97981  -1.55169  -1.34400  -0.92857  -0.89557
 Alpha  occ. eigenvalues --   -0.75702  -0.69721  -0.58195  -0.51571  -0.45979
 Alpha  occ. eigenvalues --   -0.44867  -0.42186  -0.41854
 Alpha virt. eigenvalues --    0.03239   0.09191   0.09408   0.09922   0.13118
 Alpha virt. eigenvalues --    0.13542   0.13923   0.14340   0.16449   0.17106
 Alpha virt. eigenvalues --    0.18910   0.20018   0.20455   0.22625   0.24575

 Mulliken charges:
               1
     1  C    1.717841
     2  H    1.572582
     3  N   -1.860147
     4  N    0.686798
     5  N    0.273099
     6  O   -2.390173
 Sum of Mulliken charges =  -0.00000

 Dipole moment (field-independent basis, Debye):
    X=              2.7945    Y=             -1.3847    Z=              0.0479  Tot=              3.1191

 Test job not archived.
 1\1\GINC-SE041\SP\RHF\Aug-CC-pVDZ\C1H1N3O1\OHZDE\08-Apr-2025\0\\#t hf
 aug-cc-pvdz iop(5/13=1,5/36=2,99/5=2) pseudo=read geom=check guess=(re
 ad,tcheck) scf=(maxcycle=1)\\title\\0,1\C,0,1.03473,0.104284,-0.012211
 1\H,0,2.12733,0.0477084,0.0949375\N,0,0.289096,1.14236,0.0089165\N,0,-
 0.990925,0.604274,-0.020267\N,0,-0.975168,-0.675082,0.0315543\O,0,0.42
 5405,-1.02178,-0.0203872\\Version=ES64L-G16RevC.01\State=1-A\HF=-277.7
 51132\RMSD=8.699e-02\Dipole=1.0994486,-0.544786,0.018841\Quadrupole=1.
 8334207,-2.5960138,0.7625931,-0.5577423,0.1382197,0.0080263\PG=C01 [X(

 Normal termination of Gaussian 16 at Tue Apr  8 21:29:31 2025.
