 Gaussian 16, Revision C.01,

 ----------------------------------------------------------------------
 #t hf aug-cc-pvdz symm=none int=(grid=ultrafine) guess=(read,tcheck) s
 table=(opt,rrhf)
 ----------------------------------------------------------------------
 -----
 title
 -----
 Symbolic Z-matrix:
 Charge =  0 Multiplicity = 1

 SCF Done:  E(RHF) =  -467.576197336     A.U. after   14 cycles
 Normal termination of Gaussian 16 at Tue Apr  8 22:10:19 2025.
 Gaussian 16:  ES64L-G16RevC.01  3-Jul-2019

 ----------------------------------------------------------------------
 #t hf aug-cc-pvdz iop(5/13=1,5/36=2,99/5=2) pseudo=read geom=check gue
 ss=(read,tcheck) scf=(maxcycle=1)
 ----------------------------------------------------------------------
 -----
 title
 -----
 Structure from the checkpoint file:  "ANI1ccx_903_conf1_mol1.chk"
 Charge =  0 Multiplicity = 1

                         Standard orientation:
 ---------------------------------------------------------------------
 Center     Atomic      Atomic             Coordinates (Angstroms)
 Number     Number       Type             X           Y           Z
 ---------------------------------------------------------------------
      1          6           0        2.766091   -0.194947   -0.019083
      2          6           0        1.280951   -0.018175   -0.009188
      3          6           0       -0.629271    1.325150    0.031860
      4          6           0       -0.911087   -1.178220    0.024251
      5          1           0        3.136080    0.444054   -0.779391
      6          1           0        3.103483   -1.249373   -0.147252
      7          1           0        3.126251    0.207886    0.922796
      8          1           0       -2.372819    0.243092    0.078994
      9          1           0        0.927522   -2.103827   -0.097320
     10          7           0        0.787078    1.176063    0.043045
     11          7           0       -1.328359    0.115261    0.037072
     12          7           0        0.498094   -1.164208    0.007343
     13          8           0       -1.202093    2.381519   -0.063652
     14          8           0       -1.630195   -2.135831   -0.030984
 ---------------------------------------------------------------------

 SCF Done:  E(RHF) =  -469.607456161     A.U. after    2 cycles

 The electronic state is 1-A.
 Alpha  occ. eigenvalues --  -21.06833 -21.04822 -15.82333 -15.80060 -15.74634
 Alpha  occ. eigenvalues --  -11.55744 -11.54396 -11.52992 -11.42518  -1.76915
 Alpha  occ. eigenvalues --   -1.73337  -1.54234  -1.38010  -1.33322  -1.13563
 Alpha  occ. eigenvalues --   -0.94160  -0.92433  -0.79796  -0.74837  -0.68836
 Alpha  occ. eigenvalues --   -0.63941  -0.61676  -0.61171  -0.59968  -0.55092
 Alpha  occ. eigenvalues --   -0.53654  -0.51405  -0.49308  -0.41587  -0.35255
 Alpha  occ. eigenvalues --   -0.34560  -0.33260  -0.30567
 Alpha virt. eigenvalues --    0.02222   0.04747   0.05416   0.05814   0.06686
 Alpha virt. eigenvalues --    0.09011   0.09704   0.10108   0.10438   0.11578
 Alpha virt. eigenvalues --    0.11890   0.12417   0.13305   0.14004   0.14620

 Mulliken charges:
               1
     1  C   -4.870751
     2  C    3.803584
     3  C    5.550638
     4  C    5.641589
     5  H    1.248760
     6  H    1.364617
     7  H    1.231801
     8  H    0.526558
     9  H    0.600851
    10  N   -3.335760
    11  N   -2.411663
    12  N   -2.784179
    13  O   -3.267128
    14  O   -3.298918
 Sum of Mulliken charges =  -0.00000

 Dipole moment (field-independent basis, Debye):
    X=              2.7497    Y=             -2.8500    Z=             -0.0427  Tot=              3.9604

 Test job not archived.
 1\1\GINC-SE187\SP\RHF\Aug-CC-pVDZ\C4H5N3O2\OHZDE\08-Apr-2025\0\\#t hf
 aug-cc-pvdz iop(5/13=1,5/36=2,99/5=2) pseudo=read geom=check guess=(re
 ad,tcheck) scf=(maxcycle=1)\\title\\0,1\C,0,2.76609,-0.194954,-0.01908
 32\C,0,1.28095,-0.0181792,-0.00918757\C,0,-0.62927,1.32515,0.0318597\C
 ,0,-0.91109,-1.17822,0.0242509\H,0,3.13608,0.444047,-0.779391\H,0,3.10
 348,-1.24938,-0.147252\H,0,3.12625,0.207879,0.922796\H,0,-2.37282,0.24
 3095,0.0789944\H,0,0.927517,-2.10383,-0.0973195\N,0,0.787079,1.17606,0
 .0430446\N,0,-1.32836,0.115262,0.0370721\N,0,0.498091,-1.16421,0.00734

 Normal termination of Gaussian 16 at Tue Apr  8 22:10:25 2025.
