 Gaussian 16, Revision C.01,

 ----------------------------------------------------------------------
 #t hf aug-cc-pvdz symm=none int=(grid=ultrafine) guess=(read,tcheck) s
 table=(opt,rrhf)
 ----------------------------------------------------------------------
 -----
 title
 -----
 Symbolic Z-matrix:
 Charge =  0 Multiplicity = 1

 SCF Done:  E(RHF) =  -456.235396750     A.U. after   12 cycles
 Normal termination of Gaussian 16 at Tue Apr  8 21:09:49 2025.
 Gaussian 16:  ES64L-G16RevC.01  3-Jul-2019

 ----------------------------------------------------------------------
 #t hf aug-cc-pvdz iop(5/13=1,5/36=2,99/5=2) pseudo=read geom=check gue
 ss=(read,tcheck) scf=(maxcycle=1)
 ----------------------------------------------------------------------
 -----
 title
 -----
 Structure from the checkpoint file:  "ANI1ccx_1844_conf475_mol1.chk"
 Charge =  0 Multiplicity = 1

                         Standard orientation:
 ---------------------------------------------------------------------
 Center     Atomic      Atomic             Coordinates (Angstroms)
 Number     Number       Type             X           Y           Z
 ---------------------------------------------------------------------
      1          1           0        0.065033    0.731315    1.624420
      2          1           0       -0.903667   -1.765429   -0.460627
      3          1           0        0.338482   -0.872910   -0.371490
      4          1           0       -3.099550   -0.971394    1.014430
      5          1           0       -1.582289    0.253421   -1.322350
      6          1           0       -0.291484    0.571605   -1.980570
      7          1           0       -1.371360   -0.510184    1.084530
      8          1           0        0.535685    3.130429    0.266387
      9          1           0        2.544259   -1.565783   -0.550018
     10          1           0        3.314781   -0.475113    0.234210
     11          1           0        0.913014   -0.349238    1.152320
     12          1           0       -0.216137    1.862110   -0.352938
     13          8           0       -2.230110   -0.770409    0.493135
     14          8           0        0.164486   -0.179260    1.726950
     15          8           0        2.510600   -0.640484   -0.241348
     16          8           0        0.437674    2.156249    0.332645
     17          8           0       -0.947014    1.010801   -1.498810
     18          8           0        0.033518   -1.581750   -0.854863
 ---------------------------------------------------------------------

 SCF Done:  E(RHF) =  -458.197653401     A.U. after    2 cycles

 The electronic state is 1-A.
 Alpha  occ. eigenvalues --  -21.11271 -21.10114 -21.09618 -21.06870 -21.06674
 Alpha  occ. eigenvalues --  -21.06092  -1.70002  -1.68917  -1.68117  -1.64645
 Alpha  occ. eigenvalues --   -1.62512  -1.61531  -0.66854  -0.65631  -0.65115
 Alpha  occ. eigenvalues --   -0.63656  -0.62633  -0.60489  -0.53364  -0.48671
 Alpha  occ. eigenvalues --   -0.47135  -0.46325  -0.44326  -0.40753  -0.37543
 Alpha  occ. eigenvalues --   -0.35690  -0.34793  -0.33717  -0.33546  -0.32060
 Alpha virt. eigenvalues --    0.03903   0.04636   0.04956   0.06149   0.07214
 Alpha virt. eigenvalues --    0.07525   0.07943   0.08363   0.08853   0.10393
 Alpha virt. eigenvalues --    0.11630   0.13288   0.18829   0.19756   0.20075

 Mulliken charges:
               1
     1  H    1.112248
     2  H    0.980693
     3  H    1.827229
     4  H    0.933829
     5  H    1.225753
     6  H    0.952953
     7  H    1.566811
     8  H    0.980746
     9  H    0.830463
    10  H    1.028269
    11  H    1.441791
    12  H    1.700444
    13  O   -2.230651
    14  O   -2.780382
    15  O   -1.946910
    16  O   -2.248158
    17  O   -2.777263
    18  O   -2.597866
 Sum of Mulliken charges =  -0.00000

 Dipole moment (field-independent basis, Debye):
    X=              1.1437    Y=              0.2442    Z=              0.2079  Tot=              1.1878

 Test job not archived.
 1\1\GINC-SE220\SP\RHF\Aug-CC-pVDZ\H12O6\OHZDE\08-Apr-2025\0\\#t hf aug
 -cc-pvdz iop(5/13=1,5/36=2,99/5=2) pseudo=read geom=check guess=(read,
 tcheck) scf=(maxcycle=1)\\title\\0,1\H,0,0.0650307,0.731315,1.62442\H,
 0,-0.903666,-1.76543,-0.460627\H,0,0.338482,-0.872909,-0.37149\H,0,-3.
 09955,-0.971397,1.01443\H,0,-1.58229,0.253419,-1.32235\H,0,-0.291486,0
 .571605,-1.98057\H,0,-1.37136,-0.510185,1.08453\H,0,0.53568,3.13043,0.
 266387\H,0,2.54426,-1.56578,-0.550018\H,0,3.31478,-0.475109,0.23421\H,
 0,0.913013,-0.349237,1.15232\H,0,-0.21614,1.86211,-0.352938\O,0,-2.230

 Normal termination of Gaussian 16 at Tue Apr  8 21:09:55 2025.
