 Gaussian 16, Revision C.01,

 ----------------------------------------------------------------------
 #t hf aug-cc-pvdz symm=none int=(grid=ultrafine) guess=(read,tcheck) s
 table=(opt,rrhf)
 ----------------------------------------------------------------------
 -----
 title
 -----
 Symbolic Z-matrix:
 Charge =  0 Multiplicity = 1

 SCF Done:  E(RHF) =  -407.123769842     A.U. after   14 cycles
 Normal termination of Gaussian 16 at Tue Apr  8 21:49:27 2025.
 Gaussian 16:  ES64L-G16RevC.01  3-Jul-2019

 ----------------------------------------------------------------------
 #t hf aug-cc-pvdz iop(5/13=1,5/36=2,99/5=2) pseudo=read geom=check gue
 ss=(read,tcheck) scf=(maxcycle=1)
 ----------------------------------------------------------------------
 -----
 title
 -----
 Structure from the checkpoint file:  "ANI1ccx_588_conf11_mol2.chk"
 Charge =  0 Multiplicity = 1

                         Standard orientation:
 ---------------------------------------------------------------------
 Center     Atomic      Atomic             Coordinates (Angstroms)
 Number     Number       Type             X           Y           Z
 ---------------------------------------------------------------------
      1          6           0       -1.590210   -0.061505   -0.069882
      2          6           0        1.799580    0.027645   -0.000775
      3          1           0       -2.310810   -1.169160    1.486820
      4          1           0       -0.798632   -1.592020    0.851719
      5          1           0       -3.587440    0.268261   -0.188201
      6          1           0       -2.723360    1.522510   -0.818149
      7          1           0        0.791420   -1.110620   -1.300400
      8          1           0        0.746652    1.815370    0.331538
      9          1           0        2.382230    1.785370    0.808832
     10          1           0        2.984280   -1.371990   -0.514199
     11          7           0       -1.714440   -1.172950    0.652875
     12          7           0       -2.688270    0.766058   -0.131226
     13          7           0       -0.477038    0.277963   -0.696143
     14          7           0        0.586297   -0.622327   -0.443249
     15          7           0        1.535370    1.240220    0.632796
     16          7           0        2.938000   -0.481045   -0.048482
 ---------------------------------------------------------------------

 SCF Done:  E(RHF) =  -409.008632817     A.U. after    2 cycles

 The electronic state is 1-A.
 Alpha  occ. eigenvalues --  -15.78093 -15.77632 -15.74994 -15.73821 -15.70521
 Alpha  occ. eigenvalues --  -15.68745 -11.48740 -11.45415  -1.55366  -1.45537
 Alpha  occ. eigenvalues --   -1.33289  -1.29049  -1.22950  -1.10905  -0.84681
 Alpha  occ. eigenvalues --   -0.80487  -0.73509  -0.70861  -0.70764  -0.61365
 Alpha  occ. eigenvalues --   -0.60679  -0.58270  -0.57489  -0.54704  -0.53059
 Alpha  occ. eigenvalues --   -0.45493  -0.40163  -0.37993  -0.33796  -0.31765
 Alpha  occ. eigenvalues --   -0.28916
 Alpha virt. eigenvalues --    0.03088   0.04593   0.05182   0.05927   0.06481
 Alpha virt. eigenvalues --    0.07427   0.07727   0.08946   0.11642   0.12011
 Alpha virt. eigenvalues --    0.13094   0.13687   0.14207   0.15072   0.15824

 Mulliken charges:
               1
     1  C    5.316141
     2  C    4.740851
     3  H    0.711922
     4  H    0.590573
     5  H    0.547969
     6  H    0.671940
     7  H    0.634312
     8  H    0.638817
     9  H    0.624389
    10  H    0.669942
    11  N   -2.765852
    12  N   -2.929151
    13  N   -1.832061
    14  N   -1.807543
    15  N   -2.725296
    16  N   -3.086951
 Sum of Mulliken charges =  -0.00000

 Dipole moment (field-independent basis, Debye):
    X=             -5.1197    Y=             -0.0771    Z=              0.1079  Tot=              5.1214

 Test job not archived.
 1\1\GINC-SE250\SP\RHF\Aug-CC-pVDZ\C2H8N6\OHZDE\08-Apr-2025\0\\#t hf au
 g-cc-pvdz iop(5/13=1,5/36=2,99/5=2) pseudo=read geom=check guess=(read
 ,tcheck) scf=(maxcycle=1)\\title\\0,1\C,0,-1.59021,-0.0615053,-0.06988
 22\C,0,1.79958,0.0276444,-0.00077521\H,0,-2.31081,-1.16916,1.48682\H,0
 ,-0.798632,-1.59202,0.851719\H,0,-3.58744,0.268261,-0.188201\H,0,-2.72
 336,1.52251,-0.818149\H,0,0.79142,-1.11062,-1.3004\H,0,0.746652,1.8153
 7,0.331538\H,0,2.38223,1.78537,0.808832\H,0,2.98428,-1.37199,-0.514199
 \N,0,-1.71444,-1.17295,0.652875\N,0,-2.68827,0.766058,-0.131226\N,0,-0

 Normal termination of Gaussian 16 at Tue Apr  8 21:49:33 2025.
