 Gaussian 16, Revision C.01,

 ----------------------------------------------------------------------
 #t hf aug-cc-pvdz symm=none int=(grid=ultrafine) guess=(read,tcheck) s
 table=(opt,rrhf)
 ----------------------------------------------------------------------
 -----
 title
 -----
 Symbolic Z-matrix:
 Charge =  0 Multiplicity = 1

 SCF Done:  E(RHF) =  -458.356299621     A.U. after   19 cycles
 Normal termination of Gaussian 16 at Tue Apr  8 21:46:13 2025.
 Gaussian 16:  ES64L-G16RevC.01  3-Jul-2019

 ----------------------------------------------------------------------
 #t hf aug-cc-pvdz iop(5/13=1,5/36=2,99/5=2) pseudo=read geom=check gue
 ss=(read,tcheck) scf=(maxcycle=1)
 ----------------------------------------------------------------------
 -----
 title
 -----
 Structure from the checkpoint file:  "ANI1ccx_509_conf2_mol1.chk"
 Charge =  0 Multiplicity = 1

                         Standard orientation:
 ---------------------------------------------------------------------
 Center     Atomic      Atomic             Coordinates (Angstroms)
 Number     Number       Type             X           Y           Z
 ---------------------------------------------------------------------
      1          6           0       -1.313010   -0.081493   -0.222912
      2          6           0        1.380120   -0.161169    0.332049
      3          1           0       -2.347770   -1.412540    1.011520
      4          1           0       -3.289550    0.339580    0.627115
      5          1           0        2.776040   -1.420281   -0.035218
      6          7           0       -2.342160   -0.346451    0.646745
      7          7           0       -0.790630    1.104850   -0.728583
      8          7           0        0.054726    1.776030   -0.135214
      9          7           0        0.984265    1.171870    0.481355
     10          7           0        2.623310   -0.385796    0.108358
     11          7           0        0.489399   -1.442260   -0.234955
     12          7           0       -0.667679   -1.314070   -0.460312
 ---------------------------------------------------------------------

 SCF Done:  E(RHF) =  -460.397225724     A.U. after    2 cycles

 The electronic state is 1-A.
 Alpha  occ. eigenvalues --  -15.87237 -15.85907 -15.84850 -15.84106 -15.75673
 Alpha  occ. eigenvalues --  -15.75360 -15.73896 -11.59185 -11.48326  -1.68708
 Alpha  occ. eigenvalues --   -1.60095  -1.44711  -1.36563  -1.25699  -1.09019
 Alpha  occ. eigenvalues --   -1.00309  -0.83532  -0.82135  -0.75001  -0.70810
 Alpha  occ. eigenvalues --   -0.67981  -0.62635  -0.61651  -0.58836  -0.56073
 Alpha  occ. eigenvalues --   -0.50211  -0.46980  -0.46050  -0.39479  -0.37615
 Alpha  occ. eigenvalues --   -0.30421  -0.28804
 Alpha virt. eigenvalues --    0.01175   0.03001   0.04324   0.05817   0.08234
 Alpha virt. eigenvalues --    0.08656   0.10315   0.10950   0.11615   0.12282
 Alpha virt. eigenvalues --    0.12431   0.13438   0.14317   0.14658   0.15485

 Mulliken charges:
               1
     1  C    4.314051
     2  C    3.173757
     3  H    0.675504
     4  H    0.679760
     5  H    0.759525
     6  N   -2.615964
     7  N   -1.358787
     8  N   -0.108498
     9  N   -1.223958
    10  N   -2.671718
    11  N   -0.923763
    12  N   -0.699909
 Sum of Mulliken charges =   0.00000

 Dipole moment (field-independent basis, Debye):
    X=             -6.4305    Y=             -3.7041    Z=              1.4146  Tot=              7.5547

 Test job not archived.
 1\1\GINC-SE186\SP\RHF\Aug-CC-pVDZ\C2H3N7\OHZDE\08-Apr-2025\0\\#t hf au
 g-cc-pvdz iop(5/13=1,5/36=2,99/5=2) pseudo=read geom=check guess=(read
 ,tcheck) scf=(maxcycle=1)\\title\\0,1\C,0,-1.31301,-0.0814927,-0.22291
 2\C,0,1.38012,-0.161169,0.332049\H,0,-2.34777,-1.41254,1.01152\H,0,-3.
 28955,0.33958,0.627115\H,0,2.77604,-1.42028,-0.0352182\N,0,-2.34216,-0
 .346451,0.646745\N,0,-0.790631,1.10485,-0.728583\N,0,0.0547254,1.77603
 ,-0.135214\N,0,0.984264,1.17187,0.481355\N,0,2.62331,-0.385795,0.10835
 8\N,0,0.489399,-1.44226,-0.234955\N,0,-0.667679,-1.31407,-0.460312\\Ve

 Normal termination of Gaussian 16 at Tue Apr  8 21:46:19 2025.
