 Gaussian 16, Revision C.01,

 ----------------------------------------------------------------------
 #t hf aug-cc-pvdz symm=none int=(grid=ultrafine) guess=(read,tcheck) s
 table=(opt,rrhf)
 ----------------------------------------------------------------------
 -----
 title
 -----
 Symbolic Z-matrix:
 Charge =  0 Multiplicity = 1

 SCF Done:  E(RHF) =  -456.232798542     A.U. after   11 cycles
 Normal termination of Gaussian 16 at Tue Apr  8 21:08:43 2025.
 Gaussian 16:  ES64L-G16RevC.01  3-Jul-2019

 ----------------------------------------------------------------------
 #t hf aug-cc-pvdz iop(5/13=1,5/36=2,99/5=2) pseudo=read geom=check gue
 ss=(read,tcheck) scf=(maxcycle=1)
 ----------------------------------------------------------------------
 -----
 title
 -----
 Structure from the checkpoint file:  "ANI1ccx_1844_conf324_mol1.chk"
 Charge =  0 Multiplicity = 1

                         Standard orientation:
 ---------------------------------------------------------------------
 Center     Atomic      Atomic             Coordinates (Angstroms)
 Number     Number       Type             X           Y           Z
 ---------------------------------------------------------------------
      1          1           0        2.565570    0.240135   -0.508779
      2          1           0       -2.063430   -1.399440   -1.284880
      3          1           0       -2.633890   -0.227638   -0.205276
      4          1           0        1.943170   -1.643011   -1.459600
      5          1           0        1.343880   -1.436071    0.018765
      6          1           0       -0.080905   -1.488411    1.904760
      7          1           0        3.197581    1.431958    0.165996
      8          1           0       -1.055080   -1.247561    0.614046
      9          1           0        0.051173    0.494606    1.079780
     10          1           0        0.850327    1.528909    0.315665
     11          1           0       -1.308459    1.416349   -0.238876
     12          1           0       -2.886179    1.758380   -0.101998
     13          8           0        2.211610   -1.441801   -0.457236
     14          8           0        0.043574    1.454099    0.905024
     15          8           0       -2.406730   -1.258430   -0.308087
     16          8           0       -0.092484   -1.162551    0.951351
     17          8           0        2.473770    1.186928   -0.458905
     18          8           0       -2.220209    1.293230   -0.669596
 ---------------------------------------------------------------------

 SCF Done:  E(RHF) =  -458.234855610     A.U. after    2 cycles

 The electronic state is 1-A.
 Alpha  occ. eigenvalues --  -21.09583 -21.08427 -21.08388 -21.07889 -21.07483
 Alpha  occ. eigenvalues --  -21.05092  -1.70029  -1.67117  -1.66682  -1.64021
 Alpha  occ. eigenvalues --   -1.62840  -1.60990  -0.66502  -0.64200  -0.63912
 Alpha  occ. eigenvalues --   -0.63232  -0.63098  -0.61990  -0.54016  -0.50475
 Alpha  occ. eigenvalues --   -0.49118  -0.46762  -0.45247  -0.41700  -0.36044
 Alpha  occ. eigenvalues --   -0.34863  -0.34572  -0.33271  -0.32499  -0.31602
 Alpha virt. eigenvalues --    0.03606   0.04671   0.04983   0.05551   0.06512
 Alpha virt. eigenvalues --    0.07630   0.07909   0.08403   0.08635   0.09861
 Alpha virt. eigenvalues --    0.10991   0.12549   0.16708   0.18929   0.20315

 Mulliken charges:
               1
     1  H    1.473929
     2  H    0.710622
     3  H    1.478019
     4  H    0.653324
     5  H    1.825256
     6  H    0.889904
     7  H    0.784244
     8  H    1.821744
     9  H    1.753425
    10  H    1.203127
    11  H    1.472943
    12  H    0.746111
    13  O   -2.210573
    14  O   -2.594302
    15  O   -2.341631
    16  O   -3.316366
    17  O   -2.124405
    18  O   -2.225371
 Sum of Mulliken charges =   0.00000

 Dipole moment (field-independent basis, Debye):
    X=             -0.3743    Y=             -0.9740    Z=              0.4723  Tot=              1.1454

 Test job not archived.
 1\1\GINC-SE364\SP\RHF\Aug-CC-pVDZ\H12O6\OHZDE\08-Apr-2025\0\\#t hf aug
 -cc-pvdz iop(5/13=1,5/36=2,99/5=2) pseudo=read geom=check guess=(read,
 tcheck) scf=(maxcycle=1)\\title\\0,1\H,0,2.56557,0.240137,-0.508779\H,
 0,-2.06343,-1.39944,-1.28488\H,0,-2.63389,-0.227638,-0.205276\H,0,1.94
 317,-1.64301,-1.4596\H,0,1.34388,-1.43607,0.0187651\H,0,-0.0809049,-1.
 48841,1.90476\H,0,3.19758,1.43196,0.165996\H,0,-1.05508,-1.24756,0.614
 046\H,0,0.0511729,0.494607,1.07978\H,0,0.850326,1.52891,0.315665\H,0,-
 1.30846,1.41635,-0.238876\H,0,-2.88618,1.75838,-0.101998\O,0,2.21161,-

 Normal termination of Gaussian 16 at Tue Apr  8 21:08:48 2025.
