 Gaussian 16, Revision C.01,

 ----------------------------------------------------------------------
 #t hf aug-cc-pvdz symm=none int=(grid=ultrafine) guess=(read,tcheck) s
 table=(opt,rrhf)
 ----------------------------------------------------------------------
 -----
 title
 -----
 Symbolic Z-matrix:
 Charge =  0 Multiplicity = 1

 SCF Done:  E(RHF) =  -1021.12853639     A.U. after   15 cycles
 Normal termination of Gaussian 16 at Tue Apr  8 22:15:00 2025.
 Gaussian 16:  ES64L-G16RevC.01  3-Jul-2019

 ----------------------------------------------------------------------
 #t hf aug-cc-pvdz iop(5/13=1,5/36=2,99/5=2) pseudo=read geom=check gue
 ss=(read,tcheck) scf=(maxcycle=1)
 ----------------------------------------------------------------------
 -----
 title
 -----
 Structure from the checkpoint file:  "ANI1ccx_54_conf2_mol1.chk"
 Charge =  0 Multiplicity = 1

                         Standard orientation:
 ---------------------------------------------------------------------
 Center     Atomic      Atomic             Coordinates (Angstroms)
 Number     Number       Type             X           Y           Z
 ---------------------------------------------------------------------
      1          6           0       -2.094299    1.209731    0.197942
      2          6           0        4.268920   -0.461945   -0.406174
      3          6           0        1.889150   -0.317082   -1.208730
      4          6           0        1.026150   -0.231056    1.174120
      5          6           0        0.757216    0.075136   -0.293797
      6          6           0        3.180930    0.444585   -0.965550
      7          6           0       -3.748860   -0.539768   -0.601517
      8          6           0       -2.733630    0.477671   -0.992523
      9          6           0       -0.862706    2.050391   -0.197938
     10          6           0       -3.246760   -1.940259   -0.258129
     11          1           0       -0.167391   -0.451439   -0.588255
     12          1           0       -0.554548   -1.360489    1.262040
     13          1           0        3.676830   -0.009156    1.424830
     14          1           0        3.604901    0.784057   -1.905190
     15          1           0        3.088911    1.291710   -0.270337
     16          1           0        2.029280   -1.404970   -1.226790
     17          1           0        1.666300   -0.048468   -2.241640
     18          1           0        1.092931    2.129810   -0.572420
     19          1           0       -1.930160   -2.951209    0.522583
     20          1           0       -4.378170   -0.165630    0.218648
     21          1           0       -4.504060   -0.749304   -1.362690
     22          1           0       -3.158709    1.327381   -1.566970
     23          1           0       -1.967670    0.071384   -1.655190
     24          1           0       -1.806550    0.477670    0.959346
     25          1           0       -2.768469    2.482361    1.682350
     26          1           0       -3.376749    2.780641    0.224496
     27          7           0       -3.105039    2.041321    0.851048
     28          7           0        0.354156    1.451780   -0.483099
     29          8           0       -0.914055    3.272051   -0.252040
     30          8           0       -3.794520   -2.971569   -0.487675
     31          8           0       -2.033670   -1.968289    0.383368
     32          8           0        1.978520    0.231425    1.749820
     33          8           0        5.008260   -1.102671   -1.126280
     34          8           0        4.308500   -0.546618    0.918912
     35          8           0        0.208568   -1.071890    1.793060
 ---------------------------------------------------------------------

 SCF Done:  E(RHF) =  -1025.59042172     A.U. after    2 cycles

 The electronic state is 1-A.
 Alpha  occ. eigenvalues --  -21.16541 -21.15327 -21.09825 -21.09704 -21.07980
 Alpha  occ. eigenvalues --  -21.05210 -21.03537 -15.78952 -15.75661 -11.59355
 Alpha  occ. eigenvalues --  -11.58434 -11.56016 -11.54333 -11.52097 -11.51477
 Alpha  occ. eigenvalues --  -11.47425 -11.47057 -11.43027 -11.41417  -1.88259
 Alpha  occ. eigenvalues --   -1.87009  -1.81071  -1.73403  -1.70407  -1.69077
 Alpha  occ. eigenvalues --   -1.63816  -1.44869  -1.38635  -1.23768  -1.22594
 Alpha  occ. eigenvalues --   -1.10003  -1.06851  -0.95843  -0.95572  -0.85334
 Alpha  occ. eigenvalues --   -0.83679  -0.82413  -0.79469  -0.76158  -0.74046
 Alpha  occ. eigenvalues --   -0.71852  -0.69106  -0.68013  -0.67775  -0.65498
 Alpha  occ. eigenvalues --   -0.63592  -0.63056  -0.61289  -0.60641  -0.58551
 Alpha  occ. eigenvalues --   -0.57746  -0.57160  -0.56995  -0.55307  -0.54587
 Alpha  occ. eigenvalues --   -0.54166  -0.52753  -0.50777  -0.49777  -0.49106
 Alpha  occ. eigenvalues --   -0.48094  -0.47195  -0.45841  -0.41593  -0.38866
 Alpha  occ. eigenvalues --   -0.38654  -0.36966  -0.36459  -0.33649  -0.31867
 Alpha  occ. eigenvalues --   -0.31341  -0.30753  -0.28595
 Alpha virt. eigenvalues --    0.02872   0.03267   0.03847   0.04593   0.05061
 Alpha virt. eigenvalues --    0.05101   0.05621   0.06004   0.06449   0.07060
 Alpha virt. eigenvalues --    0.07299   0.07990   0.08219   0.08308   0.08819

 Mulliken charges:
               1
     1  C   -1.150053
     2  C    6.148153
     3  C   -4.542929
     4  C    6.323242
     5  C    0.199186
     6  C   -3.683700
     7  C   -3.990207
     8  C   -3.511367
     9  C    5.869284
    10  C    6.159833
    11  H    2.572945
    12  H    1.837695
    13  H    1.459580
    14  H    1.260421
    15  H    1.838982
    16  H    1.493052
    17  H    1.319543
    18  H    0.611248
    19  H    0.835689
    20  H    1.678461
    21  H    1.270515
    22  H    1.309100
    23  H    2.153813
    24  H    2.278236
    25  H    0.617721
    26  H    0.555235
    27  N   -2.989680
    28  N   -3.258494
    29  O   -3.830045
    30  O   -3.348445
    31  O   -3.048525
    32  O   -3.672168
    33  O   -3.360086
    34  O   -3.527162
    35  O   -3.879072
 Sum of Mulliken charges =  -0.00000

 Dipole moment (field-independent basis, Debye):
    X=             -4.0647    Y=              0.4539    Z=             -0.1754  Tot=              4.0938

 Test job not archived.
 1\1\GINC-SE150\SP\RHF\Aug-CC-pVDZ\C10H16N2O7\OHZDE\08-Apr-2025\0\\#t h
 f aug-cc-pvdz iop(5/13=1,5/36=2,99/5=2) pseudo=read geom=check guess=(
 read,tcheck) scf=(maxcycle=1)\\title\\0,1\C,0,-2.0943,1.20973,0.197942
 \C,0,4.26892,-0.461944,-0.406174\C,0,1.88915,-0.317082,-1.20873\C,0,1.
 02615,-0.231056,1.17412\C,0,0.757216,0.0751359,-0.293797\C,0,3.18093,0
 .444585,-0.96555\C,0,-3.74886,-0.539769,-0.601517\C,0,-2.73363,0.47767
 ,-0.992523\C,0,-0.862707,2.05039,-0.197938\C,0,-3.24676,-1.94026,-0.25
 8129\H,0,-0.167391,-0.451439,-0.588255\H,0,-0.554548,-1.36049,1.26204\

 Normal termination of Gaussian 16 at Tue Apr  8 22:16:02 2025.
