 Gaussian 16, Revision C.01,

 ----------------------------------------------------------------------
 #t hf aug-cc-pvdz symm=none int=(grid=ultrafine) guess=(read,tcheck) s
 table=(opt,rrhf)
 ----------------------------------------------------------------------
 -----
 title
 -----
 Symbolic Z-matrix:
 Charge =  0 Multiplicity = 1

 SCF Done:  E(RHF) =  -848.827299823     A.U. after   14 cycles
 Normal termination of Gaussian 16 at Tue Apr  8 21:20:54 2025.
 Gaussian 16:  ES64L-G16RevC.01  3-Jul-2019

 ----------------------------------------------------------------------
 #t hf aug-cc-pvdz iop(5/13=1,5/36=2,99/5=2) pseudo=read geom=check gue
 ss=(read,tcheck) scf=(maxcycle=1)
 ----------------------------------------------------------------------
 -----
 title
 -----
 Structure from the checkpoint file:  "ANI1ccx_1786_conf4_mol1.chk"
 Charge =  0 Multiplicity = 1

                         Standard orientation:
 ---------------------------------------------------------------------
 Center     Atomic      Atomic             Coordinates (Angstroms)
 Number     Number       Type             X           Y           Z
 ---------------------------------------------------------------------
      1          6           0        1.156278    2.163551   -0.096451
      2          6           0       -2.727289   -0.842839    0.765314
      3          6           0       -2.314340    0.350024   -0.086807
      4          6           0        1.427212   -2.257568   -0.597880
      5          6           0       -2.677350    0.050525   -1.559600
      6          6           0        2.188910    0.202213    1.324770
      7          6           0        1.739369    1.645982    1.226020
      8          6           0       -0.367781    1.872380   -0.341688
      9          6           0        2.864911   -0.410429    0.113360
     10          1           0        3.162373   -3.058487   -0.976089
     11          1           0       -1.069198   -1.621871    0.367556
     12          1           0       -2.156169   -0.838010   -1.954460
     13          1           0       -2.583871    0.971799   -2.161850
     14          1           0       -3.727129   -0.302294   -1.732740
     15          1           0       -2.845931    1.219548    0.319728
     16          1           0       -0.361657    0.160323    0.812584
     17          1           0        1.955484   -4.164098   -0.481579
     18          1           0       -0.083584   -3.400940   -0.291678
     19          1           0        3.663191   -1.118837    0.399246
     20          1           0        0.884608    4.037271    0.694245
     21          1           0        3.477750    0.306583   -0.470570
     22          1           0        1.369941   -0.458811    1.668320
     23          1           0        2.865890    0.127443    2.191050
     24          1           0        2.596838    2.332213    1.375820
     25          1           0        1.020909    1.934731    2.014880
     26          1           0        1.658209    1.667662   -0.959669
     27          1           0        0.852190    3.925001   -0.970969
     28          1           0        1.137451   -0.431535   -0.937323
     29          7           0        1.326047    3.622251   -0.126788
     30          7           0        1.949101   -1.020348   -0.836292
     31          7           0        0.138430   -2.431810   -0.586568
     32          7           0        2.346293   -3.251118   -0.400998
     33          7           0       -0.863121    0.602973    0.031111
     34          8           0       -3.847749   -0.970184    1.180310
     35          8           0       -1.086132    2.687249   -0.934355
     36          8           0       -1.795378   -1.790111    1.010050
 ---------------------------------------------------------------------

 SCF Done:  E(RHF) =  -852.731784040     A.U. after    2 cycles

 The electronic state is 1-A.
 Alpha  occ. eigenvalues --  -21.08549 -21.04247 -21.02987 -15.79697 -15.76996
 Alpha  occ. eigenvalues --  -15.76702 -15.73761 -15.72119 -11.54264 -11.52241
 Alpha  occ. eigenvalues --  -11.51437 -11.50684 -11.48389 -11.45214 -11.44612
 Alpha  occ. eigenvalues --  -11.40254 -11.38043  -1.80442  -1.71259  -1.63506
 Alpha  occ. eigenvalues --   -1.54106  -1.40744  -1.37268  -1.34554  -1.26468
 Alpha  occ. eigenvalues --   -1.19612  -1.13943  -1.05476  -0.98157  -0.93926
 Alpha  occ. eigenvalues --   -0.88796  -0.84696  -0.79121  -0.78436  -0.75193
 Alpha  occ. eigenvalues --   -0.72166  -0.69852  -0.68588  -0.66920  -0.66194
 Alpha  occ. eigenvalues --   -0.64609  -0.64029  -0.60485  -0.59534  -0.58628
 Alpha  occ. eigenvalues --   -0.56957  -0.56011  -0.55156  -0.54457  -0.51844
 Alpha  occ. eigenvalues --   -0.51424  -0.50188  -0.49704  -0.48681  -0.47356
 Alpha  occ. eigenvalues --   -0.46901  -0.45183  -0.43651  -0.40904  -0.38585
 Alpha  occ. eigenvalues --   -0.36884  -0.33805  -0.33350  -0.31547  -0.29596
 Alpha  occ. eigenvalues --   -0.27240
 Alpha virt. eigenvalues --    0.02801   0.03610   0.04140   0.04599   0.05124
 Alpha virt. eigenvalues --    0.05217   0.05837   0.06125   0.06293   0.06652
 Alpha virt. eigenvalues --    0.07114   0.07674   0.07976   0.08133   0.08612

 Mulliken charges:
               1
     1  C    0.546988
     2  C    6.654211
     3  C   -3.315955
     4  C    5.369394
     5  C   -4.089416
     6  C   -3.135886
     7  C   -3.029607
     8  C    4.840124
     9  C   -3.290916
    10  H    0.614845
    11  H    2.090776
    12  H    1.687822
    13  H    1.424190
    14  H    1.164904
    15  H    1.958020
    16  H    0.697305
    17  H    0.671822
    18  H    0.601171
    19  H    1.641983
    20  H    0.622831
    21  H    1.636260
    22  H    2.076155
    23  H    1.308933
    24  H    1.046242
    25  H    1.328559
    26  H    2.291710
    27  H    0.547264
    28  H    1.002873
    29  N   -3.340602
    30  N   -2.845686
    31  N   -2.950949
    32  N   -3.201815
    33  N   -1.838141
    34  O   -3.548258
    35  O   -3.422146
    36  O   -3.815003
 Sum of Mulliken charges =  -0.00000

 Dipole moment (field-independent basis, Debye):
    X=              5.9123    Y=             -1.8111    Z=             -0.2508  Tot=              6.1886

 Test job not archived.
 1\1\GINC-SE212\SP\RHF\Aug-CC-pVDZ\C9H19N5O3\OHZDE\08-Apr-2025\0\\#t hf
  aug-cc-pvdz iop(5/13=1,5/36=2,99/5=2) pseudo=read geom=check guess=(r
 ead,tcheck) scf=(maxcycle=1)\\title\\0,1\C,0,1.15628,2.16355,-0.096450
 5\C,0,-2.72729,-0.842837,0.765314\C,0,-2.31434,0.350026,-0.0868071\C,0
 ,1.42721,-2.25757,-0.59788\C,0,-2.67735,0.050527,-1.5596\C,0,2.18891,0
 .202211,1.32477\C,0,1.73937,1.64598,1.22602\C,0,-0.36778,1.87238,-0.34
 1688\C,0,2.86491,-0.410432,0.11336\H,0,3.16237,-3.05849,-0.976089\H,0,
 -1.0692,-1.62187,0.367556\H,0,-2.15617,-0.838008,-1.95446\H,0,-2.58387

 Normal termination of Gaussian 16 at Tue Apr  8 21:21:54 2025.
