 Gaussian 16, Revision C.01,

 ----------------------------------------------------------------------
 #t hf aug-cc-pvdz symm=none int=(grid=ultrafine) guess=(read,tcheck) s
 table=(opt,rrhf)
 ----------------------------------------------------------------------
 -----
 title
 -----
 Symbolic Z-matrix:
 Charge =  0 Multiplicity = 1

 SCF Done:  E(RHF) =  -743.658167070     A.U. after   14 cycles
 Normal termination of Gaussian 16 at Tue Apr  8 22:12:46 2025.
 Gaussian 16:  ES64L-G16RevC.01  3-Jul-2019

 ----------------------------------------------------------------------
 #t hf aug-cc-pvdz iop(5/13=1,5/36=2,99/5=2) pseudo=read geom=check gue
 ss=(read,tcheck) scf=(maxcycle=1)
 ----------------------------------------------------------------------
 -----
 title
 -----
 Structure from the checkpoint file:  "ANI1ccx_77_conf1_mol1.chk"
 Charge =  0 Multiplicity = 1

                         Standard orientation:
 ---------------------------------------------------------------------
 Center     Atomic      Atomic             Coordinates (Angstroms)
 Number     Number       Type             X           Y           Z
 ---------------------------------------------------------------------
      1          6           0       -3.450210    1.496279    0.295957
      2          6           0       -0.219492   -2.012190    0.028892
      3          6           0        2.122560   -1.772640   -0.550349
      4          6           0        2.702460   -1.316820    0.812899
      5          6           0        2.935780    0.926374    0.116589
      6          6           0       -1.563450   -1.627760   -0.574495
      7          6           0        0.010991    1.360680    0.049152
      8          6           0       -1.054290    0.784690   -0.914181
      9          6           0       -3.031820    0.060484    0.343582
     10          6           0        2.187130    2.216730    0.048433
     11          1           0        2.307730   -1.876010    1.671670
     12          1           0       -1.521500   -1.822710   -1.624910
     13          1           0       -2.344130   -2.175200   -0.078354
     14          1           0       -0.045672   -3.131670    0.014267
     15          1           0       -0.184804   -1.695340    1.089630
     16          1           0        2.309170   -2.917790   -0.449907
     17          1           0        2.763440   -1.420990   -1.396320
     18          1           0        3.777040   -1.554930    0.863735
     19          1           0        2.824410    0.491483   -0.918129
     20          1           0        0.469876    0.496720    0.527252
     21          1           0        2.089180    2.698380    1.100800
     22          1           0        2.796510    2.896460   -0.548814
     23          1           0       -0.526735    1.969720    0.748376
     24          1           0       -0.539906    0.511358   -1.884800
     25          1           0       -1.744270    1.529380   -1.254080
     26          1           0       -3.928050    1.768979   -0.686336
     27          1           0       -2.558810    2.239330    0.425597
     28          1           0       -4.119310    1.656679    1.178280
     29          1           0        3.998750    1.083790    0.267409
     30          7           0       -1.864390   -0.267770   -0.305989
     31          8           0        2.446570    0.043431    1.095060
     32          8           0       -3.726690   -0.745247    0.922620
     33          8           0        0.928023    2.156150   -0.615810
     34          8           0        0.775829   -1.400360   -0.757163
 ---------------------------------------------------------------------

 SCF Done:  E(RHF) =  -747.078485646     A.U. after    2 cycles

 The electronic state is 1-A.
 Alpha  occ. eigenvalues --  -21.05468 -21.05066 -21.04391 -21.01275 -15.73400
 Alpha  occ. eigenvalues --  -11.50408 -11.48630 -11.48351 -11.47046 -11.46804
 Alpha  occ. eigenvalues --  -11.41370 -11.40056 -11.39474 -11.39138 -11.38392
 Alpha  occ. eigenvalues --   -1.79768  -1.76578  -1.74036  -1.70324  -1.43579
 Alpha  occ. eigenvalues --   -1.16255  -1.12303  -1.10090  -1.06533  -1.00400
 Alpha  occ. eigenvalues --   -0.92884  -0.88887  -0.85618  -0.82396  -0.74800
 Alpha  occ. eigenvalues --   -0.69457  -0.69340  -0.68892  -0.66351  -0.64717
 Alpha  occ. eigenvalues --   -0.63219  -0.62265  -0.59980  -0.59335  -0.58819
 Alpha  occ. eigenvalues --   -0.57609  -0.55764  -0.54226  -0.51712  -0.51565
 Alpha  occ. eigenvalues --   -0.50900  -0.49218  -0.47675  -0.47313  -0.44786
 Alpha  occ. eigenvalues --   -0.43782  -0.40222  -0.39015  -0.37056  -0.32406
 Alpha  occ. eigenvalues --   -0.30857  -0.28481  -0.28069  -0.27250
 Alpha virt. eigenvalues --    0.03910   0.04018   0.04305   0.04619   0.04720
 Alpha virt. eigenvalues --    0.05071   0.05537   0.06093   0.06511   0.06910
 Alpha virt. eigenvalues --    0.06928   0.07414   0.08288   0.08502   0.08929

 Mulliken charges:
               1
     1  C   -4.645823
     2  C   -1.651505
     3  C   -1.356411
     4  C   -1.504363
     5  C   -1.444953
     6  C   -3.324706
     7  C   -1.654839
     8  C   -2.448515
     9  C    5.841063
    10  C   -2.158300
    11  H    1.522317
    12  H    1.597269
    13  H    1.611728
    14  H    1.463884
    15  H    2.155036
    16  H    1.331483
    17  H    1.538847
    18  H    1.569071
    19  H    2.227413
    20  H    3.233762
    21  H    1.673737
    22  H    1.180821
    23  H    1.660104
    24  H    1.530090
    25  H    1.874831
    26  H    1.251965
    27  H    1.155413
    28  H    1.056373
    29  H    1.555286
    30  N   -2.910598
    31  O   -3.526863
    32  O   -3.511534
    33  O   -3.922454
    34  O   -2.969626
 Sum of Mulliken charges =  -0.00000

 Dipole moment (field-independent basis, Debye):
    X=              2.2519    Y=              0.0251    Z=             -1.2521  Tot=              2.5767

 Test job not archived.
 1\1\GINC-SE105\SP\RHF\Aug-CC-pVDZ\C10H19N1O4\OHZDE\08-Apr-2025\0\\#t h
 f aug-cc-pvdz iop(5/13=1,5/36=2,99/5=2) pseudo=read geom=check guess=(
 read,tcheck) scf=(maxcycle=1)\\title\\0,1\C,0,-3.45021,1.49628,0.29595
 7\C,0,-0.219492,-2.01219,0.0288919\C,0,2.12256,-1.77264,-0.550349\C,0,
 2.70246,-1.31682,0.812899\C,0,2.93578,0.926374,0.116589\C,0,-1.56345,-
 1.62776,-0.574495\C,0,0.0109907,1.36068,0.0491516\C,0,-1.05429,0.78469
 ,-0.914181\C,0,-3.03182,0.0604842,0.343582\C,0,2.18713,2.21673,0.04843
 22\H,0,2.30773,-1.87601,1.67167\H,0,-1.5215,-1.82271,-1.62491\H,0,-2.3

 Normal termination of Gaussian 16 at Tue Apr  8 22:13:34 2025.
