 Gaussian 16, Revision C.01,

 ----------------------------------------------------------------------
 #t hf aug-cc-pvdz symm=none int=(grid=ultrafine) guess=(read,tcheck) s
 table=(opt,rrhf)
 ----------------------------------------------------------------------
 -----
 title
 -----
 Symbolic Z-matrix:
 Charge =  0 Multiplicity = 1

 SCF Done:  E(RHF) =  -810.431366573     A.U. after   14 cycles
 Normal termination of Gaussian 16 at Tue Apr  8 19:55:14 2025.
 Gaussian 16:  ES64L-G16RevC.01  3-Jul-2019

 ----------------------------------------------------------------------
 #t hf aug-cc-pvdz iop(5/13=1,5/36=2,99/5=2) pseudo=read geom=check gue
 ss=(read,tcheck) scf=(maxcycle=1)
 ----------------------------------------------------------------------
 -----
 title
 -----
 Structure from the checkpoint file:  "ANI1ccx_1427_conf7_mol1.chk"
 Charge =  0 Multiplicity = 1

                         Standard orientation:
 ---------------------------------------------------------------------
 Center     Atomic      Atomic             Coordinates (Angstroms)
 Number     Number       Type             X           Y           Z
 ---------------------------------------------------------------------
      1          6           0        2.255590   -0.850799    0.568189
      2          6           0        1.287529    0.298672    0.083291
      3          6           0        3.465780   -0.920705   -0.352613
      4          6           0       -1.206991    0.665877   -0.324946
      5          6           0       -1.240872    2.230200    0.237907
      6          6           0       -2.578631   -0.008725    0.017338
      7          6           0       -2.447920   -1.522261   -0.142061
      8          1           0        0.436347    2.319611   -0.545273
      9          1           0       -4.363760   -1.561662   -0.832417
     10          1           0       -3.566369   -3.095081   -0.777069
     11          1           0       -2.814101    0.350303    1.060900
     12          1           0       -3.370101    0.249318   -0.657779
     13          1           0       -1.139541    0.777504   -1.480870
     14          1           0       -0.256214   -0.856203    0.709169
     15          1           0        3.686389    0.926675   -0.500918
     16          1           0        3.164720   -1.213758   -1.337250
     17          1           0        4.069070   -1.781788    0.015461
     18          1           0        2.599350   -0.407569    1.504230
     19          1           0        0.883407   -2.451859    0.190101
     20          1           0        1.290850   -2.320519    1.704180
     21          7           0        1.591030   -2.112239    0.779583
     22          7           0       -0.023394   -0.005265    0.257840
     23          7           0       -3.572360   -2.080391   -0.645102
     24          8           0        1.670089    1.235951   -0.606012
     25          8           0        4.284129    0.244482   -0.337205
     26          8           0       -2.247982    2.542649    0.858779
     27          8           0       -1.403790   -2.113480    0.077106
     28          8           0       -0.276684    2.977490   -0.282835
 ---------------------------------------------------------------------

 SCF Done:  E(RHF) =  -814.006527187     A.U. after    2 cycles

 The electronic state is 1-A.
 Alpha  occ. eigenvalues --  -21.11010 -21.06360 -21.06001 -21.05895 -21.05474
 Alpha  occ. eigenvalues --  -15.82026 -15.77810 -15.74797 -11.55639 -11.54825
 Alpha  occ. eigenvalues --  -11.53519 -11.49620 -11.47271 -11.43671 -11.40834
 Alpha  occ. eigenvalues --   -1.81453  -1.75714  -1.75534  -1.70365  -1.66012
 Alpha  occ. eigenvalues --   -1.43128  -1.39997  -1.34608  -1.17336  -1.08498
 Alpha  occ. eigenvalues --   -1.00449  -0.91664  -0.85446  -0.82399  -0.77869
 Alpha  occ. eigenvalues --   -0.75450  -0.74104  -0.70582  -0.68584  -0.67647
 Alpha  occ. eigenvalues --   -0.64580  -0.63058  -0.61371  -0.60062  -0.56962
 Alpha  occ. eigenvalues --   -0.56288  -0.54881  -0.53764  -0.53047  -0.52124
 Alpha  occ. eigenvalues --   -0.50616  -0.49188  -0.47308  -0.45048  -0.41979
 Alpha  occ. eigenvalues --   -0.39003  -0.37585  -0.35819  -0.32999  -0.32138
 Alpha  occ. eigenvalues --   -0.31018  -0.28390  -0.27779
 Alpha virt. eigenvalues --    0.02334   0.03966   0.04415   0.05190   0.05334
 Alpha virt. eigenvalues --    0.05827   0.05881   0.06832   0.07192   0.07847
 Alpha virt. eigenvalues --    0.08407   0.09020   0.09096   0.10239   0.10805

 Mulliken charges:
               1
     1  C   -1.776188
     2  C    6.142650
     3  C   -0.632655
     4  C   -1.597486
     5  C    5.754611
     6  C   -3.438569
     7  C    5.735192
     8  H    1.759516
     9  H    0.746455
    10  H    0.747706
    11  H    1.496614
    12  H    1.427365
    13  H    1.531513
    14  H    1.178871
    15  H    1.057777
    16  H    1.421737
    17  H    1.215322
    18  H    1.842049
    19  H    0.682925
    20  H    0.542071
    21  N   -2.998840
    22  N   -2.978394
    23  N   -3.426715
    24  O   -3.768933
    25  O   -2.868412
    26  O   -3.044119
    27  O   -3.419147
    28  O   -3.332916
 Sum of Mulliken charges =   0.00000

 Dipole moment (field-independent basis, Debye):
    X=             -4.2046    Y=             -3.6720    Z=             -0.7512  Tot=              5.6326

 Test job not archived.
 1\1\GINC-SE340\SP\RHF\Aug-CC-pVDZ\C7H13N3O5\OHZDE\08-Apr-2025\0\\#t hf
  aug-cc-pvdz iop(5/13=1,5/36=2,99/5=2) pseudo=read geom=check guess=(r
 ead,tcheck) scf=(maxcycle=1)\\title\\0,1\C,0,2.25559,-0.8508,0.568189\
 C,0,1.28753,0.298671,0.0832915\C,0,3.46578,-0.920707,-0.352613\C,0,-1.
 20699,0.665877,-0.324946\C,0,-1.24087,2.2302,0.237907\C,0,-2.57863,-0.
 00872417,0.0173379\C,0,-2.44792,-1.52226,-0.142061\H,0,0.436349,2.3196
 1,-0.545273\H,0,-4.36376,-1.56166,-0.832417\H,0,-3.56637,-3.09508,-0.7
 77069\H,0,-2.8141,0.350304,1.0609\H,0,-3.3701,0.249319,-0.657779\H,0,-

 Normal termination of Gaussian 16 at Tue Apr  8 19:55:38 2025.
