 Gaussian 16, Revision C.01,

 ----------------------------------------------------------------------
 #t hf aug-cc-pvdz symm=none int=(grid=ultrafine) guess=(read,tcheck) s
 table=(opt,rrhf)
 ----------------------------------------------------------------------
 -----
 title
 -----
 Symbolic Z-matrix:
 Charge =  0 Multiplicity = 1

 SCF Done:  E(RHF) =  -535.538235884     A.U. after   16 cycles
 Normal termination of Gaussian 16 at Tue Apr  8 22:11:17 2025.
 Gaussian 16:  ES64L-G16RevC.01  3-Jul-2019

 ----------------------------------------------------------------------
 #t hf aug-cc-pvdz iop(5/13=1,5/36=2,99/5=2) pseudo=read geom=check gue
 ss=(read,tcheck) scf=(maxcycle=1)
 ----------------------------------------------------------------------
 -----
 title
 -----
 Structure from the checkpoint file:  "ANI1ccx_911_conf4_mol2.chk"
 Charge =  0 Multiplicity = 1

                         Standard orientation:
 ---------------------------------------------------------------------
 Center     Atomic      Atomic             Coordinates (Angstroms)
 Number     Number       Type             X           Y           Z
 ---------------------------------------------------------------------
      1          6           0        1.649430   -0.519405   -0.020041
      2          6           0        0.258080    1.331711   -0.049249
      3          6           0       -0.872882    0.469319   -0.060951
      4          6           0       -2.260540    0.428281   -0.076402
      5          1           0        3.152959   -1.904029   -0.264905
      6          1           0        3.665030   -0.246906   -0.165226
      7          1           0        0.936422    3.156801    0.258898
      8          1           0       -0.813362    3.024651    0.215275
      9          1           0       -2.961500    1.260151   -0.110411
     10          7           0        2.963730   -0.940763    0.032223
     11          7           0        1.476380    0.856100   -0.004836
     12          7           0        0.107443    2.657301    0.018545
     13          7           0       -2.652340   -0.845930    0.015347
     14          7           0       -1.587760   -1.647639    0.044092
     15          7           0       -0.542805   -0.872551    0.033993
     16          7           0        0.717632   -1.427959    0.047239
 ---------------------------------------------------------------------

 SCF Done:  E(RHF) =  -537.959872513     A.U. after    2 cycles

 The electronic state is 1-A.
 Alpha  occ. eigenvalues --  -15.85764 -15.81242 -15.79172 -15.77725 -15.75760
 Alpha  occ. eigenvalues --  -15.75307 -15.74083 -11.55830 -11.50434 -11.47733
 Alpha  occ. eigenvalues --  -11.43659  -1.74137  -1.54480  -1.46241  -1.37399
 Alpha  occ. eigenvalues --   -1.28238  -1.20453  -1.18831  -0.96158  -0.91731
 Alpha  occ. eigenvalues --   -0.86277  -0.79441  -0.72381  -0.70139  -0.69898
 Alpha  occ. eigenvalues --   -0.67580  -0.62444  -0.61043  -0.59709  -0.58634
 Alpha  occ. eigenvalues --   -0.54374  -0.47746  -0.45608  -0.43681  -0.39470
 Alpha  occ. eigenvalues --   -0.37982  -0.37625  -0.34372  -0.29418
 Alpha virt. eigenvalues --    0.02719   0.04354   0.04621   0.05829   0.06902
 Alpha virt. eigenvalues --    0.08791   0.09436   0.10863   0.11173   0.11789
 Alpha virt. eigenvalues --    0.12196   0.12717   0.13382   0.13780   0.14115

 Mulliken charges:
               1
     1  C    4.419778
     2  C    3.648128
     3  C    4.237278
     4  C   -1.131559
     5  H    0.679357
     6  H    0.610524
     7  H    0.722887
     8  H    0.612090
     9  H    1.274044
    10  N   -2.969491
    11  N   -3.367593
    12  N   -3.501948
    13  N   -2.056350
    14  N   -0.619347
    15  N   -0.195263
    16  N   -2.362534
 Sum of Mulliken charges =   0.00000

 Dipole moment (field-independent basis, Debye):
    X=              3.1941    Y=              4.8635    Z=             -0.2028  Tot=              5.8221

 Test job not archived.
 1\1\GINC-SE367\SP\RHF\Aug-CC-pVDZ\C4H5N7\OHZDE\08-Apr-2025\0\\#t hf au
 g-cc-pvdz iop(5/13=1,5/36=2,99/5=2) pseudo=read geom=check guess=(read
 ,tcheck) scf=(maxcycle=1)\\title\\0,1\C,0,1.64943,-0.519406,-0.0200412
 \C,0,0.25808,1.33171,-0.0492485\C,0,-0.872882,0.469318,-0.060951\C,0,-
 2.26054,0.42828,-0.0764016\H,0,3.15296,-1.90403,-0.264905\H,0,3.66503,
 -0.246907,-0.165226\H,0,0.936422,3.1568,0.258898\H,0,-0.813362,3.02465
 ,0.215275\H,0,-2.9615,1.26015,-0.110411\N,0,2.96373,-0.940764,0.032223
 1\N,0,1.47638,0.856099,-0.00483635\N,0,0.107443,2.6573,0.0185447\N,0,-

 Normal termination of Gaussian 16 at Tue Apr  8 22:11:24 2025.
