 Gaussian 16, Revision C.01,

 ----------------------------------------------------------------------
 #t hf aug-cc-pvdz symm=none int=(grid=ultrafine) guess=(read,tcheck) s
 table=(opt,rrhf)
 ----------------------------------------------------------------------
 -----
 title
 -----
 Symbolic Z-matrix:
 Charge =  0 Multiplicity = 1

 SCF Done:  E(RHF) =  -817.957498503     A.U. after   14 cycles
 Normal termination of Gaussian 16 at Tue Apr  8 21:44:53 2025.
 Gaussian 16:  ES64L-G16RevC.01  3-Jul-2019

 ----------------------------------------------------------------------
 #t hf aug-cc-pvdz iop(5/13=1,5/36=2,99/5=2) pseudo=read geom=check gue
 ss=(read,tcheck) scf=(maxcycle=1)
 ----------------------------------------------------------------------
 -----
 title
 -----
 Structure from the checkpoint file:  "ANI1ccx_211_conf6_mol1.chk"
 Charge =  0 Multiplicity = 1

                         Standard orientation:
 ---------------------------------------------------------------------
 Center     Atomic      Atomic             Coordinates (Angstroms)
 Number     Number       Type             X           Y           Z
 ---------------------------------------------------------------------
      1          6           0        1.072741    1.504220   -0.661317
      2          6           0       -3.813629    0.334292   -2.047150
      3          6           0       -3.253460   -0.634976   -0.920337
      4          6           0       -2.442030   -0.396374    1.460680
      5          6           0       -2.425029    0.215920    0.042238
      6          6           0       -2.643760   -1.929209   -1.305400
      7          6           0        3.339810   -1.763730    0.069329
      8          6           0        2.259250   -0.677969    0.501494
      9          6           0        1.860141    0.126864   -0.773741
     10          6           0       -0.226326    1.339771    0.057610
     11          6           0        4.768030   -1.322461    0.260263
     12          1           0       -0.777173   -0.330347   -1.111320
     13          1           0       -0.945838    0.522451    1.983470
     14          1           0       -1.724240   -1.709809   -1.828690
     15          1           0       -3.222340   -2.405419   -2.031490
     16          1           0       -2.598780   -2.544209   -0.434103
     17          1           0       -4.346999    1.054022   -1.442050
     18          1           0       -4.580069   -0.140213   -2.668760
     19          1           0       -2.972849    0.866212   -2.585170
     20          1           0       -4.172400   -0.942317   -0.354702
     21          1           0       -2.822529    1.219311    0.192116
     22          1           0        6.067701   -0.206775   -0.840475
     23          1           0        3.181440   -2.097670   -1.034200
     24          1           0        4.910650   -0.942018    1.273190
     25          1           0        1.919071    3.332330   -0.736153
     26          1           0        1.289161    2.945210    0.738358
     27          1           0        4.697011    0.699165   -0.357589
     28          1           0        1.279640   -0.524649   -1.405460
     29          1           0        2.769871    0.420448   -1.337820
     30          1           0        0.749880    1.793630   -1.664930
     31          1           0        1.449040   -1.271440    0.970329
     32          1           0        3.100910   -2.687520    0.583178
     33          1           0        5.437220   -2.220661    0.101455
     34          1           0        2.672811   -0.071635    1.351740
     35          7           0        1.790071    2.590140   -0.028974
     36          7           0        5.094711   -0.218584   -0.679888
     37          7           0       -1.033709    0.407784   -0.469448
     38          8           0       -3.465910   -0.963079    1.737600
     39          8           0       -0.534362    1.886581    1.125550
     40          8           0       -1.411369   -0.297449    2.235000
 ---------------------------------------------------------------------

 SCF Done:  E(RHF) =  -821.806929519     A.U. after    2 cycles

 The electronic state is 1-A.
 Alpha  occ. eigenvalues --  -21.10069 -21.05161 -21.02596 -15.77777 -15.73959
 Alpha  occ. eigenvalues --  -15.72444 -11.56239 -11.52092 -11.48189 -11.47328
 Alpha  occ. eigenvalues --  -11.45602 -11.43668 -11.43312 -11.40277 -11.39688
 Alpha  occ. eigenvalues --  -11.37202 -11.36543  -1.83247  -1.74776  -1.65189
 Alpha  occ. eigenvalues --   -1.43568  -1.36643  -1.33136  -1.24241  -1.18734
 Alpha  occ. eigenvalues --   -1.09385  -1.04946  -1.02763  -0.97779  -0.90427
 Alpha  occ. eigenvalues --   -0.84556  -0.82710  -0.81057  -0.78365  -0.72791
 Alpha  occ. eigenvalues --   -0.72663  -0.68787  -0.67640  -0.64790  -0.63493
 Alpha  occ. eigenvalues --   -0.63058  -0.62034  -0.60020  -0.59098  -0.56876
 Alpha  occ. eigenvalues --   -0.56220  -0.55944  -0.55694  -0.54155  -0.52953
 Alpha  occ. eigenvalues --   -0.51771  -0.50968  -0.49380  -0.48585  -0.46681
 Alpha  occ. eigenvalues --   -0.46015  -0.45761  -0.44881  -0.43968  -0.42512
 Alpha  occ. eigenvalues --   -0.42016  -0.36136  -0.34674  -0.33699  -0.32294
 Alpha  occ. eigenvalues --   -0.30783  -0.26851
 Alpha virt. eigenvalues --    0.03632   0.03862   0.04102   0.04302   0.04686
 Alpha virt. eigenvalues --    0.04980   0.05551   0.05786   0.06010   0.06396
 Alpha virt. eigenvalues --    0.06681   0.07100   0.07569   0.07702   0.08224

 Mulliken charges:
               1
     1  C   -1.293874
     2  C   -4.837733
     3  C    0.255743
     4  C    7.367639
     5  C   -3.773963
     6  C   -4.805460
     7  C   -3.265581
     8  C   -2.807631
     9  C   -3.135641
    10  C    6.515120
    11  C   -2.524987
    12  H    0.973163
    13  H    1.363000
    14  H    1.467180
    15  H    1.268582
    16  H    1.334914
    17  H    1.098463
    18  H    1.214541
    19  H    1.339513
    20  H    1.668235
    21  H    1.995249
    22  H    0.622932
    23  H    1.482169
    24  H    1.498334
    25  H    0.447607
    26  H    0.565843
    27  H    0.714587
    28  H    1.818148
    29  H    1.786414
    30  H    1.771161
    31  H    1.502204
    32  H    1.372903
    33  H    1.310037
    34  H    1.576423
    35  N   -2.939248
    36  N   -2.097766
    37  N   -2.202587
    38  O   -3.406522
    39  O   -3.724612
    40  O   -3.514500
 Sum of Mulliken charges =  -0.00000

 Dipole moment (field-independent basis, Debye):
    X=              1.8256    Y=              0.4174    Z=             -2.6041  Tot=              3.2076

 Test job not archived.
 1\1\GINC-SE232\SP\RHF\Aug-CC-pVDZ\C11H23N3O3\OHZDE\08-Apr-2025\0\\#t h
 f aug-cc-pvdz iop(5/13=1,5/36=2,99/5=2) pseudo=read geom=check guess=(
 read,tcheck) scf=(maxcycle=1)\\title\\0,1\C,0,1.07274,1.50422,-0.66131
 7\C,0,-3.81363,0.33429,-2.04715\C,0,-3.25346,-0.634977,-0.920337\C,0,-
 2.44203,-0.396375,1.46068\C,0,-2.42503,0.215919,0.0422374\C,0,-2.64376
 ,-1.92921,-1.3054\C,0,3.33981,-1.76373,0.069329\C,0,2.25925,-0.677969,
 0.501494\C,0,1.86014,0.126864,-0.773741\C,0,-0.226327,1.33977,0.057609
 8\C,0,4.76803,-1.32246,0.260263\H,0,-0.777174,-0.330348,-1.11132\H,0,-

 Normal termination of Gaussian 16 at Tue Apr  8 21:46:02 2025.
