 Gaussian 16, Revision C.01,

 ----------------------------------------------------------------------
 #t hf aug-cc-pvdz symm=none int=(grid=ultrafine) guess=(read,tcheck) s
 table=(opt,rrhf)
 ----------------------------------------------------------------------
 -----
 title
 -----
 Symbolic Z-matrix:
 Charge =  0 Multiplicity = 1

 SCF Done:  E(RHF) =  -524.038554174     A.U. after   16 cycles
 Normal termination of Gaussian 16 at Tue Apr  8 19:20:21 2025.
 Gaussian 16:  ES64L-G16RevC.01  3-Jul-2019

 ----------------------------------------------------------------------
 #t hf aug-cc-pvdz iop(5/13=1,5/36=2,99/5=2) pseudo=read geom=check gue
 ss=(read,tcheck) scf=(maxcycle=1)
 ----------------------------------------------------------------------
 -----
 title
 -----
 Structure from the checkpoint file:  "ANI1ccx_1064_conf8_mol1.chk"
 Charge =  0 Multiplicity = 1

                         Standard orientation:
 ---------------------------------------------------------------------
 Center     Atomic      Atomic             Coordinates (Angstroms)
 Number     Number       Type             X           Y           Z
 ---------------------------------------------------------------------
      1          6           0        0.465957    1.148340    0.231432
      2          6           0       -1.562690    0.172865   -0.126759
      3          6           0       -0.633095   -1.016839    0.259056
      4          6           0        0.703580   -0.232771    0.602616
      5          6           0        1.842069   -0.692051   -0.158572
      6          1           0       -1.326069    2.193371   -0.226139
      7          1           0        0.935449   -0.304414    1.688260
      8          7           0       -0.828213    1.295021   -0.171960
      9          7           0        2.809279   -0.984908   -0.735289
     10          8           0        1.309391    2.029620    0.182617
     11          8           0       -2.763071    0.128904   -0.444705
     12          8           0       -0.842791   -2.200649    0.267336
 ---------------------------------------------------------------------

 SCF Done:  E(RHF) =  -526.237077827     A.U. after    2 cycles

 The electronic state is 1-A.
 Alpha  occ. eigenvalues --  -21.15692 -21.10402 -21.10396 -15.86220 -15.80221
 Alpha  occ. eigenvalues --  -11.61109 -11.58660 -11.55521 -11.52602 -11.47375
 Alpha  occ. eigenvalues --   -1.80988  -1.76778  -1.74471  -1.51521  -1.35265
 Alpha  occ. eigenvalues --   -1.23767  -1.04274  -0.94366  -0.84300  -0.78869
 Alpha  occ. eigenvalues --   -0.73371  -0.69607  -0.64924  -0.61151  -0.58746
 Alpha  occ. eigenvalues --   -0.55307  -0.55218  -0.53938  -0.47558  -0.46838
 Alpha  occ. eigenvalues --   -0.46132  -0.42227  -0.36642  -0.34374  -0.32179
 Alpha virt. eigenvalues --    0.01753   0.04358   0.05071   0.07129   0.08176
 Alpha virt. eigenvalues --    0.08824   0.09118   0.09377   0.10545   0.10941
 Alpha virt. eigenvalues --    0.11723   0.12451   0.12704   0.13185   0.13465

 Mulliken charges:
               1
     1  C    5.731147
     2  C    4.033305
     3  C    3.656959
     4  C   -2.948587
     5  C    2.325143
     6  H    0.738993
     7  H    1.599565
     8  N   -2.676730
     9  N   -2.595392
    10  O   -3.459268
    11  O   -3.165897
    12  O   -3.239237
 Sum of Mulliken charges =   0.00000

 Dipole moment (field-independent basis, Debye):
    X=             -2.2233    Y=              1.3511    Z=              1.8635  Tot=              3.2002

 Test job not archived.
 1\1\GINC-SE340\SP\RHF\Aug-CC-pVDZ\C5H2N2O3\OHZDE\08-Apr-2025\0\\#t hf
 aug-cc-pvdz iop(5/13=1,5/36=2,99/5=2) pseudo=read geom=check guess=(re
 ad,tcheck) scf=(maxcycle=1)\\title\\0,1\C,0,0.465957,1.14834,0.231432\
 C,0,-1.56269,0.172864,-0.126759\C,0,-0.633094,-1.01684,0.259056\C,0,0.
 703581,-0.232771,0.602616\C,0,1.84207,-0.69205,-0.158572\H,0,-1.32607,
 2.19337,-0.226139\H,0,0.93545,-0.304414,1.68826\N,0,-0.828213,1.29502,
 -0.17196\N,0,2.80928,-0.984907,-0.735289\O,0,1.30939,2.02962,0.182617\
 O,0,-2.76307,0.128902,-0.444705\O,0,-0.842789,-2.20065,0.267336\\Versi

 Normal termination of Gaussian 16 at Tue Apr  8 19:20:26 2025.
