 Gaussian 16, Revision C.01,

 ----------------------------------------------------------------------
 #t hf aug-cc-pvdz symm=none int=(grid=ultrafine) guess=(read,tcheck) s
 table=(opt,rrhf)
 ----------------------------------------------------------------------
 -----
 title
 -----
 Symbolic Z-matrix:
 Charge =  0 Multiplicity = 1

 SCF Done:  E(RHF) =  -436.944569875     A.U. after   13 cycles
 Normal termination of Gaussian 16 at Tue Apr  8 22:00:52 2025.
 Gaussian 16:  ES64L-G16RevC.01  3-Jul-2019

 ----------------------------------------------------------------------
 #t hf aug-cc-pvdz iop(5/13=1,5/36=2,99/5=2) pseudo=read geom=check gue
 ss=(read,tcheck) scf=(maxcycle=1)
 ----------------------------------------------------------------------
 -----
 title
 -----
 Structure from the checkpoint file:  "ANI1ccx_818_conf1_mol1.chk"
 Charge =  0 Multiplicity = 1

                         Standard orientation:
 ---------------------------------------------------------------------
 Center     Atomic      Atomic             Coordinates (Angstroms)
 Number     Number       Type             X           Y           Z
 ---------------------------------------------------------------------
      1          6           0       -0.173613   -0.204068    0.024377
      2          6           0       -1.526151   -0.606397   -0.522122
      3          6           0        0.862426   -1.157471   -0.531840
      4          6           0        0.122303    1.177549   -0.522542
      5          1           0        1.351890    1.503959    0.927397
      6          1           0       -0.714048    1.859490   -0.364882
      7          1           0        0.287390    1.080099   -1.588739
      8          1           0        2.353699   -0.014381   -0.190920
      9          1           0        0.580826   -2.168461   -0.225236
     10          1           0        1.002459   -1.140191   -1.606399
     11          1           0       -2.570420    0.393811    0.887813
     12          1           0       -1.745332   -1.616989   -0.201768
     13          1           0       -1.578561   -0.589049   -1.613549
     14          1           0       -0.826022   -0.964617    1.693061
     15          1           0        0.710000   -0.419453    1.778421
     16          7           0       -0.242467   -0.190694    1.459891
     17          8           0       -2.597530    0.244667   -0.060096
     18          8           0        2.144979   -0.941265    0.024044
     19          8           0        1.344501    1.715719   -0.014155
 ---------------------------------------------------------------------

 SCF Done:  E(RHF) =  -438.909651413     A.U. after    2 cycles

 The electronic state is 1-A.
 Alpha  occ. eigenvalues --  -21.07747 -21.07023 -21.06400 -15.75115 -11.47123
 Alpha  occ. eigenvalues --  -11.46630 -11.46035 -11.38976  -1.74937  -1.70380
 Alpha  occ. eigenvalues --   -1.70059  -1.38784  -1.14156  -0.98461  -0.97080
 Alpha  occ. eigenvalues --   -0.82261  -0.72918  -0.69655  -0.67929  -0.62337
 Alpha  occ. eigenvalues --   -0.60347  -0.56146  -0.55756  -0.54830  -0.52911
 Alpha  occ. eigenvalues --   -0.50036  -0.46256  -0.41457  -0.39249  -0.38000
 Alpha  occ. eigenvalues --   -0.34750  -0.30959  -0.29328
 Alpha virt. eigenvalues --    0.03881   0.04733   0.04896   0.05643   0.05827
 Alpha virt. eigenvalues --    0.06103   0.06527   0.06930   0.07591   0.08889
 Alpha virt. eigenvalues --    0.09310   0.12396   0.12584   0.12877   0.14233

 Mulliken charges:
               1
     1  C    3.756635
     2  C   -0.540885
     3  C   -0.891154
     4  C   -0.919063
     5  H    0.841393
     6  H    1.304087
     7  H    1.314684
     8  H    1.008513
     9  H    1.230204
    10  H    1.280120
    11  H    0.823510
    12  H    1.136164
    13  H    1.314641
    14  H    0.447793
    15  H    0.471058
    16  N   -3.902659
    17  O   -2.824191
    18  O   -2.956482
    19  O   -2.894368
 Sum of Mulliken charges =  -0.00000

 Dipole moment (field-independent basis, Debye):
    X=             -0.2348    Y=             -0.9490    Z=              0.1829  Tot=              0.9946

 Test job not archived.
 1\1\GINC-SE334\SP\RHF\Aug-CC-pVDZ\C4H11N1O3\OHZDE\08-Apr-2025\0\\#t hf
  aug-cc-pvdz iop(5/13=1,5/36=2,99/5=2) pseudo=read geom=check guess=(r
 ead,tcheck) scf=(maxcycle=1)\\title\\0,1\C,0,-0.173612,-0.204068,0.024
 3763\C,0,-1.52615,-0.606398,-0.522123\C,0,0.862427,-1.15747,-0.531841\
 C,0,0.122303,1.17755,-0.522543\H,0,1.35189,1.50396,0.927396\H,0,-0.714
 049,1.85949,-0.364883\H,0,0.28739,1.0801,-1.58874\H,0,2.3537,-0.014378
 9,-0.190921\H,0,0.580828,-2.16846,-0.225237\H,0,1.00246,-1.14019,-1.60
 64\H,0,-2.57042,0.39381,0.887812\H,0,-1.74533,-1.61699,-0.201769\H,0,-

 Normal termination of Gaussian 16 at Tue Apr  8 22:01:00 2025.
