 Gaussian 16, Revision C.01,

 ----------------------------------------------------------------------
 #t hf aug-cc-pvdz symm=none int=(grid=ultrafine) guess=(read,tcheck) s
 table=(opt,rrhf)
 ----------------------------------------------------------------------
 -----
 title
 -----
 Symbolic Z-matrix:
 Charge =  0 Multiplicity = 1

 SCF Done:  E(RHF) =  -525.202041205     A.U. after   16 cycles
 Normal termination of Gaussian 16 at Tue Apr  8 19:21:52 2025.
 Gaussian 16:  ES64L-G16RevC.01  3-Jul-2019

 ----------------------------------------------------------------------
 #t hf aug-cc-pvdz iop(5/13=1,5/36=2,99/5=2) pseudo=read geom=check gue
 ss=(read,tcheck) scf=(maxcycle=1)
 ----------------------------------------------------------------------
 -----
 title
 -----
 Structure from the checkpoint file:  "ANI1ccx_1088_conf1_mol1.chk"
 Charge =  0 Multiplicity = 1

                         Standard orientation:
 ---------------------------------------------------------------------
 Center     Atomic      Atomic             Coordinates (Angstroms)
 Number     Number       Type             X           Y           Z
 ---------------------------------------------------------------------
      1          6           0       -2.101121   -0.452929   -0.013784
      2          6           0       -0.667501    0.026663    0.032093
      3          6           0        0.485546   -0.759207    0.057641
      4          6           0        1.461549    0.242053    0.010019
      5          6           0        2.871439    0.037729    0.010398
      6          1           0       -3.804621    0.332475    0.241780
      7          1           0        0.424942   -1.811709    0.067504
      8          1           0        3.487779    0.932974    0.211633
      9          1           0       -0.815207    2.237680   -0.158214
     10          7           0        0.996408    1.444551   -0.136478
     11          7           0       -0.339065    1.346270   -0.032025
     12          8           0       -2.898641    0.654451    0.131315
     13          8           0       -2.506030   -1.567641   -0.131860
     14          8           0        3.380450   -1.060938    0.030372
 ---------------------------------------------------------------------

 SCF Done:  E(RHF) =  -527.451911112     A.U. after    2 cycles

 The electronic state is 1-A.
 Alpha  occ. eigenvalues --  -21.14682 -21.08977 -21.06655 -15.85023 -15.79357
 Alpha  occ. eigenvalues --  -11.57022 -11.50329 -11.48988 -11.45922 -11.41456
 Alpha  occ. eigenvalues --   -1.85266  -1.72055  -1.68918  -1.64360  -1.24768
 Alpha  occ. eigenvalues --   -1.19375  -0.97497  -0.94996  -0.84206  -0.79301
 Alpha  occ. eigenvalues --   -0.71327  -0.66328  -0.65314  -0.63858  -0.61402
 Alpha  occ. eigenvalues --   -0.57661  -0.55267  -0.51451  -0.49480  -0.47955
 Alpha  occ. eigenvalues --   -0.45411  -0.37950  -0.35401  -0.34848  -0.32810
 Alpha  occ. eigenvalues --   -0.30349
 Alpha virt. eigenvalues --    0.03177   0.04881   0.05200   0.06907   0.08491
 Alpha virt. eigenvalues --    0.08887   0.09271   0.10762   0.10949   0.11492
 Alpha virt. eigenvalues --    0.11735   0.12710   0.13455   0.13833   0.14012

 Mulliken charges:
               1
     1  C    6.820509
     2  C    2.398072
     3  C   -4.713215
     4  C    4.228670
     5  C    1.588363
     6  H    1.098110
     7  H    1.161980
     8  H    1.452526
     9  H    0.927686
    10  N   -2.755605
    11  N   -2.540501
    12  O   -3.169569
    13  O   -3.491584
    14  O   -3.005440
 Sum of Mulliken charges =   0.00000

 Dipole moment (field-independent basis, Debye):
    X=             -3.0071    Y=              2.0087    Z=              0.1906  Tot=              3.6212

 Test job not archived.
 1\1\GINC-SE041\SP\RHF\Aug-CC-pVDZ\C5H4N2O3\OHZDE\08-Apr-2025\0\\#t hf
 aug-cc-pvdz iop(5/13=1,5/36=2,99/5=2) pseudo=read geom=check guess=(re
 ad,tcheck) scf=(maxcycle=1)\\title\\0,1\C,0,-2.10112,-0.452928,-0.0137
 84\C,0,-0.6675,0.0266631,0.0320927\C,0,0.485547,-0.759208,0.0576408\C,
 0,1.46155,0.242052,0.0100192\C,0,2.87144,0.0377267,0.0103976\H,0,-3.80
 462,0.332477,0.24178\H,0,0.424942,-1.81171,0.0675042\H,0,3.48778,0.932
 972,0.211633\H,0,-0.815205,2.23768,-0.158214\N,0,0.99641,1.44455,-0.13
 6478\N,0,-0.339063,1.34627,-0.0320249\O,0,-2.89864,0.654452,0.131315\O

 Normal termination of Gaussian 16 at Tue Apr  8 19:21:58 2025.
