 Gaussian 16, Revision C.01,

 ----------------------------------------------------------------------
 #t hf aug-cc-pvdz symm=none int=(grid=ultrafine) guess=(read,tcheck) s
 table=(opt,rrhf)
 ----------------------------------------------------------------------
 -----
 title
 -----
 Symbolic Z-matrix:
 Charge =  0 Multiplicity = 1

 SCF Done:  E(RHF) =  -380.216983559     A.U. after   11 cycles
 Normal termination of Gaussian 16 at Tue Apr  8 21:07:28 2025.
 Gaussian 16:  ES64L-G16RevC.01  3-Jul-2019

 ----------------------------------------------------------------------
 #t hf aug-cc-pvdz iop(5/13=1,5/36=2,99/5=2) pseudo=read geom=check gue
 ss=(read,tcheck) scf=(maxcycle=1)
 ----------------------------------------------------------------------
 -----
 title
 -----
 Structure from the checkpoint file:  "ANI1ccx_1843_conf77_mol1.chk"
 Charge =  0 Multiplicity = 1

                         Standard orientation:
 ---------------------------------------------------------------------
 Center     Atomic      Atomic             Coordinates (Angstroms)
 Number     Number       Type             X           Y           Z
 ---------------------------------------------------------------------
      1          1           0       -1.670461    0.273843   -0.247195
      2          1           0       -2.390741    0.293597   -1.683831
      3          1           0       -0.532835   -0.811370    0.970706
      4          1           0       -1.520291   -0.541037    2.178159
      5          1           0       -0.493861   -1.259301   -0.890112
      6          1           0        0.901946   -1.423211   -0.281077
      7          1           0        1.675269    0.545416    0.070403
      8          1           0        2.927009   -0.034786   -0.752892
      9          1           0        0.001525    1.518409    0.908184
     10          1           0       -0.114048    1.618529   -0.595790
     11          8           0       -1.474661    0.317924   -1.219201
     12          8           0       -1.099811   -0.090199    1.429819
     13          8           0       -0.010897   -1.762111   -0.217907
     14          8           0        2.232659   -0.243445   -0.057452
     15          8           0        0.504771    1.755319    0.105170
 ---------------------------------------------------------------------

 SCF Done:  E(RHF) =  -381.864400522     A.U. after    2 cycles

 The electronic state is 1-A.
 Alpha  occ. eigenvalues --  -21.10187 -21.08670 -21.08246 -21.07015 -21.06850
 Alpha  occ. eigenvalues --   -1.69903  -1.67680  -1.66207  -1.65117  -1.62462
 Alpha  occ. eigenvalues --   -0.68147  -0.65249  -0.63793  -0.63164  -0.62329
 Alpha  occ. eigenvalues --   -0.52285  -0.50312  -0.47961  -0.46894  -0.41287
 Alpha  occ. eigenvalues --   -0.36781  -0.35822  -0.34478  -0.32764  -0.32461
 Alpha virt. eigenvalues --    0.03550   0.04520   0.05330   0.07167   0.07372
 Alpha virt. eigenvalues --    0.07646   0.08430   0.09034   0.10166   0.11679
 Alpha virt. eigenvalues --    0.17354   0.20114   0.20268   0.21462   0.22195

 Mulliken charges:
               1
     1  H    1.453354
     2  H    0.821228
     3  H    1.471741
     4  H    0.939329
     5  H    1.168442
     6  H    1.296558
     7  H    1.551602
     8  H    0.831496
     9  H    1.227263
    10  H    1.181275
    11  O   -2.040026
    12  O   -2.409715
    13  O   -2.538174
    14  O   -2.196461
    15  O   -2.757912
 Sum of Mulliken charges =  -0.00000

 Dipole moment (field-independent basis, Debye):
    X=             -1.3881    Y=              0.2985    Z=             -0.4630  Tot=              1.4934

 Test job not archived.
 1\1\GINC-SE184\SP\RHF\Aug-CC-pVDZ\H10O5\OHZDE\08-Apr-2025\0\\#t hf aug
 -cc-pvdz iop(5/13=1,5/36=2,99/5=2) pseudo=read geom=check guess=(read,
 tcheck) scf=(maxcycle=1)\\title\\0,1\H,0,-1.67046,0.273844,-0.247194\H
 ,0,-2.39074,0.293598,-1.68383\H,0,-0.532834,-0.811369,0.970707\H,0,-1.
 52029,-0.541036,2.17816\H,0,-0.49386,-1.2593,-0.890111\H,0,0.901947,-1
 .42321,-0.281076\H,0,1.67527,0.545416,0.0704034\H,0,2.92701,-0.0347852
 ,-0.752891\H,0,0.00152578,1.51841,0.908185\H,0,-0.114047,1.61853,-0.59
 5789\O,0,-1.47466,0.317925,-1.2192\O,0,-1.09981,-0.0901979,1.42982\O,0

 Normal termination of Gaussian 16 at Tue Apr  8 21:07:31 2025.
