 Gaussian 16, Revision C.01,

 ----------------------------------------------------------------------
 #t hf aug-cc-pvdz symm=none int=(grid=ultrafine) guess=(read,tcheck) s
 table=(opt,rrhf)
 ----------------------------------------------------------------------
 -----
 title
 -----
 Symbolic Z-matrix:
 Charge =  0 Multiplicity = 1

 SCF Done:  E(RHF) =  -446.846462763     A.U. after   13 cycles
 Normal termination of Gaussian 16 at Tue Apr  8 21:48:24 2025.
 Gaussian 16:  ES64L-G16RevC.01  3-Jul-2019

 ----------------------------------------------------------------------
 #t hf aug-cc-pvdz iop(5/13=1,5/36=2,99/5=2) pseudo=read geom=check gue
 ss=(read,tcheck) scf=(maxcycle=1)
 ----------------------------------------------------------------------
 -----
 title
 -----
 Structure from the checkpoint file:  "ANI1ccx_555_conf1_mol2.chk"
 Charge =  0 Multiplicity = 1

                         Standard orientation:
 ---------------------------------------------------------------------
 Center     Atomic      Atomic             Coordinates (Angstroms)
 Number     Number       Type             X           Y           Z
 ---------------------------------------------------------------------
      1          6           0        1.557021   -0.167326   -0.058292
      2          6           0       -1.709919    0.004305    0.048657
      3          1           0        3.373711   -0.014280   -0.703346
      4          1           0        2.810191    1.457310   -0.282782
      5          1           0        0.851990    1.109660    1.382040
      6          1           0       -0.477515   -1.214961    0.954958
      7          1           0       -0.827812    1.612979   -0.705302
      8          1           0       -2.411279    1.346929   -1.236810
      9          7           0        2.777371    0.465600   -0.059904
     10          7           0        0.547188    0.487301    0.615476
     11          7           0       -0.590721   -0.231372    0.824280
     12          7           0       -1.736089    1.246829   -0.502141
     13          8           0        1.378251   -1.263790   -0.572025
     14          8           0       -2.551519   -0.873462   -0.114840
 ---------------------------------------------------------------------

 SCF Done:  E(RHF) =  -448.801403951     A.U. after    2 cycles

 The electronic state is 1-A.
 Alpha  occ. eigenvalues --  -21.04434 -21.01737 -15.80951 -15.79907 -15.78354
 Alpha  occ. eigenvalues --  -15.77694 -11.51988 -11.49711  -1.75158  -1.70952
 Alpha  occ. eigenvalues --   -1.54180  -1.38373  -1.34693  -1.19214  -0.87530
 Alpha  occ. eigenvalues --   -0.84632  -0.76009  -0.73988  -0.72734  -0.65266
 Alpha  occ. eigenvalues --   -0.63070  -0.58226  -0.57654  -0.52277  -0.48808
 Alpha  occ. eigenvalues --   -0.42485  -0.39803  -0.35997  -0.32182  -0.31555
 Alpha  occ. eigenvalues --   -0.28943
 Alpha virt. eigenvalues --    0.02356   0.04438   0.04777   0.05384   0.07204
 Alpha virt. eigenvalues --    0.07633   0.10624   0.11269   0.12332   0.13216
 Alpha virt. eigenvalues --    0.13444   0.14390   0.15174   0.15347   0.16753

 Mulliken charges:
               1
     1  C    5.435267
     2  C    5.713037
     3  H    0.462138
     4  H    0.665338
     5  H    0.779939
     6  H    0.543329
     7  H    0.720684
     8  H    0.596332
     9  N   -2.708938
    10  N   -1.781849
    11  N   -1.794876
    12  N   -2.874385
    13  O   -2.796931
    14  O   -2.959084
 Sum of Mulliken charges =  -0.00000

 Dipole moment (field-independent basis, Debye):
    X=              3.2234    Y=              3.2387    Z=             -0.5953  Tot=              4.6080

 Test job not archived.
 1\1\GINC-SE221\SP\RHF\Aug-CC-pVDZ\C2H6N4O2\OHZDE\08-Apr-2025\0\\#t hf
 aug-cc-pvdz iop(5/13=1,5/36=2,99/5=2) pseudo=read geom=check guess=(re
 ad,tcheck) scf=(maxcycle=1)\\title\\0,1\C,0,1.55702,-0.167326,-0.05829
 19\C,0,-1.70992,0.00430651,0.0486566\H,0,3.37371,-0.0142801,-0.703346\
 H,0,2.81019,1.45731,-0.282782\H,0,0.851989,1.10966,1.38204\H,0,-0.4775
 16,-1.21496,0.954958\H,0,-0.827813,1.61298,-0.705302\H,0,-2.41128,1.34
 693,-1.23681\N,0,2.77737,0.4656,-0.0599042\N,0,0.547187,0.487302,0.615
 476\N,0,-0.590722,-0.231371,0.82428\N,0,-1.73609,1.24683,-0.502141\O,0

 Normal termination of Gaussian 16 at Tue Apr  8 21:48:29 2025.
