 Gaussian 16, Revision C.01,

 ----------------------------------------------------------------------
 #t hf aug-cc-pvdz symm=none int=(grid=ultrafine) guess=(read,tcheck) s
 table=(opt,rrhf)
 ----------------------------------------------------------------------
 -----
 title
 -----
 Symbolic Z-matrix:
 Charge =  0 Multiplicity = 1

 SCF Done:  E(RHF) =  -465.395662638     A.U. after   14 cycles
 Normal termination of Gaussian 16 at Tue Apr  8 21:44:57 2025.
 Gaussian 16:  ES64L-G16RevC.01  3-Jul-2019

 ----------------------------------------------------------------------
 #t hf aug-cc-pvdz iop(5/13=1,5/36=2,99/5=2) pseudo=read geom=check gue
 ss=(read,tcheck) scf=(maxcycle=1)
 ----------------------------------------------------------------------
 -----
 title
 -----
 Structure from the checkpoint file:  "ANI1ccx_503_conf11_mol1.chk"
 Charge =  0 Multiplicity = 1

                         Standard orientation:
 ---------------------------------------------------------------------
 Center     Atomic      Atomic             Coordinates (Angstroms)
 Number     Number       Type             X           Y           Z
 ---------------------------------------------------------------------
      1          6           0       -1.392031   -0.123623    0.070855
      2          6           0        0.662094    0.743713   -0.226258
      3          1           0        1.557829   -0.738461    1.153050
      4          1           0       -0.862351   -1.977391   -0.411040
      5          1           0       -1.072140    2.000449    0.407411
      6          7           0        0.784928   -0.609591   -0.502924
      7          7           0       -0.485835   -1.137881   -0.025107
      8          7           0       -0.699714    1.043179   -0.017544
      9          8           0        1.871229   -1.101672    0.278530
     10          8           0       -2.539861   -0.040792    0.120912
     11          8           0        1.613710    1.383078    0.050811
 ---------------------------------------------------------------------

 SCF Done:  E(RHF) =  -467.335321235     A.U. after    2 cycles

 The electronic state is 1-A.
 Alpha  occ. eigenvalues --  -21.13822 -21.07437 -21.06187 -15.84852 -15.82443
 Alpha  occ. eigenvalues --  -15.80408 -11.55567 -11.53817  -1.87640  -1.79216
 Alpha  occ. eigenvalues --   -1.74335  -1.55815  -1.35848  -1.19149  -0.90969
 Alpha  occ. eigenvalues --   -0.86554  -0.76336  -0.72819  -0.69179  -0.64463
 Alpha  occ. eigenvalues --   -0.57958  -0.56434  -0.54354  -0.53277  -0.46768
 Alpha  occ. eigenvalues --   -0.38939  -0.36723  -0.35235  -0.34300  -0.30079
 Alpha virt. eigenvalues --    0.03473   0.05359   0.05932   0.09125   0.09502
 Alpha virt. eigenvalues --    0.10535   0.11106   0.11565   0.12419   0.13618
 Alpha virt. eigenvalues --    0.14249   0.14457   0.15663   0.17024   0.17781

 Mulliken charges:
               1
     1  C    5.026977
     2  C    5.384185
     3  H    0.707473
     4  H    0.787482
     5  H    0.632448
     6  N    0.332187
     7  N   -2.029666
     8  N   -2.350262
     9  O   -2.327372
    10  O   -3.085210
    11  O   -3.078241
 Sum of Mulliken charges =  -0.00000

 Dipole moment (field-independent basis, Debye):
    X=              0.1203    Y=             -0.5154    Z=              0.4927  Tot=              0.7231

 Test job not archived.
 1\1\GINC-SE404\SP\RHF\Aug-CC-pVDZ\C2H3N3O3\OHZDE\08-Apr-2025\0\\#t hf
 aug-cc-pvdz iop(5/13=1,5/36=2,99/5=2) pseudo=read geom=check guess=(re
 ad,tcheck) scf=(maxcycle=1)\\title\\0,1\C,0,-1.39203,-0.123622,0.07085
 52\C,0,0.662094,0.743715,-0.226258\H,0,1.55783,-0.738459,1.15305\H,0,-
 0.86235,-1.97739,-0.41104\H,0,-1.07214,2.00045,0.407411\N,0,0.784929,-
 0.609589,-0.502924\N,0,-0.485834,-1.13788,-0.0251074\N,0,-0.699714,1.0
 4318,-0.0175439\O,0,1.87123,-1.10167,0.27853\O,0,-2.53986,-0.0407915,0
 .120912\O,0,1.61371,1.38308,0.0508112\\Version=ES64L-G16RevC.01\State=

 Normal termination of Gaussian 16 at Tue Apr  8 21:45:01 2025.
