 Gaussian 16, Revision C.01,

 ----------------------------------------------------------------------
 #t hf aug-cc-pvdz symm=none int=(grid=ultrafine) guess=(read,tcheck) s
 table=(opt,rrhf)
 ----------------------------------------------------------------------
 -----
 title
 -----
 Symbolic Z-matrix:
 Charge =  0 Multiplicity = 1

 SCF Done:  E(RHF) =  -756.521786389     A.U. after   14 cycles
 Normal termination of Gaussian 16 at Tue Apr  8 19:59:06 2025.
 Gaussian 16:  ES64L-G16RevC.01  3-Jul-2019

 ----------------------------------------------------------------------
 #t hf aug-cc-pvdz iop(5/13=1,5/36=2,99/5=2) pseudo=read geom=check gue
 ss=(read,tcheck) scf=(maxcycle=1)
 ----------------------------------------------------------------------
 -----
 title
 -----
 Structure from the checkpoint file:  "ANI1ccx_1435_conf32_mol1.chk"
 Charge =  0 Multiplicity = 1

                         Standard orientation:
 ---------------------------------------------------------------------
 Center     Atomic      Atomic             Coordinates (Angstroms)
 Number     Number       Type             X           Y           Z
 ---------------------------------------------------------------------
      1          6           0        1.574690   -0.198030    0.865158
      2          6           0        0.754414   -1.002440   -0.122783
      3          6           0        2.418379    0.785225    0.089441
      4          6           0        3.622520    0.191495   -0.673741
      5          6           0       -1.549150   -0.098381    0.534374
      6          6           0       -2.991690   -0.314819    0.022327
      7          6           0       -1.310071    1.401709    0.771449
      8          1           0       -3.979520   -1.088033   -1.267750
      9          1           0       -0.131799    1.792289   -0.722915
     10          1           0       -0.536829    1.534249    1.580100
     11          1           0       -2.282651    1.718218    1.106740
     12          1           0       -1.661430   -0.590256    1.570630
     13          1           0       -0.990371   -1.453211   -0.926444
     14          1           0        3.981379    0.893617   -1.445930
     15          1           0        4.484240    0.099823   -0.042143
     16          1           0        3.368020   -0.786745   -1.179830
     17          1           0        1.383039    2.438640   -0.736668
     18          1           0        2.873239    1.537561    0.848779
     19          1           0        0.906761    0.371681    1.548620
     20          1           0        1.861291   -1.892610    1.925250
     21          1           0        3.091071   -1.474829    0.828776
     22          7           0        2.423850   -1.153759    1.558740
     23          7           0       -0.577751   -0.817520   -0.258413
     24          8           0        1.343081   -1.790270   -0.861918
     25          8           0        1.586009    1.504600   -0.899545
     26          8           0       -3.973180    0.078735    0.568928
     27          8           0       -0.976901    2.105799   -0.349502
     28          8           0       -3.029470   -1.135112   -1.096320
 ---------------------------------------------------------------------

 SCF Done:  E(RHF) =  -759.872341158     A.U. after    2 cycles

 The electronic state is 1-A.
 Alpha  occ. eigenvalues --  -21.14243 -21.08862 -21.08553 -21.06914 -21.02065
 Alpha  occ. eigenvalues --  -15.77281 -15.74273 -11.57184 -11.54181 -11.51850
 Alpha  occ. eigenvalues --  -11.49896 -11.45400 -11.43490 -11.38480  -1.85078
 Alpha  occ. eigenvalues --   -1.75038  -1.72390  -1.70718  -1.68419  -1.41844
 Alpha  occ. eigenvalues --   -1.36348  -1.13883  -1.13316  -1.03449  -0.95300
 Alpha  occ. eigenvalues --   -0.88179  -0.81728  -0.77733  -0.73422  -0.71078
 Alpha  occ. eigenvalues --   -0.70265  -0.68529  -0.65608  -0.64317  -0.61715
 Alpha  occ. eigenvalues --   -0.59004  -0.57641  -0.56662  -0.55620  -0.54008
 Alpha  occ. eigenvalues --   -0.53690  -0.52574  -0.49737  -0.49555  -0.47931
 Alpha  occ. eigenvalues --   -0.47011  -0.43053  -0.40789  -0.37397  -0.36456
 Alpha  occ. eigenvalues --   -0.34104  -0.32706  -0.32143  -0.30570  -0.28436
 Alpha virt. eigenvalues --    0.03584   0.04041   0.04945   0.05186   0.05467
 Alpha virt. eigenvalues --    0.05792   0.05836   0.06960   0.07268   0.07745
 Alpha virt. eigenvalues --    0.08315   0.08750   0.09643   0.09961   0.10554

 Mulliken charges:
               1
     1  C   -1.778908
     2  C    6.172742
     3  C    0.971660
     4  C   -3.624588
     5  C   -3.298623
     6  C    7.615504
     7  C   -0.235839
     8  H    0.925889
     9  H    1.325502
    10  H    1.529197
    11  H    1.311082
    12  H    1.509629
    13  H    0.572232
    14  H    1.208528
    15  H    1.263259
    16  H    1.401678
    17  H    0.754701
    18  H    1.648511
    19  H    2.050044
    20  H    0.624043
    21  H    0.511495
    22  N   -2.894753
    23  N   -2.845833
    24  O   -3.761606
    25  O   -3.165047
    26  O   -3.381821
    27  O   -3.394779
    28  O   -3.013902
 Sum of Mulliken charges =  -0.00000

 Dipole moment (field-independent basis, Debye):
    X=             -0.0344    Y=             -0.0758    Z=             -0.2024  Tot=              0.2188

 Test job not archived.
 1\1\GINC-SE127\SP\RHF\Aug-CC-pVDZ\C7H14N2O5\OHZDE\08-Apr-2025\0\\#t hf
  aug-cc-pvdz iop(5/13=1,5/36=2,99/5=2) pseudo=read geom=check guess=(r
 ead,tcheck) scf=(maxcycle=1)\\title\\0,1\C,0,1.57469,-0.19803,0.865158
 \C,0,0.754414,-1.00244,-0.122783\C,0,2.41838,0.785224,0.0894409\C,0,3.
 62252,0.191494,-0.673741\C,0,-1.54915,-0.0983799,0.534374\C,0,-2.99169
 ,-0.314817,0.0223274\C,0,-1.31007,1.40171,0.771449\H,0,-3.97952,-1.088
 03,-1.26775\H,0,-0.131798,1.79229,-0.722915\H,0,-0.536828,1.53425,1.58
 01\H,0,-2.28265,1.71822,1.10674\H,0,-1.66143,-0.590255,1.57063\H,0,-0.

 Normal termination of Gaussian 16 at Tue Apr  8 19:59:36 2025.
