 Gaussian 16, Revision C.01,

 ----------------------------------------------------------------------
 #t hf aug-cc-pvdz symm=none int=(grid=ultrafine) guess=(read,tcheck) s
 table=(opt,rrhf)
 ----------------------------------------------------------------------
 -----
 title
 -----
 Symbolic Z-matrix:
 Charge =  0 Multiplicity = 1

 SCF Done:  E(RHF) =  -756.557053281     A.U. after   15 cycles
 Normal termination of Gaussian 16 at Tue Apr  8 19:55:55 2025.
 Gaussian 16:  ES64L-G16RevC.01  3-Jul-2019

 ----------------------------------------------------------------------
 #t hf aug-cc-pvdz iop(5/13=1,5/36=2,99/5=2) pseudo=read geom=check gue
 ss=(read,tcheck) scf=(maxcycle=1)
 ----------------------------------------------------------------------
 -----
 title
 -----
 Structure from the checkpoint file:  "ANI1ccx_1435_conf1_mol1.chk"
 Charge =  0 Multiplicity = 1

                         Standard orientation:
 ---------------------------------------------------------------------
 Center     Atomic      Atomic             Coordinates (Angstroms)
 Number     Number       Type             X           Y           Z
 ---------------------------------------------------------------------
      1          6           0        1.725080    0.540902    0.562279
      2          6           0        0.292337    0.505017    0.034851
      3          6           0        2.679170    0.201750   -0.588864
      4          6           0        4.158790    0.208407   -0.215193
      5          6           0       -1.970050    0.148407    0.642767
      6          6           0       -2.080430   -1.239719    0.057411
      7          6           0       -2.548910    1.096041   -0.385168
      8          1           0       -3.333180   -2.473399   -0.575220
      9          1           0       -1.459300    2.706061   -0.711845
     10          1           0       -2.205120    0.852870   -1.407310
     11          1           0       -3.646920    1.082541   -0.432515
     12          1           0       -2.578460    0.181998    1.526120
     13          1           0       -0.179239   -0.141776    1.751710
     14          1           0        4.477790    1.190431    0.210350
     15          1           0        4.354430   -0.589383    0.490918
     16          1           0        4.786920    0.006263   -1.091500
     17          1           0        1.524090   -1.275989   -1.373470
     18          1           0        2.530800    0.860311   -1.460290
     19          1           0        1.913540    1.580691    0.915697
     20          1           0        2.734820   -0.248891    2.089820
     21          1           0        1.841830   -1.364159    1.312870
     22          7           0        1.882930   -0.377622    1.654600
     23          7           0       -0.584372    0.477508    1.031880
     24          8           0        0.103310    0.753157   -1.151630
     25          8           0        2.406820   -1.171689   -0.965781
     26          8           0       -1.157560   -1.972389   -0.199623
     27          8           0       -2.210060    2.489831   -0.115454
     28          8           0       -3.315990   -1.577859   -0.154915
 ---------------------------------------------------------------------

 SCF Done:  E(RHF) =  -759.906192573     A.U. after    2 cycles

 The electronic state is 1-A.
 Alpha  occ. eigenvalues --  -21.14621 -21.06406 -21.06124 -21.04852 -21.03144
 Alpha  occ. eigenvalues --  -15.76764 -15.74116 -11.55257 -11.53519 -11.49198
 Alpha  occ. eigenvalues --  -11.47515 -11.42728 -11.42504 -11.37135  -1.87267
 Alpha  occ. eigenvalues --   -1.73145  -1.68887  -1.68344  -1.67283  -1.43915
 Alpha  occ. eigenvalues --   -1.35055  -1.15761  -1.12031  -1.01599  -0.93723
 Alpha  occ. eigenvalues --   -0.86936  -0.81630  -0.76923  -0.74307  -0.71062
 Alpha  occ. eigenvalues --   -0.68200  -0.65873  -0.64008  -0.62980  -0.60908
 Alpha  occ. eigenvalues --   -0.60143  -0.57895  -0.57457  -0.55281  -0.52559
 Alpha  occ. eigenvalues --   -0.51276  -0.49949  -0.49399  -0.48172  -0.45963
 Alpha  occ. eigenvalues --   -0.44941  -0.41344  -0.40360  -0.36875  -0.36060
 Alpha  occ. eigenvalues --   -0.34681  -0.32528  -0.31031  -0.29799  -0.28395
 Alpha virt. eigenvalues --    0.03692   0.04317   0.04684   0.05183   0.05274
 Alpha virt. eigenvalues --    0.05838   0.06063   0.06751   0.07072   0.07151
 Alpha virt. eigenvalues --    0.07658   0.08163   0.08983   0.10195   0.11030

 Mulliken charges:
               1
     1  C   -2.818317
     2  C    8.657808
     3  C    1.473063
     4  C   -4.220961
     5  C   -3.885484
     6  C    7.534340
     7  C   -1.145931
     8  H    0.823784
     9  H    0.673662
    10  H    1.786136
    11  H    1.144756
    12  H    1.885905
    13  H    0.784213
    14  H    1.218968
    15  H    1.373587
    16  H    1.046730
    17  H    0.885938
    18  H    1.869546
    19  H    1.984565
    20  H    0.716000
    21  H    0.527119
    22  N   -2.849147
    23  N   -3.078006
    24  O   -4.007008
    25  O   -3.147944
    26  O   -3.285849
    27  O   -2.591383
    28  O   -3.356090
 Sum of Mulliken charges =  -0.00000

 Dipole moment (field-independent basis, Debye):
    X=             -0.3663    Y=             -0.8852    Z=              0.7728  Tot=              1.2309

 Test job not archived.
 1\1\GINC-SE249\SP\RHF\Aug-CC-pVDZ\C7H14N2O5\OHZDE\08-Apr-2025\0\\#t hf
  aug-cc-pvdz iop(5/13=1,5/36=2,99/5=2) pseudo=read geom=check guess=(r
 ead,tcheck) scf=(maxcycle=1)\\title\\0,1\C,0,1.72508,0.540901,0.562279
 \C,0,0.292337,0.505016,0.0348512\C,0,2.67917,0.201749,-0.588864\C,0,4.
 15879,0.208406,-0.215193\C,0,-1.97005,0.148406,0.642767\C,0,-2.08043,-
 1.23972,0.057411\C,0,-2.54891,1.09604,-0.385168\H,0,-3.33318,-2.4734,-
 0.57522\H,0,-1.4593,2.70606,-0.711845\H,0,-2.20512,0.852869,-1.40731\H
 ,0,-3.64692,1.08254,-0.432515\H,0,-2.57846,0.181997,1.52612\H,0,-0.179

 Normal termination of Gaussian 16 at Tue Apr  8 19:56:23 2025.
