 Gaussian 16, Revision C.01,

 ----------------------------------------------------------------------
 #t hf aug-cc-pvdz symm=none int=(grid=ultrafine) guess=(read,tcheck) s
 table=(opt,rrhf)
 ----------------------------------------------------------------------
 -----
 title
 -----
 Symbolic Z-matrix:
 Charge =  0 Multiplicity = 1

 SCF Done:  E(RHF) =  -522.613651663     A.U. after   14 cycles
 Normal termination of Gaussian 16 at Tue Apr  8 22:12:12 2025.
 Gaussian 16:  ES64L-G16RevC.01  3-Jul-2019

 ----------------------------------------------------------------------
 #t hf aug-cc-pvdz iop(5/13=1,5/36=2,99/5=2) pseudo=read geom=check gue
 ss=(read,tcheck) scf=(maxcycle=1)
 ----------------------------------------------------------------------
 -----
 title
 -----
 Structure from the checkpoint file:  "ANI1ccx_922_conf8_mol1.chk"
 Charge =  0 Multiplicity = 1

                         Standard orientation:
 ---------------------------------------------------------------------
 Center     Atomic      Atomic             Coordinates (Angstroms)
 Number     Number       Type             X           Y           Z
 ---------------------------------------------------------------------
      1          6           0        1.714099   -0.188452    0.313092
      2          6           0        0.083364    0.935635   -0.900453
      3          6           0       -1.744831    0.065371    0.367289
      4          6           0       -0.089118   -0.631740   -1.119960
      5          1           0        1.758799    1.851451    0.073024
      6          1           0       -0.061941    1.530870   -1.790910
      7          1           0       -0.871265    1.946580    0.806100
      8          1           0       -1.782920   -1.707840   -0.695856
      9          1           0        0.164963   -0.887140   -2.158280
     10          1           0        1.107160   -2.115519    0.042770
     11          7           0        1.418559    1.013721   -0.365082
     12          7           0       -0.950291    1.203370    0.097710
     13          7           0       -1.449271   -0.768323   -0.719194
     14          7           0        0.904542   -1.150659   -0.204053
     15          8           0        2.518449   -0.303900    1.199070
     16          8           0       -2.463531   -0.169856    1.313140
 ---------------------------------------------------------------------

 SCF Done:  E(RHF) =  -524.891072512     A.U. after    2 cycles

 The electronic state is 1-A.
 Alpha  occ. eigenvalues --  -21.04637 -21.03190 -15.77575 -15.77357 -15.76895
 Alpha  occ. eigenvalues --  -15.76624 -11.58087 -11.52026 -11.51124 -11.45879
 Alpha  occ. eigenvalues --   -1.73972  -1.72495  -1.58062  -1.41629  -1.37222
 Alpha  occ. eigenvalues --   -1.27058  -1.07308  -0.91561  -0.89849  -0.84213
 Alpha  occ. eigenvalues --   -0.75921  -0.73476  -0.65420  -0.63271  -0.62270
 Alpha  occ. eigenvalues --   -0.60825  -0.58961  -0.56654  -0.50883  -0.50625
 Alpha  occ. eigenvalues --   -0.49553  -0.42068  -0.35794  -0.34564  -0.31523
 Alpha  occ. eigenvalues --   -0.30577  -0.29761
 Alpha virt. eigenvalues --    0.02923   0.04385   0.04477   0.05731   0.05960
 Alpha virt. eigenvalues --    0.06474   0.09279   0.10250   0.10769   0.11036
 Alpha virt. eigenvalues --    0.11313   0.12171   0.12655   0.13482   0.13777

 Mulliken charges:
               1
     1  C    5.469400
     2  C   -0.919679
     3  C    5.322382
     4  C    0.355539
     5  H    0.537385
     6  H    1.780772
     7  H    0.626650
     8  H    0.530334
     9  H    1.727387
    10  H    0.716988
    11  N   -2.152752
    12  N   -2.254600
    13  N   -2.360497
    14  N   -2.648021
    15  O   -3.419975
    16  O   -3.311314
 Sum of Mulliken charges =  -0.00000

 Dipole moment (field-independent basis, Debye):
    X=             -0.0039    Y=              0.1296    Z=             -2.7165  Tot=              2.7196

 Test job not archived.
 1\1\GINC-SE338\SP\RHF\Aug-CC-pVDZ\C4H6N4O2\OHZDE\08-Apr-2025\0\\#t hf
 aug-cc-pvdz iop(5/13=1,5/36=2,99/5=2) pseudo=read geom=check guess=(re
 ad,tcheck) scf=(maxcycle=1)\\title\\0,1\C,0,1.7141,-0.188453,0.313092\
 C,0,0.083365,0.935635,-0.900453\C,0,-1.74483,0.0653713,0.367289\C,0,-0
 .0891174,-0.63174,-1.11996\H,0,1.7588,1.85145,0.0730241\H,0,-0.0619396
 ,1.53087,-1.79091\H,0,-0.871264,1.94658,0.8061\H,0,-1.78292,-1.70784,-
 0.695856\H,0,0.164964,-0.88714,-2.15828\H,0,1.10716,-2.11552,0.0427698
 \N,0,1.41856,1.01372,-0.365082\N,0,-0.95029,1.20337,0.0977096\N,0,-1.4

 Normal termination of Gaussian 16 at Tue Apr  8 22:12:18 2025.
