 Gaussian 16, Revision C.01,

 ----------------------------------------------------------------------
 #t hf aug-cc-pvdz symm=none int=(grid=ultrafine) guess=(read,tcheck) s
 table=(opt,rrhf)
 ----------------------------------------------------------------------
 -----
 title
 -----
 Symbolic Z-matrix:
 Charge =  0 Multiplicity = 1

 SCF Done:  E(RHF) =  -368.292343365     A.U. after   16 cycles
 Normal termination of Gaussian 16 at Tue Apr  8 21:49:36 2025.
 Gaussian 16:  ES64L-G16RevC.01  3-Jul-2019

 ----------------------------------------------------------------------
 #t hf aug-cc-pvdz iop(5/13=1,5/36=2,99/5=2) pseudo=read geom=check gue
 ss=(read,tcheck) scf=(maxcycle=1)
 ----------------------------------------------------------------------
 -----
 title
 -----
 Structure from the checkpoint file:  "ANI1ccx_608_conf6_mol1.chk"
 Charge =  0 Multiplicity = 1

                         Standard orientation:
 ---------------------------------------------------------------------
 Center     Atomic      Atomic             Coordinates (Angstroms)
 Number     Number       Type             X           Y           Z
 ---------------------------------------------------------------------
      1          6           0        1.667480    0.117975   -0.065728
      2          6           0        0.260962    0.127360    0.131499
      3          7           0        2.832180   -0.068128   -0.013820
      4          7           0       -0.502388    1.178100    0.005540
      5          7           0       -1.782620    0.576196   -0.031589
      6          7           0       -1.739330   -0.636318   -0.032546
      7          8           0       -0.403195   -1.102620    0.014034
 ---------------------------------------------------------------------

 SCF Done:  E(RHF) =  -369.841308857     A.U. after    2 cycles

 The electronic state is 1-A.
 Alpha  occ. eigenvalues --  -21.20930 -15.89955 -15.87229 -15.84803 -15.84297
 Alpha  occ. eigenvalues --  -11.58857 -11.49816  -1.98765  -1.59041  -1.41114
 Alpha  occ. eigenvalues --   -1.33797  -1.02771  -0.93328  -0.80585  -0.72945
 Alpha  occ. eigenvalues --   -0.66727  -0.58542  -0.55158  -0.54734  -0.51491
 Alpha  occ. eigenvalues --   -0.47983  -0.45029  -0.43861  -0.43255
 Alpha virt. eigenvalues --    0.05293   0.06156   0.08984   0.10469   0.10871
 Alpha virt. eigenvalues --    0.11177   0.11422   0.12156   0.12752   0.13178
 Alpha virt. eigenvalues --    0.14156   0.15423   0.16529   0.18157   0.19368

 Mulliken charges:
               1
     1  C    2.000856
     2  C    3.788373
     3  N   -2.358051
     4  N   -2.157419
     5  N    0.761118
     6  N    0.638576
     7  O   -2.673453
 Sum of Mulliken charges =  -0.00000

 Dipole moment (field-independent basis, Debye):
    X=             -0.2864    Y=             -1.4399    Z=              0.1265  Tot=              1.4736

 Test job not archived.
 1\1\GINC-SE044\SP\RHF\Aug-CC-pVDZ\C2N4O1\OHZDE\08-Apr-2025\0\\#t hf au
 g-cc-pvdz iop(5/13=1,5/36=2,99/5=2) pseudo=read geom=check guess=(read
 ,tcheck) scf=(maxcycle=1)\\title\\0,1\C,0,1.66748,0.117975,-0.0657278\
 C,0,0.260962,0.12736,0.131499\N,0,2.83218,-0.0681285,-0.0138196\N,0,-0
 .502388,1.1781,0.00553989\N,0,-1.78262,0.576196,-0.0315886\N,0,-1.7393
 3,-0.636318,-0.032546\O,0,-0.403195,-1.10262,0.0140343\\Version=ES64L-
 G16RevC.01\State=1-A\HF=-369.8413089\RMSD=3.148e-01\Dipole=-0.1126959,
 -0.5665097,0.049778\Quadrupole=-4.5480309,1.1165382,3.4314927,0.639698

 Normal termination of Gaussian 16 at Tue Apr  8 21:49:38 2025.
