 Gaussian 16, Revision C.01,

 ----------------------------------------------------------------------
 #t hf aug-cc-pvdz symm=none int=(grid=ultrafine) guess=(read,tcheck) s
 table=(opt,rrhf)
 ----------------------------------------------------------------------
 -----
 title
 -----
 Symbolic Z-matrix:
 Charge =  0 Multiplicity = 1

 SCF Done:  E(RHF) =  -752.376357067     A.U. after   15 cycles
 Normal termination of Gaussian 16 at Tue Apr  8 20:14:41 2025.
 Gaussian 16:  ES64L-G16RevC.01  3-Jul-2019

 ----------------------------------------------------------------------
 #t hf aug-cc-pvdz iop(5/13=1,5/36=2,99/5=2) pseudo=read geom=check gue
 ss=(read,tcheck) scf=(maxcycle=1)
 ----------------------------------------------------------------------
 -----
 title
 -----
 Structure from the checkpoint file:  "ANI1ccx_1572_conf12_mol1.chk"
 Charge =  0 Multiplicity = 1

                         Standard orientation:
 ---------------------------------------------------------------------
 Center     Atomic      Atomic             Coordinates (Angstroms)
 Number     Number       Type             X           Y           Z
 ---------------------------------------------------------------------
      1          6           0        3.646500   -1.141080    0.117243
      2          6           0        2.166010   -0.974872   -0.243337
      3          6           0        0.248467    0.459885    0.021512
      4          6           0       -0.095257    1.806440   -0.239533
      5          6           0       -0.494594   -0.042018    1.244420
      6          6           0       -1.814940   -0.447129    0.766666
      7          6           0       -2.998770    0.321448    0.491282
      8          6           0       -3.014090   -1.693510   -0.450461
      9          1           0       -0.903270    2.969020   -1.423230
     10          1           0       -4.720250   -0.337486   -0.567460
     11          1           0       -3.529420   -2.589540   -0.852917
     12          1           0       -3.249390    1.279800    0.973356
     13          1           0       -0.556580    0.696019    2.062170
     14          1           0        0.024595   -0.943782    1.478620
     15          1           0       -0.179790   -0.181850   -0.799151
     16          1           0        2.296300    1.031490    0.202101
     17          1           0        3.604060   -1.457470    1.079460
     18          1           0        3.938140   -2.041060   -0.554842
     19          1           0        4.295790    0.485794   -0.872689
     20          1           0        5.277570    0.171844    0.263575
     21          7           0        4.338830    0.220962    0.107182
     22          7           0        1.660910    0.260458    0.048829
     23          7           0       -1.826730   -1.652300    0.073132
     24          7           0       -3.772700   -0.567965   -0.202052
     25          8           0        1.435580   -1.830180   -0.626774
     26          8           0        0.078997    2.765990    0.494362
     27          8           0       -0.884566    1.983460   -1.295760
 ---------------------------------------------------------------------

 SCF Done:  E(RHF) =  -755.749675317     A.U. after    2 cycles

 The electronic state is 1-A.
 Alpha  occ. eigenvalues --  -21.11504 -21.04311 -21.01912 -15.79785 -15.76501
 Alpha  occ. eigenvalues --  -15.74564 -15.71212 -11.54279 -11.51507 -11.47743
 Alpha  occ. eigenvalues --  -11.44654 -11.42807 -11.42438 -11.42242 -11.37700
 Alpha  occ. eigenvalues --   -1.84258  -1.72159  -1.63859  -1.55214  -1.41620
 Alpha  occ. eigenvalues --   -1.33684  -1.27728  -1.18127  -1.07317  -1.02283
 Alpha  occ. eigenvalues --   -0.97016  -0.83823  -0.81362  -0.78817  -0.76975
 Alpha  occ. eigenvalues --   -0.72960  -0.70056  -0.66628  -0.65854  -0.62680
 Alpha  occ. eigenvalues --   -0.61421  -0.60575  -0.59009  -0.57480  -0.56616
 Alpha  occ. eigenvalues --   -0.56121  -0.54136  -0.50851  -0.49201  -0.48086
 Alpha  occ. eigenvalues --   -0.46223  -0.44696  -0.44530  -0.39822  -0.38571
 Alpha  occ. eigenvalues --   -0.36036  -0.33459  -0.31428  -0.29464  -0.27976
 Alpha  occ. eigenvalues --   -0.27241
 Alpha virt. eigenvalues --    0.03242   0.04464   0.04697   0.05104   0.05418
 Alpha virt. eigenvalues --    0.05879   0.06341   0.06549   0.07263   0.08750
 Alpha virt. eigenvalues --    0.08778   0.09696   0.09749   0.11086   0.11513

 Mulliken charges:
               1
     1  C   -3.085180
     2  C    6.179252
     3  C   -1.825714
     4  C    8.451524
     5  C   -3.875320
     6  C    4.407589
     7  C   -1.991348
     8  C    0.480362
     9  H    0.898382
    10  H    0.844982
    11  H    1.777850
    12  H    1.314422
    13  H    1.174690
    14  H    1.492033
    15  H    2.461747
    16  H    0.685704
    17  H    1.365377
    18  H    1.222533
    19  H    0.598798
    20  H    0.748814
    21  N   -2.142417
    22  N   -3.268082
    23  N   -3.547494
    24  N   -3.143202
    25  O   -3.749615
    26  O   -3.802619
    27  O   -3.673069
 Sum of Mulliken charges =   0.00000

 Dipole moment (field-independent basis, Debye):
    X=             -1.3637    Y=              1.2393    Z=             -1.3408  Tot=              2.2789

 Test job not archived.
 1\1\GINC-SE084\SP\RHF\Aug-CC-pVDZ\C8H12N4O3\OHZDE\08-Apr-2025\0\\#t hf
  aug-cc-pvdz iop(5/13=1,5/36=2,99/5=2) pseudo=read geom=check guess=(r
 ead,tcheck) scf=(maxcycle=1)\\title\\0,1\C,0,3.6465,-1.14108,0.117243\
 C,0,2.16601,-0.974872,-0.243337\C,0,0.248467,0.459885,0.0215121\C,0,-0
 .0952569,1.80644,-0.239533\C,0,-0.494594,-0.042018,1.24442\C,0,-1.8149
 4,-0.447129,0.766666\C,0,-2.99877,0.321448,0.491282\C,0,-3.01409,-1.69
 351,-0.450461\H,0,-0.90327,2.96902,-1.42323\H,0,-4.72025,-0.337486,-0.
 56746\H,0,-3.52942,-2.58954,-0.852917\H,0,-3.24939,1.2798,0.973356\H,0

 Normal termination of Gaussian 16 at Tue Apr  8 20:15:10 2025.
