 Gaussian 16, Revision C.01,

 ----------------------------------------------------------------------
 #t hf aug-cc-pvdz symm=none int=(grid=ultrafine) guess=(read,tcheck) s
 table=(opt,rrhf)
 ----------------------------------------------------------------------
 -----
 title
 -----
 Symbolic Z-matrix:
 Charge =  0 Multiplicity = 1

 SCF Done:  E(RHF) =  -405.918479645     A.U. after   15 cycles
 Normal termination of Gaussian 16 at Tue Apr  8 21:48:15 2025.
 Gaussian 16:  ES64L-G16RevC.01  3-Jul-2019

 ----------------------------------------------------------------------
 #t hf aug-cc-pvdz iop(5/13=1,5/36=2,99/5=2) pseudo=read geom=check gue
 ss=(read,tcheck) scf=(maxcycle=1)
 ----------------------------------------------------------------------
 -----
 title
 -----
 Structure from the checkpoint file:  "ANI1ccx_557_conf2_mol1.chk"
 Charge =  0 Multiplicity = 1

                         Standard orientation:
 ---------------------------------------------------------------------
 Center     Atomic      Atomic             Coordinates (Angstroms)
 Number     Number       Type             X           Y           Z
 ---------------------------------------------------------------------
      1          6           0        1.298830   -0.000995    0.092428
      2          6           0       -0.626630    0.721217    0.101905
      3          1           0        3.095349   -0.852434   -0.473100
      4          1           0        3.269960    0.755520   -0.416258
      5          1           0       -2.433509    1.417793    0.689407
      6          1           0       -1.643318    2.223533   -0.607289
      7          1           0       -2.044003   -1.818507    0.780031
      8          1           0       -2.386962   -1.025857   -0.680114
      9          7           0        2.701600    0.005584   -0.016912
     10          7           0        0.561552    1.191970    0.084308
     11          7           0       -1.803459    1.349063   -0.106963
     12          7           0       -0.639765   -0.626441    0.067831
     13          7           0       -1.683922   -1.519317   -0.154965
     14          7           0        0.593892   -1.118200    0.061177
 ---------------------------------------------------------------------

 SCF Done:  E(RHF) =  -407.770851814     A.U. after    2 cycles

 The electronic state is 1-A.
 Alpha  occ. eigenvalues --  -15.79127 -15.77995 -15.77604 -15.74780 -15.72427
 Alpha  occ. eigenvalues --  -15.71685 -11.48302 -11.44727  -1.69673  -1.42934
 Alpha  occ. eigenvalues --   -1.39931  -1.28729  -1.23798  -1.06523  -0.84582
 Alpha  occ. eigenvalues --   -0.81610  -0.73260  -0.71688  -0.67824  -0.63900
 Alpha  occ. eigenvalues --   -0.61228  -0.56556  -0.54939  -0.49697  -0.46997
 Alpha  occ. eigenvalues --   -0.42116  -0.40918  -0.36786  -0.35448  -0.26035
 Alpha virt. eigenvalues --    0.03129   0.05057   0.05193   0.06016   0.06632
 Alpha virt. eigenvalues --    0.07364   0.10571   0.11715   0.12391   0.12773
 Alpha virt. eigenvalues --    0.14217   0.14502   0.15764   0.16582   0.17154

 Mulliken charges:
               1
     1  C    4.074375
     2  C    4.551906
     3  H    0.513308
     4  H    0.671995
     5  H    0.576940
     6  H    0.557485
     7  H    0.661453
     8  H    0.696864
     9  N   -2.749556
    10  N   -3.063520
    11  N   -3.032465
    12  N    0.136303
    13  N   -1.285883
    14  N   -2.309204
 Sum of Mulliken charges =  -0.00000

 Dipole moment (field-independent basis, Debye):
    X=             -2.7634    Y=              1.1074    Z=             -0.2792  Tot=              2.9901

 Test job not archived.
 1\1\GINC-SE367\SP\RHF\Aug-CC-pVDZ\C2H6N6\OHZDE\08-Apr-2025\0\\#t hf au
 g-cc-pvdz iop(5/13=1,5/36=2,99/5=2) pseudo=read geom=check guess=(read
 ,tcheck) scf=(maxcycle=1)\\title\\0,1\C,0,1.29883,-0.00099434,0.092428
 1\C,0,-0.62663,0.721216,0.101905\H,0,3.09535,-0.852431,-0.4731\H,0,3.2
 6996,0.755523,-0.416258\H,0,-2.43351,1.41779,0.689407\H,0,-1.64332,2.2
 2353,-0.607289\H,0,-2.044,-1.81851,0.780031\H,0,-2.38696,-1.02586,-0.6
 80114\N,0,2.7016,0.00558676,-0.0169123\N,0,0.561551,1.19197,0.0843079\
 N,0,-1.80346,1.34906,-0.106963\N,0,-0.639764,-0.626442,0.0678307\N,0,-

 Normal termination of Gaussian 16 at Tue Apr  8 21:48:20 2025.
