 Gaussian 16, Revision C.01,

 ----------------------------------------------------------------------
 #t hf aug-cc-pvdz symm=none int=(grid=ultrafine) guess=(read,tcheck) s
 table=(opt,rrhf)
 ----------------------------------------------------------------------
 -----
 title
 -----
 Symbolic Z-matrix:
 Charge =  0 Multiplicity = 1

 SCF Done:  E(RHF) =  -276.582545059     A.U. after   14 cycles
 Normal termination of Gaussian 16 at Tue Apr  8 21:32:34 2025.
 Gaussian 16:  ES64L-G16RevC.01  3-Jul-2019

 ----------------------------------------------------------------------
 #t hf aug-cc-pvdz iop(5/13=1,5/36=2,99/5=2) pseudo=read geom=check gue
 ss=(read,tcheck) scf=(maxcycle=1)
 ----------------------------------------------------------------------
 -----
 title
 -----
 Structure from the checkpoint file:  "ANI1ccx_370_conf96_mol1.chk"
 Charge =  0 Multiplicity = 1

                         Standard orientation:
 ---------------------------------------------------------------------
 Center     Atomic      Atomic             Coordinates (Angstroms)
 Number     Number       Type             X           Y           Z
 ---------------------------------------------------------------------
      1          6           0        1.040660    0.281020   -0.021472
      2          1           0        2.187340    0.246166    0.157305
      3          7           0        0.103420    1.149739   -0.020983
      4          7           0       -1.088079    0.448755    0.029466
      5          7           0       -0.837992   -0.765635   -0.007991
      6          8           0        0.540907   -0.970287   -0.003989
 ---------------------------------------------------------------------

 SCF Done:  E(RHF) =  -277.751207930     A.U. after    2 cycles

 The electronic state is 1-A.
 Alpha  occ. eigenvalues --  -21.17692 -15.86154 -15.84379 -15.79218 -11.50558
 Alpha  occ. eigenvalues --   -1.98342  -1.55841  -1.34234  -0.91833  -0.89653
 Alpha  occ. eigenvalues --   -0.75053  -0.69991  -0.60031  -0.49697  -0.45568
 Alpha  occ. eigenvalues --   -0.44598  -0.42172  -0.41457
 Alpha virt. eigenvalues --    0.03136   0.08991   0.09239   0.09892   0.13269
 Alpha virt. eigenvalues --    0.13765   0.14365   0.14510   0.16095   0.16897
 Alpha virt. eigenvalues --    0.18872   0.20006   0.20532   0.22575   0.23810

 Mulliken charges:
               1
     1  C    1.561200
     2  H    1.501772
     3  N   -1.894272
     4  N    0.731029
     5  N    0.471877
     6  O   -2.371606
 Sum of Mulliken charges =  -0.00000

 Dipole moment (field-independent basis, Debye):
    X=              2.9763    Y=             -1.0978    Z=              0.1335  Tot=              3.1752

 Test job not archived.
 1\1\GINC-SE458\SP\RHF\Aug-CC-pVDZ\C1H1N3O1\OHZDE\08-Apr-2025\0\\#t hf
 aug-cc-pvdz iop(5/13=1,5/36=2,99/5=2) pseudo=read geom=check guess=(re
 ad,tcheck) scf=(maxcycle=1)\\title\\0,1\C,0,1.04066,0.281024,-0.021472
 4\H,0,2.18734,0.246174,0.157305\N,0,0.103417,1.14974,-0.0209827\N,0,-1
 .08808,0.448751,0.0294658\N,0,-0.837988,-0.765638,-0.00799107\O,0,0.54
 0911,-0.970285,-0.00398932\\Version=ES64L-G16RevC.01\State=1-A\HF=-277
 .7512079\RMSD=9.794e-02\Dipole=1.1709835,-0.431909,0.0525082\Quadrupol
 e=2.11812,-2.8323972,0.7142772,-0.174769,0.2795056,0.012962\PG=C01 [X(

 Normal termination of Gaussian 16 at Tue Apr  8 21:32:36 2025.
