 Gaussian 16, Revision C.01,

 ----------------------------------------------------------------------
 #t hf aug-cc-pvdz symm=none int=(grid=ultrafine) guess=(read,tcheck) s
 table=(opt,rrhf)
 ----------------------------------------------------------------------
 -----
 title
 -----
 Symbolic Z-matrix:
 Charge =  0 Multiplicity = 1

 SCF Done:  E(RHF) =  -689.345842286     A.U. after   15 cycles
 Normal termination of Gaussian 16 at Tue Apr  8 21:57:50 2025.
 Gaussian 16:  ES64L-G16RevC.01  3-Jul-2019

 ----------------------------------------------------------------------
 #t hf aug-cc-pvdz iop(5/13=1,5/36=2,99/5=2) pseudo=read geom=check gue
 ss=(read,tcheck) scf=(maxcycle=1)
 ----------------------------------------------------------------------
 -----
 title
 -----
 Structure from the checkpoint file:  "ANI1ccx_756_conf5_mol1.chk"
 Charge =  0 Multiplicity = 1

                         Standard orientation:
 ---------------------------------------------------------------------
 Center     Atomic      Atomic             Coordinates (Angstroms)
 Number     Number       Type             X           Y           Z
 ---------------------------------------------------------------------
      1          6           0       -2.762121   -0.208679   -0.195067
      2          6           0        0.022969    1.413460    0.491742
      3          6           0        1.954229    0.119402    0.079428
      4          1           0        3.738399    0.946024    0.420567
      5          1           0       -0.511646    1.868740    1.351940
      6          1           0       -0.381694    0.339903   -1.163240
      7          1           0        3.828279   -1.525411   -0.550451
      8          1           0       -2.472091   -2.085080    0.610904
      9          1           0       -0.159633   -1.302320    0.636608
     10          1           0       -2.691941    1.652500   -0.882918
     11          7           0       -1.963901   -1.252220    0.290761
     12          7           0       -2.106131    0.999650   -0.358052
     13          7           0       -0.772582    1.074900   -0.580477
     14          7           0        1.294779    1.164410    0.659728
     15          7           0        3.304669    0.027851    0.353723
     16          8           0        1.461909   -0.800278   -0.583597
     17          8           0       -0.925087   -0.989915    1.106090
     18          8           0       -3.918051   -0.349535   -0.473157
     19          8           0        4.013979   -0.602968   -0.704308
 ---------------------------------------------------------------------

 SCF Done:  E(RHF) =  -692.281861548     A.U. after    2 cycles

 The electronic state is 1-A.
 Alpha  occ. eigenvalues --  -21.12066 -21.10981 -21.04969 -21.04294 -15.82551
 Alpha  occ. eigenvalues --  -15.80912 -15.80397 -15.80199 -15.74498 -11.52988
 Alpha  occ. eigenvalues --  -11.51941 -11.51586  -1.85843  -1.81702  -1.74489
 Alpha  occ. eigenvalues --   -1.71100  -1.58694  -1.40722  -1.27955  -1.24101
 Alpha  occ. eigenvalues --   -1.18184  -0.95751  -0.88960  -0.82915  -0.75864
 Alpha  occ. eigenvalues --   -0.74082  -0.70303  -0.67081  -0.64505  -0.64205
 Alpha  occ. eigenvalues --   -0.63620  -0.61509  -0.57136  -0.56007  -0.52984
 Alpha  occ. eigenvalues --   -0.51747  -0.50158  -0.42218  -0.41327  -0.38791
 Alpha  occ. eigenvalues --   -0.37319  -0.35077  -0.32886  -0.31764  -0.31151
 Alpha  occ. eigenvalues --   -0.30173
 Alpha virt. eigenvalues --    0.03871   0.05252   0.05344   0.05675   0.06117
 Alpha virt. eigenvalues --    0.06865   0.07867   0.08404   0.09971   0.10937
 Alpha virt. eigenvalues --    0.11727   0.12608   0.12797   0.13680   0.14205

 Mulliken charges:
               1
     1  C    5.435149
     2  C    1.196205
     3  C    5.598450
     4  H    0.710855
     5  H    1.980400
     6  H    0.741227
     7  H    0.758601
     8  H    0.637640
     9  H    0.944144
    10  H    0.657282
    11  N   -0.064932
    12  N   -1.832345
    13  N   -1.906540
    14  N   -3.132179
    15  N   -1.238962
    16  O   -2.484527
    17  O   -2.798043
    18  O   -3.137739
    19  O   -2.064687
 Sum of Mulliken charges =  -0.00000

 Dipole moment (field-independent basis, Debye):
    X=              0.0722    Y=              0.4127    Z=             -0.4655  Tot=              0.6263

 Test job not archived.
 1\1\GINC-SE058\SP\RHF\Aug-CC-pVDZ\C3H7N5O4\OHZDE\08-Apr-2025\0\\#t hf
 aug-cc-pvdz iop(5/13=1,5/36=2,99/5=2) pseudo=read geom=check guess=(re
 ad,tcheck) scf=(maxcycle=1)\\title\\0,1\C,0,-2.76212,-0.208679,-0.1950
 67\C,0,0.0229693,1.41346,0.491742\C,0,1.95423,0.119403,0.0794285\H,0,3
 .7384,0.946025,0.420567\H,0,-0.511645,1.86874,1.35194\H,0,-0.381693,0.
 339903,-1.16324\H,0,3.82828,-1.52541,-0.550451\H,0,-2.47209,-2.08508,0
 .610904\H,0,-0.159632,-1.30232,0.636608\H,0,-2.69194,1.6525,-0.882918\
 N,0,-1.9639,-1.25222,0.290761\N,0,-2.10613,0.99965,-0.358052\N,0,-0.77

 Normal termination of Gaussian 16 at Tue Apr  8 21:58:02 2025.
