 Gaussian 16, Revision C.01,

 ----------------------------------------------------------------------
 #t hf aug-cc-pvdz symm=none int=(grid=ultrafine) guess=(read,tcheck) s
 table=(opt,rrhf)
 ----------------------------------------------------------------------
 -----
 title
 -----
 Symbolic Z-matrix:
 Charge =  0 Multiplicity = 1

 SCF Done:  E(RHF) =  -380.220723517     A.U. after   11 cycles
 Normal termination of Gaussian 16 at Tue Apr  8 21:06:28 2025.
 Gaussian 16:  ES64L-G16RevC.01  3-Jul-2019

 ----------------------------------------------------------------------
 #t hf aug-cc-pvdz iop(5/13=1,5/36=2,99/5=2) pseudo=read geom=check gue
 ss=(read,tcheck) scf=(maxcycle=1)
 ----------------------------------------------------------------------
 -----
 title
 -----
 Structure from the checkpoint file:  "ANI1ccx_1843_conf55_mol1.chk"
 Charge =  0 Multiplicity = 1

                         Standard orientation:
 ---------------------------------------------------------------------
 Center     Atomic      Atomic             Coordinates (Angstroms)
 Number     Number       Type             X           Y           Z
 ---------------------------------------------------------------------
      1          1           0        0.228004   -1.324019    0.279614
      2          1           0       -0.548546   -1.914369    1.575630
      3          1           0        1.925640   -0.337890   -0.302413
      4          1           0        1.755651   -1.571318   -1.262320
      5          1           0        2.323179    1.676192    0.432308
      6          1           0        0.875329    1.450632   -0.125192
      7          1           0       -1.393551    1.261581    0.034403
      8          1           0       -0.625011    0.633119    1.148510
      9          1           0       -3.280240   -0.208152   -0.735489
     10          1           0       -1.839010   -0.688307   -0.402679
     11          8           0       -0.605758   -1.249939    0.833571
     12          8           0        1.829711   -1.351708   -0.309246
     13          8           0        1.837599    1.274772   -0.336558
     14          8           0       -0.656773    1.479611    0.658598
     15          8           0       -2.332460   -0.024920   -0.926663
 ---------------------------------------------------------------------

 SCF Done:  E(RHF) =  -381.875552348     A.U. after    2 cycles

 The electronic state is 1-A.
 Alpha  occ. eigenvalues --  -21.09074 -21.08940 -21.08132 -21.07546 -21.06813
 Alpha  occ. eigenvalues --   -1.69284  -1.66943  -1.66079  -1.64323  -1.62459
 Alpha  occ. eigenvalues --   -0.66173  -0.64744  -0.63794  -0.63216  -0.61407
 Alpha  occ. eigenvalues --   -0.53199  -0.49976  -0.48499  -0.45765  -0.41738
 Alpha  occ. eigenvalues --   -0.36431  -0.34653  -0.34209  -0.34119  -0.32596
 Alpha virt. eigenvalues --    0.03675   0.04919   0.05127   0.05904   0.07814
 Alpha virt. eigenvalues --    0.07980   0.08604   0.09128   0.10711   0.11169
 Alpha virt. eigenvalues --    0.17974   0.18768   0.20436   0.20965   0.21739

 Mulliken charges:
               1
     1  H    1.765124
     2  H    0.909865
     3  H    1.644544
     4  H    0.720365
     5  H    0.740931
     6  H    1.520469
     7  H    1.166167
     8  H    1.369739
     9  H    0.833681
    10  H    1.339063
    11  O   -2.843433
    12  O   -2.273612
    13  O   -2.367174
    14  O   -2.561901
    15  O   -1.963828
 Sum of Mulliken charges =  -0.00000

 Dipole moment (field-independent basis, Debye):
    X=             -0.4233    Y=             -0.9903    Z=              0.6672  Tot=              1.2669

 Test job not archived.
 1\1\GINC-SE252\SP\RHF\Aug-CC-pVDZ\H10O5\OHZDE\08-Apr-2025\0\\#t hf aug
 -cc-pvdz iop(5/13=1,5/36=2,99/5=2) pseudo=read geom=check guess=(read,
 tcheck) scf=(maxcycle=1)\\title\\0,1\H,0,0.228003,-1.32402,0.279614\H,
 0,-0.548547,-1.91437,1.57563\H,0,1.92564,-0.337892,-0.302413\H,0,1.755
 65,-1.57132,-1.26232\H,0,2.32318,1.67619,0.432308\H,0,0.87533,1.45063,
 -0.125192\H,0,-1.39355,1.26158,0.0344031\H,0,-0.625011,0.633118,1.1485
 1\H,0,-3.28024,-0.208152,-0.735489\H,0,-1.83901,-0.688307,-0.402679\O,
 0,-0.605758,-1.24994,0.833571\O,0,1.82971,-1.35171,-0.309246\O,0,1.837

 Normal termination of Gaussian 16 at Tue Apr  8 21:06:31 2025.
