 Gaussian 16, Revision C.01,

 ----------------------------------------------------------------------
 #t hf aug-cc-pvdz symm=none int=(grid=ultrafine) guess=(read,tcheck) s
 table=(opt,rrhf)
 ----------------------------------------------------------------------
 -----
 title
 -----
 Symbolic Z-matrix:
 Charge =  0 Multiplicity = 1

 SCF Done:  E(RHF) =  -659.078213340     A.U. after   14 cycles
 Normal termination of Gaussian 16 at Tue Apr  8 19:37:37 2025.
 Gaussian 16:  ES64L-G16RevC.01  3-Jul-2019

 ----------------------------------------------------------------------
 #t hf aug-cc-pvdz iop(5/13=1,5/36=2,99/5=2) pseudo=read geom=check gue
 ss=(read,tcheck) scf=(maxcycle=1)
 ----------------------------------------------------------------------
 -----
 title
 -----
 Structure from the checkpoint file:  "ANI1ccx_1265_conf11_mol1.chk"
 Charge =  0 Multiplicity = 1

                         Standard orientation:
 ---------------------------------------------------------------------
 Center     Atomic      Atomic             Coordinates (Angstroms)
 Number     Number       Type             X           Y           Z
 ---------------------------------------------------------------------
      1          6           0        2.063730   -0.082738   -0.706624
      2          6           0        0.691035   -1.879940    0.280938
      3          6           0       -0.714653   -1.664201   -0.254021
      4          6           0       -1.640350   -1.232601    0.809974
      5          6           0       -2.636780   -0.148256    0.430656
      6          6           0       -1.902661    1.168338   -0.065932
      7          1           0       -0.125424    0.577897    0.593162
      8          1           0       -3.784031    0.308256   -1.142980
      9          1           0       -4.334750   -1.006003   -0.399242
     10          1           0       -3.170841    0.335593    1.326150
     11          1           0       -1.154240   -0.823285    1.616420
     12          1           0       -2.256879   -2.057972    1.324470
     13          1           0       -0.526206   -0.882900   -1.043560
     14          1           0       -1.180989   -2.517771   -0.828032
     15          1           0        0.633457   -2.347980    1.267930
     16          1           0        1.291481   -2.440330   -0.401697
     17          1           0        2.006680   -0.695590    1.252890
     18          1           0        3.806410   -0.749061    0.017975
     19          1           0        3.835370   -0.545041   -1.547790
     20          1           0        1.472810   -0.241525   -1.564500
     21          1           0        1.446629    1.800400   -0.229252
     22          1           0        2.482419    1.324781    1.688970
     23          1           0        3.672348    2.196432    0.715786
     24          7           0        3.114069    1.317991    0.811204
     25          7           0        2.355739    1.324041   -0.467561
     26          7           0        3.273140   -0.996906   -0.814299
     27          7           0        1.341310   -0.591745    0.463176
     28          7           0       -3.477130   -0.576097   -0.691596
     29          8           0       -0.654725    1.347169    0.440640
     30          8           0       -2.536032    2.085268   -0.531030
 ---------------------------------------------------------------------

 SCF Done:  E(RHF) =  -662.154397037     A.U. after    2 cycles

 The electronic state is 1-A.
 Alpha  occ. eigenvalues --  -21.10100 -21.04657 -15.75917 -15.75169 -15.73446
 Alpha  occ. eigenvalues --  -15.73189 -15.72415 -11.52438 -11.49002 -11.46839
 Alpha  occ. eigenvalues --  -11.45374 -11.41421 -11.37899  -1.81296  -1.65312
 Alpha  occ. eigenvalues --   -1.51730  -1.38965  -1.34936  -1.27450  -1.18645
 Alpha  occ. eigenvalues --   -1.11895  -1.04104  -0.94203  -0.89519  -0.84504
 Alpha  occ. eigenvalues --   -0.78554  -0.72572  -0.71197  -0.68483  -0.67649
 Alpha  occ. eigenvalues --   -0.66993  -0.64549  -0.61253  -0.59959  -0.58450
 Alpha  occ. eigenvalues --   -0.56830  -0.54648  -0.53425  -0.51848  -0.50302
 Alpha  occ. eigenvalues --   -0.49430  -0.47994  -0.46862  -0.44452  -0.43114
 Alpha  occ. eigenvalues --   -0.38951  -0.38836  -0.36878  -0.36652  -0.34237
 Alpha  occ. eigenvalues --   -0.32510  -0.28885
 Alpha virt. eigenvalues --    0.03765   0.04151   0.04410   0.04785   0.05263
 Alpha virt. eigenvalues --    0.05386   0.05677   0.06373   0.06795   0.07719
 Alpha virt. eigenvalues --    0.08067   0.08343   0.08709   0.08819   0.09852

 Mulliken charges:
               1
     1  C    0.718438
     2  C   -3.520601
     3  C   -3.056899
     4  C   -1.932874
     5  C   -1.421560
     6  C    6.328344
     7  H    1.899772
     8  H    0.504762
     9  H    0.595587
    10  H    1.580854
    11  H    1.969892
    12  H    1.082949
    13  H    2.005460
    14  H    1.373095
    15  H    1.656971
    16  H    1.448987
    17  H    0.239473
    18  H    0.630320
    19  H    0.485468
    20  H    2.069909
    21  H    0.636306
    22  H    0.645518
    23  H    0.700583
    24  N   -1.944401
    25  N   -1.718152
    26  N   -2.469179
    27  N   -0.629148
    28  N   -2.687516
    29  O   -3.774827
    30  O   -3.417529
 Sum of Mulliken charges =   0.00000

 Dipole moment (field-independent basis, Debye):
    X=              1.0705    Y=             -0.8857    Z=              2.0977  Tot=              2.5161

 Test job not archived.
 1\1\GINC-SE126\SP\RHF\Aug-CC-pVDZ\C6H17N5O2\OHZDE\08-Apr-2025\0\\#t hf
  aug-cc-pvdz iop(5/13=1,5/36=2,99/5=2) pseudo=read geom=check guess=(r
 ead,tcheck) scf=(maxcycle=1)\\title\\0,1\C,0,2.06373,-0.0827391,-0.706
 624\C,0,0.691034,-1.87994,0.280938\C,0,-0.714654,-1.6642,-0.254021\C,0
 ,-1.64035,-1.2326,0.809974\C,0,-2.63678,-0.148254,0.430656\C,0,-1.9026
 6,1.16834,-0.0659318\H,0,-0.125423,0.577898,0.593162\H,0,-3.78403,0.30
 8259,-1.14298\H,0,-4.33475,-1.006,-0.399242\H,0,-3.17084,0.335595,1.32
 615\H,0,-1.15424,-0.823284,1.61642\H,0,-2.25688,-2.05797,1.32447\H,0,-

 Normal termination of Gaussian 16 at Tue Apr  8 19:38:07 2025.
