 Gaussian 16, Revision C.01,

 ----------------------------------------------------------------------
 #t hf aug-cc-pvdz symm=none int=(grid=ultrafine) guess=(read,tcheck) s
 table=(opt,rrhf)
 ----------------------------------------------------------------------
 -----
 title
 -----
 Symbolic Z-matrix:
 Charge =  0 Multiplicity = 1

 SCF Done:  E(RHF) =  -615.380772957     A.U. after   17 cycles
 Normal termination of Gaussian 16 at Tue Apr  8 19:23:50 2025.
 Gaussian 16:  ES64L-G16RevC.01  3-Jul-2019

 ----------------------------------------------------------------------
 #t hf aug-cc-pvdz iop(5/13=1,5/36=2,99/5=2) pseudo=read geom=check gue
 ss=(read,tcheck) scf=(maxcycle=1)
 ----------------------------------------------------------------------
 -----
 title
 -----
 Structure from the checkpoint file:  "ANI1ccx_1144_conf15_mol1.chk"
 Charge =  0 Multiplicity = 1

                         Standard orientation:
 ---------------------------------------------------------------------
 Center     Atomic      Atomic             Coordinates (Angstroms)
 Number     Number       Type             X           Y           Z
 ---------------------------------------------------------------------
      1          6           0        2.533519   -2.105012    0.106918
      2          6           0        0.212507   -0.948431   -0.094111
      3          6           0       -1.965270   -0.435974    0.062549
      4          6           0       -0.593641    1.293680    0.022095
      5          6           0        0.569094    0.402942   -0.041608
      6          1           0        0.763888    2.724799   -0.030668
      7          1           0       -3.898820   -0.011630   -0.031306
      8          1           0        0.617815   -2.880841   -0.013628
      9          1           0       -3.406301   -1.860178   -0.478534
     10          1           0        2.860619   -1.385052    0.945727
     11          1           0        3.150829   -1.861082   -0.837377
     12          1           0        2.627888   -3.194432    0.517579
     13          7           0        1.057619   -1.996021   -0.099199
     14          7           0       -1.046711   -1.389079   -0.041853
     15          7           0       -3.236420   -0.870064   -0.001425
     16          7           0       -1.839999    0.959822    0.198852
     17          7           0        1.856731    0.800107   -0.019012
     18          8           0       -0.255056    2.562210   -0.049282
     19          8           0        2.156092    2.024268   -0.034265
 ---------------------------------------------------------------------

 SCF Done:  E(RHF) =  -618.123763069     A.U. after    2 cycles

 The electronic state is 1-A.
 Alpha  occ. eigenvalues --  -21.08687 -21.07479 -15.85421 -15.78712 -15.78188
 Alpha  occ. eigenvalues --  -15.74096 -15.73120 -11.55057 -11.53886 -11.51320
 Alpha  occ. eigenvalues --  -11.43066 -11.42043  -1.84071  -1.75701  -1.56487
 Alpha  occ. eigenvalues --   -1.44807  -1.32136  -1.29139  -1.23393  -1.03708
 Alpha  occ. eigenvalues --   -0.96980  -0.90121  -0.86545  -0.77020  -0.71702
 Alpha  occ. eigenvalues --   -0.68811  -0.66223  -0.63980  -0.63164  -0.60372
 Alpha  occ. eigenvalues --   -0.57433  -0.55881  -0.55646  -0.53989  -0.51590
 Alpha  occ. eigenvalues --   -0.50145  -0.48038  -0.46635  -0.45260  -0.36465
 Alpha  occ. eigenvalues --   -0.35539  -0.32753  -0.29850  -0.25371
 Alpha virt. eigenvalues --    0.03232   0.04123   0.05205   0.05954   0.06560
 Alpha virt. eigenvalues --    0.06804   0.08056   0.09247   0.10168   0.10371
 Alpha virt. eigenvalues --    0.11068   0.11995   0.12300   0.12677   0.12926

 Mulliken charges:
               1
     1  C   -3.769789
     2  C    5.580859
     3  C    3.826360
     4  C    5.225401
     5  C    1.678104
     6  H    1.455325
     7  H    0.629188
     8  H    0.759240
     9  H    0.664132
    10  H    1.326488
    11  H    1.346623
    12  H    1.343541
    13  N   -3.625445
    14  N   -3.400451
    15  N   -3.067713
    16  N   -3.249671
    17  N   -0.343853
    18  O   -3.785944
    19  O   -2.592394
 Sum of Mulliken charges =  -0.00000

 Dipole moment (field-independent basis, Debye):
    X=             -0.7604    Y=             -2.9910    Z=             -0.5868  Tot=              3.1414

 Test job not archived.
 1\1\GINC-SE362\SP\RHF\Aug-CC-pVDZ\C5H7N5O2\OHZDE\08-Apr-2025\0\\#t hf
 aug-cc-pvdz iop(5/13=1,5/36=2,99/5=2) pseudo=read geom=check guess=(re
 ad,tcheck) scf=(maxcycle=1)\\title\\0,1\C,0,2.53352,-2.10501,0.106918\
 C,0,0.212507,-0.948431,-0.0941107\C,0,-1.96527,-0.435975,0.0625488\C,0
 ,-0.593642,1.29368,0.0220946\C,0,0.569093,0.402943,-0.0416082\H,0,0.76
 3886,2.7248,-0.0306681\H,0,-3.89882,-0.0116325,-0.0313064\H,0,0.617817
 ,-2.88084,-0.0136279\H,0,-3.4063,-1.86018,-0.478534\H,0,2.86062,-1.385
 05,0.945727\H,0,3.15083,-1.86108,-0.837377\H,0,2.62789,-3.19443,0.5175

 Normal termination of Gaussian 16 at Tue Apr  8 19:24:00 2025.
