 Gaussian 16, Revision C.01,

 ----------------------------------------------------------------------
 #t hf aug-cc-pvdz symm=none int=(grid=ultrafine) guess=(read,tcheck) s
 table=(opt,rrhf)
 ----------------------------------------------------------------------
 -----
 title
 -----
 Symbolic Z-matrix:
 Charge =  0 Multiplicity = 1

 SCF Done:  E(RHF) =  -302.697318321     A.U. after   13 cycles
 Normal termination of Gaussian 16 at Tue Apr  8 21:46:48 2025.
 Gaussian 16:  ES64L-G16RevC.01  3-Jul-2019

 ----------------------------------------------------------------------
 #t hf aug-cc-pvdz iop(5/13=1,5/36=2,99/5=2) pseudo=read geom=check gue
 ss=(read,tcheck) scf=(maxcycle=1)
 ----------------------------------------------------------------------
 -----
 title
 -----
 Structure from the checkpoint file:  "ANI1ccx_528_conf44_mol1.chk"
 Charge =  0 Multiplicity = 1

                         Standard orientation:
 ---------------------------------------------------------------------
 Center     Atomic      Atomic             Coordinates (Angstroms)
 Number     Number       Type             X           Y           Z
 ---------------------------------------------------------------------
      1          6           0       -0.693664   -0.746116    0.071452
      2          6           0        0.533237    0.128118    0.025703
      3          1           0       -1.547330    0.869755   -0.119325
      4          1           0       -0.628775   -1.270741    1.070690
      5          1           0       -0.595048   -1.462871   -0.730277
      6          1           0        1.577160   -1.424901    0.098247
      7          8           0       -1.821580   -0.024818   -0.077139
      8          8           0        1.712030   -0.438999   -0.084568
      9          8           0        0.379121    1.338409    0.048924
 ---------------------------------------------------------------------

 SCF Done:  E(RHF) =  -303.962796475     A.U. after    2 cycles

 The electronic state is 1-A.
 Alpha  occ. eigenvalues --  -21.15550 -21.08791 -21.06185 -11.53644 -11.44530
 Alpha  occ. eigenvalues --   -1.86229  -1.75956  -1.66521  -1.06964  -0.80947
 Alpha  occ. eigenvalues --   -0.74425  -0.68614  -0.61333  -0.56141  -0.53293
 Alpha  occ. eigenvalues --   -0.51211  -0.41245  -0.36182  -0.33725  -0.32187
 Alpha virt. eigenvalues --    0.02721   0.05215   0.05374   0.07242   0.09178
 Alpha virt. eigenvalues --    0.11309   0.11392   0.11527   0.12816   0.15204
 Alpha virt. eigenvalues --    0.16643   0.17200   0.18969   0.21715   0.22260

 Mulliken charges:
               1
     1  C   -0.356394
     2  C    4.822327
     3  H    0.787726
     4  H    1.192795
     5  H    1.223796
     6  H    0.925353
     7  O   -2.820447
     8  O   -2.998368
     9  O   -2.776788
 Sum of Mulliken charges =  -0.00000

 Dipole moment (field-independent basis, Debye):
    X=              0.8145    Y=             -1.8024    Z=              0.0730  Tot=              1.9793

 Test job not archived.
 1\1\GINC-SE028\SP\RHF\Aug-CC-pVDZ\C2H4O3\OHZDE\08-Apr-2025\0\\#t hf au
 g-cc-pvdz iop(5/13=1,5/36=2,99/5=2) pseudo=read geom=check guess=(read
 ,tcheck) scf=(maxcycle=1)\\title\\0,1\C,0,-0.693664,-0.746115,0.071452
 2\C,0,0.533237,0.128119,0.0257025\H,0,-1.54733,0.869756,-0.119325\H,0,
 -0.628775,-1.27074,1.07069\H,0,-0.595048,-1.46287,-0.730277\H,0,1.5771
 6,-1.4249,0.0982471\O,0,-1.82158,-0.024817,-0.0771392\O,0,1.71203,-0.4
 38998,-0.0845684\O,0,0.379121,1.33841,0.0489241\\Version=ES64L-G16RevC
 .01\State=1-A\HF=-303.9627965\RMSD=1.974e-01\Dipole=0.320465,-0.709126

 Normal termination of Gaussian 16 at Tue Apr  8 21:46:50 2025.
