 Gaussian 16, Revision C.01,

 ----------------------------------------------------------------------
 #t hf aug-cc-pvdz symm=none int=(grid=ultrafine) guess=(read,tcheck) s
 table=(opt,rrhf)
 ----------------------------------------------------------------------
 -----
 title
 -----
 Symbolic Z-matrix:
 Charge =  0 Multiplicity = 1

 SCF Done:  E(RHF) =  -298.815799660     A.U. after   14 cycles
 Normal termination of Gaussian 16 at Tue Apr  8 21:37:41 2025.
 Gaussian 16:  ES64L-G16RevC.01  3-Jul-2019

 ----------------------------------------------------------------------
 #t hf aug-cc-pvdz iop(5/13=1,5/36=2,99/5=2) pseudo=read geom=check gue
 ss=(read,tcheck) scf=(maxcycle=1)
 ----------------------------------------------------------------------
 -----
 title
 -----
 Structure from the checkpoint file:  "ANI1ccx_398_conf30_mol1.chk"
 Charge =  0 Multiplicity = 1

                         Standard orientation:
 ---------------------------------------------------------------------
 Center     Atomic      Atomic             Coordinates (Angstroms)
 Number     Number       Type             X           Y           Z
 ---------------------------------------------------------------------
      1          6           0       -0.459726    0.170478    0.042347
      2          1           0       -1.720910   -1.275609   -0.614900
      3          1           0       -2.569940    0.128317   -0.025605
      4          1           0        0.558197   -1.576379    0.661354
      5          1           0        1.553680    0.863688   -0.102259
      6          7           0       -1.681220   -0.460036    0.026123
      7          7           0        0.561681   -0.819809   -0.014185
      8          8           0       -0.218508    1.341731    0.023917
      9          8           0        1.815270   -0.117227   -0.055946
 ---------------------------------------------------------------------

 SCF Done:  E(RHF) =  -300.088384446     A.U. after    2 cycles

 The electronic state is 1-A.
 Alpha  occ. eigenvalues --  -21.07875 -21.05878 -15.79253 -15.78772 -11.52066
 Alpha  occ. eigenvalues --   -1.80425  -1.70003  -1.38020  -1.19864  -0.84126
 Alpha  occ. eigenvalues --   -0.74375  -0.67940  -0.64410  -0.57095  -0.54023
 Alpha  occ. eigenvalues --   -0.45665  -0.43272  -0.37216  -0.32505  -0.28452
 Alpha virt. eigenvalues --    0.03248   0.05074   0.05892   0.07213   0.11578
 Alpha virt. eigenvalues --    0.11725   0.12915   0.14613   0.16164   0.16356
 Alpha virt. eigenvalues --    0.17021   0.17859   0.19169   0.19872   0.21178

 Mulliken charges:
               1
     1  C    5.068383
     2  H    0.594547
     3  H    0.571034
     4  H    0.734902
     5  H    0.829137
     6  N   -2.537900
     7  N   -0.505404
     8  O   -2.557443
     9  O   -2.197256
 Sum of Mulliken charges =  -0.00000

 Dipole moment (field-independent basis, Debye):
    X=             -1.8057    Y=             -1.2661    Z=              0.0176  Tot=              2.2054

 Test job not archived.
 1\1\GINC-SE457\SP\RHF\Aug-CC-pVDZ\C1H4N2O2\OHZDE\08-Apr-2025\0\\#t hf
 aug-cc-pvdz iop(5/13=1,5/36=2,99/5=2) pseudo=read geom=check guess=(re
 ad,tcheck) scf=(maxcycle=1)\\title\\0,1\C,0,-0.459726,0.170477,0.04234
 67\H,0,-1.72091,-1.27561,-0.6149\H,0,-2.56994,0.128316,-0.0256055\H,0,
 0.558197,-1.57638,0.661354\H,0,1.55368,0.863688,-0.102259\N,0,-1.68122
 ,-0.460037,0.0261231\N,0,0.561681,-0.81981,-0.0141851\O,0,-0.218509,1.
 34173,0.0239166\O,0,1.81527,-0.117227,-0.0559461\\Version=ES64L-G16Rev
 C.01\State=1-A\HF=-300.0883844\RMSD=4.393e-02\Dipole=-0.7104001,-0.498

 Normal termination of Gaussian 16 at Tue Apr  8 21:37:43 2025.
