 Gaussian 16, Revision C.01,

 ----------------------------------------------------------------------
 #t hf aug-cc-pvdz symm=none int=(grid=ultrafine) guess=(read,tcheck) s
 table=(opt,rrhf)
 ----------------------------------------------------------------------
 -----
 title
 -----
 Symbolic Z-matrix:
 Charge =  0 Multiplicity = 1

 SCF Done:  E(RHF) =  -406.420060462     A.U. after   16 cycles
 Normal termination of Gaussian 16 at Tue Apr  8 21:36:38 2025.
 Gaussian 16:  ES64L-G16RevC.01  3-Jul-2019

 ----------------------------------------------------------------------
 #t hf aug-cc-pvdz iop(5/13=1,5/36=2,99/5=2) pseudo=read geom=check gue
 ss=(read,tcheck) scf=(maxcycle=1)
 ----------------------------------------------------------------------
 -----
 title
 -----
 Structure from the checkpoint file:  "ANI1ccx_379_conf13_mol1.chk"
 Charge =  0 Multiplicity = 1

                         Standard orientation:
 ---------------------------------------------------------------------
 Center     Atomic      Atomic             Coordinates (Angstroms)
 Number     Number       Type             X           Y           Z
 ---------------------------------------------------------------------
      1          6           0        0.126091    0.758156   -0.003640
      2          1           0        1.838831   -0.514997    1.117340
      3          1           0        2.118171   -0.575427   -0.429567
      4          7           0        1.648071   -1.131839    0.176248
      5          7           0        0.294068   -0.619502   -0.194473
      6          7           0       -0.785285   -1.275430   -0.217989
      7          7           0       -1.611769   -0.368771    0.107464
      8          8           0       -1.130500    0.865115    0.180073
      9          8           0        0.939358    1.673670   -0.150658
 ---------------------------------------------------------------------

 SCF Done:  E(RHF) =  -408.125848585     A.U. after    2 cycles

 The electronic state is 1-A.
 Alpha  occ. eigenvalues --  -21.20320 -21.07658 -15.88627 -15.85302 -15.84913
 Alpha  occ. eigenvalues --  -15.84476 -11.56583  -2.08101  -1.72508  -1.68217
 Alpha  occ. eigenvalues --   -1.43121  -1.22836  -0.98375  -0.89667  -0.79241
 Alpha  occ. eigenvalues --   -0.73915  -0.67593  -0.62920  -0.57612  -0.54121
 Alpha  occ. eigenvalues --   -0.52857  -0.48452  -0.47541  -0.44257  -0.34019
 Alpha  occ. eigenvalues --   -0.30757
 Alpha virt. eigenvalues --    0.03670   0.05865   0.08932   0.10546   0.11077
 Alpha virt. eigenvalues --    0.11328   0.12083   0.12681   0.12799   0.14838
 Alpha virt. eigenvalues --    0.15958   0.17287   0.17442   0.18344   0.20513

 Mulliken charges:
               1
     1  C    5.354879
     2  H    0.438346
     3  H    0.800564
     4  N   -1.714165
     5  N    0.001955
     6  N   -0.039914
     7  N    0.803050
     8  O   -2.842160
     9  O   -2.802556
 Sum of Mulliken charges =  -0.00000

 Dipole moment (field-independent basis, Debye):
    X=              1.5054    Y=             -0.2264    Z=              0.3592  Tot=              1.5642

 Test job not archived.
 1\1\GINC-SE041\SP\RHF\Aug-CC-pVDZ\C1H2N4O2\OHZDE\08-Apr-2025\0\\#t hf
 aug-cc-pvdz iop(5/13=1,5/36=2,99/5=2) pseudo=read geom=check guess=(re
 ad,tcheck) scf=(maxcycle=1)\\title\\0,1\C,0,0.126091,0.758156,-0.00363
 95\H,0,1.83883,-0.514998,1.11734\H,0,2.11817,-0.575428,-0.429567\N,0,1
 .64807,-1.13184,0.176248\N,0,0.294067,-0.619502,-0.194473\N,0,-0.78528
 6,-1.27543,-0.217989\N,0,-1.61177,-0.36877,0.107464\O,0,-1.1305,0.8651
 15,0.180073\O,0,0.939358,1.67367,-0.150658\\Version=ES64L-G16RevC.01\S
 tate=1-A\HF=-408.1258486\RMSD=1.009e-01\Dipole=0.5922889,-0.0890679,0.

 Normal termination of Gaussian 16 at Tue Apr  8 21:36:42 2025.
