 Gaussian 16, Revision C.01,

 ----------------------------------------------------------------------
 #t hf aug-cc-pvdz symm=none int=(grid=ultrafine) guess=(read,tcheck) s
 table=(opt,rrhf)
 ----------------------------------------------------------------------
 -----
 title
 -----
 Symbolic Z-matrix:
 Charge =  0 Multiplicity = 1

 SCF Done:  E(RHF) =  -1018.11632975     A.U. after   15 cycles
 Normal termination of Gaussian 16 at Tue Apr  8 20:58:44 2025.
 Gaussian 16:  ES64L-G16RevC.01  3-Jul-2019

 ----------------------------------------------------------------------
 #t hf aug-cc-pvdz iop(5/13=1,5/36=2,99/5=2) pseudo=read geom=check gue
 ss=(read,tcheck) scf=(maxcycle=1)
 ----------------------------------------------------------------------
 -----
 title
 -----
 Structure from the checkpoint file:  "ANI1ccx_171_conf13_mol1.chk"
 Charge =  0 Multiplicity = 1

                         Standard orientation:
 ---------------------------------------------------------------------
 Center     Atomic      Atomic             Coordinates (Angstroms)
 Number     Number       Type             X           Y           Z
 ---------------------------------------------------------------------
      1          6           0        0.761575    1.265310   -0.430316
      2          6           0       -0.736904   -2.281161   -0.104949
      3          6           0       -2.115280   -0.820204    1.401310
      4          6           0       -3.684090    0.204764   -0.229801
      5          6           0       -2.204330    0.137316    0.215307
      6          6           0       -0.898193   -1.698261    1.310770
      7          6           0        4.361170    0.588117    0.310720
      8          6           0        3.010460    0.378237    0.301583
      9          6           0        1.898370    1.403150    0.610388
     10          6           0       -0.455953    2.035909    0.111708
     11          6           0        3.884350   -1.562800   -0.145315
     12          1           0       -1.628880   -0.240345   -0.617702
     13          1           0       -3.691650   -1.550021   -1.095950
     14          1           0        1.159760   -1.759130   -0.226419
     15          1           0       -0.907020   -2.521761    2.003010
     16          1           0        0.016932   -1.136221    1.434270
     17          1           0       -2.188000   -0.383396    2.400100
     18          1           0       -3.057850   -1.393731    1.489330
     19          1           0       -2.380200    2.085319    0.741659
     20          1           0        3.972710   -2.575500   -0.589791
     21          1           0        4.978520    1.516500    0.178994
     22          1           0        2.231100    2.402560    0.731279
     23          1           0        1.514390    1.063450    1.552260
     24          1           0        0.653823    0.206715   -0.561636
     25          1           0        1.032170    2.930560   -1.542540
     26          1           0        2.087840    1.827430   -1.952480
     27          1           0        5.897980   -0.808205   -0.127527
     28          7           0        1.083760    1.944230   -1.624210
     29          7           0        2.759260   -0.945188    0.063304
     30          7           0        4.936470   -0.632899    0.039081
     31          7           0       -1.676000    1.424409    0.496246
     32          8           0        0.439307   -2.217011   -0.767167
     33          8           0       -0.417059    3.250429    0.205733
     34          8           0       -4.343980    1.198839    0.041751
     35          8           0       -1.737210   -2.716691   -0.640003
     36          8           0       -4.233950   -0.778111   -0.933592
 ---------------------------------------------------------------------

 SCF Done:  E(RHF) =  -1022.65974584     A.U. after    2 cycles

 The electronic state is 1-A.
 Alpha  occ. eigenvalues --  -21.12451 -21.11138 -21.04856 -21.04207 -21.02999
 Alpha  occ. eigenvalues --  -15.83249 -15.76260 -15.75461 -15.73424 -11.55202
 Alpha  occ. eigenvalues --  -11.54444 -11.53909 -11.51289 -11.50768 -11.47714
 Alpha  occ. eigenvalues --  -11.47659 -11.45821 -11.44616 -11.40973 -11.40807
 Alpha  occ. eigenvalues --   -1.82759  -1.81466  -1.71817  -1.65687  -1.64616
 Alpha  occ. eigenvalues --   -1.59464  -1.41391  -1.37347  -1.31002  -1.22607
 Alpha  occ. eigenvalues --   -1.16816  -1.07980  -1.06413  -0.96466  -0.93711
 Alpha  occ. eigenvalues --   -0.88935  -0.82350  -0.81732  -0.80534  -0.78449
 Alpha  occ. eigenvalues --   -0.77166  -0.73340  -0.71753  -0.68544  -0.66604
 Alpha  occ. eigenvalues --   -0.65807  -0.64721  -0.63290  -0.60818  -0.60323
 Alpha  occ. eigenvalues --   -0.58924  -0.58798  -0.57268  -0.55924  -0.54687
 Alpha  occ. eigenvalues --   -0.53754  -0.52806  -0.51567  -0.50750  -0.50399
 Alpha  occ. eigenvalues --   -0.48763  -0.47397  -0.45950  -0.45338  -0.43566
 Alpha  occ. eigenvalues --   -0.41171  -0.39986  -0.36202  -0.33861  -0.33311
 Alpha  occ. eigenvalues --   -0.32732  -0.31109  -0.30295  -0.29434  -0.28651
 Alpha virt. eigenvalues --    0.02050   0.03476   0.03972   0.04389   0.04985
 Alpha virt. eigenvalues --    0.05287   0.05825   0.06460   0.06852   0.07580
 Alpha virt. eigenvalues --    0.07795   0.08310   0.08698   0.09008   0.09560

 Mulliken charges:
               1
     1  C   -1.123783
     2  C    7.355790
     3  C   -2.846415
     4  C    6.660724
     5  C   -1.323438
     6  C   -5.642633
     7  C   -2.619609
     8  C    5.563341
     9  C   -4.699043
    10  C    6.186034
    11  C    0.749560
    12  H    2.933025
    13  H    1.105105
    14  H    1.979529
    15  H    1.391178
    16  H    2.214367
    17  H    1.523225
    18  H    1.579486
    19  H    0.660580
    20  H    1.714564
    21  H    1.205929
    22  H    1.757913
    23  H    1.625208
    24  H    2.546161
    25  H    0.510597
    26  H    0.605678
    27  H    0.894670
    28  N   -3.434836
    29  N   -3.517040
    30  N   -3.389357
    31  N   -3.817568
    32  O   -3.879829
    33  O   -3.924202
    34  O   -3.382979
    35  O   -3.558975
    36  O   -3.602955
 Sum of Mulliken charges =   0.00000

 Dipole moment (field-independent basis, Debye):
    X=              8.5316    Y=             -1.7924    Z=              0.7036  Tot=              8.7462

 Test job not archived.
 1\1\GINC-SE457\SP\RHF\Aug-CC-pVDZ\C11H16N4O5\OHZDE\08-Apr-2025\0\\#t h
 f aug-cc-pvdz iop(5/13=1,5/36=2,99/5=2) pseudo=read geom=check guess=(
 read,tcheck) scf=(maxcycle=1)\\title\\0,1\C,0,0.761575,1.26531,-0.4303
 16\C,0,-0.736904,-2.28116,-0.104949\C,0,-2.11528,-0.820203,1.40131\C,0
 ,-3.68409,0.204765,-0.229801\C,0,-2.20433,0.137317,0.215307\C,0,-0.898
 193,-1.69826,1.31077\C,0,4.36117,0.588117,0.31072\C,0,3.01046,0.378237
 ,0.301583\C,0,1.89837,1.40315,0.610388\C,0,-0.455953,2.03591,0.111708\
 C,0,3.88435,-1.5628,-0.145315\H,0,-1.62888,-0.240344,-0.617702\H,0,-3.

 Normal termination of Gaussian 16 at Tue Apr  8 20:59:53 2025.
