 Gaussian 16, Revision C.01,

 ----------------------------------------------------------------------
 #t hf aug-cc-pvdz symm=none int=(grid=ultrafine) guess=(read,tcheck) s
 table=(opt,rrhf)
 ----------------------------------------------------------------------
 -----
 title
 -----
 Symbolic Z-matrix:
 Charge =  0 Multiplicity = 1

 SCF Done:  E(RHF) =  -311.834556433     A.U. after   15 cycles
 Normal termination of Gaussian 16 at Tue Apr  8 21:37:44 2025.
 Gaussian 16:  ES64L-G16RevC.01  3-Jul-2019

 ----------------------------------------------------------------------
 #t hf aug-cc-pvdz iop(5/13=1,5/36=2,99/5=2) pseudo=read geom=check gue
 ss=(read,tcheck) scf=(maxcycle=1)
 ----------------------------------------------------------------------
 -----
 title
 -----
 Structure from the checkpoint file:  "ANI1ccx_392_conf10_mol1.chk"
 Charge =  0 Multiplicity = 1

                         Standard orientation:
 ---------------------------------------------------------------------
 Center     Atomic      Atomic             Coordinates (Angstroms)
 Number     Number       Type             X           Y           Z
 ---------------------------------------------------------------------
      1          6           0       -0.613195   -0.086981    0.038141
      2          1           0       -2.301381    0.941110   -0.003333
      3          1           0       -2.483859   -0.877372    0.254434
      4          1           0        2.176232   -1.103067    0.089932
      5          7           0       -1.993250   -0.034480   -0.072491
      6          7           0        0.101993    1.147490    0.035368
      7          7           0        1.304449    0.773470   -0.010479
      8          7           0        1.327921   -0.544900   -0.040866
      9          7           0        0.157197   -1.118549    0.007056
 ---------------------------------------------------------------------

 SCF Done:  E(RHF) =  -313.225144362     A.U. after    2 cycles

 The electronic state is 1-A.
 Alpha  occ. eigenvalues --  -15.84089 -15.82327 -15.77351 -15.76929 -15.76768
 Alpha  occ. eigenvalues --  -11.45875  -1.77481  -1.41008  -1.38907  -1.20589
 Alpha  occ. eigenvalues --   -0.92101  -0.84676  -0.76390  -0.70026  -0.67965
 Alpha  occ. eigenvalues --   -0.59044  -0.53627  -0.48125  -0.44324  -0.42616
 Alpha  occ. eigenvalues --   -0.40385  -0.30212
 Alpha virt. eigenvalues --    0.03927   0.04684   0.06359   0.11260   0.11653
 Alpha virt. eigenvalues --    0.12274   0.13809   0.14683   0.14902   0.15201
 Alpha virt. eigenvalues --    0.17175   0.17596   0.18121   0.19125   0.19349

 Mulliken charges:
               1
     1  C    4.474718
     2  H    0.673744
     3  H    0.649229
     4  H    0.951155
     5  N   -2.744469
     6  N   -1.468271
     7  N   -0.124596
     8  N   -0.389067
     9  N   -2.022443
 Sum of Mulliken charges =  -0.00000

 Dipole moment (field-independent basis, Debye):
    X=             -0.4888    Y=             -1.6864    Z=              0.6233  Tot=              1.8632

 Test job not archived.
 1\1\GINC-SE110\SP\RHF\Aug-CC-pVDZ\C1H3N5\OHZDE\08-Apr-2025\0\\#t hf au
 g-cc-pvdz iop(5/13=1,5/36=2,99/5=2) pseudo=read geom=check guess=(read
 ,tcheck) scf=(maxcycle=1)\\title\\0,1\C,0,-0.613195,-0.0869809,0.03814
 15\H,0,-2.30138,0.941112,-0.00333281\H,0,-2.48386,-0.877369,0.254434\H
 ,0,2.17623,-1.10307,0.0899325\N,0,-1.99325,-0.034478,-0.0724914\N,0,0.
 101994,1.14749,0.0353678\N,0,1.30445,0.773468,-0.0104787\N,0,1.32792,-
 0.544902,-0.0408657\N,0,0.157195,-1.11855,0.0070562\\Version=ES64L-G16
 RevC.01\State=1-A\HF=-313.2251444\RMSD=9.864e-02\Dipole=-0.1923222,-0.

 Normal termination of Gaussian 16 at Tue Apr  8 21:37:47 2025.
