 Gaussian 16, Revision C.01,

 ----------------------------------------------------------------------
 #t hf aug-cc-pvdz symm=none int=(grid=ultrafine) guess=(read,tcheck) s
 table=(opt,rrhf)
 ----------------------------------------------------------------------
 -----
 title
 -----
 Symbolic Z-matrix:
 Charge =  0 Multiplicity = 1

 SCF Done:  E(RHF) =  -542.941794144     A.U. after   15 cycles
 Normal termination of Gaussian 16 at Tue Apr  8 21:50:02 2025.
 Gaussian 16:  ES64L-G16RevC.01  3-Jul-2019

 ----------------------------------------------------------------------
 #t hf aug-cc-pvdz iop(5/13=1,5/36=2,99/5=2) pseudo=read geom=check gue
 ss=(read,tcheck) scf=(maxcycle=1)
 ----------------------------------------------------------------------
 -----
 title
 -----
 Structure from the checkpoint file:  "ANI1ccx_647_conf1_mol1.chk"
 Charge =  0 Multiplicity = 1

                         Standard orientation:
 ---------------------------------------------------------------------
 Center     Atomic      Atomic             Coordinates (Angstroms)
 Number     Number       Type             X           Y           Z
 ---------------------------------------------------------------------
      1          6           0       -0.882060   -0.326944    0.053134
      2          6           0        1.050131    0.836401   -0.008699
      3          6           0        1.347920   -0.638498    0.049539
      4          1           0       -2.571919    1.165222   -0.073186
      5          7           0       -2.050180   -0.665731   -0.032481
      6          8           0       -2.957960    0.307695   -0.032082
      7          8           0       -0.317559    0.913439   -0.068683
      8          8           0        1.772821    1.787629    0.065265
      9          8           0        2.351309   -1.213981   -0.145226
     10          8           0        0.129792   -1.261140    0.147814
 ---------------------------------------------------------------------

 SCF Done:  E(RHF) =  -545.130820288     A.U. after    2 cycles

 The electronic state is 1-A.
 Alpha  occ. eigenvalues --  -21.19746 -21.18008 -21.14917 -21.14508 -21.13830
 Alpha  occ. eigenvalues --  -15.82545 -11.62675 -11.58677 -11.55377  -2.03484
 Alpha  occ. eigenvalues --   -1.87529  -1.85633  -1.77703  -1.72297  -1.30857
 Alpha  occ. eigenvalues --   -1.06545  -0.90696  -0.84786  -0.76459  -0.73762
 Alpha  occ. eigenvalues --   -0.65810  -0.62923  -0.61378  -0.58721  -0.56667
 Alpha  occ. eigenvalues --   -0.53783  -0.48843  -0.47536  -0.45392  -0.41069
 Alpha  occ. eigenvalues --   -0.39924  -0.33450  -0.30469
 Alpha virt. eigenvalues --    0.03855   0.06150   0.06452   0.08886   0.09214
 Alpha virt. eigenvalues --    0.09812   0.10050   0.10194   0.10946   0.11473
 Alpha virt. eigenvalues --    0.13490   0.14253   0.15810   0.17033   0.17903

 Mulliken charges:
               1
     1  C    5.779908
     2  C    4.485466
     3  C    4.413138
     4  H    0.819948
     5  N   -0.918724
     6  O   -2.464462
     7  O   -2.934666
     8  O   -3.015234
     9  O   -3.132310
    10  O   -3.033064
 Sum of Mulliken charges =  -0.00000

 Dipole moment (field-independent basis, Debye):
    X=             -0.2621    Y=              1.3825    Z=              0.0412  Tot=              1.4078

 Test job not archived.
 1\1\GINC-SE404\SP\RHF\Aug-CC-pVDZ\C3H1N1O5\OHZDE\08-Apr-2025\0\\#t hf
 aug-cc-pvdz iop(5/13=1,5/36=2,99/5=2) pseudo=read geom=check guess=(re
 ad,tcheck) scf=(maxcycle=1)\\title\\0,1\C,0,-0.88206,-0.326945,0.05313
 42\C,0,1.05013,0.836402,-0.00869873\C,0,1.34792,-0.638497,0.0495395\H,
 0,-2.57192,1.16522,-0.0731864\N,0,-2.05018,-0.665732,-0.0324807\O,0,-2
 .95796,0.307693,-0.0320823\O,0,-0.31756,0.913439,-0.0686826\O,0,1.7728
 2,1.78763,0.0652648\O,0,2.35131,-1.21398,-0.145226\O,0,0.129793,-1.261
 14,0.147814\\Version=ES64L-G16RevC.01\State=1-A\HF=-545.1308203\RMSD=1

 Normal termination of Gaussian 16 at Tue Apr  8 21:50:07 2025.
