 Gaussian 16, Revision C.01,

 ----------------------------------------------------------------------
 #t hf aug-cc-pvdz symm=none int=(grid=ultrafine) guess=(read,tcheck) s
 table=(opt,rrhf)
 ----------------------------------------------------------------------
 -----
 title
 -----
 Symbolic Z-matrix:
 Charge =  0 Multiplicity = 1

 SCF Done:  E(RHF) =  -256.791434377     A.U. after   15 cycles
 Normal termination of Gaussian 16 at Tue Apr  8 21:35:37 2025.
 Gaussian 16:  ES64L-G16RevC.01  3-Jul-2019

 ----------------------------------------------------------------------
 #t hf aug-cc-pvdz iop(5/13=1,5/36=2,99/5=2) pseudo=read geom=check gue
 ss=(read,tcheck) scf=(maxcycle=1)
 ----------------------------------------------------------------------
 -----
 title
 -----
 Structure from the checkpoint file:  "ANI1ccx_377_conf64_mol1.chk"
 Charge =  0 Multiplicity = 1

                         Standard orientation:
 ---------------------------------------------------------------------
 Center     Atomic      Atomic             Coordinates (Angstroms)
 Number     Number       Type             X           Y           Z
 ---------------------------------------------------------------------
      1          6           0       -1.066070   -0.341726   -0.018014
      2          1           0       -2.137220   -0.626780    0.132383
      3          1           0        1.933980   -0.665131    0.073549
      4          7           0       -0.648885    0.959536   -0.029880
      5          7           0        0.609107    0.948079    0.046372
      6          7           0        1.005180   -0.298728   -0.043477
      7          7           0       -0.022592   -1.131420    0.013007
 ---------------------------------------------------------------------

 SCF Done:  E(RHF) =  -257.924778268     A.U. after    2 cycles

 The electronic state is 1-A.
 Alpha  occ. eigenvalues --  -15.86111 -15.82395 -15.79144 -15.77513 -11.43080
 Alpha  occ. eigenvalues --   -1.78298  -1.40050  -1.28892  -0.93091  -0.87695
 Alpha  occ. eigenvalues --   -0.77320  -0.69637  -0.62349  -0.53776  -0.44253
 Alpha  occ. eigenvalues --   -0.41965  -0.40721  -0.38864
 Alpha virt. eigenvalues --    0.03702   0.04940   0.10098   0.10705   0.11288
 Alpha virt. eigenvalues --    0.12719   0.14295   0.15157   0.16366   0.17492
 Alpha virt. eigenvalues --    0.17788   0.18908   0.19709   0.20236   0.20839

 Mulliken charges:
               1
     1  C    1.110320
     2  H    1.532162
     3  H    0.961454
     4  N   -1.577829
     5  N    0.081289
     6  N   -0.450479
     7  N   -1.656916
 Sum of Mulliken charges =  -0.00000

 Dipole moment (field-independent basis, Debye):
    X=              1.2616    Y=             -1.7150    Z=              0.2176  Tot=              2.1401

 Test job not archived.
 1\1\GINC-SE365\SP\RHF\Aug-CC-pVDZ\C1H2N4\OHZDE\08-Apr-2025\0\\#t hf au
 g-cc-pvdz iop(5/13=1,5/36=2,99/5=2) pseudo=read geom=check guess=(read
 ,tcheck) scf=(maxcycle=1)\\title\\0,1\C,0,-1.06607,-0.341725,-0.018013
 6\H,0,-2.13722,-0.626778,0.132383\H,0,1.93398,-0.665133,0.0735492\N,0,
 -0.648884,0.959537,-0.0298801\N,0,0.609108,0.948078,0.0463724\N,0,1.00
 518,-0.298729,-0.0434775\N,0,-0.0225924,-1.13142,0.0130065\\Version=ES
 64L-G16RevC.01\State=1-A\HF=-257.9247783\RMSD=1.042e-01\Dipole=0.49634
 26,-0.674726,0.0856058\Quadrupole=5.1628808,-4.7434843,-0.4193965,-0.4

 Normal termination of Gaussian 16 at Tue Apr  8 21:35:39 2025.
