 Gaussian 16, Revision C.01,

 ----------------------------------------------------------------------
 #t hf aug-cc-pvdz symm=none int=(grid=ultrafine) guess=(read,tcheck) s
 table=(opt,rrhf)
 ----------------------------------------------------------------------
 -----
 title
 -----
 Symbolic Z-matrix:
 Charge =  0 Multiplicity = 1

 SCF Done:  E(RHF) =  -484.056742469     A.U. after   15 cycles
 Normal termination of Gaussian 16 at Tue Apr  8 21:48:55 2025.
 Gaussian 16:  ES64L-G16RevC.01  3-Jul-2019

 ----------------------------------------------------------------------
 #t hf aug-cc-pvdz iop(5/13=1,5/36=2,99/5=2) pseudo=read geom=check gue
 ss=(read,tcheck) scf=(maxcycle=1)
 ----------------------------------------------------------------------
 -----
 title
 -----
 Structure from the checkpoint file:  "ANI1ccx_606_conf2_mol2.chk"
 Charge =  0 Multiplicity = 1

                         Standard orientation:
 ---------------------------------------------------------------------
 Center     Atomic      Atomic             Coordinates (Angstroms)
 Number     Number       Type             X           Y           Z
 ---------------------------------------------------------------------
      1          6           0       -1.180969   -0.390357    0.010116
      2          6           0        1.202871   -0.339349   -0.023234
      3          7           0       -1.168717    1.039632   -0.104809
      4          7           0       -0.156615    1.721691   -0.040884
      5          8           0       -2.198210   -0.981089    0.109733
      6          8           0        1.062993    1.005209    0.141982
      7          8           0        2.250660   -0.860629    0.004772
      8          8           0        0.027797   -1.032370   -0.119167
 ---------------------------------------------------------------------

 SCF Done:  E(RHF) =  -486.009887220     A.U. after    2 cycles

 The electronic state is 1-A.
 Alpha  occ. eigenvalues --  -21.19572 -21.18256 -21.13965 -21.11764 -15.95968
 Alpha  occ. eigenvalues --  -15.87843 -11.62245 -11.60348  -2.02276  -1.88271
 Alpha  occ. eigenvalues --   -1.79790  -1.72930  -1.55918  -1.11237  -0.98165
 Alpha  occ. eigenvalues --   -0.81495  -0.74419  -0.73575  -0.66897  -0.62120
 Alpha  occ. eigenvalues --   -0.59644  -0.59288  -0.58090  -0.50144  -0.45604
 Alpha  occ. eigenvalues --   -0.40216  -0.38599  -0.37347  -0.36052
 Alpha virt. eigenvalues --    0.04224   0.05663   0.09366   0.09581   0.10189
 Alpha virt. eigenvalues --    0.10453   0.10911   0.11002   0.12361   0.13634
 Alpha virt. eigenvalues --    0.15020   0.15318   0.17361   0.18880   0.21030

 Mulliken charges:
               1
     1  C    5.358852
     2  C    5.882072
     3  N   -0.692635
     4  N    0.506594
     5  O   -2.750674
     6  O   -2.710135
     7  O   -2.839811
     8  O   -2.754262
 Sum of Mulliken charges =  -0.00000

 Dipole moment (field-independent basis, Debye):
    X=              0.3906    Y=             -0.2931    Z=              0.0760  Tot=              0.4942

 Test job not archived.
 1\1\GINC-SE453\SP\RHF\Aug-CC-pVDZ\C2N2O4\OHZDE\08-Apr-2025\0\\#t hf au
 g-cc-pvdz iop(5/13=1,5/36=2,99/5=2) pseudo=read geom=check guess=(read
 ,tcheck) scf=(maxcycle=1)\\title\\0,1\C,0,-1.18097,-0.390359,0.0101157
 \C,0,1.20287,-0.339348,-0.0232338\N,0,-1.16872,1.03963,-0.104809\N,0,-
 0.156619,1.72169,-0.0408844\O,0,-2.19821,-0.981092,0.109733\O,0,1.0629
 9,1.00521,0.141982\O,0,2.25066,-0.860626,0.00477161\O,0,0.0277969,-1.0
 3237,-0.119167\\Version=ES64L-G16RevC.01\State=1-A\HF=-486.0098872\RMS
 D=8.614e-02\Dipole=0.153661,-0.1153211,0.0299001\Quadrupole=-2.2307327

 Normal termination of Gaussian 16 at Tue Apr  8 21:48:58 2025.
