 Gaussian 16, Revision C.01,

 ----------------------------------------------------------------------
 #t hf aug-cc-pvdz symm=none int=(grid=ultrafine) guess=(read,tcheck) s
 table=(opt,rrhf)
 ----------------------------------------------------------------------
 -----
 title
 -----
 Symbolic Z-matrix:
 Charge =  0 Multiplicity = 1

 SCF Done:  E(RHF) =  -564.583402055     A.U. after   14 cycles
 Normal termination of Gaussian 16 at Tue Apr  8 22:16:57 2025.
 Gaussian 16:  ES64L-G16RevC.01  3-Jul-2019

 ----------------------------------------------------------------------
 #t hf aug-cc-pvdz iop(5/13=1,5/36=2,99/5=2) pseudo=read geom=check gue
 ss=(read,tcheck) scf=(maxcycle=1)
 ----------------------------------------------------------------------
 -----
 title
 -----
 Structure from the checkpoint file:  "ANI1ccx_958_conf2_mol1.chk"
 Charge =  0 Multiplicity = 1

                         Standard orientation:
 ---------------------------------------------------------------------
 Center     Atomic      Atomic             Coordinates (Angstroms)
 Number     Number       Type             X           Y           Z
 ---------------------------------------------------------------------
      1          6           0       -0.632575    1.747189    1.033870
      2          6           0       -0.374242    0.041718   -0.493150
      3          6           0        1.993140   -0.364903    0.008988
      4          6           0       -1.670000   -0.730607   -0.158029
      5          1           0       -2.546311    0.856080   -0.480505
      6          1           0        1.624679    1.520709   -0.953703
      7          1           0        3.259429    0.925701   -0.921530
      8          1           0        0.442490   -1.410811    0.774370
      9          1           0       -1.561481    1.396219    1.445560
     10          1           0        0.227782    1.307149    1.560830
     11          1           0       -0.525818    2.827969    1.138350
     12          1           0       -0.160990   -0.052241   -1.516620
     13          7           0        0.663188   -0.523014    0.392881
     14          7           0        2.283959    0.777845   -0.706825
     15          8           0       -2.792640   -0.056600   -0.368369
     16          8           0       -0.517888    1.440329   -0.326705
     17          8           0        2.854540   -1.163370    0.375536
     18          8           0       -1.704980   -1.884731    0.169638
 ---------------------------------------------------------------------

 SCF Done:  E(RHF) =  -567.017048747     A.U. after    2 cycles

 The electronic state is 1-A.
 Alpha  occ. eigenvalues --  -21.15073 -21.10573 -21.07629 -21.02201 -15.78471
 Alpha  occ. eigenvalues --  -15.77439 -11.56777 -11.51741 -11.50304 -11.43408
 Alpha  occ. eigenvalues --   -1.88185  -1.81481  -1.71137  -1.68465  -1.41635
 Alpha  occ. eigenvalues --   -1.31931  -1.09982  -0.98944  -0.86022  -0.82577
 Alpha  occ. eigenvalues --   -0.77315  -0.75183  -0.71219  -0.67098  -0.64589
 Alpha  occ. eigenvalues --   -0.61170  -0.58608  -0.57102  -0.55676  -0.52623
 Alpha  occ. eigenvalues --   -0.51852  -0.47370  -0.44898  -0.39885  -0.38810
 Alpha  occ. eigenvalues --   -0.36025  -0.32098  -0.31331  -0.29280
 Alpha virt. eigenvalues --    0.02973   0.04311   0.04359   0.05293   0.05663
 Alpha virt. eigenvalues --    0.06385   0.07327   0.08425   0.09854   0.10692
 Alpha virt. eigenvalues --    0.11320   0.12611   0.12824   0.13181   0.13412

 Mulliken charges:
               1
     1  C   -3.336009
     2  C   -0.254343
     3  C    5.689685
     4  C    6.730768
     5  H    1.173953
     6  H    0.742027
     7  H    0.646866
     8  H    0.629225
     9  H    1.413688
    10  H    1.463421
    11  H    1.133590
    12  H    2.035067
    13  N   -2.236513
    14  N   -2.822347
    15  O   -3.385921
    16  O   -3.076354
    17  O   -3.176963
    18  O   -3.369840
 Sum of Mulliken charges =  -0.00000

 Dipole moment (field-independent basis, Debye):
    X=             -1.0940    Y=              3.6946    Z=             -1.0438  Tot=              3.9921

 Test job not archived.
 1\1\GINC-SE118\SP\RHF\Aug-CC-pVDZ\C4H8N2O4\OHZDE\08-Apr-2025\0\\#t hf
 aug-cc-pvdz iop(5/13=1,5/36=2,99/5=2) pseudo=read geom=check guess=(re
 ad,tcheck) scf=(maxcycle=1)\\title\\0,1\C,0,-0.632574,1.74719,1.03387\
 C,0,-0.374242,0.0417194,-0.49315\C,0,1.99314,-0.364902,0.00898869\C,0,
 -1.67,-0.730606,-0.158029\H,0,-2.54631,0.856081,-0.480505\H,0,1.62468,
 1.52071,-0.953703\H,0,3.25943,0.925701,-0.92153\H,0,0.44249,-1.41081,0
 .77437\H,0,-1.56148,1.39622,1.44556\H,0,0.227783,1.30715,1.56083\H,0,-
 0.525817,2.82797,1.13835\H,0,-0.16099,-0.0522399,-1.51662\N,0,0.663188

 Normal termination of Gaussian 16 at Tue Apr  8 22:17:06 2025.
