 Gaussian 16, Revision C.01,

 ----------------------------------------------------------------------
 #t hf aug-cc-pvdz symm=none int=(grid=ultrafine) guess=(read,tcheck) s
 table=(opt,rrhf)
 ----------------------------------------------------------------------
 -----
 title
 -----
 Symbolic Z-matrix:
 Charge =  0 Multiplicity = 1

 SCF Done:  E(RHF) =  -548.593904085     A.U. after   14 cycles
 Normal termination of Gaussian 16 at Tue Apr  8 19:24:18 2025.
 Gaussian 16:  ES64L-G16RevC.01  3-Jul-2019

 ----------------------------------------------------------------------
 #t hf aug-cc-pvdz iop(5/13=1,5/36=2,99/5=2) pseudo=read geom=check gue
 ss=(read,tcheck) scf=(maxcycle=1)
 ----------------------------------------------------------------------
 -----
 title
 -----
 Structure from the checkpoint file:  "ANI1ccx_1168_conf155_mol2.chk"
 Charge =  0 Multiplicity = 1

                         Standard orientation:
 ---------------------------------------------------------------------
 Center     Atomic      Atomic             Coordinates (Angstroms)
 Number     Number       Type             X           Y           Z
 ---------------------------------------------------------------------
      1          6           0       -1.270209   -0.777152    0.267730
      2          6           0       -1.464240    0.715886    0.109749
      3          6           0        0.126648   -1.262520   -0.088917
      4          6           0        1.230491   -0.645690    0.784575
      5          6           0        2.315211    0.047266   -0.028998
      6          1           0       -2.734980    2.016348   -0.027480
      7          1           0        0.839902    0.020737    1.574220
      8          1           0        1.778061   -1.483889    1.226090
      9          1           0        0.130931   -2.348540    0.006721
     10          1           0        1.086100    1.524300   -0.081267
     11          1           0       -3.245909   -1.310092   -0.157529
     12          1           0       -2.183609   -1.442471   -1.399890
     13          1           0       -1.390969   -0.877570    1.365210
     14          1           0        0.290059   -1.082910   -1.169770
     15          7           0       -2.296118   -1.611981   -0.402621
     16          8           0        3.368791   -0.429217   -0.288185
     17          8           0       -0.624762    1.579870    0.153119
     18          8           0        1.992250    1.281671   -0.402200
     19          8           0       -2.751800    1.042828   -0.060582
 ---------------------------------------------------------------------

 SCF Done:  E(RHF) =  -550.978289539     A.U. after    2 cycles

 The electronic state is 1-A.
 Alpha  occ. eigenvalues --  -21.15853 -21.09265 -21.08445 -21.03108 -15.76427
 Alpha  occ. eigenvalues --  -11.57741 -11.51964 -11.49352 -11.44677 -11.39844
 Alpha  occ. eigenvalues --   -1.88404  -1.80962  -1.69994  -1.63745  -1.38350
 Alpha  occ. eigenvalues --   -1.20184  -1.06076  -0.95310  -0.81504  -0.77845
 Alpha  occ. eigenvalues --   -0.71978  -0.69439  -0.68623  -0.64241  -0.62119
 Alpha  occ. eigenvalues --   -0.61085  -0.58014  -0.56335  -0.53024  -0.50954
 Alpha  occ. eigenvalues --   -0.49998  -0.48923  -0.45993  -0.43500  -0.40391
 Alpha  occ. eigenvalues --   -0.37962  -0.32248  -0.31112  -0.27967
 Alpha virt. eigenvalues --    0.03083   0.04299   0.04591   0.04939   0.05436
 Alpha virt. eigenvalues --    0.06436   0.06956   0.07762   0.08325   0.10047
 Alpha virt. eigenvalues --    0.10822   0.11366   0.11750   0.12701   0.13346

 Mulliken charges:
               1
     1  C    0.179797
     2  C    5.956930
     3  C   -3.136839
     4  C   -3.545491
     5  C    6.352765
     6  H    0.852970
     7  H    1.484521
     8  H    1.085988
     9  H    1.206371
    10  H    1.673248
    11  H    0.642523
    12  H    0.507583
    13  H    1.689695
    14  H    1.531447
    15  N   -3.119492
    16  O   -3.426269
    17  O   -3.231242
    18  O   -3.469578
    19  O   -3.234928
 Sum of Mulliken charges =  -0.00000

 Dipole moment (field-independent basis, Debye):
    X=             -5.0652    Y=              0.5275    Z=              0.5243  Tot=              5.1195

 Test job not archived.
 1\1\GINC-SE340\SP\RHF\Aug-CC-pVDZ\C5H9N1O4\OHZDE\08-Apr-2025\0\\#t hf
 aug-cc-pvdz iop(5/13=1,5/36=2,99/5=2) pseudo=read geom=check guess=(re
 ad,tcheck) scf=(maxcycle=1)\\title\\0,1\C,0,-1.27021,-0.777151,0.26773
 \C,0,-1.46424,0.715887,0.109749\C,0,0.126647,-1.26252,-0.0889166\C,0,1
 .23049,-0.64569,0.784575\C,0,2.31521,0.0472654,-0.0289978\H,0,-2.73498
 ,2.01635,-0.0274794\H,0,0.839901,0.0207363,1.57422\H,0,1.77806,-1.4838
 9,1.22609\H,0,0.130929,-2.34854,0.00672077\H,0,1.0861,1.5243,-0.081267
 \H,0,-3.24591,-1.31009,-0.157529\H,0,-2.18361,-1.44247,-1.39989\H,0,-1

 Normal termination of Gaussian 16 at Tue Apr  8 19:24:26 2025.
