 Gaussian 16, Revision C.01,

 ----------------------------------------------------------------------
 #t hf aug-cc-pvdz symm=none int=(grid=ultrafine) guess=(read,tcheck) s
 table=(opt,rrhf)
 ----------------------------------------------------------------------
 -----
 title
 -----
 Symbolic Z-matrix:
 Charge =  0 Multiplicity = 1

 SCF Done:  E(RHF) =  -755.374378113     A.U. after   15 cycles
 Normal termination of Gaussian 16 at Tue Apr  8 19:45:59 2025.
 Gaussian 16:  ES64L-G16RevC.01  3-Jul-2019

 ----------------------------------------------------------------------
 #t hf aug-cc-pvdz iop(5/13=1,5/36=2,99/5=2) pseudo=read geom=check gue
 ss=(read,tcheck) scf=(maxcycle=1)
 ----------------------------------------------------------------------
 -----
 title
 -----
 Structure from the checkpoint file:  "ANI1ccx_1405_conf22_mol1.chk"
 Charge =  0 Multiplicity = 1

                         Standard orientation:
 ---------------------------------------------------------------------
 Center     Atomic      Atomic             Coordinates (Angstroms)
 Number     Number       Type             X           Y           Z
 ---------------------------------------------------------------------
      1          6           0       -0.924074    1.983052   -0.063531
      2          6           0        0.105880    1.072791    0.649510
      3          6           0       -1.953539    1.018232   -0.674041
      4          6           0       -2.580300    0.054727    0.276689
      5          6           0       -2.404960   -1.392308   -0.060807
      6          6           0        2.465860    0.275508    0.763109
      7          6           0        2.884350   -0.880079   -0.103377
      8          1           0        1.075020   -1.207719   -0.646618
      9          1           0        3.420051    0.871338    0.904468
     10          1           0        1.959880   -0.083294    1.611930
     11          1           0        1.445711    1.609421   -0.770232
     12          1           0       -1.290281   -2.668108   -0.649221
     13          1           0       -2.134150    0.178898    1.279850
     14          1           0       -3.654490    0.263176    0.313310
     15          1           0       -2.691919    1.742482   -1.218830
     16          1           0       -1.563180    0.557344   -1.547890
     17          1           0       -1.541429    2.579122    0.708916
     18          1           0        0.676039    3.197791   -0.599935
     19          1           0       -0.787524    3.559232   -1.361460
     20          7           0       -0.170686    2.792971   -1.014490
     21          7           0        1.392671    1.153471    0.143393
     22          8           0       -0.146304    0.509165    1.771700
     23          8           0       -3.125531   -2.311088    0.288957
     24          8           0       -1.235440   -1.677398   -0.649528
     25          8           0        4.032900   -1.171180   -0.372218
     26          8           0        1.846010   -1.726539   -0.620397
 ---------------------------------------------------------------------

 SCF Done:  E(RHF) =  -758.681274491     A.U. after    2 cycles

 The electronic state is 1-A.
 Alpha  occ. eigenvalues --  -21.13131 -21.11812 -21.07159 -21.05398 -21.04743
 Alpha  occ. eigenvalues --  -15.79999 -15.77693 -11.56556 -11.55261 -11.54318
 Alpha  occ. eigenvalues --  -11.50335 -11.46263 -11.45159 -11.40901  -1.84910
 Alpha  occ. eigenvalues --   -1.80060  -1.70651  -1.65533  -1.64667  -1.44433
 Alpha  occ. eigenvalues --   -1.36186  -1.22364  -1.11043  -1.05145  -0.92619
 Alpha  occ. eigenvalues --   -0.81530  -0.81418  -0.80377  -0.75107  -0.69643
 Alpha  occ. eigenvalues --   -0.68239  -0.67615  -0.65939  -0.64438  -0.62165
 Alpha  occ. eigenvalues --   -0.60870  -0.59237  -0.56358  -0.54801  -0.51638
 Alpha  occ. eigenvalues --   -0.51323  -0.50900  -0.50067  -0.48908  -0.47023
 Alpha  occ. eigenvalues --   -0.46323  -0.45233  -0.40348  -0.35727  -0.33992
 Alpha  occ. eigenvalues --   -0.33306  -0.30565  -0.30349  -0.29566
 Alpha virt. eigenvalues --    0.02711   0.03837   0.03888   0.04396   0.05650
 Alpha virt. eigenvalues --    0.05844   0.06520   0.06732   0.07555   0.07652
 Alpha virt. eigenvalues --    0.08301   0.09956   0.10368   0.10417   0.10909

 Mulliken charges:
               1
     1  C   -1.547352
     2  C    6.768138
     3  C   -2.104290
     4  C   -4.373978
     5  C    6.389640
     6  C   -3.684527
     7  C    5.569863
     8  H    1.516406
     9  H    1.339603
    10  H    1.928431
    11  H    0.758518
    12  H    0.862831
    13  H    1.848237
    14  H    1.225731
    15  H    1.119356
    16  H    1.713151
    17  H    1.547352
    18  H    0.677548
    19  H    0.579397
    20  N   -2.996255
    21  N   -2.815277
    22  O   -3.646613
    23  O   -3.294036
    24  O   -3.059323
    25  O   -3.091194
    26  O   -3.231358
 Sum of Mulliken charges =  -0.00000

 Dipole moment (field-independent basis, Debye):
    X=             -0.6667    Y=              4.0179    Z=             -0.8417  Tot=              4.1589

 Test job not archived.
 1\1\GINC-SE462\SP\RHF\Aug-CC-pVDZ\C7H12N2O5\OHZDE\08-Apr-2025\0\\#t hf
  aug-cc-pvdz iop(5/13=1,5/36=2,99/5=2) pseudo=read geom=check guess=(r
 ead,tcheck) scf=(maxcycle=1)\\title\\0,1\C,0,-0.924075,1.98305,-0.0635
 303\C,0,0.105879,1.07279,0.64951\C,0,-1.95354,1.01823,-0.674041\C,0,-2
 .5803,0.054725,0.276689\C,0,-2.40496,-1.39231,-0.060807\C,0,2.46586,0.
 275507,0.763109\C,0,2.88435,-0.880079,-0.103377\H,0,1.07502,-1.20772,-
 0.646618\H,0,3.42005,0.871338,0.904468\H,0,1.95988,-0.0832952,1.61193\
 H,0,1.44571,1.60942,-0.770232\H,0,-1.29028,-2.66811,-0.649221\H,0,-2.1

 Normal termination of Gaussian 16 at Tue Apr  8 19:46:23 2025.
