 Gaussian 16, Revision C.01,

 ----------------------------------------------------------------------
 #t hf aug-cc-pvdz symm=none int=(grid=ultrafine) guess=(read,tcheck) s
 table=(opt,rrhf)
 ----------------------------------------------------------------------
 -----
 title
 -----
 Symbolic Z-matrix:
 Charge =  0 Multiplicity = 1

 SCF Done:  E(RHF) =  -355.334741851     A.U. after   14 cycles
 Normal termination of Gaussian 16 at Tue Apr  8 21:42:06 2025.
 Gaussian 16:  ES64L-G16RevC.01  3-Jul-2019

 ----------------------------------------------------------------------
 #t hf aug-cc-pvdz iop(5/13=1,5/36=2,99/5=2) pseudo=read geom=check gue
 ss=(read,tcheck) scf=(maxcycle=1)
 ----------------------------------------------------------------------
 -----
 title
 -----
 Structure from the checkpoint file:  "ANI1ccx_469_conf16_mol1.chk"
 Charge =  0 Multiplicity = 1

                         Standard orientation:
 ---------------------------------------------------------------------
 Center     Atomic      Atomic             Coordinates (Angstroms)
 Number     Number       Type             X           Y           Z
 ---------------------------------------------------------------------
      1          6           0        0.798028    0.064856    0.058757
      2          6           0       -1.350469    0.555019   -0.020687
      3          1           0       -2.193999    1.202303    0.122640
      4          7           0       -1.392441   -0.761071   -0.064933
      5          8           0        1.974140   -0.011628   -0.050991
      6          8           0       -0.056153    1.120481    0.005107
      7          8           0       -0.011021   -1.058110    0.058817
 ---------------------------------------------------------------------

 SCF Done:  E(RHF) =  -356.777511084     A.U. after    2 cycles

 The electronic state is 1-A.
 Alpha  occ. eigenvalues --  -21.18490 -21.14438 -21.09215 -15.84919 -11.58672
 Alpha  occ. eigenvalues --  -11.52335  -2.01066  -1.77726  -1.73328  -1.29670
 Alpha  occ. eigenvalues --   -0.92494  -0.86007  -0.74874  -0.69401  -0.61191
 Alpha  occ. eigenvalues --   -0.55710  -0.52137  -0.50853  -0.45675  -0.44002
 Alpha  occ. eigenvalues --   -0.33877  -0.30757
 Alpha virt. eigenvalues --    0.02696   0.07873   0.08326   0.08564   0.11374
 Alpha virt. eigenvalues --    0.11552   0.11795   0.13073   0.13594   0.15467
 Alpha virt. eigenvalues --    0.16321   0.18651   0.19179   0.19653   0.22759

 Mulliken charges:
               1
     1  C    5.671357
     2  C    1.187196
     3  H    1.695868
     4  N   -0.643918
     5  O   -2.925067
     6  O   -2.660075
     7  O   -2.325361
 Sum of Mulliken charges =  -0.00000

 Dipole moment (field-independent basis, Debye):
    X=             -1.9878    Y=              1.7620    Z=              0.1853  Tot=              2.6627

 Test job not archived.
 1\1\GINC-SE221\SP\RHF\Aug-CC-pVDZ\C2H1N1O3\OHZDE\08-Apr-2025\0\\#t hf
 aug-cc-pvdz iop(5/13=1,5/36=2,99/5=2) pseudo=read geom=check guess=(re
 ad,tcheck) scf=(maxcycle=1)\\title\\0,1\C,0,0.798028,0.064856,0.058757
 1\C,0,-1.35047,0.555017,-0.0206866\H,0,-2.194,1.2023,0.12264\N,0,-1.39
 244,-0.761073,-0.0649328\O,0,1.97414,-0.0116259,-0.0509912\O,0,-0.0561
 543,1.12048,0.00510741\O,0,-0.0110196,-1.05811,0.0588171\\Version=ES64
 L-G16RevC.01\State=1-A\HF=-356.7775111\RMSD=6.372e-02\Dipole=-0.782044
 ,0.6932057,0.0728834\Quadrupole=-0.994694,0.155788,0.838906,-2.8122689

 Normal termination of Gaussian 16 at Tue Apr  8 21:42:08 2025.
