 Gaussian 16, Revision C.01,

 ----------------------------------------------------------------------
 #t hf aug-cc-pvdz symm=none int=(grid=ultrafine) guess=(read,tcheck) s
 table=(opt,rrhf)
 ----------------------------------------------------------------------
 -----
 title
 -----
 Symbolic Z-matrix:
 Charge =  0 Multiplicity = 1

 SCF Done:  E(RHF) =  -682.228945632     A.U. after   17 cycles
 Normal termination of Gaussian 16 at Tue Apr  8 19:58:00 2025.
 Gaussian 16:  ES64L-G16RevC.01  3-Jul-2019

 ----------------------------------------------------------------------
 #t hf aug-cc-pvdz iop(5/13=1,5/36=2,99/5=2) pseudo=read geom=check gue
 ss=(read,tcheck) scf=(maxcycle=1)
 ----------------------------------------------------------------------
 -----
 title
 -----
 Structure from the checkpoint file:  "ANI1ccx_144_conf3_mol2.chk"
 Charge =  0 Multiplicity = 1

                         Standard orientation:
 ---------------------------------------------------------------------
 Center     Atomic      Atomic             Coordinates (Angstroms)
 Number     Number       Type             X           Y           Z
 ---------------------------------------------------------------------
      1          6           0       -3.948101    0.292066    0.602441
      2          6           0        2.118939    0.944069    0.276625
      3          6           0        2.474259   -0.554729    0.554663
      4          6           0        1.159639    0.954809   -0.986391
      5          6           0       -0.003864    0.013727   -0.733602
      6          6           0        0.031344   -1.394170   -0.776584
      7          6           0       -1.305191    0.354032   -0.342226
      8          6           0       -2.011041   -0.829847   -0.178676
      9          6           0       -1.955402    1.584429   -0.170763
     10          6           0       -3.328161   -0.895808    0.300099
     11          6           0       -3.273462    1.541649    0.337667
     12          1           0        0.882351   -2.114440   -0.986775
     13          1           0       -1.302011   -2.912631   -0.235982
     14          1           0       -3.782551   -1.872981    0.613007
     15          1           0        0.789122    1.998070   -1.156790
     16          1           0       -3.805102    2.476579    0.529062
     17          1           0       -1.591242    2.612659   -0.329464
     18          1           0        1.809089    0.719195   -1.839850
     19          1           0        3.709629   -1.750570   -0.139472
     20          1           0        3.657478    1.944150    1.159990
     21          1           0        3.929078    1.659560   -0.432991
     22          1           0       -4.950261    0.318301    1.004330
     23          1           0        1.505798    1.294040    1.078410
     24          7           0       -1.191331   -1.884961   -0.468973
     25          7           0        3.214188    1.961800    0.229048
     26          8           0        3.552429   -0.818226   -0.257934
     27          8           0        2.101929   -1.303170    1.397490
 ---------------------------------------------------------------------

 SCF Done:  E(RHF) =  -685.359855548     A.U. after    2 cycles

 The electronic state is 1-A.
 Alpha  occ. eigenvalues --  -21.12403 -21.06668 -15.78463 -15.74631 -11.54066
 Alpha  occ. eigenvalues --  -11.51306 -11.46897 -11.46609 -11.44715 -11.44012
 Alpha  occ. eigenvalues --  -11.42741 -11.41578 -11.40736 -11.38987 -11.35982
 Alpha  occ. eigenvalues --   -1.83174  -1.66815  -1.52687  -1.34076  -1.27730
 Alpha  occ. eigenvalues --   -1.18598  -1.09567  -1.06293  -1.02004  -0.93832
 Alpha  occ. eigenvalues --   -0.87204  -0.83354  -0.80441  -0.77835  -0.71773
 Alpha  occ. eigenvalues --   -0.66446  -0.66133  -0.64599  -0.62150  -0.61438
 Alpha  occ. eigenvalues --   -0.59869  -0.59453  -0.57812  -0.56393  -0.53523
 Alpha  occ. eigenvalues --   -0.52739  -0.50289  -0.48300  -0.47246  -0.46093
 Alpha  occ. eigenvalues --   -0.45338  -0.44610  -0.42114  -0.39937  -0.36964
 Alpha  occ. eigenvalues --   -0.34941  -0.28648  -0.28513  -0.25197
 Alpha virt. eigenvalues --    0.03420   0.04372   0.04460   0.05308   0.05656
 Alpha virt. eigenvalues --    0.06084   0.06188   0.06412   0.06903   0.07891
 Alpha virt. eigenvalues --    0.08612   0.09640   0.09819   0.10559   0.10997

 Mulliken charges:
               1
     1  C   -3.116223
     2  C   -0.477806
     3  C    7.714530
     4  C   -4.143949
     5  C    2.896676
     6  C   -1.489043
     7  C    4.119504
     8  C    1.756009
     9  C   -1.165232
    10  C   -2.573410
    11  C   -3.374731
    12  H    1.473856
    13  H    0.688894
    14  H    1.479897
    15  H    1.167252
    16  H    1.516435
    17  H    1.790258
    18  H    1.257692
    19  H    0.856202
    20  H    0.508042
    21  H    0.560074
    22  H    1.511165
    23  H    1.821464
    24  N   -4.752945
    25  N   -2.962568
    26  O   -3.363250
    27  O   -3.698791
 Sum of Mulliken charges =   0.00000

 Dipole moment (field-independent basis, Debye):
    X=              1.1363    Y=             -2.3987    Z=             -0.1160  Tot=              2.6568

 Test job not archived.
 1\1\GINC-SE458\SP\RHF\Aug-CC-pVDZ\C11H12N2O2\OHZDE\08-Apr-2025\0\\#t h
 f aug-cc-pvdz iop(5/13=1,5/36=2,99/5=2) pseudo=read geom=check guess=(
 read,tcheck) scf=(maxcycle=1)\\title\\0,1\C,0,-3.9481,0.292067,0.60244
 1\C,0,2.11894,0.944069,0.276625\C,0,2.47426,-0.554729,0.554663\C,0,1.1
 5964,0.954809,-0.986391\C,0,-0.00386265,0.013727,-0.733602\C,0,0.03134
 54,-1.39417,-0.776584\C,0,-1.30519,0.354033,-0.342226\C,0,-2.01104,-0.
 829846,-0.178676\C,0,-1.9554,1.58443,-0.170763\C,0,-3.32816,-0.895807,
 0.300099\C,0,-3.27346,1.54165,0.337667\H,0,0.882352,-2.11444,-0.986775

 Normal termination of Gaussian 16 at Tue Apr  8 19:58:28 2025.
