 Gaussian 16, Revision C.01,

 ----------------------------------------------------------------------
 #t hf aug-cc-pvdz symm=none int=(grid=ultrafine) guess=(read,tcheck) s
 table=(opt,rrhf)
 ----------------------------------------------------------------------
 -----
 title
 -----
 Symbolic Z-matrix:
 Charge =  0 Multiplicity = 1

 SCF Done:  E(RHF) =  -590.430833036     A.U. after   16 cycles
 Normal termination of Gaussian 16 at Tue Apr  8 22:13:53 2025.
 Gaussian 16:  ES64L-G16RevC.01  3-Jul-2019

 ----------------------------------------------------------------------
 #t hf aug-cc-pvdz iop(5/13=1,5/36=2,99/5=2) pseudo=read geom=check gue
 ss=(read,tcheck) scf=(maxcycle=1)
 ----------------------------------------------------------------------
 -----
 title
 -----
 Structure from the checkpoint file:  "ANI1ccx_928_conf4_mol1.chk"
 Charge =  0 Multiplicity = 1

                         Standard orientation:
 ---------------------------------------------------------------------
 Center     Atomic      Atomic             Coordinates (Angstroms)
 Number     Number       Type             X           Y           Z
 ---------------------------------------------------------------------
      1          6           0        0.798623    1.617820   -0.626230
      2          6           0       -0.322640    1.573600    0.521155
      3          6           0       -1.790020   -0.378669    1.159240
      4          6           0        1.407650   -0.801818   -1.028440
      5          1           0        0.850096   -1.032680   -1.934510
      6          1           0        0.318463    1.662700    1.426320
      7          1           0       -1.710130   -0.567013    2.254420
      8          1           0        1.385932    2.493799   -0.189914
      9          1           0        0.447062    1.802920   -1.539350
     10          1           0       -0.835399    2.621260    0.602317
     11          7           0        2.500120   -0.858791    0.780975
     12          7           0       -1.235859    0.581166    0.330131
     13          7           0       -2.618700   -1.167779    0.468070
     14          7           0       -2.670730   -0.656362   -0.780411
     15          7           0       -1.754239    0.289811   -0.965465
     16          7           0        1.449871    0.396882   -0.439514
     17          7           0        2.066740   -1.611711   -0.233504
     18          7           0        2.117411    0.305843    0.729196
 ---------------------------------------------------------------------

 SCF Done:  E(RHF) =  -593.093827944     A.U. after    2 cycles

 The electronic state is 1-A.
 Alpha  occ. eigenvalues --  -15.85032 -15.83271 -15.82667 -15.82032 -15.81133
 Alpha  occ. eigenvalues --  -15.79723 -15.77868 -15.76059 -11.51543 -11.48883
 Alpha  occ. eigenvalues --  -11.48222 -11.45964  -1.79718  -1.72510  -1.47270
 Alpha  occ. eigenvalues --   -1.41177  -1.32462  -1.29364  -1.15721  -1.03171
 Alpha  occ. eigenvalues --   -0.91235  -0.89310  -0.87713  -0.84354  -0.77619
 Alpha  occ. eigenvalues --   -0.76122  -0.73746  -0.68196  -0.64267  -0.62404
 Alpha  occ. eigenvalues --   -0.60036  -0.58241  -0.57485  -0.53386  -0.51756
 Alpha  occ. eigenvalues --   -0.44085  -0.43038  -0.42266  -0.41246  -0.40641
 Alpha  occ. eigenvalues --   -0.39488  -0.38803  -0.37732
 Alpha virt. eigenvalues --    0.02975   0.04513   0.04626   0.05320   0.05604
 Alpha virt. eigenvalues --    0.06461   0.08720   0.10064   0.10285   0.10474
 Alpha virt. eigenvalues --    0.11405   0.11589   0.12039   0.12804   0.13138

 Mulliken charges:
               1
     1  C   -2.528977
     2  C   -1.485324
     3  C    0.854678
     4  C    0.826165
     5  H    1.754546
     6  H    1.636249
     7  H    1.689609
     8  H    1.204586
     9  H    1.832134
    10  H    1.488788
    11  N    0.050428
    12  N   -2.032948
    13  N   -1.461665
    14  N   -0.161528
    15  N   -0.181581
    16  N   -1.465132
    17  N   -1.584104
    18  N   -0.435924
 Sum of Mulliken charges =  -0.00000

 Dipole moment (field-independent basis, Debye):
    X=              0.0786    Y=              4.9756    Z=             -0.1725  Tot=              4.9792

 Test job not archived.
 1\1\GINC-SE226\SP\RHF\Aug-CC-pVDZ\C4H6N8\OHZDE\08-Apr-2025\0\\#t hf au
 g-cc-pvdz iop(5/13=1,5/36=2,99/5=2) pseudo=read geom=check guess=(read
 ,tcheck) scf=(maxcycle=1)\\title\\0,1\C,0,0.798622,1.61782,-0.62623\C,
 0,-0.322641,1.5736,0.521155\C,0,-1.79002,-0.37867,1.15924\C,0,1.40765,
 -0.801817,-1.02844\H,0,0.850096,-1.03268,-1.93451\H,0,0.318462,1.6627,
 1.42632\H,0,-1.71013,-0.567014,2.25442\H,0,1.38593,2.4938,-0.189914\H,
 0,0.447061,1.80292,-1.53935\H,0,-0.835401,2.62126,0.602317\N,0,2.50012
 ,-0.85879,0.780975\N,0,-1.23586,0.581165,0.330131\N,0,-2.6187,-1.16778

 Normal termination of Gaussian 16 at Tue Apr  8 22:14:05 2025.
