 Gaussian 16, Revision C.01,

 ----------------------------------------------------------------------
 #t hf aug-cc-pvdz symm=none int=(grid=ultrafine) guess=(read,tcheck) s
 table=(opt,rrhf)
 ----------------------------------------------------------------------
 -----
 title
 -----
 Symbolic Z-matrix:
 Charge =  0 Multiplicity = 1

 SCF Done:  E(RHF) =  -373.429342674     A.U. after   15 cycles
 Normal termination of Gaussian 16 at Tue Apr  8 21:50:55 2025.
 Gaussian 16:  ES64L-G16RevC.01  3-Jul-2019

 ----------------------------------------------------------------------
 #t hf aug-cc-pvdz iop(5/13=1,5/36=2,99/5=2) pseudo=read geom=check gue
 ss=(read,tcheck) scf=(maxcycle=1)
 ----------------------------------------------------------------------
 -----
 title
 -----
 Structure from the checkpoint file:  "ANI1ccx_655_conf6_mol1.chk"
 Charge =  0 Multiplicity = 1

                         Standard orientation:
 ---------------------------------------------------------------------
 Center     Atomic      Atomic             Coordinates (Angstroms)
 Number     Number       Type             X           Y           Z
 ---------------------------------------------------------------------
      1          6           0        1.809641   -0.691616   -0.034744
      2          6           0       -0.420470    0.321339    0.019157
      3          6           0       -1.850689   -0.082399   -0.014769
      4          1           0        2.261871   -1.693399   -0.114926
      5          1           0       -0.034417   -1.677259    0.127489
      6          7           0        0.416506   -0.786278    0.072762
      7          7           0       -2.960779   -0.411934   -0.038725
      8          8           0        2.429671    0.336065   -0.024272
      9          8           0       -0.135724    1.473211    0.015686
 ---------------------------------------------------------------------

 SCF Done:  E(RHF) =  -374.994381619     A.U. after    2 cycles

 The electronic state is 1-A.
 Alpha  occ. eigenvalues --  -21.10654 -21.08929 -15.84250 -15.81572 -11.59375
 Alpha  occ. eigenvalues --  -11.53701 -11.47206  -1.79086  -1.74456  -1.45381
 Alpha  occ. eigenvalues --   -1.33761  -1.04372  -0.88182  -0.82152  -0.70955
 Alpha  occ. eigenvalues --   -0.64922  -0.60137  -0.56609  -0.54602  -0.52756
 Alpha  occ. eigenvalues --   -0.49158  -0.45555  -0.38795  -0.37168  -0.30825
 Alpha virt. eigenvalues --    0.02097   0.04956   0.07614   0.08623   0.09707
 Alpha virt. eigenvalues --    0.09889   0.10783   0.11768   0.12429   0.12859
 Alpha virt. eigenvalues --    0.13276   0.13595   0.13867   0.15557   0.16783

 Mulliken charges:
               1
     1  C    1.905405
     2  C    5.139501
     3  C    0.929896
     4  H    1.632841
     5  H    0.832193
     6  N   -2.665485
     7  N   -2.226489
     8  O   -2.507319
     9  O   -3.040544
 Sum of Mulliken charges =   0.00000

 Dipole moment (field-independent basis, Debye):
    X=              1.9278    Y=             -1.9424    Z=              0.1076  Tot=              2.7388

 Test job not archived.
 1\1\GINC-SE095\SP\RHF\Aug-CC-pVDZ\C3H2N2O2\OHZDE\08-Apr-2025\0\\#t hf
 aug-cc-pvdz iop(5/13=1,5/36=2,99/5=2) pseudo=read geom=check guess=(re
 ad,tcheck) scf=(maxcycle=1)\\title\\0,1\C,0,1.80964,-0.691617,-0.03474
 35\C,0,-0.420471,0.321338,0.0191572\C,0,-1.85069,-0.0823995,-0.0147685
 \H,0,2.26187,-1.6934,-0.114926\H,0,-0.0344177,-1.67726,0.127489\N,0,0.
 416505,-0.786279,0.0727617\N,0,-2.96078,-0.411935,-0.0387251\O,0,2.429
 67,0.336064,-0.0242722\O,0,-0.135725,1.47321,0.015686\\Version=ES64L-G
 16RevC.01\State=1-A\HF=-374.9943816\RMSD=2.103e-01\Dipole=0.7584562,-0

 Normal termination of Gaussian 16 at Tue Apr  8 21:50:58 2025.
