 Gaussian 16, Revision C.01,

 ----------------------------------------------------------------------
 #t hf aug-cc-pvdz symm=none int=(grid=ultrafine) guess=(read,tcheck) s
 table=(opt,rrhf)
 ----------------------------------------------------------------------
 -----
 title
 -----
 Symbolic Z-matrix:
 Charge =  0 Multiplicity = 1

 SCF Done:  E(RHF) =  -428.573321641     A.U. after   13 cycles
 Normal termination of Gaussian 16 at Tue Apr  8 21:39:51 2025.
 Gaussian 16:  ES64L-G16RevC.01  3-Jul-2019

 ----------------------------------------------------------------------
 #t hf aug-cc-pvdz iop(5/13=1,5/36=2,99/5=2) pseudo=read geom=check gue
 ss=(read,tcheck) scf=(maxcycle=1)
 ----------------------------------------------------------------------
 -----
 title
 -----
 Structure from the checkpoint file:  "ANI1ccx_419_conf4_mol1.chk"
 Charge =  0 Multiplicity = 1

                         Standard orientation:
 ---------------------------------------------------------------------
 Center     Atomic      Atomic             Coordinates (Angstroms)
 Number     Number       Type             X           Y           Z
 ---------------------------------------------------------------------
      1          6           0       -0.144894   -0.239737    0.165206
      2          1           0        2.021970    1.156519   -0.150035
      3          1           0       -0.577462    1.689879   -0.252850
      4          1           0       -1.667729   -1.529011    0.182178
      5          1           0       -2.946530    0.595242    0.207425
      6          1           0        2.424871   -1.750911   -0.141078
      7          7           0        0.205937    1.024399   -0.314365
      8          7           0       -1.506359   -0.542002    0.492646
      9          7           0        0.608856   -1.276151    0.121322
     10          8           0        1.294170    1.638439    0.326800
     11          8           0       -2.349310    0.152986   -0.404767
     12          8           0        1.862041   -0.937304   -0.288794
 ---------------------------------------------------------------------

 SCF Done:  E(RHF) =  -430.396846272     A.U. after    2 cycles

 The electronic state is 1-A.
 Alpha  occ. eigenvalues --  -21.11498 -21.09873 -21.09743 -15.79745 -15.78964
 Alpha  occ. eigenvalues --  -15.76202 -11.46584  -1.83818  -1.79876  -1.77330
 Alpha  occ. eigenvalues --   -1.37175  -1.19005  -1.12686  -0.81326  -0.73704
 Alpha  occ. eigenvalues --   -0.66542  -0.65934  -0.61257  -0.57813  -0.55647
 Alpha  occ. eigenvalues --   -0.54835  -0.52614  -0.43143  -0.39892  -0.37283
 Alpha  occ. eigenvalues --   -0.35734  -0.31026  -0.25894
 Alpha virt. eigenvalues --    0.03971   0.05107   0.06161   0.06691   0.07316
 Alpha virt. eigenvalues --    0.11111   0.12873   0.13484   0.14333   0.15267
 Alpha virt. eigenvalues --    0.16231   0.17766   0.18347   0.18725   0.19106

 Mulliken charges:
               1
     1  C    4.484954
     2  H    0.846819
     3  H    0.795053
     4  H    0.666747
     5  H    0.738404
     6  H    0.874676
     7  N   -0.521236
     8  N   -0.554877
     9  N   -0.144234
    10  O   -2.225257
    11  O   -2.175409
    12  O   -2.785640
 Sum of Mulliken charges =  -0.00000

 Dipole moment (field-independent basis, Debye):
    X=             -0.6201    Y=              0.6329    Z=             -0.1733  Tot=              0.9028

 Test job not archived.
 1\1\GINC-SE343\SP\RHF\Aug-CC-pVDZ\C1H5N3O3\OHZDE\08-Apr-2025\0\\#t hf
 aug-cc-pvdz iop(5/13=1,5/36=2,99/5=2) pseudo=read geom=check guess=(re
 ad,tcheck) scf=(maxcycle=1)\\title\\0,1\C,0,-0.144895,-0.239736,0.1652
 06\H,0,2.02197,1.15652,-0.150035\H,0,-0.577462,1.68988,-0.25285\H,0,-1
 .66773,-1.52901,0.182178\H,0,-2.94653,0.595243,0.207425\H,0,2.42487,-1
 .75091,-0.141078\N,0,0.205937,1.0244,-0.314365\N,0,-1.50636,-0.542001,
 0.492646\N,0,0.608855,-1.27615,0.121322\O,0,1.29417,1.63844,0.3268\O,0
 ,-2.34931,0.152987,-0.404767\O,0,1.86204,-0.937303,-0.288794\\Version=

 Normal termination of Gaussian 16 at Tue Apr  8 21:39:55 2025.
