 Gaussian 16, Revision C.01,

 ----------------------------------------------------------------------
 #t hf aug-cc-pvdz symm=none int=(grid=ultrafine) guess=(read,tcheck) s
 table=(opt,rrhf)
 ----------------------------------------------------------------------
 -----
 title
 -----
 Symbolic Z-matrix:
 Charge =  0 Multiplicity = 1

 SCF Done:  E(RHF) =  -411.596592405     A.U. after   15 cycles
 Normal termination of Gaussian 16 at Tue Apr  8 21:45:55 2025.
 Gaussian 16:  ES64L-G16RevC.01  3-Jul-2019

 ----------------------------------------------------------------------
 #t hf aug-cc-pvdz iop(5/13=1,5/36=2,99/5=2) pseudo=read geom=check gue
 ss=(read,tcheck) scf=(maxcycle=1)
 ----------------------------------------------------------------------
 -----
 title
 -----
 Structure from the checkpoint file:  "ANI1ccx_516_conf1_mol2.chk"
 Charge =  0 Multiplicity = 1

                         Standard orientation:
 ---------------------------------------------------------------------
 Center     Atomic      Atomic             Coordinates (Angstroms)
 Number     Number       Type             X           Y           Z
 ---------------------------------------------------------------------
      1          6           0       -0.130069    0.782191   -0.080085
      2          6           0        0.854105   -0.399878   -0.066992
      3          1           0       -1.848969   -1.263401    1.115080
      4          1           0       -1.599559   -1.415351   -0.523864
      5          1           0       -2.062791    1.219279   -0.045660
      6          1           0        2.555451   -0.866674    0.378615
      7          7           0       -2.037150   -0.848782    0.209514
      8          7           0       -1.425350    0.435545    0.114370
      9          8           0        0.220496    1.924500   -0.239577
     10          8           0        2.025910   -0.067004    0.461941
     11          8           0        0.609738   -1.491879   -0.510977
 ---------------------------------------------------------------------

 SCF Done:  E(RHF) =  -413.327785648     A.U. after    2 cycles

 The electronic state is 1-A.
 Alpha  occ. eigenvalues --  -21.15556 -21.09195 -21.05694 -15.79657 -15.78751
 Alpha  occ. eigenvalues --  -11.56482 -11.51557  -1.87408  -1.73257  -1.69386
 Alpha  occ. eigenvalues --   -1.48826  -1.17457  -0.99852  -0.80176  -0.70742
 Alpha  occ. eigenvalues --   -0.67702  -0.65549  -0.64084  -0.59107  -0.56313
 Alpha  occ. eigenvalues --   -0.51959  -0.49028  -0.43332  -0.37772  -0.36451
 Alpha  occ. eigenvalues --   -0.33055  -0.28343
 Alpha virt. eigenvalues --    0.03612   0.05140   0.05901   0.06442   0.10401
 Alpha virt. eigenvalues --    0.10667   0.10754   0.11174   0.12392   0.13036
 Alpha virt. eigenvalues --    0.13984   0.15033   0.17176   0.17838   0.19163

 Mulliken charges:
               1
     1  C    4.173935
     2  C    4.997511
     3  H    0.704525
     4  H    0.783111
     5  H    0.822678
     6  H    0.842637
     7  N   -1.607546
     8  N   -1.874562
     9  O   -3.102069
    10  O   -2.868735
    11  O   -2.871484
 Sum of Mulliken charges =   0.00000

 Dipole moment (field-independent basis, Debye):
    X=              0.2013    Y=             -1.5636    Z=              0.7856  Tot=              1.7614

 Test job not archived.
 1\1\GINC-SE247\SP\RHF\Aug-CC-pVDZ\C2H4N2O3\OHZDE\08-Apr-2025\0\\#t hf
 aug-cc-pvdz iop(5/13=1,5/36=2,99/5=2) pseudo=read geom=check guess=(re
 ad,tcheck) scf=(maxcycle=1)\\title\\0,1\C,0,-0.130068,0.782191,-0.0800
 847\C,0,0.854105,-0.399879,-0.0669916\H,0,-1.84897,-1.2634,1.11508\H,0
 ,-1.59956,-1.41535,-0.523864\H,0,-2.06279,1.21928,-0.0456604\H,0,2.555
 45,-0.866676,0.378615\N,0,-2.03715,-0.848781,0.209514\N,0,-1.42535,0.4
 35546,0.11437\O,0,0.220497,1.9245,-0.239577\O,0,2.02591,-0.0670058,0.4
 61941\O,0,0.609737,-1.49188,-0.510977\\Version=ES64L-G16RevC.01\State=

 Normal termination of Gaussian 16 at Tue Apr  8 21:45:59 2025.
