 Gaussian 16, Revision C.01,

 ----------------------------------------------------------------------
 #t hf aug-cc-pvdz symm=none int=(grid=ultrafine) guess=(read,tcheck) s
 table=(opt,rrhf)
 ----------------------------------------------------------------------
 -----
 title
 -----
 Symbolic Z-matrix:
 Charge =  0 Multiplicity = 1

 SCF Done:  E(RHF) =  -637.347678486     A.U. after   15 cycles
 Normal termination of Gaussian 16 at Tue Apr  8 20:00:17 2025.
 Gaussian 16:  ES64L-G16RevC.01  3-Jul-2019

 ----------------------------------------------------------------------
 #t hf aug-cc-pvdz iop(5/13=1,5/36=2,99/5=2) pseudo=read geom=check gue
 ss=(read,tcheck) scf=(maxcycle=1)
 ----------------------------------------------------------------------
 -----
 title
 -----
 Structure from the checkpoint file:  "ANI1ccx_1522_conf1_mol1.chk"
 Charge =  0 Multiplicity = 1

                         Standard orientation:
 ---------------------------------------------------------------------
 Center     Atomic      Atomic             Coordinates (Angstroms)
 Number     Number       Type             X           Y           Z
 ---------------------------------------------------------------------
      1          6           0        1.739530    0.539025    0.013767
      2          6           0        2.277120   -1.586659   -0.302773
      3          6           0        0.064255   -1.125240    0.122303
      4          6           0       -2.375540   -1.085470    0.620277
      5          6           0       -2.756250   -0.147504   -0.534966
      6          6           0       -0.745828    1.378240   -0.118611
      7          6           0        0.292992    0.293314    0.058165
      8          1           0       -2.627291    1.922720   -0.335573
      9          1           0       -2.605110   -0.766788   -1.424980
     10          1           0       -3.780510    0.159003   -0.434496
     11          1           0       -3.071880   -1.920151    0.456528
     12          1           0       -2.419570   -0.690073    1.625050
     13          1           0        2.984490   -2.341379   -0.595176
     14          1           0        3.203689    1.900121    0.309307
     15          1           0        1.596259    2.547711    0.353908
     16          7           0        2.222289    1.735841    0.375862
     17          7           0        2.689110   -0.342525   -0.276996
     18          7           0        1.059930   -1.991530   -0.118207
     19          7           0       -2.029460    1.101250   -0.469929
     20          8           0       -1.078650   -1.749230    0.382134
     21          8           0       -0.402705    2.508400    0.158035
 ---------------------------------------------------------------------

 SCF Done:  E(RHF) =  -640.202558933     A.U. after    2 cycles

 The electronic state is 1-A.
 Alpha  occ. eigenvalues --  -21.09930 -21.02685 -15.77471 -15.76224 -15.71515
 Alpha  occ. eigenvalues --  -15.70913 -11.53912 -11.53132 -11.51245 -11.49823
 Alpha  occ. eigenvalues --  -11.44600 -11.43633 -11.41033  -1.82047  -1.72784
 Alpha  occ. eigenvalues --   -1.52182  -1.41653  -1.37557  -1.25652  -1.15874
 Alpha  occ. eigenvalues --   -1.10758  -0.98562  -0.91814  -0.86265  -0.82427
 Alpha  occ. eigenvalues --   -0.72845  -0.72048  -0.71114  -0.69420  -0.64270
 Alpha  occ. eigenvalues --   -0.62136  -0.61167  -0.59833  -0.57931  -0.56563
 Alpha  occ. eigenvalues --   -0.55041  -0.51909  -0.50230  -0.49731  -0.43185
 Alpha  occ. eigenvalues --   -0.42008  -0.40513  -0.34901  -0.33331  -0.30798
 Alpha  occ. eigenvalues --   -0.29868  -0.28232
 Alpha virt. eigenvalues --    0.02733   0.04569   0.04818   0.05274   0.05898
 Alpha virt. eigenvalues --    0.06313   0.06419   0.08222   0.09170   0.10183
 Alpha virt. eigenvalues --    0.10476   0.10758   0.11325   0.11827   0.12358

 Mulliken charges:
               1
     1  C    3.687931
     2  C    0.610936
     3  C    5.088848
     4  C   -1.766940
     5  C   -2.683575
     6  C    5.717186
     7  C    1.116331
     8  H    0.671953
     9  H    1.420399
    10  H    1.543039
    11  H    1.294966
    12  H    1.786689
    13  H    1.762984
    14  H    0.819131
    15  H    0.630585
    16  N   -3.484118
    17  N   -3.675866
    18  N   -3.800174
    19  N   -3.054036
    20  O   -3.931409
    21  O   -3.754860
 Sum of Mulliken charges =  -0.00000

 Dipole moment (field-independent basis, Debye):
    X=             -3.4448    Y=              0.6103    Z=              0.2689  Tot=              3.5088

 Test job not archived.
 1\1\GINC-SE402\SP\RHF\Aug-CC-pVDZ\C7H8N4O2\OHZDE\08-Apr-2025\0\\#t hf
 aug-cc-pvdz iop(5/13=1,5/36=2,99/5=2) pseudo=read geom=check guess=(re
 ad,tcheck) scf=(maxcycle=1)\\title\\0,1\C,0,1.73953,0.539024,0.0137666
 \C,0,2.27712,-1.58666,-0.302773\C,0,0.064255,-1.12524,0.122303\C,0,-2.
 37554,-1.08547,0.620277\C,0,-2.75625,-0.147504,-0.534966\C,0,-0.745828
 ,1.37824,-0.118611\C,0,0.292992,0.293314,0.0581645\H,0,-2.62729,1.9227
 2,-0.335573\H,0,-2.60511,-0.766788,-1.42498\H,0,-3.78051,0.159004,-0.4
 34496\H,0,-3.07188,-1.92015,0.456528\H,0,-2.41957,-0.690073,1.62505\H,

 Normal termination of Gaussian 16 at Tue Apr  8 20:00:33 2025.
