 Gaussian 16, Revision C.01,

 ----------------------------------------------------------------------
 #t hf aug-cc-pvdz symm=none int=(grid=ultrafine) guess=(read,tcheck) s
 table=(opt,rrhf)
 ----------------------------------------------------------------------
 -----
 title
 -----
 Symbolic Z-matrix:
 Charge =  0 Multiplicity = 1

 SCF Done:  E(RHF) =  -636.066952274     A.U. after   15 cycles
 Normal termination of Gaussian 16 at Tue Apr  8 19:57:48 2025.
 Gaussian 16:  ES64L-G16RevC.01  3-Jul-2019

 ----------------------------------------------------------------------
 #t hf aug-cc-pvdz iop(5/13=1,5/36=2,99/5=2) pseudo=read geom=check gue
 ss=(read,tcheck) scf=(maxcycle=1)
 ----------------------------------------------------------------------
 -----
 title
 -----
 Structure from the checkpoint file:  "ANI1ccx_1499_conf8_mol1.chk"
 Charge =  0 Multiplicity = 1

                         Standard orientation:
 ---------------------------------------------------------------------
 Center     Atomic      Atomic             Coordinates (Angstroms)
 Number     Number       Type             X           Y           Z
 ---------------------------------------------------------------------
      1          6           0        0.645355    1.491290   -0.034602
      2          6           0       -2.027011    0.013352    1.122630
      3          6           0       -2.107981   -0.239190   -1.051940
      4          6           0        1.319499    0.144585    0.033475
      5          6           0        2.772639    0.120818    0.173113
      6          6           0        3.069718   -1.188971    0.073684
      7          6           0        0.914012   -1.154450   -0.107510
      8          1           0       -0.027954   -1.618910   -0.000235
      9          1           0        3.997428   -1.727571    0.092770
     10          1           0        3.536719    0.908497    0.175619
     11          1           0       -1.944151   -0.059210   -2.120060
     12          1           0       -1.857881    0.431232    2.102710
     13          1           0       -1.199010    2.525981   -0.292458
     14          7           0       -0.689336    1.581920   -0.289012
     15          7           0       -1.603461    0.576852   -0.044658
     16          7           0       -2.858731   -0.966193    0.815067
     17          7           0       -2.858031   -1.154759   -0.549864
     18          8           0        1.310860    2.484970    0.029549
     19          8           0        1.944688   -1.966141   -0.121070
 ---------------------------------------------------------------------

 SCF Done:  E(RHF) =  -638.885591816     A.U. after    2 cycles

 The electronic state is 1-A.
 Alpha  occ. eigenvalues --  -21.14435 -21.05443 -15.84257 -15.82558 -15.76528
 Alpha  occ. eigenvalues --  -15.75953 -11.55131 -11.50660 -11.47261 -11.47176
 Alpha  occ. eigenvalues --  -11.44956 -11.44395 -11.40646  -1.88636  -1.75310
 Alpha  occ. eigenvalues --   -1.68251  -1.49354  -1.24844  -1.21962  -1.20094
 Alpha  occ. eigenvalues --   -1.09310  -0.94313  -0.87833  -0.86689  -0.83775
 Alpha  occ. eigenvalues --   -0.80844  -0.79094  -0.74070  -0.65926  -0.63909
 Alpha  occ. eigenvalues --   -0.61781  -0.61473  -0.59625  -0.57701  -0.56435
 Alpha  occ. eigenvalues --   -0.52939  -0.51636  -0.46529  -0.44887  -0.42360
 Alpha  occ. eigenvalues --   -0.41267  -0.37506  -0.36029  -0.34813  -0.32565
 Alpha  occ. eigenvalues --   -0.31579
 Alpha virt. eigenvalues --    0.02869   0.04900   0.05090   0.05183   0.05724
 Alpha virt. eigenvalues --    0.07083   0.08808   0.08994   0.09556   0.10393
 Alpha virt. eigenvalues --    0.10893   0.11174   0.11590   0.11764   0.12022

 Mulliken charges:
               1
     1  C    5.773924
     2  C    0.529129
     3  C    0.657539
     4  C    2.966978
     5  C   -3.883006
     6  C   -0.052451
     7  C    0.282882
     8  H    1.731424
     9  H    1.483232
    10  H    1.324816
    11  H    1.654387
    12  H    1.678896
    13  H    0.947399
    14  N   -1.646522
    15  N   -1.965419
    16  N   -1.886893
    17  N   -1.655322
    18  O   -3.775956
    19  O   -4.165037
 Sum of Mulliken charges =   0.00000

 Dipole moment (field-independent basis, Debye):
    X=              2.2329    Y=              1.6733    Z=             -0.3181  Tot=              2.8084

 Test job not archived.
 1\1\GINC-SE187\SP\RHF\Aug-CC-pVDZ\C7H6N4O2\OHZDE\08-Apr-2025\0\\#t hf
 aug-cc-pvdz iop(5/13=1,5/36=2,99/5=2) pseudo=read geom=check guess=(re
 ad,tcheck) scf=(maxcycle=1)\\title\\0,1\C,0,0.645355,1.49129,-0.034602
 4\C,0,-2.02701,0.013351,1.12263\C,0,-2.10798,-0.239191,-1.05194\C,0,1.
 3195,0.144585,0.0334754\C,0,2.77264,0.120819,0.173113\C,0,3.06972,-1.1
 8897,0.0736837\C,0,0.914013,-1.15445,-0.10751\H,0,-0.0279524,-1.61891,
 -0.00023477\H,0,3.99743,-1.72757,0.0927703\H,0,3.53672,0.908498,0.1756
 19\H,0,-1.94415,-0.0592107,-2.12006\H,0,-1.85788,0.431231,2.10271\H,0,

 Normal termination of Gaussian 16 at Tue Apr  8 19:58:02 2025.
