 Gaussian 16, Revision C.01,

 ----------------------------------------------------------------------
 #t hf aug-cc-pvdz symm=none int=(grid=ultrafine) guess=(read,tcheck) s
 table=(opt,rrhf)
 ----------------------------------------------------------------------
 -----
 title
 -----
 Symbolic Z-matrix:
 Charge =  0 Multiplicity = 1

 SCF Done:  E(RHF) =  -263.686263448     A.U. after   13 cycles
 Normal termination of Gaussian 16 at Tue Apr  8 21:36:37 2025.
 Gaussian 16:  ES64L-G16RevC.01  3-Jul-2019

 ----------------------------------------------------------------------
 #t hf aug-cc-pvdz iop(5/13=1,5/36=2,99/5=2) pseudo=read geom=check gue
 ss=(read,tcheck) scf=(maxcycle=1)
 ----------------------------------------------------------------------
 -----
 title
 -----
 Structure from the checkpoint file:  "ANI1ccx_383_conf102_mol1.chk"
 Charge =  0 Multiplicity = 1

                         Standard orientation:
 ---------------------------------------------------------------------
 Center     Atomic      Atomic             Coordinates (Angstroms)
 Number     Number       Type             X           Y           Z
 ---------------------------------------------------------------------
      1          6           0        0.001243    0.101122   -0.014838
      2          1           0       -1.405342   -1.253906    0.244549
      3          1           0        1.778560   -0.393483   -0.160770
      4          8           0       -1.240020   -0.297251   -0.044241
      5          8           0        0.949847   -0.855627    0.018331
      6          8           0        0.242588    1.282960    0.026565
 ---------------------------------------------------------------------

 SCF Done:  E(RHF) =  -264.747169584     A.U. after    2 cycles

 The electronic state is 1-A.
 Alpha  occ. eigenvalues --  -21.14832 -21.14280 -21.04737 -11.54956  -1.91115
 Alpha  occ. eigenvalues --   -1.73282  -1.65355  -0.85433  -0.72340  -0.63233
 Alpha  occ. eigenvalues --   -0.61963  -0.49293  -0.47630  -0.40181  -0.33728
 Alpha  occ. eigenvalues --   -0.31233
 Alpha virt. eigenvalues --    0.03207   0.05122   0.10846   0.11577   0.11958
 Alpha virt. eigenvalues --    0.13464   0.17484   0.18979   0.19831   0.20469
 Alpha virt. eigenvalues --    0.21153   0.22629   0.24655   0.25272   0.28600

 Mulliken charges:
               1
     1  C    6.061938
     2  H    0.778821
     3  H    0.794947
     4  O   -2.700442
     5  O   -2.466930
     6  O   -2.468335
 Sum of Mulliken charges =  -0.00000

 Dipole moment (field-independent basis, Debye):
    X=              0.2031    Y=             -2.1097    Z=              0.1249  Tot=              2.1231

 Test job not archived.
 1\1\GINC-SE404\SP\RHF\Aug-CC-pVDZ\C1H2O3\OHZDE\08-Apr-2025\0\\#t hf au
 g-cc-pvdz iop(5/13=1,5/36=2,99/5=2) pseudo=read geom=check guess=(read
 ,tcheck) scf=(maxcycle=1)\\title\\0,1\C,0,0.00124173,0.101121,-0.01483
 78\H,0,-1.40534,-1.25391,0.244549\H,0,1.77856,-0.393479,-0.16077\O,0,-
 1.24002,-0.297255,-0.0442406\O,0,0.949848,-0.855625,0.0183314\O,0,0.24
 2584,1.28296,0.0265652\\Version=ES64L-G16RevC.01\State=1-A\HF=-264.747
 1696\RMSD=5.014e-02\Dipole=0.0799219,-0.830022,0.0491212\Quadrupole=2.
 1386857,-1.6756435,-0.4630423,1.3088353,-0.7425169,-0.472476\PG=C01 [X

 Normal termination of Gaussian 16 at Tue Apr  8 21:36:38 2025.
