 Gaussian 16, Revision C.01,

 ----------------------------------------------------------------------
 #t hf aug-cc-pvdz symm=none int=(grid=ultrafine) guess=(read,tcheck) s
 table=(opt,rrhf)
 ----------------------------------------------------------------------
 -----
 title
 -----
 Symbolic Z-matrix:
 Charge =  0 Multiplicity = 1

 SCF Done:  E(RHF) =  -351.485217948     A.U. after   15 cycles
 Normal termination of Gaussian 16 at Tue Apr  8 21:33:38 2025.
 Gaussian 16:  ES64L-G16RevC.01  3-Jul-2019

 ----------------------------------------------------------------------
 #t hf aug-cc-pvdz iop(5/13=1,5/36=2,99/5=2) pseudo=read geom=check gue
 ss=(read,tcheck) scf=(maxcycle=1)
 ----------------------------------------------------------------------
 -----
 title
 -----
 Structure from the checkpoint file:  "ANI1ccx_371_conf8_mol1.chk"
 Charge =  0 Multiplicity = 1

                         Standard orientation:
 ---------------------------------------------------------------------
 Center     Atomic      Atomic             Coordinates (Angstroms)
 Number     Number       Type             X           Y           Z
 ---------------------------------------------------------------------
      1          6           0        0.779998    0.004369   -0.007166
      2          1           0        0.153959    2.046331    0.155244
      3          7           0       -0.078175    1.036261   -0.000728
      4          7           0       -1.360679    0.611909   -0.022713
      5          7           0       -1.420809   -0.626364   -0.007331
      6          8           0        1.988631   -0.060489   -0.016271
      7          8           0       -0.090669   -1.092659    0.029165
 ---------------------------------------------------------------------

 SCF Done:  E(RHF) =  -352.937746970     A.U. after    2 cycles

 The electronic state is 1-A.
 Alpha  occ. eigenvalues --  -21.15488 -21.07708 -15.88441 -15.87726 -15.86049
 Alpha  occ. eigenvalues --  -11.56750  -1.97911  -1.72553  -1.59330  -1.37208
 Alpha  occ. eigenvalues --   -0.95746  -0.92699  -0.76265  -0.73386  -0.61591
 Alpha  occ. eigenvalues --   -0.57115  -0.53516  -0.52100  -0.47033  -0.44594
 Alpha  occ. eigenvalues --   -0.32841  -0.32035
 Alpha virt. eigenvalues --    0.02981   0.09438   0.10566   0.10653   0.11824
 Alpha virt. eigenvalues --    0.12291   0.12606   0.12979   0.15643   0.16724
 Alpha virt. eigenvalues --    0.17292   0.18010   0.19795   0.19975   0.22673

 Mulliken charges:
               1
     1  C    5.274256
     2  H    0.814787
     3  N   -1.828499
     4  N    0.658880
     5  N    0.176342
     6  O   -2.737582
     7  O   -2.358183
 Sum of Mulliken charges =   0.00000

 Dipole moment (field-independent basis, Debye):
    X=             -0.3374    Y=              1.9997    Z=              0.2666  Tot=              2.0454

 Test job not archived.
 1\1\GINC-SE186\SP\RHF\Aug-CC-pVDZ\C1H1N3O2\OHZDE\08-Apr-2025\0\\#t hf
 aug-cc-pvdz iop(5/13=1,5/36=2,99/5=2) pseudo=read geom=check guess=(re
 ad,tcheck) scf=(maxcycle=1)\\title\\0,1\C,0,0.779997,0.00436906,-0.007
 1661\H,0,0.153957,2.04633,0.155244\N,0,-0.0781768,1.03626,-0.00072817\
 N,0,-1.36068,0.611908,-0.0227126\N,0,-1.42081,-0.626365,-0.00733133\O,
 0,1.98863,-0.0604888,-0.0162708\O,0,-0.0906702,-1.09266,0.0291655\\Ver
 sion=ES64L-G16RevC.01\State=1-A\HF=-352.937747\RMSD=9.355e-02\Dipole=-
 0.132749,0.7867563,0.1048865\Quadrupole=-5.1861185,3.8572803,1.3288381

 Normal termination of Gaussian 16 at Tue Apr  8 21:33:41 2025.
