 Gaussian 16, Revision C.01,

 ----------------------------------------------------------------------
 #t hf aug-cc-pvdz symm=none int=(grid=ultrafine) guess=(read,tcheck) s
 table=(opt,rrhf)
 ----------------------------------------------------------------------
 -----
 title
 -----
 Symbolic Z-matrix:
 Charge =  0 Multiplicity = 1

 SCF Done:  E(RHF) =  -602.133284370     A.U. after   16 cycles
 Normal termination of Gaussian 16 at Tue Apr  8 19:54:17 2025.
 Gaussian 16:  ES64L-G16RevC.01  3-Jul-2019

 ----------------------------------------------------------------------
 #t hf aug-cc-pvdz iop(5/13=1,5/36=2,99/5=2) pseudo=read geom=check gue
 ss=(read,tcheck) scf=(maxcycle=1)
 ----------------------------------------------------------------------
 -----
 title
 -----
 Structure from the checkpoint file:  "ANI1ccx_1496_conf2_mol1.chk"
 Charge =  0 Multiplicity = 1

                         Standard orientation:
 ---------------------------------------------------------------------
 Center     Atomic      Atomic             Coordinates (Angstroms)
 Number     Number       Type             X           Y           Z
 ---------------------------------------------------------------------
      1          6           0        0.543154    1.553491   -0.219418
      2          6           0       -0.536965    0.446325   -0.013421
      3          6           0       -2.709050   -0.013832    0.112927
      4          6           0       -2.370780   -1.313499   -0.006767
      5          6           0       -1.066170   -1.768209   -0.248483
      6          6           0       -0.091558   -0.814423   -0.188705
      7          6           0        1.441100   -1.171719    0.035251
      8          1           0        2.580830   -1.012129    1.621070
      9          1           0       -0.926653   -2.829789   -0.300211
     10          1           0       -3.135900   -2.031879   -0.190691
     11          1           0       -0.876798    3.015071    0.175749
     12          1           0        0.824578    3.484741   -0.055722
     13          1           0       -3.806290    0.261683    0.168368
     14          7           0        0.103001    2.764311    0.003865
     15          7           0       -1.780120    0.925937    0.157513
     16          8           0        1.743700   -0.755821    1.258240
     17          8           0        1.769670    1.365451   -0.424708
     18          8           0        2.214340   -1.638159   -0.755595
 ---------------------------------------------------------------------

 SCF Done:  E(RHF) =  -604.778131461     A.U. after    2 cycles

 The electronic state is 1-A.
 Alpha  occ. eigenvalues --  -21.12056 -21.05260 -21.01175 -15.77683 -15.77316
 Alpha  occ. eigenvalues --  -11.54329 -11.53021 -11.50934 -11.48543 -11.46758
 Alpha  occ. eigenvalues --  -11.43921 -11.40700  -1.83009  -1.68777  -1.65780
 Alpha  occ. eigenvalues --   -1.49587  -1.34937  -1.23595  -1.15986  -0.96232
 Alpha  occ. eigenvalues --   -0.94955  -0.85262  -0.81610  -0.74977  -0.69879
 Alpha  occ. eigenvalues --   -0.67382  -0.64770  -0.61963  -0.61665  -0.58078
 Alpha  occ. eigenvalues --   -0.56603  -0.55729  -0.52830  -0.51332  -0.46888
 Alpha  occ. eigenvalues --   -0.44039  -0.40902  -0.39815  -0.36881  -0.34488
 Alpha  occ. eigenvalues --   -0.29509  -0.28965  -0.28170
 Alpha virt. eigenvalues --    0.02871   0.04420   0.04731   0.05538   0.06174
 Alpha virt. eigenvalues --    0.07297   0.07926   0.08504   0.09280   0.10567
 Alpha virt. eigenvalues --    0.11092   0.11466   0.11683   0.12232   0.12945

 Mulliken charges:
               1
     1  C    4.222264
     2  C    0.568809
     3  C   -0.483608
     4  C   -1.627649
     5  C   -1.142283
     6  C    1.663854
     7  C    6.579800
     8  H    0.940954
     9  H    1.645894
    10  H    1.354762
    11  H    0.782451
    12  H    0.775663
    13  H    1.600697
    14  N   -3.322447
    15  N   -3.763479
    16  O   -3.177116
    17  O   -3.299863
    18  O   -3.318703
 Sum of Mulliken charges =   0.00000

 Dipole moment (field-independent basis, Debye):
    X=             -2.6076    Y=              0.0952    Z=              1.4539  Tot=              2.9871

 Test job not archived.
 1\1\GINC-SE252\SP\RHF\Aug-CC-pVDZ\C7H6N2O3\OHZDE\08-Apr-2025\0\\#t hf
 aug-cc-pvdz iop(5/13=1,5/36=2,99/5=2) pseudo=read geom=check guess=(re
 ad,tcheck) scf=(maxcycle=1)\\title\\0,1\C,0,0.543154,1.55349,-0.219418
 \C,0,-0.536965,0.446324,-0.0134211\C,0,-2.70905,-0.0138329,0.112927\C,
 0,-2.37078,-1.3135,-0.00676665\C,0,-1.06617,-1.76821,-0.248483\C,0,-0.
 0915576,-0.814424,-0.188705\C,0,1.4411,-1.17172,0.0352517\H,0,2.58083,
 -1.01213,1.62107\H,0,-0.926653,-2.82979,-0.300211\H,0,-3.1359,-2.03188
 ,-0.190691\H,0,-0.876798,3.01507,0.175749\H,0,0.824578,3.48474,-0.0557

 Normal termination of Gaussian 16 at Tue Apr  8 19:54:29 2025.
