 Gaussian 16, Revision C.01,

 ----------------------------------------------------------------------
 #t hf aug-cc-pvdz symm=none int=(grid=ultrafine) guess=(read,tcheck) s
 table=(opt,rrhf)
 ----------------------------------------------------------------------
 -----
 title
 -----
 Symbolic Z-matrix:
 Charge =  0 Multiplicity = 1

 SCF Done:  E(RHF) =  -371.291348680     A.U. after   14 cycles
 Normal termination of Gaussian 16 at Tue Apr  8 21:40:42 2025.
 Gaussian 16:  ES64L-G16RevC.01  3-Jul-2019

 ----------------------------------------------------------------------
 #t hf aug-cc-pvdz iop(5/13=1,5/36=2,99/5=2) pseudo=read geom=check gue
 ss=(read,tcheck) scf=(maxcycle=1)
 ----------------------------------------------------------------------
 -----
 title
 -----
 Structure from the checkpoint file:  "ANI1ccx_455_conf10_mol2.chk"
 Charge =  0 Multiplicity = 1

                         Standard orientation:
 ---------------------------------------------------------------------
 Center     Atomic      Atomic             Coordinates (Angstroms)
 Number     Number       Type             X           Y           Z
 ---------------------------------------------------------------------
      1          6           0        0.767181    0.017705    0.004735
      2          7           0       -1.367450   -0.624894   -0.010779
      3          7           0       -1.378770    0.604672   -0.017354
      4          8           0        1.950530   -0.007233   -0.017518
      5          8           0       -0.055211   -1.075220    0.017962
      6          8           0       -0.067762    1.086870    0.020621
 ---------------------------------------------------------------------

 SCF Done:  E(RHF) =  -372.774493997     A.U. after    2 cycles

 The electronic state is 1-A.
 Alpha  occ. eigenvalues --  -21.19981 -21.19637 -21.11010 -15.92059 -15.91525
 Alpha  occ. eigenvalues --  -11.59744  -2.09491  -1.83589  -1.76536  -1.48006
 Alpha  occ. eigenvalues --   -0.97286  -0.91283  -0.75420  -0.74143  -0.59890
 Alpha  occ. eigenvalues --   -0.59060  -0.57321  -0.53110  -0.48910  -0.45051
 Alpha  occ. eigenvalues --   -0.34989  -0.34609
 Alpha virt. eigenvalues --    0.07385   0.10338   0.10349   0.10400   0.10900
 Alpha virt. eigenvalues --    0.11767   0.12869   0.14675   0.15755   0.17881
 Alpha virt. eigenvalues --    0.18703   0.20213   0.21919   0.22425   0.23749

 Mulliken charges:
               1
     1  C    5.271891
     2  N    1.212361
     3  N    1.214252
     4  O   -2.671915
     5  O   -2.502315
     6  O   -2.524275
 Sum of Mulliken charges =   0.00000

 Dipole moment (field-independent basis, Debye):
    X=             -0.4103    Y=              0.0085    Z=              0.0512  Tot=              0.4135

 Test job not archived.
 1\1\GINC-SE455\SP\RHF\Aug-CC-pVDZ\C1N2O3\OHZDE\08-Apr-2025\0\\#t hf au
 g-cc-pvdz iop(5/13=1,5/36=2,99/5=2) pseudo=read geom=check guess=(read
 ,tcheck) scf=(maxcycle=1)\\title\\0,1\C,0,0.767181,0.0177046,0.0047352
 7\N,0,-1.36745,-0.624893,-0.0107786\N,0,-1.37877,0.604673,-0.0173544\O
 ,0,1.95053,-0.00723447,-0.0175179\O,0,-0.0552116,-1.07522,0.0179621\O,
 0,-0.0677616,1.08687,0.0206207\\Version=ES64L-G16RevC.01\State=1-A\HF=
 -372.774494\RMSD=8.920e-02\Dipole=-0.1614142,0.0033403,0.0201353\Quadr
 upole=-2.8950251,0.6460457,2.2489794,0.0316703,-0.006115,0.0057079\PG=

 Normal termination of Gaussian 16 at Tue Apr  8 21:40:43 2025.
