 Gaussian 16, Revision C.01,

 ----------------------------------------------------------------------
 #t hf aug-cc-pvdz symm=none int=(grid=ultrafine) guess=(read,tcheck) s
 table=(opt,rrhf)
 ----------------------------------------------------------------------
 -----
 title
 -----
 Symbolic Z-matrix:
 Charge =  0 Multiplicity = 1

 SCF Done:  E(RHF) =  -424.687898332     A.U. after   15 cycles
 Normal termination of Gaussian 16 at Tue Apr  8 21:45:48 2025.
 Gaussian 16:  ES64L-G16RevC.01  3-Jul-2019

 ----------------------------------------------------------------------
 #t hf aug-cc-pvdz iop(5/13=1,5/36=2,99/5=2) pseudo=read geom=check gue
 ss=(read,tcheck) scf=(maxcycle=1)
 ----------------------------------------------------------------------
 -----
 title
 -----
 Structure from the checkpoint file:  "ANI1ccx_507_conf3_mol1.chk"
 Charge =  0 Multiplicity = 1

                         Standard orientation:
 ---------------------------------------------------------------------
 Center     Atomic      Atomic             Coordinates (Angstroms)
 Number     Number       Type             X           Y           Z
 ---------------------------------------------------------------------
      1          6           0        1.286049   -0.325860    0.062354
      2          6           0       -0.184201    1.428341   -0.055771
      3          1           0        3.018817   -1.378547    0.132276
      4          1           0        3.006260    0.000166   -0.993513
      5          1           0       -2.047055    1.962936    0.061371
      6          7           0        2.596379   -0.562316   -0.223852
      7          7           0        0.879486    0.893753   -0.475990
      8          7           0       -1.076724    2.118884    0.354747
      9          7           0       -2.273561   -0.605281   -0.225424
     10          7           0       -2.335694   -1.726433   -0.259649
     11          8           0        0.610212   -1.003711    0.821443
 ---------------------------------------------------------------------

 SCF Done:  E(RHF) =  -426.504078799     A.U. after    2 cycles

 The electronic state is 1-A.
 Alpha  occ. eigenvalues --  -21.02734 -15.87610 -15.87029 -15.79869 -15.78455
 Alpha  occ. eigenvalues --  -15.76588 -11.55385 -11.51457  -1.72285  -1.55040
 Alpha  occ. eigenvalues --   -1.45153  -1.37275  -1.29285  -0.91091  -0.80194
 Alpha  occ. eigenvalues --   -0.76795  -0.72467  -0.66928  -0.62146  -0.59648
 Alpha  occ. eigenvalues --   -0.57597  -0.56620  -0.56584  -0.53256  -0.50628
 Alpha  occ. eigenvalues --   -0.41138  -0.38420  -0.32719  -0.29776
 Alpha virt. eigenvalues --    0.03672   0.05138   0.06066   0.09023   0.10641
 Alpha virt. eigenvalues --    0.10785   0.11270   0.11948   0.12495   0.13296
 Alpha virt. eigenvalues --    0.13765   0.14464   0.15278   0.15650   0.16410

 Mulliken charges:
               1
     1  C    5.456749
     2  C    3.309126
     3  H    0.657609
     4  H    0.719445
     5  H    0.752930
     6  N   -2.705093
     7  N   -2.647697
     8  N   -2.951926
     9  N   -0.151142
    10  N    0.215155
    11  O   -2.655157
 Sum of Mulliken charges =  -0.00000

 Dipole moment (field-independent basis, Debye):
    X=              0.1260    Y=             -0.1544    Z=             -1.2237  Tot=              1.2398

 Test job not archived.
 1\1\GINC-SE099\SP\RHF\Aug-CC-pVDZ\C2H3N5O1\OHZDE\08-Apr-2025\0\\#t hf
 aug-cc-pvdz iop(5/13=1,5/36=2,99/5=2) pseudo=read geom=check guess=(re
 ad,tcheck) scf=(maxcycle=1)\\title\\0,1\C,0,1.28605,-0.325858,0.062354
 4\C,0,-0.184205,1.42834,-0.0557704\H,0,3.01882,-1.37854,0.132276\H,0,3
 .00626,0.00017295,-0.993513\H,0,-2.04706,1.96293,0.0613713\N,0,2.59638
 ,-0.56231,-0.223852\N,0,0.879483,0.893754,-0.47599\N,0,-1.07673,2.1188
 8,0.354747\N,0,-2.27356,-0.605288,-0.225424\N,0,-2.33569,-1.72644,-0.2
 59649\O,0,0.610214,-1.00371,0.821443\\Version=ES64L-G16RevC.01\State=1

 Normal termination of Gaussian 16 at Tue Apr  8 21:45:53 2025.
