 Gaussian 16, Revision C.01,

 ----------------------------------------------------------------------
 #t hf aug-cc-pvdz symm=none int=(grid=ultrafine) guess=(read,tcheck) s
 table=(opt,rrhf)
 ----------------------------------------------------------------------
 -----
 title
 -----
 Symbolic Z-matrix:
 Charge =  0 Multiplicity = 1

 SCF Done:  E(RHF) =  -540.246480442     A.U. after   14 cycles
 Normal termination of Gaussian 16 at Tue Apr  8 21:45:03 2025.
 Gaussian 16:  ES64L-G16RevC.01  3-Jul-2019

 ----------------------------------------------------------------------
 #t hf aug-cc-pvdz iop(5/13=1,5/36=2,99/5=2) pseudo=read geom=check gue
 ss=(read,tcheck) scf=(maxcycle=1)
 ----------------------------------------------------------------------
 -----
 title
 -----
 Structure from the checkpoint file:  "ANI1ccx_504_conf3_mol2.chk"
 Charge =  0 Multiplicity = 1

                         Standard orientation:
 ---------------------------------------------------------------------
 Center     Atomic      Atomic             Coordinates (Angstroms)
 Number     Number       Type             X           Y           Z
 ---------------------------------------------------------------------
      1          6           0        1.158501   -0.690812    0.079277
      2          6           0       -1.137069   -0.689389   -0.075763
      3          1           0       -1.566139    2.223051   -0.363279
      4          1           0        1.679901    2.137441    0.424232
      5          1           0        0.114365   -2.448299    0.128995
      6          7           0       -0.657921    0.629049   -0.253724
      7          7           0        0.669101    0.621960    0.319497
      8          7           0        0.025265   -1.457289   -0.069689
      9          8           0       -1.471699    1.537031    0.303976
     10          8           0        1.370271    1.637311   -0.337527
     11          8           0        2.301921   -1.074879    0.067020
     12          8           0       -2.276969   -1.122839   -0.056422
 ---------------------------------------------------------------------

 SCF Done:  E(RHF) =  -542.485735913     A.U. after    2 cycles

 The electronic state is 1-A.
 Alpha  occ. eigenvalues --  -21.14881 -21.14843 -21.07892 -21.07727 -15.84728
 Alpha  occ. eigenvalues --  -15.84237 -15.82406 -11.56269 -11.54728  -1.92483
 Alpha  occ. eigenvalues --   -1.83958  -1.75341  -1.73249  -1.53341  -1.32820
 Alpha  occ. eigenvalues --   -1.15278  -0.91298  -0.86752  -0.77751  -0.74417
 Alpha  occ. eigenvalues --   -0.65657  -0.64030  -0.62503  -0.60777  -0.56999
 Alpha  occ. eigenvalues --   -0.53262  -0.50374  -0.45090  -0.41239  -0.40551
 Alpha  occ. eigenvalues --   -0.35652  -0.34458  -0.31896  -0.31576
 Alpha virt. eigenvalues --    0.03499   0.05243   0.05315   0.09620   0.10008
 Alpha virt. eigenvalues --    0.10256   0.12259   0.12382   0.12660   0.13018
 Alpha virt. eigenvalues --    0.14405   0.14639   0.15342   0.16712   0.17001

 Mulliken charges:
               1
     1  C    5.103162
     2  C    4.936132
     3  H    0.733505
     4  H    0.733399
     5  H    0.696739
     6  N    1.198393
     7  N    0.492053
     8  N   -2.310504
     9  O   -2.907089
    10  O   -2.420090
    11  O   -3.139808
    12  O   -3.115892
 Sum of Mulliken charges =   0.00000

 Dipole moment (field-independent basis, Debye):
    X=              0.0650    Y=              1.4861    Z=              0.1148  Tot=              1.4920

 Test job not archived.
 1\1\GINC-SE455\SP\RHF\Aug-CC-pVDZ\C2H3N3O4\OHZDE\08-Apr-2025\0\\#t hf
 aug-cc-pvdz iop(5/13=1,5/36=2,99/5=2) pseudo=read geom=check guess=(re
 ad,tcheck) scf=(maxcycle=1)\\title\\0,1\C,0,1.1585,-0.690813,0.0792774
 \C,0,-1.13707,-0.68939,-0.0757627\H,0,-1.56614,2.22305,-0.363279\H,0,1
 .6799,2.13744,0.424232\H,0,0.114364,-2.4483,0.128995\N,0,-0.657922,0.6
 29048,-0.253724\N,0,0.6691,0.621959,0.319497\N,0,0.0252646,-1.45729,-0
 .069689\O,0,-1.4717,1.53703,0.303976\O,0,1.37027,1.63731,-0.337527\O,0
 ,2.30192,-1.07488,0.0670202\O,0,-2.27697,-1.12284,-0.0564224\\Version=

 Normal termination of Gaussian 16 at Tue Apr  8 21:45:08 2025.
