 Gaussian 16, Revision C.01,

 ----------------------------------------------------------------------
 #t hf aug-cc-pvdz symm=none int=(grid=ultrafine) guess=(read,tcheck) s
 table=(opt,rrhf)
 ----------------------------------------------------------------------
 -----
 title
 -----
 Symbolic Z-matrix:
 Charge =  0 Multiplicity = 1

 SCF Done:  E(RHF) =  -486.378252869     A.U. after   14 cycles
 Normal termination of Gaussian 16 at Tue Apr  8 21:45:59 2025.
 Gaussian 16:  ES64L-G16RevC.01  3-Jul-2019

 ----------------------------------------------------------------------
 #t hf aug-cc-pvdz iop(5/13=1,5/36=2,99/5=2) pseudo=read geom=check gue
 ss=(read,tcheck) scf=(maxcycle=1)
 ----------------------------------------------------------------------
 -----
 title
 -----
 Structure from the checkpoint file:  "ANI1ccx_517_conf3_mol1.chk"
 Charge =  0 Multiplicity = 1

                         Standard orientation:
 ---------------------------------------------------------------------
 Center     Atomic      Atomic             Coordinates (Angstroms)
 Number     Number       Type             X           Y           Z
 ---------------------------------------------------------------------
      1          6           0       -0.728706   -0.288172    0.005472
      2          6           0        0.699110    0.313389   -0.002445
      3          1           0       -2.847961   -0.783130   -0.058904
      4          1           0       -1.388960    1.622581    0.005360
      5          1           0        1.505189   -1.622690   -0.079744
      6          1           0        2.843260    0.758706   -0.007437
      7          7           0       -1.636460    0.632353    0.092499
      8          7           0        1.658419   -0.627501    0.090386
      9          8           0       -2.954330    0.203104   -0.032340
     10          8           0       -0.928323   -1.517739   -0.035558
     11          8           0        0.911896    1.517500   -0.049782
     12          8           0        2.959800   -0.222957   -0.027024
 ---------------------------------------------------------------------

 SCF Done:  E(RHF) =  -488.405900404     A.U. after    2 cycles

 The electronic state is 1-A.
 Alpha  occ. eigenvalues --  -21.13744 -21.13097 -21.07662 -21.06402 -15.84526
 Alpha  occ. eigenvalues --  -15.83438 -11.56239 -11.51620  -1.87092  -1.84301
 Alpha  occ. eigenvalues --   -1.73220  -1.70724  -1.31796  -1.28182  -0.95160
 Alpha  occ. eigenvalues --   -0.85377  -0.81332  -0.67006  -0.66327  -0.64375
 Alpha  occ. eigenvalues --   -0.60538  -0.58626  -0.52914  -0.51317  -0.48053
 Alpha  occ. eigenvalues --   -0.45431  -0.41999  -0.38929  -0.30822  -0.30412
 Alpha  occ. eigenvalues --   -0.28216
 Alpha virt. eigenvalues --    0.04024   0.06060   0.06169   0.06407   0.09956
 Alpha virt. eigenvalues --    0.11222   0.11740   0.12011   0.12138   0.12401
 Alpha virt. eigenvalues --    0.14767   0.15993   0.16621   0.16699   0.18089

 Mulliken charges:
               1
     1  C    5.116862
     2  C    4.929092
     3  H    0.822599
     4  H    0.893976
     5  H    0.853192
     6  H    0.840683
     7  N   -0.910140
     8  N   -0.657728
     9  O   -2.504820
    10  O   -3.342435
    11  O   -3.401739
    12  O   -2.639542
 Sum of Mulliken charges =  -0.00000

 Dipole moment (field-independent basis, Debye):
    X=             -0.0920    Y=              0.1451    Z=             -0.2991  Tot=              0.3449

 Test job not archived.
 1\1\GINC-SE398\SP\RHF\Aug-CC-pVDZ\C2H4N2O4\OHZDE\08-Apr-2025\0\\#t hf
 aug-cc-pvdz iop(5/13=1,5/36=2,99/5=2) pseudo=read geom=check guess=(re
 ad,tcheck) scf=(maxcycle=1)\\title\\0,1\C,0,-0.728706,-0.288173,0.0054
 7201\C,0,0.69911,0.313389,-0.00244479\H,0,-2.84796,-0.783131,-0.058903
 9\H,0,-1.38896,1.62258,0.00535966\H,0,1.50519,-1.62269,-0.0797444\H,0,
 2.84326,0.758706,-0.00743746\N,0,-1.63646,0.632352,0.0924992\N,0,1.658
 42,-0.627501,0.0903855\O,0,-2.95433,0.203103,-0.0323396\O,0,-0.928322,
 -1.51774,-0.0355585\O,0,0.911896,1.5175,-0.0497819\O,0,2.9598,-0.22295

 Normal termination of Gaussian 16 at Tue Apr  8 21:46:04 2025.
