 Gaussian 16, Revision C.01,

 ----------------------------------------------------------------------
 #t hf aug-cc-pvdz symm=none int=(grid=ultrafine) guess=(read,tcheck) s
 table=(opt,rrhf)
 ----------------------------------------------------------------------
 -----
 title
 -----
 Symbolic Z-matrix:
 Charge =  0 Multiplicity = 1

 SCF Done:  E(RHF) =  -355.347507965     A.U. after   14 cycles
 Normal termination of Gaussian 16 at Tue Apr  8 21:42:06 2025.
 Gaussian 16:  ES64L-G16RevC.01  3-Jul-2019

 ----------------------------------------------------------------------
 #t hf aug-cc-pvdz iop(5/13=1,5/36=2,99/5=2) pseudo=read geom=check gue
 ss=(read,tcheck) scf=(maxcycle=1)
 ----------------------------------------------------------------------
 -----
 title
 -----
 Structure from the checkpoint file:  "ANI1ccx_469_conf10_mol1.chk"
 Charge =  0 Multiplicity = 1

                         Standard orientation:
 ---------------------------------------------------------------------
 Center     Atomic      Atomic             Coordinates (Angstroms)
 Number     Number       Type             X           Y           Z
 ---------------------------------------------------------------------
      1          6           0       -0.773819   -0.012456   -0.019291
      2          6           0        1.280290    0.557787   -0.068272
      3          1           0        2.045869    1.271192   -0.030961
      4          7           0        1.412541   -0.684858   -0.000507
      5          8           0       -1.965810    0.021964   -0.029460
      6          8           0        0.057023    1.080100    0.065149
      7          8           0        0.037228   -1.070710    0.034298
 ---------------------------------------------------------------------

 SCF Done:  E(RHF) =  -356.785278432     A.U. after    2 cycles

 The electronic state is 1-A.
 Alpha  occ. eigenvalues --  -21.17938 -21.15727 -21.08764 -15.83959 -11.58579
 Alpha  occ. eigenvalues --  -11.51438  -2.04490  -1.79290  -1.73069  -1.32613
 Alpha  occ. eigenvalues --   -0.93428  -0.86957  -0.75649  -0.71665  -0.60913
 Alpha  occ. eigenvalues --   -0.56227  -0.52722  -0.51274  -0.46824  -0.44560
 Alpha  occ. eigenvalues --   -0.33832  -0.31371
 Alpha virt. eigenvalues --    0.02746   0.07876   0.08534   0.08724   0.11368
 Alpha virt. eigenvalues --    0.11662   0.11701   0.12967   0.14518   0.15460
 Alpha virt. eigenvalues --    0.16627   0.18851   0.19086   0.19358   0.22672

 Mulliken charges:
               1
     1  C    5.755931
     2  C    1.598187
     3  H    1.655083
     4  N   -0.839357
     5  O   -2.985305
     6  O   -2.744051
     7  O   -2.440488
 Sum of Mulliken charges =  -0.00000

 Dipole moment (field-independent basis, Debye):
    X=              2.0954    Y=              1.7969    Z=              0.0793  Tot=              2.7615

 Test job not archived.
 1\1\GINC-SE096\SP\RHF\Aug-CC-pVDZ\C2H1N1O3\OHZDE\08-Apr-2025\0\\#t hf
 aug-cc-pvdz iop(5/13=1,5/36=2,99/5=2) pseudo=read geom=check guess=(re
 ad,tcheck) scf=(maxcycle=1)\\title\\0,1\C,0,-0.773819,-0.012455,-0.019
 291\C,0,1.28029,0.557786,-0.0682725\H,0,2.04587,1.27119,-0.0309609\N,0
 ,1.41254,-0.684859,-0.00050691\O,0,-1.96581,0.0219656,-0.0294603\O,0,0
 .0570236,1.0801,0.0651486\O,0,0.0372266,-1.07071,0.0342979\\Version=ES
 64L-G16RevC.01\State=1-A\HF=-356.7852784\RMSD=6.957e-02\Dipole=0.82437
 67,0.7069602,0.0311803\Quadrupole=-1.6166347,0.4395888,1.1770459,2.883

 Normal termination of Gaussian 16 at Tue Apr  8 21:42:09 2025.
