 Gaussian 16, Revision C.01,

 ----------------------------------------------------------------------
 #t hf aug-cc-pvdz symm=none int=(grid=ultrafine) guess=(read,tcheck) s
 table=(opt,rrhf)
 ----------------------------------------------------------------------
 -----
 title
 -----
 Symbolic Z-matrix:
 Charge =  0 Multiplicity = 1

 SCF Done:  E(RHF) =  -489.157625869     A.U. after   13 cycles
 Normal termination of Gaussian 16 at Tue Apr  8 21:51:44 2025.
 Gaussian 16:  ES64L-G16RevC.01  3-Jul-2019

 ----------------------------------------------------------------------
 #t hf aug-cc-pvdz iop(5/13=1,5/36=2,99/5=2) pseudo=read geom=check gue
 ss=(read,tcheck) scf=(maxcycle=1)
 ----------------------------------------------------------------------
 -----
 title
 -----
 Structure from the checkpoint file:  "ANI1ccx_667_conf2_mol1.chk"
 Charge =  0 Multiplicity = 1

                         Standard orientation:
 ---------------------------------------------------------------------
 Center     Atomic      Atomic             Coordinates (Angstroms)
 Number     Number       Type             X           Y           Z
 ---------------------------------------------------------------------
      1          6           0        1.194830   -0.371600   -0.031662
      2          6           0        0.006664    1.517231    0.308863
      3          6           0       -1.215070   -0.374187   -0.043262
      4          1           0       -0.073115    1.312601    1.361980
      5          1           0       -0.053070    2.573311   -0.061159
      6          8           0        2.185250   -1.065679   -0.116874
      7          8           0        1.184260    0.966403   -0.225171
      8          8           0       -1.166470    0.962382   -0.273702
      9          8           0       -2.171050   -1.066389   -0.094187
     10          8           0       -0.006035   -0.861039    0.371878
 ---------------------------------------------------------------------

 SCF Done:  E(RHF) =  -491.124361857     A.U. after    2 cycles

 The electronic state is 1-A.
 Alpha  occ. eigenvalues --  -21.17167 -21.16503 -21.15735 -21.10479 -21.09730
 Alpha  occ. eigenvalues --  -11.60479 -11.59549 -11.52601  -2.03989  -1.85973
 Alpha  occ. eigenvalues --   -1.82403  -1.71837  -1.69732  -1.06173  -0.96349
 Alpha  occ. eigenvalues --   -0.82738  -0.75345  -0.73665  -0.70627  -0.61915
 Alpha  occ. eigenvalues --   -0.60748  -0.58422  -0.56601  -0.48368  -0.47549
 Alpha  occ. eigenvalues --   -0.42099  -0.38442  -0.37042  -0.34908  -0.33622
 Alpha virt. eigenvalues --    0.02788   0.04301   0.07862   0.08022   0.09932
 Alpha virt. eigenvalues --    0.10346   0.10932   0.11104   0.11506   0.12180
 Alpha virt. eigenvalues --    0.13277   0.13957   0.14064   0.15284   0.16325

 Mulliken charges:
               1
     1  C    6.168314
     2  C   -0.551346
     3  C    6.166643
     4  H    1.457596
     5  H    1.490982
     6  O   -2.987105
     7  O   -2.873742
     8  O   -2.825512
     9  O   -3.022695
    10  O   -3.023136
 Sum of Mulliken charges =   0.00000

 Dipole moment (field-independent basis, Debye):
    X=             -0.1247    Y=              2.7065    Z=              0.6077  Tot=              2.7767

 Test job not archived.
 1\1\GINC-SE179\SP\RHF\Aug-CC-pVDZ\C3H2O5\OHZDE\08-Apr-2025\0\\#t hf au
 g-cc-pvdz iop(5/13=1,5/36=2,99/5=2) pseudo=read geom=check guess=(read
 ,tcheck) scf=(maxcycle=1)\\title\\0,1\C,0,1.19483,-0.371601,-0.0316625
 \C,0,0.00666333,1.51723,0.308863\C,0,-1.21507,-0.374188,-0.0432622\H,0
 ,-0.0731158,1.3126,1.36198\H,0,-0.0530708,2.57331,-0.0611593\O,0,2.185
 25,-1.06568,-0.116874\O,0,1.18426,0.966402,-0.225171\O,0,-1.16647,0.96
 2381,-0.273702\O,0,-2.17105,-1.06639,-0.0941875\O,0,-0.00603515,-0.861
 04,0.371878\\Version=ES64L-G16RevC.01\State=1-A\HF=-491.1243619\RMSD=6

 Normal termination of Gaussian 16 at Tue Apr  8 21:51:48 2025.
