 Gaussian 16, Revision C.01,

 ----------------------------------------------------------------------
 #t hf aug-cc-pvdz symm=none int=(grid=ultrafine) guess=(read,tcheck) s
 table=(opt,rrhf)
 ----------------------------------------------------------------------
 -----
 title
 -----
 Symbolic Z-matrix:
 Charge =  0 Multiplicity = 1

 SCF Done:  E(RHF) =  -558.627972302     A.U. after   15 cycles
 Normal termination of Gaussian 16 at Tue Apr  8 19:39:43 2025.
 Gaussian 16:  ES64L-G16RevC.01  3-Jul-2019

 ----------------------------------------------------------------------
 #t hf aug-cc-pvdz iop(5/13=1,5/36=2,99/5=2) pseudo=read geom=check gue
 ss=(read,tcheck) scf=(maxcycle=1)
 ----------------------------------------------------------------------
 -----
 title
 -----
 Structure from the checkpoint file:  "ANI1ccx_1352_conf1_mol1.chk"
 Charge =  0 Multiplicity = 1

                         Standard orientation:
 ---------------------------------------------------------------------
 Center     Atomic      Atomic             Coordinates (Angstroms)
 Number     Number       Type             X           Y           Z
 ---------------------------------------------------------------------
      1          6           0        2.853331   -1.483727    0.016525
      2          6           0        2.297548    1.025683    0.019806
      3          6           0        0.172681    0.985093   -0.025323
      4          6           0       -1.229812    1.162778   -0.011289
      5          6           0       -1.468669   -1.162562   -0.004551
      6          6           0        0.588678   -0.350339   -0.030609
      7          1           0       -3.410938   -1.900854    0.356141
      8          1           0       -2.156077   -3.095913   -0.390977
      9          1           0       -1.240045    3.313808   -0.251209
     10          1           0       -2.751054    2.450566    0.090480
     11          1           0        3.325988    1.351664    0.239256
     12          1           0        3.386141   -1.638356    1.018410
     13          1           0        2.127712   -2.333177    0.034753
     14          1           0        3.576991   -1.634306   -0.780835
     15          7           0        1.956020   -0.303189   -0.115424
     16          7           0        1.237707    1.862211    0.121231
     17          7           0       -1.780684    2.378398   -0.082051
     18          7           0       -2.052031    0.057633    0.085759
     19          7           0       -2.351058   -2.193413    0.068944
     20          7           0       -0.172993   -1.455210   -0.093226
 ---------------------------------------------------------------------

 SCF Done:  E(RHF) =  -561.192781925     A.U. after    2 cycles

 The electronic state is 1-A.
 Alpha  occ. eigenvalues --  -15.78511 -15.77627 -15.74712 -15.73226 -15.70391
 Alpha  occ. eigenvalues --  -15.70199 -11.52599 -11.48933 -11.47127 -11.43874
 Alpha  occ. eigenvalues --  -11.42215 -11.38081  -1.59756  -1.48288  -1.39903
 Alpha  occ. eigenvalues --   -1.30730  -1.27126  -1.22535  -1.07234  -1.03199
 Alpha  occ. eigenvalues --   -0.91137  -0.86156  -0.80672  -0.73440  -0.70042
 Alpha  occ. eigenvalues --   -0.66459  -0.65366  -0.64635  -0.59491  -0.58849
 Alpha  occ. eigenvalues --   -0.57771  -0.55521  -0.53771  -0.52534  -0.52234
 Alpha  occ. eigenvalues --   -0.49433  -0.44370  -0.39205  -0.38759  -0.35956
 Alpha  occ. eigenvalues --   -0.32995  -0.31475  -0.24907
 Alpha virt. eigenvalues --    0.03370   0.04954   0.05070   0.05737   0.05863
 Alpha virt. eigenvalues --    0.06218   0.07280   0.08135   0.09293   0.10845
 Alpha virt. eigenvalues --    0.11509   0.11960   0.12508   0.12782   0.13754

 Mulliken charges:
               1
     1  C   -3.659850
     2  C    0.590532
     3  C    1.555766
     4  C    5.758407
     5  C    3.724021
     6  C    4.249319
     7  H    0.609100
     8  H    0.665217
     9  H    0.640685
    10  H    0.848506
    11  H    1.805966
    12  H    1.385016
    13  H    1.462481
    14  H    1.530505
    15  N   -3.545690
    16  N   -3.750974
    17  N   -3.888605
    18  N   -3.345653
    19  N   -3.107684
    20  N   -3.527066
 Sum of Mulliken charges =  -0.00000

 Dipole moment (field-independent basis, Debye):
    X=              0.5646    Y=             -0.5150    Z=             -0.2417  Tot=              0.8015

 Test job not archived.
 1\1\GINC-SE109\SP\RHF\Aug-CC-pVDZ\C6H8N6\OHZDE\08-Apr-2025\0\\#t hf au
 g-cc-pvdz iop(5/13=1,5/36=2,99/5=2) pseudo=read geom=check guess=(read
 ,tcheck) scf=(maxcycle=1)\\title\\0,1\C,0,2.85333,-1.48373,0.016525\C,
 0,2.29755,1.02568,0.0198061\C,0,0.172683,0.985093,-0.0253234\C,0,-1.22
 981,1.16278,-0.0112889\C,0,-1.46867,-1.16256,-0.00455096\C,0,0.588678,
 -0.35034,-0.0306092\H,0,-3.41094,-1.90085,0.356141\H,0,-2.15608,-3.095
 91,-0.390977\H,0,-1.24004,3.31381,-0.251209\H,0,-2.75105,2.45057,0.090
 4803\H,0,3.32599,1.35166,0.239256\H,0,3.38614,-1.63836,1.01841\H,0,2.1

 Normal termination of Gaussian 16 at Tue Apr  8 19:39:57 2025.
