 Gaussian 16, Revision C.01,

 ----------------------------------------------------------------------
 #t hf aug-cc-pvdz symm=none int=(grid=ultrafine) guess=(read,tcheck) s
 table=(opt,rrhf)
 ----------------------------------------------------------------------
 -----
 title
 -----
 Symbolic Z-matrix:
 Charge =  0 Multiplicity = 1

 SCF Done:  E(RHF) =  -853.783543434     A.U. after   14 cycles
 Normal termination of Gaussian 16 at Tue Apr  8 22:37:57 2025.
 Gaussian 16:  ES64L-G16RevC.01  3-Jul-2019

 ----------------------------------------------------------------------
 #t hf aug-cc-pvdz iop(5/13=1,5/36=2,99/5=2) pseudo=read geom=check gue
 ss=(read,tcheck) scf=(maxcycle=1)
 ----------------------------------------------------------------------
 -----
 title
 -----
 Structure from the checkpoint file:  "ANI1ccx_97_conf9_mol1.chk"
 Charge =  0 Multiplicity = 1

                         Standard orientation:
 ---------------------------------------------------------------------
 Center     Atomic      Atomic             Coordinates (Angstroms)
 Number     Number       Type             X           Y           Z
 ---------------------------------------------------------------------
      1          6           0       -1.116599    1.721360    0.520583
      2          6           0        2.500540   -0.960077    1.013980
      3          6           0        2.789780    0.200767   -1.228960
      4          6           0        2.416100    0.315144    0.176299
      5          6           0       -4.441050   -1.096578   -0.654602
      6          6           0        3.527409   -1.936861    0.788666
      7          6           0       -2.760620   -0.043236    1.020440
      8          6           0       -2.468290    1.207831    0.257464
      9          6           0       -0.160487    0.697589   -0.079557
     10          6           0       -4.140020   -0.591464    0.783703
     11          1           0       -3.679171   -2.988339   -0.898981
     12          1           0        1.151170   -0.728571   -1.669340
     13          1           0        3.379239   -2.821661    1.469800
     14          1           0        3.267679   -2.354781   -0.164708
     15          1           0        4.564140   -1.557131    0.783619
     16          1           0        2.391150   -1.291501    2.904210
     17          1           0        1.574530   -1.432600    0.706561
     18          1           0        3.052960    1.026319    0.615076
     19          1           0        1.174650    1.398210    1.236550
     20          1           0       -2.517731   -1.751519   -1.015530
     21          1           0       -4.925920    0.094514    1.096950
     22          1           0       -5.383821   -1.673898   -0.775964
     23          1           0       -0.895624    2.974110   -1.130560
     24          1           0       -4.596810   -0.293831   -1.304940
     25          1           0       -0.942215    1.769760    1.663450
     26          1           0       -2.547280    1.062741   -0.862429
     27          1           0        0.068305    3.294310    0.151009
     28          1           0       -1.985260   -0.816898    0.772823
     29          1           0       -2.685980    0.195922    2.070340
     30          1           0       -4.264160   -1.533429    1.431990
     31          1           0       -3.141919    1.992701    0.534674
     32          7           0       -0.877106    3.032690   -0.101634
     33          7           0       -3.460181   -2.032669   -1.174620
     34          7           0        1.132360    0.934106    0.404365
     35          8           0        2.485670   -0.477861    2.361230
     36          8           0       -0.520183   -0.181277   -0.813766
     37          8           0        3.705350    0.748464   -1.767530
     38          8           0        2.141160   -0.738099   -1.917370
 ---------------------------------------------------------------------

 SCF Done:  E(RHF) =  -857.715500525     A.U. after    2 cycles

 The electronic state is 1-A.
 Alpha  occ. eigenvalues --  -21.09875 -21.09197 -21.07266 -21.05404 -15.78701
 Alpha  occ. eigenvalues --  -15.75589 -15.71273 -11.57040 -11.54587 -11.52321
 Alpha  occ. eigenvalues --  -11.49446 -11.45844 -11.44077 -11.42731 -11.39746
 Alpha  occ. eigenvalues --  -11.38755 -11.35882  -1.83522  -1.76787  -1.74139
 Alpha  occ. eigenvalues --   -1.64772  -1.45542  -1.37790  -1.33082  -1.21241
 Alpha  occ. eigenvalues --   -1.19866  -1.10062  -1.07322  -0.97231  -0.91137
 Alpha  occ. eigenvalues --   -0.90247  -0.84611  -0.82058  -0.76377  -0.75889
 Alpha  occ. eigenvalues --   -0.71864  -0.69304  -0.67914  -0.66238  -0.65150
 Alpha  occ. eigenvalues --   -0.64368  -0.62496  -0.61758  -0.59334  -0.58067
 Alpha  occ. eigenvalues --   -0.56900  -0.56155  -0.55299  -0.54627  -0.52836
 Alpha  occ. eigenvalues --   -0.51805  -0.50448  -0.49419  -0.49106  -0.48090
 Alpha  occ. eigenvalues --   -0.46492  -0.45269  -0.43749  -0.43278  -0.42166
 Alpha  occ. eigenvalues --   -0.39820  -0.36213  -0.34790  -0.33201  -0.31978
 Alpha  occ. eigenvalues --   -0.30833  -0.28824
 Alpha virt. eigenvalues --    0.03199   0.03630   0.04053   0.04402   0.05071
 Alpha virt. eigenvalues --    0.05125   0.05410   0.05836   0.05893   0.06044
 Alpha virt. eigenvalues --    0.06966   0.07292   0.07479   0.07657   0.08242

 Mulliken charges:
               1
     1  C   -2.094359
     2  C    3.115530
     3  C    7.547209
     4  C   -3.954689
     5  C   -2.446435
     6  C   -4.633564
     7  C   -2.750473
     8  C   -2.704336
     9  C    7.393463
    10  C   -3.130512
    11  H    0.490694
    12  H    1.200293
    13  H    0.982667
    14  H    1.003577
    15  H    1.344995
    16  H    0.751137
    17  H    1.997558
    18  H    2.063605
    19  H    0.658349
    20  H    0.840252
    21  H    1.372101
    22  H    1.323163
    23  H    0.588083
    24  H    1.662715
    25  H    1.925877
    26  H    1.392348
    27  H    0.551869
    28  H    2.023734
    29  H    1.303658
    30  H    1.075957
    31  H    1.432610
    32  N   -3.108596
    33  N   -2.331125
    34  N   -2.688881
    35  O   -3.339299
    36  O   -3.809190
    37  O   -3.681218
    38  O   -3.368765
 Sum of Mulliken charges =  -0.00000

 Dipole moment (field-independent basis, Debye):
    X=             -0.4207    Y=             -0.3728    Z=              3.3790  Tot=              3.4254

 Test job not archived.
 1\1\GINC-SE273\SP\RHF\Aug-CC-pVDZ\C10H21N3O4\OHZDE\08-Apr-2025\0\\#t h
 f aug-cc-pvdz iop(5/13=1,5/36=2,99/5=2) pseudo=read geom=check guess=(
 read,tcheck) scf=(maxcycle=1)\\title\\0,1\C,0,-1.1166,1.72136,0.520583
 \C,0,2.50054,-0.960076,1.01398\C,0,2.78978,0.200768,-1.22896\C,0,2.416
 1,0.315145,0.176299\C,0,-4.44105,-1.09658,-0.654602\C,0,3.52741,-1.936
 86,0.788666\C,0,-2.76062,-0.0432367,1.02044\C,0,-2.46829,1.20783,0.257
 464\C,0,-0.160487,0.697589,-0.0795576\C,0,-4.14002,-0.591465,0.783703\
 H,0,-3.67917,-2.98834,-0.898981\H,0,1.15117,-0.728571,-1.66934\H,0,3.3

 Normal termination of Gaussian 16 at Tue Apr  8 22:39:02 2025.
