 Gaussian 16, Revision C.01,

 ----------------------------------------------------------------------
 #t hf aug-cc-pvdz symm=none int=(grid=ultrafine) guess=(read,tcheck) s
 table=(opt,rrhf)
 ----------------------------------------------------------------------
 -----
 title
 -----
 Symbolic Z-matrix:
 Charge =  0 Multiplicity = 1

 SCF Done:  E(RHF) =  -623.039711742     A.U. after   16 cycles
 Normal termination of Gaussian 16 at Tue Apr  8 19:57:15 2025.
 Gaussian 16:  ES64L-G16RevC.01  3-Jul-2019

 ----------------------------------------------------------------------
 #t hf aug-cc-pvdz iop(5/13=1,5/36=2,99/5=2) pseudo=read geom=check gue
 ss=(read,tcheck) scf=(maxcycle=1)
 ----------------------------------------------------------------------
 -----
 title
 -----
 Structure from the checkpoint file:  "ANI1ccx_1508_conf11_mol1.chk"
 Charge =  0 Multiplicity = 1

                         Standard orientation:
 ---------------------------------------------------------------------
 Center     Atomic      Atomic             Coordinates (Angstroms)
 Number     Number       Type             X           Y           Z
 ---------------------------------------------------------------------
      1          6           0        2.686451   -0.883594    0.081287
      2          6           0        1.313010   -0.056868    0.038834
      3          6           0        0.564199    2.150569   -0.242651
      4          6           0       -0.723598    1.669178   -0.003959
      5          6           0       -0.934475    0.384481    0.032097
      6          6           0       -2.564030   -0.127292    0.060856
      7          6           0        0.064663   -0.592045   -0.048863
      8          1           0        0.894485   -2.485611    0.224808
      9          1           0       -1.859309   -1.879332   -0.567752
     10          1           0       -1.533351    2.261388    0.404748
     11          1           0        2.732381   -1.569650   -0.820362
     12          1           0        2.624111   -1.514110    1.065040
     13          1           0        3.382870    0.778689    0.079938
     14          1           0        0.649484    3.208249   -0.252659
     15          7           0        1.498790    1.209599   -0.091828
     16          8           0       -3.470900    0.682428    0.267823
     17          8           0        3.723040   -0.111207    0.080179
     18          8           0       -2.743159   -1.394943   -0.229607
     19          8           0        0.013579   -1.992951    0.007034
 ---------------------------------------------------------------------

 SCF Done:  E(RHF) =  -625.786590950     A.U. after    2 cycles

 The electronic state is 1-A.
 Alpha  occ. eigenvalues --  -21.13906 -21.13360 -21.08234 -21.05894 -15.76760
 Alpha  occ. eigenvalues --  -11.55322 -11.54397 -11.48165 -11.47591 -11.47248
 Alpha  occ. eigenvalues --  -11.45594 -11.42283  -1.82707  -1.79177  -1.76392
 Alpha  occ. eigenvalues --   -1.65038  -1.49182  -1.22303  -1.15729  -1.00241
 Alpha  occ. eigenvalues --   -0.93920  -0.89321  -0.81240  -0.76753  -0.69839
 Alpha  occ. eigenvalues --   -0.68217  -0.67024  -0.66342  -0.63351  -0.60027
 Alpha  occ. eigenvalues --   -0.58174  -0.55129  -0.54590  -0.52433  -0.50354
 Alpha  occ. eigenvalues --   -0.48302  -0.44503  -0.41779  -0.40325  -0.36342
 Alpha  occ. eigenvalues --   -0.33976  -0.33328  -0.31782  -0.30048
 Alpha virt. eigenvalues --    0.02735   0.04521   0.04935   0.05196   0.06127
 Alpha virt. eigenvalues --    0.06554   0.07586   0.08175   0.09300   0.09462
 Alpha virt. eigenvalues --    0.10019   0.10276   0.11124   0.11697   0.11819

 Mulliken charges:
               1
     1  C   -0.165507
     2  C    0.830388
     3  C   -1.455604
     4  C   -0.251079
     5  C    2.506768
     6  C    3.792163
     7  C    4.210280
     8  H    1.141619
     9  H    1.134434
    10  H    1.475112
    11  H    1.111745
    12  H    0.882198
    13  H    0.881308
    14  H    1.507094
    15  N   -3.587490
    16  O   -3.040827
    17  O   -3.527282
    18  O   -3.245643
    19  O   -4.199676
 Sum of Mulliken charges =  -0.00000

 Dipole moment (field-independent basis, Debye):
    X=              0.7777    Y=             -0.9119    Z=             -0.1419  Tot=              1.2068

 Test job not archived.
 1\1\GINC-SE398\SP\RHF\Aug-CC-pVDZ\C7H7N1O4\OHZDE\08-Apr-2025\0\\#t hf
 aug-cc-pvdz iop(5/13=1,5/36=2,99/5=2) pseudo=read geom=check guess=(re
 ad,tcheck) scf=(maxcycle=1)\\title\\0,1\C,0,2.68645,-0.883594,0.081286
 7\C,0,1.31301,-0.0568671,0.0388342\C,0,0.5642,2.15057,-0.242651\C,0,-0
 .723598,1.66918,-0.00395943\C,0,-0.934475,0.384483,0.0320967\C,0,-2.56
 403,-0.12729,0.0608558\C,0,0.0646629,-0.592044,-0.0488632\H,0,0.894484
 ,-2.48561,0.224808\H,0,-1.85931,-1.87933,-0.567752\H,0,-1.53335,2.2613
 9,0.404748\H,0,2.73238,-1.56965,-0.820362\H,0,2.62411,-1.51411,1.06504

 Normal termination of Gaussian 16 at Tue Apr  8 19:57:27 2025.
