 Gaussian 16, Revision C.01,

 ----------------------------------------------------------------------
 #t hf aug-cc-pvdz symm=none int=(grid=ultrafine) guess=(read,tcheck) s
 table=(opt,rrhf)
 ----------------------------------------------------------------------
 -----
 title
 -----
 Symbolic Z-matrix:
 Charge =  0 Multiplicity = 1

 SCF Done:  E(RHF) =  -830.283765999     A.U. after   14 cycles
 Normal termination of Gaussian 16 at Tue Apr  8 19:52:13 2025.
 Gaussian 16:  ES64L-G16RevC.01  3-Jul-2019

 ----------------------------------------------------------------------
 #t hf aug-cc-pvdz iop(5/13=1,5/36=2,99/5=2) pseudo=read geom=check gue
 ss=(read,tcheck) scf=(maxcycle=1)
 ----------------------------------------------------------------------
 -----
 title
 -----
 Structure from the checkpoint file:  "ANI1ccx_1406_conf6_mol1.chk"
 Charge =  0 Multiplicity = 1

                         Standard orientation:
 ---------------------------------------------------------------------
 Center     Atomic      Atomic             Coordinates (Angstroms)
 Number     Number       Type             X           Y           Z
 ---------------------------------------------------------------------
      1          6           0        2.732460   -0.347383    0.214140
      2          6           0        1.426840   -0.713317   -0.454196
      3          6           0        2.813770    1.129268    0.531082
      4          6           0       -0.773515    0.169543   -1.063381
      5          6           0       -1.642460    1.353388   -0.738197
      6          6           0       -1.591150   -1.121002   -0.662714
      7          6           0       -2.080200   -1.000002    0.800199
      8          1           0       -3.243890    2.152948   -1.181841
      9          1           0       -3.195600   -1.904432    2.062579
     10          1           0       -0.967066   -2.018412   -0.703886
     11          1           0       -2.498440   -1.219862   -1.264491
     12          1           0       -0.607717    0.097297   -2.134951
     13          1           0        0.524455    0.827168    0.516258
     14          1           0        3.852580    1.386878    0.765662
     15          1           0        2.674720    1.698578   -0.479021
     16          1           0        2.735140   -0.849524    1.178479
     17          1           0        3.964150   -0.339180   -1.392051
     18          1           0        3.625690   -1.876462   -0.856812
     19          1           0        2.232150    1.993008    2.230809
     20          7           0        3.888950   -0.899366   -0.558667
     21          7           0        0.450525    0.259969   -0.356729
     22          8           0       -2.910310   -2.017672    1.154199
     23          8           0        1.278650   -1.781922   -1.025501
     24          8           0        1.920270    1.390588    1.572289
     25          8           0       -1.339790    2.329508   -0.073780
     26          8           0       -1.653030   -0.201614    1.618889
     27          8           0       -2.894160    1.244208   -1.257921
 ---------------------------------------------------------------------

 SCF Done:  E(RHF) =  -833.873270301     A.U. after    2 cycles

 The electronic state is 1-A.
 Alpha  occ. eigenvalues --  -21.13091 -21.12678 -21.09672 -21.05937 -21.05589
 Alpha  occ. eigenvalues --  -21.03117 -15.74601 -15.73623 -11.55549 -11.54046
 Alpha  occ. eigenvalues --  -11.52679 -11.48626 -11.47815 -11.41821 -11.40966
 Alpha  occ. eigenvalues --   -1.83986  -1.82243  -1.75971  -1.71014  -1.65436
 Alpha  occ. eigenvalues --   -1.65365  -1.41512  -1.33004  -1.17800  -1.07842
 Alpha  occ. eigenvalues --   -1.01564  -0.91984  -0.83430  -0.80380  -0.77889
 Alpha  occ. eigenvalues --   -0.71562  -0.69095  -0.67290  -0.65905  -0.64842
 Alpha  occ. eigenvalues --   -0.61833  -0.60704  -0.60045  -0.58666  -0.58261
 Alpha  occ. eigenvalues --   -0.56422  -0.54432  -0.52800  -0.51714  -0.50337
 Alpha  occ. eigenvalues --   -0.48269  -0.46705  -0.44572  -0.44269  -0.42354
 Alpha  occ. eigenvalues --   -0.37662  -0.35352  -0.34624  -0.34261  -0.31576
 Alpha  occ. eigenvalues --   -0.30468  -0.29003  -0.28309
 Alpha virt. eigenvalues --    0.03863   0.04278   0.04652   0.05120   0.05682
 Alpha virt. eigenvalues --    0.06078   0.06683   0.06779   0.06832   0.07292
 Alpha virt. eigenvalues --    0.08366   0.10258   0.10788   0.11118   0.11781

 Mulliken charges:
               1
     1  C   -1.897196
     2  C    6.304779
     3  C   -0.310116
     4  C   -3.285131
     5  C    7.516359
     6  C   -3.530344
     7  C    5.694042
     8  H    0.806281
     9  H    0.882148
    10  H    1.605714
    11  H    1.406442
    12  H    2.147486
    13  H    1.157871
    14  H    1.345865
    15  H    1.299680
    16  H    1.801038
    17  H    0.589615
    18  H    0.557021
    19  H    0.804883
    20  N   -2.706661
    21  N   -3.065712
    22  O   -3.207922
    23  O   -3.547150
    24  O   -2.860250
    25  O   -3.283580
    26  O   -2.871576
    27  O   -3.353584
 Sum of Mulliken charges =  -0.00000

 Dipole moment (field-independent basis, Debye):
    X=             -0.8314    Y=              1.1197    Z=              0.5742  Tot=              1.5082

 Test job not archived.
 1\1\GINC-SE036\SP\RHF\Aug-CC-pVDZ\C7H12N2O6\OHZDE\08-Apr-2025\0\\#t hf
  aug-cc-pvdz iop(5/13=1,5/36=2,99/5=2) pseudo=read geom=check guess=(r
 ead,tcheck) scf=(maxcycle=1)\\title\\0,1\C,0,2.73246,-0.347381,0.21414
 1\C,0,1.42684,-0.713315,-0.454195\C,0,2.81377,1.12927,0.531083\C,0,-0.
 773515,0.169545,-1.06338\C,0,-1.64246,1.35339,-0.738196\C,0,-1.59115,-
 1.121,-0.662713\C,0,-2.0802,-1.,0.8002\H,0,-3.24389,2.15295,-1.18184\H
 ,0,-3.1956,-1.90443,2.06258\H,0,-0.967066,-2.01841,-0.703885\H,0,-2.49
 844,-1.21986,-1.26449\H,0,-0.607717,0.0972986,-2.13495\H,0,0.524455,0.

 Normal termination of Gaussian 16 at Tue Apr  8 19:52:44 2025.
