 Gaussian 16, Revision C.01,

 ----------------------------------------------------------------------
 #t hf aug-cc-pvdz symm=none int=(grid=ultrafine) guess=(read,tcheck) s
 table=(opt,rrhf)
 ----------------------------------------------------------------------
 -----
 title
 -----
 Symbolic Z-matrix:
 Charge =  0 Multiplicity = 1

 SCF Done:  E(RHF) =  -774.642166477     A.U. after   14 cycles
 Normal termination of Gaussian 16 at Tue Apr  8 20:31:54 2025.
 Gaussian 16:  ES64L-G16RevC.01  3-Jul-2019

 ----------------------------------------------------------------------
 #t hf aug-cc-pvdz iop(5/13=1,5/36=2,99/5=2) pseudo=read geom=check gue
 ss=(read,tcheck) scf=(maxcycle=1)
 ----------------------------------------------------------------------
 -----
 title
 -----
 Structure from the checkpoint file:  "ANI1ccx_1610_conf1_mol1.chk"
 Charge =  0 Multiplicity = 1

                         Standard orientation:
 ---------------------------------------------------------------------
 Center     Atomic      Atomic             Coordinates (Angstroms)
 Number     Number       Type             X           Y           Z
 ---------------------------------------------------------------------
      1          6           0       -2.677118   -1.308872    0.073383
      2          6           0       -1.372049   -0.776253    0.707156
      3          6           0       -2.310028   -2.090242   -1.210910
      4          6           0        0.087996    1.301501    0.772464
      5          6           0        0.209063    2.619871    0.001988
      6          6           0        1.424270    0.532974    0.792299
      7          6           0        1.790200   -0.083751   -0.555179
      8          6           0        2.727132   -1.273417   -0.394160
      9          1           0       -0.517288    3.543160   -1.479170
     10          1           0        1.286913   -2.298778    0.704691
     11          1           0        2.689173   -3.172817    0.335988
     12          1           0        2.321530    0.633216   -1.185370
     13          1           0        0.876379   -0.407887   -1.115450
     14          1           0        1.347131   -0.214156    1.577960
     15          1           0        2.230139    1.228193    1.053870
     16          1           0       -1.640851    0.992963   -0.314963
     17          1           0       -1.603927   -2.898501   -0.909093
     18          1           0       -1.771428   -1.489671   -1.952640
     19          1           0       -3.210247   -2.465133   -1.708110
     20          1           0       -3.054498   -2.007362    0.836876
     21          1           0       -3.959000    0.205339    0.599901
     22          1           0       -4.404839   -0.552039   -0.721414
     23          1           0       -0.054582    1.595610    1.853170
     24          7           0       -3.579719   -0.189977   -0.260028
     25          7           0       -1.029790    0.467634    0.277935
     26          7           0        2.130383   -2.361018    0.171539
     27          8           0        3.898132   -1.275326   -0.732181
     28          8           0       -0.698175   -1.442730    1.473730
     29          8           0        1.069477    3.447741    0.140667
     30          8           0       -0.826623    2.815380   -0.885290
 ---------------------------------------------------------------------

 SCF Done:  E(RHF) =  -778.114353900     A.U. after    2 cycles

 The electronic state is 1-A.
 Alpha  occ. eigenvalues --  -21.13860 -21.07879 -21.04225 -21.01339 -15.77344
 Alpha  occ. eigenvalues --  -15.76233 -15.75735 -11.57312 -11.54636 -11.50511
 Alpha  occ. eigenvalues --  -11.49546 -11.45625 -11.43891 -11.39875 -11.38708
 Alpha  occ. eigenvalues --   -1.84366  -1.72835  -1.68978  -1.67330  -1.43211
 Alpha  occ. eigenvalues --   -1.36150  -1.33435  -1.20476  -1.12007  -1.07346
 Alpha  occ. eigenvalues --   -0.94807  -0.92765  -0.81463  -0.80628  -0.78527
 Alpha  occ. eigenvalues --   -0.72155  -0.70633  -0.68268  -0.67567  -0.65596
 Alpha  occ. eigenvalues --   -0.63616  -0.62010  -0.61462  -0.58169  -0.57479
 Alpha  occ. eigenvalues --   -0.56425  -0.54121  -0.53806  -0.52166  -0.51306
 Alpha  occ. eigenvalues --   -0.50138  -0.48758  -0.48013  -0.46575  -0.45959
 Alpha  occ. eigenvalues --   -0.44202  -0.39763  -0.36554  -0.32676  -0.32004
 Alpha  occ. eigenvalues --   -0.31281  -0.29834  -0.27143
 Alpha virt. eigenvalues --    0.03148   0.03946   0.04197   0.04513   0.04957
 Alpha virt. eigenvalues --    0.05527   0.06335   0.06629   0.06928   0.07616
 Alpha virt. eigenvalues --    0.07873   0.08227   0.08649   0.09476   0.10110

 Mulliken charges:
               1
     1  C   -1.891010
     2  C    6.659195
     3  C   -3.896959
     4  C   -3.187216
     5  C    7.306032
     6  C   -1.948109
     7  C   -4.529277
     8  C    5.995143
     9  H    0.971281
    10  H    0.779718
    11  H    0.752649
    12  H    1.175733
    13  H    2.070390
    14  H    1.928390
    15  H    1.303151
    16  H    0.999365
    17  H    1.225854
    18  H    1.398274
    19  H    1.279922
    20  H    1.637862
    21  H    0.580744
    22  H    0.612633
    23  H    1.424615
    24  N   -2.806049
    25  N   -2.440177
    26  N   -3.140887
    27  O   -3.607111
    28  O   -4.063196
    29  O   -3.465892
    30  O   -3.125068
 Sum of Mulliken charges =   0.00000

 Dipole moment (field-independent basis, Debye):
    X=             -5.5115    Y=              0.2595    Z=              0.0597  Tot=              5.5179

 Test job not archived.
 1\1\GINC-SE086\SP\RHF\Aug-CC-pVDZ\C8H15N3O4\OHZDE\08-Apr-2025\0\\#t hf
  aug-cc-pvdz iop(5/13=1,5/36=2,99/5=2) pseudo=read geom=check guess=(r
 ead,tcheck) scf=(maxcycle=1)\\title\\0,1\C,0,-2.67712,-1.30887,0.07338
 3\C,0,-1.37205,-0.776252,0.707156\C,0,-2.31003,-2.09024,-1.21091\C,0,0
 .0879973,1.3015,0.772464\C,0,0.209065,2.61987,0.0019884\C,0,1.42427,0.
 532972,0.792299\C,0,1.7902,-0.0837527,-0.555179\C,0,2.72713,-1.27342,-
 0.39416\H,0,-0.517285,3.54316,-1.47917\H,0,1.28691,-2.29878,0.704691\H
 ,0,2.68917,-3.17282,0.335988\H,0,2.32153,0.633213,-1.18537\H,0,0.87637

 Normal termination of Gaussian 16 at Tue Apr  8 20:32:30 2025.
