 Gaussian 16, Revision C.01,

 ----------------------------------------------------------------------
 #t hf aug-cc-pvdz symm=none int=(grid=ultrafine) guess=(read,tcheck) s
 table=(opt,rrhf)
 ----------------------------------------------------------------------
 -----
 title
 -----
 Symbolic Z-matrix:
 Charge =  0 Multiplicity = 1

 SCF Done:  E(RHF) =  -228.120821689     A.U. after   11 cycles
 Normal termination of Gaussian 16 at Tue Apr  8 21:14:20 2025.
 Gaussian 16:  ES64L-G16RevC.01  3-Jul-2019

 ----------------------------------------------------------------------
 #t hf aug-cc-pvdz iop(5/13=1,5/36=2,99/5=2) pseudo=read geom=check gue
 ss=(read,tcheck) scf=(maxcycle=1)
 ----------------------------------------------------------------------
 -----
 title
 -----
 Structure from the checkpoint file:  "ANI1ccx_1900_conf27_mol1.chk"
 Charge =  0 Multiplicity = 1

                         Standard orientation:
 ---------------------------------------------------------------------
 Center     Atomic      Atomic             Coordinates (Angstroms)
 Number     Number       Type             X           Y           Z
 ---------------------------------------------------------------------
      1          1           0       -2.078352   -0.185135    0.769207
      2          1           0       -0.906580    0.564545    0.031609
      3          1           0       -0.018631   -1.071221   -0.159075
      4          1           0        1.151528   -1.790708    0.707292
      5          1           0        0.925878    1.967963    0.639836
      6          1           0        1.139153    0.534657   -0.050650
      7          8           0       -1.603902   -0.175520   -0.093946
      8          8           0        0.964786   -1.192857   -0.072180
      9          8           0        0.612492    1.365865   -0.076152
 ---------------------------------------------------------------------

 SCF Done:  E(RHF) =  -229.113974223     A.U. after    2 cycles

 The electronic state is 1-A.
 Alpha  occ. eigenvalues --  -21.08692 -21.08375 -21.07567  -1.68629  -1.64013
 Alpha  occ. eigenvalues --   -1.63454  -0.67807  -0.63318  -0.61456  -0.48908
 Alpha  occ. eigenvalues --   -0.47561  -0.44474  -0.36084  -0.33690  -0.33271
 Alpha virt. eigenvalues --    0.03374   0.05098   0.05532   0.08279   0.08885
 Alpha virt. eigenvalues --    0.09681   0.18830   0.19385   0.19544   0.21300
 Alpha virt. eigenvalues --    0.22425   0.22842   0.23729   0.25031   0.27221

 Mulliken charges:
               1
     1  H    0.779669
     2  H    1.431449
     3  H    1.221717
     4  H    0.852206
     5  H    0.851555
     6  H    1.224800
     7  O   -2.033496
     8  O   -2.176805
     9  O   -2.151096
 Sum of Mulliken charges =  -0.00000

 Dipole moment (field-independent basis, Debye):
    X=              0.3630    Y=              0.0569    Z=              1.8611  Tot=              1.8970

 Test job not archived.
 1\1\GINC-SE368\SP\RHF\Aug-CC-pVDZ\H6O3\OHZDE\08-Apr-2025\0\\#t hf aug-
 cc-pvdz iop(5/13=1,5/36=2,99/5=2) pseudo=read geom=check guess=(read,t
 check) scf=(maxcycle=1)\\title\\0,1\H,0,-2.07835,-0.185147,0.769207\H,
 0,-0.906583,0.564541,0.031609\H,0,-0.0186239,-1.07122,-0.159075\H,0,1.
 15154,-1.7907,0.707292\H,0,0.925867,1.96797,0.639836\H,0,1.13915,0.534
 665,-0.0506502\O,0,-1.6039,-0.175529,-0.0939458\O,0,0.964794,-1.19285,
 -0.07218\O,0,0.612484,1.36587,-0.0761516\\Version=ES64L-G16RevC.01\Sta
 te=1-A\HF=-229.1139742\RMSD=2.999e-02\Dipole=0.1428125,0.022399,0.7322

 Normal termination of Gaussian 16 at Tue Apr  8 21:14:22 2025.
