 Gaussian 16, Revision C.01,

 ----------------------------------------------------------------------
 #t hf aug-cc-pvdz symm=none int=(grid=ultrafine) guess=(read,tcheck) s
 table=(opt,rrhf)
 ----------------------------------------------------------------------
 -----
 title
 -----
 Symbolic Z-matrix:
 Charge =  0 Multiplicity = 1

 SCF Done:  E(RHF) =  -414.297456800     A.U. after   14 cycles
 Normal termination of Gaussian 16 at Tue Apr  8 21:50:56 2025.
 Gaussian 16:  ES64L-G16RevC.01  3-Jul-2019

 ----------------------------------------------------------------------
 #t hf aug-cc-pvdz iop(5/13=1,5/36=2,99/5=2) pseudo=read geom=check gue
 ss=(read,tcheck) scf=(maxcycle=1)
 ----------------------------------------------------------------------
 -----
 title
 -----
 Structure from the checkpoint file:  "ANI1ccx_666_conf7_mol2.chk"
 Charge =  0 Multiplicity = 1

                         Standard orientation:
 ---------------------------------------------------------------------
 Center     Atomic      Atomic             Coordinates (Angstroms)
 Number     Number       Type             X           Y           Z
 ---------------------------------------------------------------------
      1          6           0       -1.152839   -0.196635   -0.024919
      2          6           0       -0.605410    1.216150    0.022620
      3          6           0        1.128961   -0.178555    0.015817
      4          1           0       -1.062929    1.768540   -0.855221
      5          1           0       -0.928375    1.717440    0.927318
      6          8           0       -2.286740   -0.607392    0.029923
      7          8           0        0.803767    1.093069   -0.035042
      8          8           0        2.218860   -0.592318    0.029409
      9          8           0       -0.015008   -0.959826   -0.043441
 ---------------------------------------------------------------------

 SCF Done:  E(RHF) =  -415.973702763     A.U. after    2 cycles

 The electronic state is 1-A.
 Alpha  occ. eigenvalues --  -21.16285 -21.15888 -21.10918 -21.09109 -11.58997
 Alpha  occ. eigenvalues --  -11.58391 -11.49412  -2.01236  -1.81330  -1.74454
 Alpha  occ. eigenvalues --   -1.70313  -1.13493  -0.88913  -0.86029  -0.74332
 Alpha  occ. eigenvalues --   -0.71407  -0.62120  -0.61357  -0.56949  -0.54885
 Alpha  occ. eigenvalues --   -0.53316  -0.46859  -0.38091  -0.37376  -0.36477
 Alpha  occ. eigenvalues --   -0.31986
 Alpha virt. eigenvalues --    0.02402   0.04889   0.07529   0.08855   0.10333
 Alpha virt. eigenvalues --    0.10437   0.10665   0.11020   0.11473   0.11771
 Alpha virt. eigenvalues --    0.13860   0.13926   0.15939   0.16260   0.18069

 Mulliken charges:
               1
     1  C    4.537300
     2  C   -1.528814
     3  C    6.335281
     4  H    1.322662
     5  H    1.347221
     6  O   -3.107184
     7  O   -2.853721
     8  O   -3.138550
     9  O   -2.914195
 Sum of Mulliken charges =  -0.00000

 Dipole moment (field-independent basis, Debye):
    X=             -0.9818    Y=              1.8259    Z=              0.0251  Tot=              2.0733

 Test job not archived.
 1\1\GINC-SE074\SP\RHF\Aug-CC-pVDZ\C3H2O4\OHZDE\08-Apr-2025\0\\#t hf au
 g-cc-pvdz iop(5/13=1,5/36=2,99/5=2) pseudo=read geom=check guess=(read
 ,tcheck) scf=(maxcycle=1)\\title\\0,1\C,0,-1.15284,-0.196635,-0.024919
 \C,0,-0.605411,1.21615,0.0226195\C,0,1.12896,-0.178554,0.0158174\H,0,-
 1.06293,1.76854,-0.855221\H,0,-0.928376,1.71744,0.927318\O,0,-2.28674,
 -0.607392,0.0299234\O,0,0.803766,1.09307,-0.0350424\O,0,2.21886,-0.592
 317,0.0294092\O,0,-0.0150087,-0.959825,-0.0434408\\Version=ES64L-G16Re
 vC.01\State=1-A\HF=-415.9737028\RMSD=1.858e-01\Dipole=-0.386251,0.7183

 Normal termination of Gaussian 16 at Tue Apr  8 21:50:59 2025.
