 Gaussian 16, Revision C.01,

 ----------------------------------------------------------------------
 #t hf aug-cc-pvdz symm=none int=(grid=ultrafine) guess=(read,tcheck) s
 table=(opt,rrhf)
 ----------------------------------------------------------------------
 -----
 title
 -----
 Symbolic Z-matrix:
 Charge =  0 Multiplicity = 1

 SCF Done:  E(RHF) =  -540.228025338     A.U. after   15 cycles
 Normal termination of Gaussian 16 at Tue Apr  8 21:45:04 2025.
 Gaussian 16:  ES64L-G16RevC.01  3-Jul-2019

 ----------------------------------------------------------------------
 #t hf aug-cc-pvdz iop(5/13=1,5/36=2,99/5=2) pseudo=read geom=check gue
 ss=(read,tcheck) scf=(maxcycle=1)
 ----------------------------------------------------------------------
 -----
 title
 -----
 Structure from the checkpoint file:  "ANI1ccx_504_conf1_mol1.chk"
 Charge =  0 Multiplicity = 1

                         Standard orientation:
 ---------------------------------------------------------------------
 Center     Atomic      Atomic             Coordinates (Angstroms)
 Number     Number       Type             X           Y           Z
 ---------------------------------------------------------------------
      1          6           0       -0.936904   -0.928268    0.005855
      2          6           0        1.306878   -0.421616   -0.212223
      3          1           0        0.963418    2.432500    0.670207
      4          1           0       -1.423711    1.687491    0.522937
      5          1           0        0.615710   -2.238070    0.545087
      6          7           0        0.552219    0.827795   -0.385647
      7          7           0       -0.769297    0.382965   -0.567882
      8          7           0        0.368980   -1.432440    0.022150
      9          8           0        0.696002    1.513400    0.865094
     10          8           0       -1.678241    1.390001   -0.370364
     11          8           0       -1.960452   -1.429769    0.422916
     12          8           0        2.512868   -0.502489   -0.165192
 ---------------------------------------------------------------------

 SCF Done:  E(RHF) =  -542.475711609     A.U. after    2 cycles

 The electronic state is 1-A.
 Alpha  occ. eigenvalues --  -21.15099 -21.14881 -21.09662 -21.08549 -15.84787
 Alpha  occ. eigenvalues --  -15.83632 -15.83325 -11.57146 -11.55549  -1.91131
 Alpha  occ. eigenvalues --   -1.81401  -1.75629  -1.74068  -1.52962  -1.34884
 Alpha  occ. eigenvalues --   -1.13538  -0.91890  -0.87143  -0.76815  -0.75455
 Alpha  occ. eigenvalues --   -0.67256  -0.63967  -0.62054  -0.59187  -0.55910
 Alpha  occ. eigenvalues --   -0.54000  -0.50159  -0.44746  -0.42381  -0.40372
 Alpha  occ. eigenvalues --   -0.37956  -0.35427  -0.33579  -0.30480
 Alpha virt. eigenvalues --    0.03301   0.04804   0.06259   0.09217   0.09764
 Alpha virt. eigenvalues --    0.10778   0.11305   0.11447   0.12255   0.13107
 Alpha virt. eigenvalues --    0.13321   0.14679   0.15417   0.16414   0.16781

 Mulliken charges:
               1
     1  C    4.825856
     2  C    5.090046
     3  H    0.768707
     4  H    0.742315
     5  H    0.703322
     6  N    0.348059
     7  N    1.043242
     8  N   -2.397226
     9  O   -2.406265
    10  O   -2.683650
    11  O   -3.024399
    12  O   -3.010007
 Sum of Mulliken charges =   0.00000

 Dipole moment (field-independent basis, Debye):
    X=              0.4057    Y=              1.0246    Z=              1.5877  Tot=              1.9327

 Test job not archived.
 1\1\GINC-SE340\SP\RHF\Aug-CC-pVDZ\C2H3N3O4\OHZDE\08-Apr-2025\0\\#t hf
 aug-cc-pvdz iop(5/13=1,5/36=2,99/5=2) pseudo=read geom=check guess=(re
 ad,tcheck) scf=(maxcycle=1)\\title\\0,1\C,0,-0.936902,-0.928268,0.0058
 5468\C,0,1.30688,-0.421616,-0.212223\H,0,0.963419,2.4325,0.670207\H,0,
 -1.42371,1.68749,0.522937\H,0,0.615712,-2.23807,0.545087\N,0,0.55222,0
 .827795,-0.385647\N,0,-0.769296,0.382965,-0.567882\N,0,0.368982,-1.432
 44,0.0221501\O,0,0.696003,1.5134,0.865094\O,0,-1.67824,1.39,-0.370364\
 O,0,-1.96045,-1.42977,0.422916\O,0,2.51287,-0.502488,-0.165192\\Versio

 Normal termination of Gaussian 16 at Tue Apr  8 21:45:10 2025.
