 Gaussian 16, Revision C.01,

 ----------------------------------------------------------------------
 #t hf aug-cc-pvdz symm=none int=(grid=ultrafine) guess=(read,tcheck) s
 table=(opt,rrhf)
 ----------------------------------------------------------------------
 -----
 title
 -----
 Symbolic Z-matrix:
 Charge =  0 Multiplicity = 1

 SCF Done:  E(RHF) =  -791.399891620     A.U. after   16 cycles
 Normal termination of Gaussian 16 at Tue Apr  8 20:59:12 2025.
 Gaussian 16:  ES64L-G16RevC.01  3-Jul-2019

 ----------------------------------------------------------------------
 #t hf aug-cc-pvdz iop(5/13=1,5/36=2,99/5=2) pseudo=read geom=check gue
 ss=(read,tcheck) scf=(maxcycle=1)
 ----------------------------------------------------------------------
 -----
 title
 -----
 Structure from the checkpoint file:  "ANI1ccx_1745_conf8_mol1.chk"
 Charge =  0 Multiplicity = 1

                         Standard orientation:
 ---------------------------------------------------------------------
 Center     Atomic      Atomic             Coordinates (Angstroms)
 Number     Number       Type             X           Y           Z
 ---------------------------------------------------------------------
      1          6           0        0.452010    2.603530    0.148220
      2          6           0       -0.558436    1.637649   -0.276257
      3          6           0        1.612609    2.523871   -0.799554
      4          6           0       -1.230578   -0.655742   -0.124334
      5          6           0       -2.732188   -0.899145    0.032848
      6          6           0       -0.460329   -1.727950    0.459480
      7          6           0        1.017952   -1.487649    0.149997
      8          6           0        1.714263   -2.390499   -0.682156
      9          6           0        3.029622   -0.893891    0.220656
     10          1           0       -4.403869    0.177892    0.015032
     11          1           0        3.838903   -2.322447   -1.009700
     12          1           0        3.861971   -0.281113    0.492390
     13          1           0        1.475154   -3.433639   -1.048530
     14          1           0       -0.671163   -2.653441   -0.073580
     15          1           0       -0.686986   -1.982191    1.459010
     16          1           0       -1.174279   -0.351985   -1.118590
     17          1           0        2.345919    3.350352   -0.423489
     18          1           0        2.152980    1.613512   -1.018300
     19          1           0        1.381019    2.834651   -1.835410
     20          1           0       -0.003185    3.547010    0.069422
     21          1           0        1.369389    2.941641    2.068800
     22          1           0        1.308800    1.228991    1.565680
     23          1           0       -0.477299    0.607534    1.452840
     24          7           0        0.887461    2.189771    1.532470
     25          7           0       -0.673810    0.554509    0.460762
     26          7           0        1.852622   -0.508906    0.624917
     27          7           0        3.011503   -2.009898   -0.500596
     28          8           0       -3.322827   -1.951473    0.295920
     29          8           0       -1.058930    1.797029   -1.373300
     30          8           0       -3.484659    0.264925   -0.196599
 ---------------------------------------------------------------------

 SCF Done:  E(RHF) =  -794.987518190     A.U. after    2 cycles

 The electronic state is 1-A.
 Alpha  occ. eigenvalues --  -21.10132 -21.05623 -20.99671 -15.82108 -15.74353
 Alpha  occ. eigenvalues --  -15.73174 -15.70525 -11.55060 -11.49827 -11.49716
 Alpha  occ. eigenvalues --  -11.46744 -11.44826 -11.43272 -11.42517 -11.39311
 Alpha  occ. eigenvalues --  -11.36871  -1.79309  -1.70251  -1.63424  -1.59427
 Alpha  occ. eigenvalues --   -1.43584  -1.32059  -1.29913  -1.19163  -1.09219
 Alpha  occ. eigenvalues --   -1.08210  -0.98499  -0.92354  -0.86519  -0.81618
 Alpha  occ. eigenvalues --   -0.80871  -0.79769  -0.76170  -0.70549  -0.66039
 Alpha  occ. eigenvalues --   -0.64656  -0.63704  -0.62075  -0.59983  -0.59031
 Alpha  occ. eigenvalues --   -0.58126  -0.57686  -0.56361  -0.55496  -0.52033
 Alpha  occ. eigenvalues --   -0.51211  -0.49378  -0.48517  -0.46969  -0.45810
 Alpha  occ. eigenvalues --   -0.44302  -0.42697  -0.40619  -0.38779  -0.33508
 Alpha  occ. eigenvalues --   -0.32655  -0.31718  -0.30572  -0.27287  -0.26124
 Alpha virt. eigenvalues --    0.02811   0.04207   0.04466   0.05100   0.05532
 Alpha virt. eigenvalues --    0.05664   0.06372   0.06454   0.07236   0.07660
 Alpha virt. eigenvalues --    0.07854   0.08166   0.08593   0.09508   0.10072

 Mulliken charges:
               1
     1  C   -3.080592
     2  C    7.433835
     3  C   -3.716754
     4  C   -3.378999
     5  C    6.647927
     6  C   -3.756594
     7  C    4.436431
     8  C   -2.366946
     9  C    1.064830
    10  H    1.100456
    11  H    0.889168
    12  H    1.801851
    13  H    1.293568
    14  H    1.753475
    15  H    1.354031
    16  H    2.239226
    17  H    1.088185
    18  H    1.816430
    19  H    1.197956
    20  H    1.771643
    21  H    0.684885
    22  H    0.804528
    23  H    0.926454
    24  N   -2.932289
    25  N   -1.528339
    26  N   -3.825505
    27  N   -3.240834
    28  O   -3.189608
    29  O   -3.973754
    30  O   -3.314664
 Sum of Mulliken charges =  -0.00000

 Dipole moment (field-independent basis, Debye):
    X=              4.5647    Y=             -2.2395    Z=              0.3347  Tot=              5.0955

 Test job not archived.
 1\1\GINC-SE212\SP\RHF\Aug-CC-pVDZ\C9H14N4O3\OHZDE\08-Apr-2025\0\\#t hf
  aug-cc-pvdz iop(5/13=1,5/36=2,99/5=2) pseudo=read geom=check guess=(r
 ead,tcheck) scf=(maxcycle=1)\\title\\0,1\C,0,0.452011,2.60353,0.14822\
 C,0,-0.558436,1.63765,-0.276257\C,0,1.61261,2.52387,-0.799554\C,0,-1.2
 3058,-0.655741,-0.124334\C,0,-2.73219,-0.899143,0.0328485\C,0,-0.46033
 1,-1.72795,0.45948\C,0,1.01795,-1.48765,0.149997\C,0,1.71426,-2.3905,-
 0.682156\C,0,3.02962,-0.893893,0.220656\H,0,-4.40387,0.177895,0.015031
 9\H,0,3.8389,-2.32245,-1.0097\H,0,3.86197,-0.281116,0.49239\H,0,1.4751

 Normal termination of Gaussian 16 at Tue Apr  8 20:59:53 2025.
