 Gaussian 16, Revision C.01,

 ----------------------------------------------------------------------
 #t hf aug-cc-pvdz symm=none int=(grid=ultrafine) guess=(read,tcheck) s
 table=(opt,rrhf)
 ----------------------------------------------------------------------
 -----
 title
 -----
 Symbolic Z-matrix:
 Charge =  0 Multiplicity = 1

 SCF Done:  E(RHF) =  -444.958494174     A.U. after   15 cycles
 Normal termination of Gaussian 16 at Tue Apr  8 19:38:28 2025.
 Gaussian 16:  ES64L-G16RevC.01  3-Jul-2019

 ----------------------------------------------------------------------
 #t hf aug-cc-pvdz iop(5/13=1,5/36=2,99/5=2) pseudo=read geom=check gue
 ss=(read,tcheck) scf=(maxcycle=1)
 ----------------------------------------------------------------------
 -----
 title
 -----
 Structure from the checkpoint file:  "ANI1ccx_1374_conf16_mol2.chk"
 Charge =  0 Multiplicity = 1

                         Standard orientation:
 ---------------------------------------------------------------------
 Center     Atomic      Atomic             Coordinates (Angstroms)
 Number     Number       Type             X           Y           Z
 ---------------------------------------------------------------------
      1          6           0       -0.347940   -1.840254    0.002887
      2          6           0       -0.537629   -0.424694   -0.006413
      3          6           0       -1.902510    0.037410   -0.014191
      4          6           0        0.526166    0.437048   -0.036198
      5          6           0        0.347194    1.840430   -0.034354
      6          6           0        1.866630   -0.042930   -0.016018
      7          7           0       -0.145988   -2.974922    0.028424
      8          7           0       -3.000982    0.399978    0.000275
      9          7           0        0.227447    2.999890    0.052836
     10          7           0        2.960742   -0.430955    0.007853
 ---------------------------------------------------------------------

 SCF Done:  E(RHF) =  -446.877338906     A.U. after    2 cycles

 The electronic state is 1-A.
 Alpha  occ. eigenvalues --  -15.84629 -15.84329 -15.84246 -15.84117 -11.68115
 Alpha  occ. eigenvalues --  -11.57990 -11.52146 -11.51842 -11.50983 -11.49833
 Alpha  occ. eigenvalues --   -1.47510  -1.38321  -1.35812  -1.35451  -1.28066
 Alpha  occ. eigenvalues --   -1.11413  -0.92426  -0.81810  -0.80226  -0.65489
 Alpha  occ. eigenvalues --   -0.60328  -0.60249  -0.59495  -0.57249  -0.55712
 Alpha  occ. eigenvalues --   -0.52610  -0.51853  -0.51425  -0.51181  -0.50940
 Alpha  occ. eigenvalues --   -0.48714  -0.40020
 Alpha virt. eigenvalues --   -0.02963   0.01896   0.07396   0.08304   0.08442
 Alpha virt. eigenvalues --    0.09051   0.09285   0.09466   0.09695   0.10670
 Alpha virt. eigenvalues --    0.11008   0.12079   0.12247   0.13124   0.13191

 Mulliken charges:
               1
     1  C    0.826090
     2  C    2.527826
     3  C    0.821910
     4  C    2.988891
     5  C    0.945734
     6  C    0.851462
     7  N   -2.249265
     8  N   -2.224138
     9  N   -2.241625
    10  N   -2.246884
 Sum of Mulliken charges =  -0.00000

 Dipole moment (field-independent basis, Debye):
    X=             -0.0186    Y=              0.0466    Z=             -0.1040  Tot=              0.1154

 Test job not archived.
 1\1\GINC-SE338\SP\RHF\Aug-CC-pVDZ\C6N4\OHZDE\08-Apr-2025\0\\#t hf aug-
 cc-pvdz iop(5/13=1,5/36=2,99/5=2) pseudo=read geom=check guess=(read,t
 check) scf=(maxcycle=1)\\title\\0,1\C,0,-0.34795,-1.84025,0.00288715\C
 ,0,-0.537631,-0.424689,-0.00641283\C,0,-1.90251,0.037422,-0.0141909\C,
 0,0.526168,0.437047,-0.0361978\C,0,0.347204,1.84043,-0.0343545\C,0,1.8
 6663,-0.0429385,-0.0160176\N,0,-0.146004,-2.97492,0.0284243\N,0,-3.000
 98,0.399996,0.00027516\N,0,0.227463,2.99989,0.0528359\N,0,2.96074,-0.4
 30969,0.00785305\\Version=ES64L-G16RevC.01\State=1-A\HF=-446.8773389\R

 Normal termination of Gaussian 16 at Tue Apr  8 19:38:33 2025.
