 Gaussian 16, Revision C.01,

 ----------------------------------------------------------------------
 #t hf aug-cc-pvdz symm=none int=(grid=ultrafine) guess=(read,tcheck) s
 table=(opt,rrhf)
 ----------------------------------------------------------------------
 -----
 title
 -----
 Symbolic Z-matrix:
 Charge =  0 Multiplicity = 1

 SCF Done:  E(RHF) =  -528.200410763     A.U. after   15 cycles
 Normal termination of Gaussian 16 at Tue Apr  8 22:09:40 2025.
 Gaussian 16:  ES64L-G16RevC.01  3-Jul-2019

 ----------------------------------------------------------------------
 #t hf aug-cc-pvdz iop(5/13=1,5/36=2,99/5=2) pseudo=read geom=check gue
 ss=(read,tcheck) scf=(maxcycle=1)
 ----------------------------------------------------------------------
 -----
 title
 -----
 Structure from the checkpoint file:  "ANI1ccx_893_conf3_mol2.chk"
 Charge =  0 Multiplicity = 1

                         Standard orientation:
 ---------------------------------------------------------------------
 Center     Atomic      Atomic             Coordinates (Angstroms)
 Number     Number       Type             X           Y           Z
 ---------------------------------------------------------------------
      1          6           0       -1.853489   -0.144466   -0.029874
      2          6           0       -0.691152   -0.997731   -0.002218
      3          6           0        0.658476   -0.719606    0.013169
      4          6           0        1.474961    0.544739   -0.016446
      5          1           0       -2.576619    1.583299    0.062783
      6          1           0       -0.942306   -2.047010    0.011799
      7          1           0        2.382162   -1.444510    0.032538
      8          1           0       -0.061051    1.697830   -0.045856
      9          8           0       -1.649109    1.220820    0.016930
     10          8           0       -2.989689   -0.569254    0.004377
     11          8           0        1.472652   -1.792510   -0.006130
     12          8           0        0.916594    1.751650   -0.011513
     13          8           0        2.707681    0.403390    0.015204
 ---------------------------------------------------------------------

 SCF Done:  E(RHF) =  -530.389640146     A.U. after    2 cycles

 The electronic state is 1-A.
 Alpha  occ. eigenvalues --  -21.15834 -21.14682 -21.13282 -21.08674 -21.08084
 Alpha  occ. eigenvalues --  -11.59591 -11.56849 -11.53741 -11.44912  -1.88179
 Alpha  occ. eigenvalues --   -1.84946  -1.79097  -1.68248  -1.67319  -1.19176
 Alpha  occ. eigenvalues --   -1.00857  -0.88129  -0.80001  -0.74854  -0.66938
 Alpha  occ. eigenvalues --   -0.65058  -0.62652  -0.59326  -0.58235  -0.56816
 Alpha  occ. eigenvalues --   -0.53495  -0.50189  -0.49327  -0.42720  -0.38538
 Alpha  occ. eigenvalues --   -0.35794  -0.34873  -0.32883  -0.31626
 Alpha virt. eigenvalues --    0.03003   0.05273   0.06026   0.06509   0.07227
 Alpha virt. eigenvalues --    0.09264   0.10331   0.10453   0.11213   0.11449
 Alpha virt. eigenvalues --    0.11932   0.13523   0.13703   0.14748   0.15495

 Mulliken charges:
               1
     1  C    5.170477
     2  C   -1.190682
     3  C    3.696880
     4  C    3.973331
     5  H    0.990264
     6  H    1.333271
     7  H    1.102134
     8  H    1.675437
     9  O   -3.441665
    10  O   -3.121993
    11  O   -3.975964
    12  O   -3.326362
    13  O   -2.885126
 Sum of Mulliken charges =   0.00000

 Dipole moment (field-independent basis, Debye):
    X=              0.0303    Y=              0.7551    Z=              0.0725  Tot=              0.7591

 Test job not archived.
 1\1\GINC-SE029\SP\RHF\Aug-CC-pVDZ\C4H4O5\OHZDE\08-Apr-2025\0\\#t hf au
 g-cc-pvdz iop(5/13=1,5/36=2,99/5=2) pseudo=read geom=check guess=(read
 ,tcheck) scf=(maxcycle=1)\\title\\0,1\C,0,-1.85349,-0.144465,-0.029874
 1\C,0,-0.691153,-0.997731,-0.00221825\C,0,0.658475,-0.719606,0.0131691
 \C,0,1.47496,0.544739,-0.0164463\H,0,-2.57662,1.5833,0.0627827\H,0,-0.
 942308,-2.04701,0.0117989\H,0,2.38216,-1.44451,0.0325384\H,0,-0.061051
 8,1.69783,-0.0458561\O,0,-1.64911,1.22082,0.0169299\O,0,-2.98969,-0.56
 9253,0.00437732\O,0,1.47265,-1.79251,-0.00612958\O,0,0.916593,1.75165,

 Normal termination of Gaussian 16 at Tue Apr  8 22:09:45 2025.
