 Gaussian 16, Revision C.01,

 ----------------------------------------------------------------------
 #t hf aug-cc-pvdz symm=none int=(grid=ultrafine) guess=(read,tcheck) s
 table=(opt,rrhf)
 ----------------------------------------------------------------------
 -----
 title
 -----
 Symbolic Z-matrix:
 Charge =  0 Multiplicity = 1

 SCF Done:  E(RHF) =  -755.416340345     A.U. after   15 cycles
 Normal termination of Gaussian 16 at Tue Apr  8 19:48:38 2025.
 Gaussian 16:  ES64L-G16RevC.01  3-Jul-2019

 ----------------------------------------------------------------------
 #t hf aug-cc-pvdz iop(5/13=1,5/36=2,99/5=2) pseudo=read geom=check gue
 ss=(read,tcheck) scf=(maxcycle=1)
 ----------------------------------------------------------------------
 -----
 title
 -----
 Structure from the checkpoint file:  "ANI1ccx_1405_conf4_mol1.chk"
 Charge =  0 Multiplicity = 1

                         Standard orientation:
 ---------------------------------------------------------------------
 Center     Atomic      Atomic             Coordinates (Angstroms)
 Number     Number       Type             X           Y           Z
 ---------------------------------------------------------------------
      1          6           0        0.830405   -1.579730    0.531947
      2          6           0        0.291753   -1.216350   -0.790870
      3          6           0        0.942894   -0.392949    1.475380
      4          6           0        1.985190    0.653491    1.157620
      5          6           0        1.577531    1.621049    0.089534
      6          6           0       -2.129591   -1.023028   -0.022727
      7          6           0       -2.872800    0.345384    0.178080
      8          1           0       -1.246569    1.338861   -0.359875
      9          1           0       -2.909411   -1.757228   -0.352127
     10          1           0       -1.724141   -1.295489    0.963410
     11          1           0       -1.173551   -0.780665   -1.948290
     12          1           0        2.048082    2.706169   -1.205130
     13          1           0        2.248231    1.223249    2.083710
     14          1           0        2.943090    0.187035    0.864367
     15          1           0        1.177769   -0.818587    2.469170
     16          1           0        0.013046    0.121247    1.716860
     17          1           0        0.130967   -2.224890    1.083730
     18          1           0        1.902728   -3.168951    0.075472
     19          1           0        2.606939   -1.868692   -0.404135
     20          7           0        2.106108   -2.222981    0.412281
     21          7           0       -1.053591   -0.884445   -0.954436
     22          8           0        1.095919   -1.135191   -1.718230
     23          8           0        0.433791    1.694250   -0.326094
     24          8           0        2.562532    2.308228   -0.504822
     25          8           0       -3.984070    0.375672    0.664420
     26          8           0       -2.250309    1.462382   -0.228506
 ---------------------------------------------------------------------

 SCF Done:  E(RHF) =  -758.722649445     A.U. after    2 cycles

 The electronic state is 1-A.
 Alpha  occ. eigenvalues --  -21.15504 -21.09431 -21.07863 -21.04580 -21.04046
 Alpha  occ. eigenvalues --  -15.78316 -15.74433 -11.57575 -11.55530 -11.52894
 Alpha  occ. eigenvalues --  -11.49406 -11.46154 -11.45442 -11.41208  -1.87267
 Alpha  occ. eigenvalues --   -1.80023  -1.73448  -1.68907  -1.63410  -1.42628
 Alpha  occ. eigenvalues --   -1.38080  -1.21640  -1.09035  -1.05485  -0.95152
 Alpha  occ. eigenvalues --   -0.82155  -0.80031  -0.78312  -0.73500  -0.71056
 Alpha  occ. eigenvalues --   -0.69538  -0.69237  -0.66919  -0.64573  -0.62600
 Alpha  occ. eigenvalues --   -0.60882  -0.59238  -0.56213  -0.54639  -0.53299
 Alpha  occ. eigenvalues --   -0.51522  -0.51323  -0.50071  -0.48713  -0.47332
 Alpha  occ. eigenvalues --   -0.45325  -0.42468  -0.38523  -0.36876  -0.35077
 Alpha  occ. eigenvalues --   -0.33538  -0.31775  -0.31533  -0.27849
 Alpha virt. eigenvalues --    0.03203   0.03888   0.04437   0.04982   0.05271
 Alpha virt. eigenvalues --    0.05734   0.06058   0.06325   0.07471   0.08309
 Alpha virt. eigenvalues --    0.08957   0.09150   0.09859   0.10810   0.11522

 Mulliken charges:
               1
     1  C    0.202521
     2  C    6.016241
     3  C   -3.296265
     4  C   -3.353417
     5  C    6.177461
     6  C   -4.046132
     7  C    5.951642
     8  H    1.929217
     9  H    1.219497
    10  H    1.964016
    11  H    0.743557
    12  H    0.781967
    13  H    1.418530
    14  H    1.498550
    15  H    1.065074
    16  H    1.900638
    17  H    1.956056
    18  H    0.420179
    19  H    0.592878
    20  N   -3.249991
    21  N   -2.501301
    22  O   -3.747730
    23  O   -3.582351
    24  O   -3.470034
    25  O   -3.245552
    26  O   -3.345251
 Sum of Mulliken charges =  -0.00000

 Dipole moment (field-independent basis, Debye):
    X=              2.9385    Y=             -0.5639    Z=             -0.4396  Tot=              3.0243

 Test job not archived.
 1\1\GINC-SE179\SP\RHF\Aug-CC-pVDZ\C7H12N2O5\OHZDE\08-Apr-2025\0\\#t hf
  aug-cc-pvdz iop(5/13=1,5/36=2,99/5=2) pseudo=read geom=check guess=(r
 ead,tcheck) scf=(maxcycle=1)\\title\\0,1\C,0,0.830406,-1.57973,0.53194
 7\C,0,0.291754,-1.21635,-0.79087\C,0,0.942894,-0.392949,1.47538\C,0,1.
 98519,0.653492,1.15762\C,0,1.57753,1.62105,0.0895341\C,0,-2.12959,-1.0
 2303,-0.0227272\C,0,-2.8728,0.345382,0.17808\H,0,-1.24657,1.33886,-0.3
 59875\H,0,-2.90941,-1.75723,-0.352127\H,0,-1.72414,-1.29549,0.96341\H,
 0,-1.17355,-0.780666,-1.94829\H,0,2.04808,2.70617,-1.20513\H,0,2.24823

 Normal termination of Gaussian 16 at Tue Apr  8 19:49:05 2025.
