 Gaussian 16, Revision C.01,

 ----------------------------------------------------------------------
 #t hf aug-cc-pvdz symm=none int=(grid=ultrafine) guess=(read,tcheck) s
 table=(opt,rrhf)
 ----------------------------------------------------------------------
 -----
 title
 -----
 Symbolic Z-matrix:
 Charge =  0 Multiplicity = 1

 SCF Done:  E(RHF) =  -256.788963846     A.U. after   15 cycles
 Normal termination of Gaussian 16 at Tue Apr  8 21:35:37 2025.
 Gaussian 16:  ES64L-G16RevC.01  3-Jul-2019

 ----------------------------------------------------------------------
 #t hf aug-cc-pvdz iop(5/13=1,5/36=2,99/5=2) pseudo=read geom=check gue
 ss=(read,tcheck) scf=(maxcycle=1)
 ----------------------------------------------------------------------
 -----
 title
 -----
 Structure from the checkpoint file:  "ANI1ccx_377_conf58_mol1.chk"
 Charge =  0 Multiplicity = 1

                         Standard orientation:
 ---------------------------------------------------------------------
 Center     Atomic      Atomic             Coordinates (Angstroms)
 Number     Number       Type             X           Y           Z
 ---------------------------------------------------------------------
      1          6           0        1.075710   -0.306590    0.003554
      2          1           0        2.028392   -0.702349    0.085866
      3          1           0       -1.949558   -0.579636    0.065062
      4          7           0        0.646945    0.985560    0.002797
      5          7           0       -0.638126    0.948714   -0.016706
      6          7           0       -1.000599   -0.358432    0.020661
      7          7           0        0.058480   -1.129910   -0.031360
 ---------------------------------------------------------------------

 SCF Done:  E(RHF) =  -257.927261087     A.U. after    2 cycles

 The electronic state is 1-A.
 Alpha  occ. eigenvalues --  -15.86519 -15.82373 -15.79597 -15.78300 -11.43050
 Alpha  occ. eigenvalues --   -1.76435  -1.40032  -1.28889  -0.93766  -0.88601
 Alpha  occ. eigenvalues --   -0.77446  -0.68779  -0.63788  -0.53552  -0.43715
 Alpha  occ. eigenvalues --   -0.42269  -0.41553  -0.38516
 Alpha virt. eigenvalues --    0.03727   0.04941   0.10136   0.10840   0.11264
 Alpha virt. eigenvalues --    0.12690   0.14140   0.14813   0.16685   0.17563
 Alpha virt. eigenvalues --    0.17816   0.19293   0.19482   0.20119   0.20778

 Mulliken charges:
               1
     1  C    1.164566
     2  H    1.600005
     3  H    0.982310
     4  N   -1.634127
     5  N   -0.127259
     6  N   -0.575121
     7  N   -1.410373
 Sum of Mulliken charges =  -0.00000

 Dipole moment (field-independent basis, Debye):
    X=             -1.2705    Y=             -1.7793    Z=              0.1787  Tot=              2.1936

 Test job not archived.
 1\1\GINC-SE404\SP\RHF\Aug-CC-pVDZ\C1H2N4\OHZDE\08-Apr-2025\0\\#t hf au
 g-cc-pvdz iop(5/13=1,5/36=2,99/5=2) pseudo=read geom=check guess=(read
 ,tcheck) scf=(maxcycle=1)\\title\\0,1\C,0,1.07571,-0.306595,0.00355382
 \H,0,2.02839,-0.702359,0.0858662\H,0,-1.94956,-0.579626,0.0650624\N,0,
 0.646951,0.985557,0.00279731\N,0,-0.63812,0.948717,-0.0167056\N,0,-1.0
 006,-0.358427,0.0206613\N,0,0.0584759,-1.12991,-0.0313604\\Version=ES6
 4L-G16RevC.01\State=1-A\HF=-257.9272611\RMSD=9.928e-02\Dipole=-0.49987
 05,-0.7000249,0.070302\Quadrupole=5.1114237,-4.642079,-0.4693447,0.442

 Normal termination of Gaussian 16 at Tue Apr  8 21:35:39 2025.
