 Gaussian 16, Revision C.01,

 ----------------------------------------------------------------------
 #t hf aug-cc-pvdz symm=none int=(grid=ultrafine) guess=(read,tcheck) s
 table=(opt,rrhf)
 ----------------------------------------------------------------------
 -----
 title
 -----
 Symbolic Z-matrix:
 Charge =  0 Multiplicity = 1

 SCF Done:  E(RHF) =  -499.462899453     A.U. after   16 cycles
 Normal termination of Gaussian 16 at Tue Apr  8 21:46:10 2025.
 Gaussian 16:  ES64L-G16RevC.01  3-Jul-2019

 ----------------------------------------------------------------------
 #t hf aug-cc-pvdz iop(5/13=1,5/36=2,99/5=2) pseudo=read geom=check gue
 ss=(read,tcheck) scf=(maxcycle=1)
 ----------------------------------------------------------------------
 -----
 title
 -----
 Structure from the checkpoint file:  "ANI1ccx_508_conf1_mol1.chk"
 Charge =  0 Multiplicity = 1

                         Standard orientation:
 ---------------------------------------------------------------------
 Center     Atomic      Atomic             Coordinates (Angstroms)
 Number     Number       Type             X           Y           Z
 ---------------------------------------------------------------------
      1          6           0        0.936836    0.597822   -0.011720
      2          6           0       -1.500971   -0.183016   -0.020856
      3          1           0        1.114155    2.381601    0.828068
      4          1           0        1.216235    2.310231   -0.805586
      5          1           0       -1.068674    1.710977   -0.096979
      6          7           0        0.695134    1.977370    0.002898
      7          7           0        2.045829   -0.012535   -0.000595
      8          7           0        1.803851   -1.304898    0.018241
      9          7           0        0.535943   -1.567380   -0.006763
     10          7           0       -0.080907   -0.330061   -0.003185
     11          8           0       -1.854893    1.115846    0.018969
     12          8           0       -2.254589   -1.144485    0.005504
 ---------------------------------------------------------------------

 SCF Done:  E(RHF) =  -501.603388641     A.U. after    2 cycles

 The electronic state is 1-A.
 Alpha  occ. eigenvalues --  -21.14239 -21.08085 -15.85659 -15.84002 -15.83821
 Alpha  occ. eigenvalues --  -15.82538 -15.79004 -11.58330 -11.52933  -1.85984
 Alpha  occ. eigenvalues --   -1.77715  -1.68800  -1.46307  -1.42994  -1.27748
 Alpha  occ. eigenvalues --   -1.01075  -0.91697  -0.83518  -0.78068  -0.77194
 Alpha  occ. eigenvalues --   -0.69741  -0.67286  -0.59224  -0.58394  -0.56857
 Alpha  occ. eigenvalues --   -0.53483  -0.45952  -0.43878  -0.43359  -0.42417
 Alpha  occ. eigenvalues --   -0.41091  -0.35947  -0.33799
 Alpha virt. eigenvalues --    0.01910   0.04289   0.05645   0.07720   0.09362
 Alpha virt. eigenvalues --    0.10008   0.10935   0.11207   0.11764   0.12832
 Alpha virt. eigenvalues --    0.13249   0.13744   0.14915   0.15088   0.15584

 Mulliken charges:
               1
     1  C    4.874362
     2  C    5.741777
     3  H    0.609851
     4  H    0.566630
     5  H    1.505024
     6  N   -3.130367
     7  N   -1.840464
     8  N   -0.449557
     9  N   -0.193900
    10  N   -1.758911
    11  O   -3.033557
    12  O   -2.890889
 Sum of Mulliken charges =  -0.00000

 Dipole moment (field-independent basis, Debye):
    X=              0.1841    Y=              4.8920    Z=              0.0177  Tot=              4.8955

 Test job not archived.
 1\1\GINC-SE116\SP\RHF\Aug-CC-pVDZ\C2H3N5O2\OHZDE\08-Apr-2025\0\\#t hf
 aug-cc-pvdz iop(5/13=1,5/36=2,99/5=2) pseudo=read geom=check guess=(re
 ad,tcheck) scf=(maxcycle=1)\\title\\0,1\C,0,0.936838,0.597821,-0.01171
 97\C,0,-1.50097,-0.183013,-0.0208564\H,0,1.11416,2.3816,0.828068\H,0,1
 .21624,2.31023,-0.805586\H,0,-1.06867,1.71098,-0.096979\N,0,0.695138,1
 .97737,0.00289754\N,0,2.04583,-0.012538,-0.00059482\N,0,1.80385,-1.304
 9,0.0182413\N,0,0.535941,-1.56738,-0.00676251\N,0,-0.0809066,-0.33006,
 -0.00318528\O,0,-1.85489,1.11585,0.0189687\O,0,-2.25459,-1.14448,0.005

 Normal termination of Gaussian 16 at Tue Apr  8 21:46:17 2025.
