 Gaussian 16, Revision C.01,

 ----------------------------------------------------------------------
 #t hf aug-cc-pvdz symm=none int=(grid=ultrafine) guess=(read,tcheck) s
 table=(opt,rrhf)
 ----------------------------------------------------------------------
 -----
 title
 -----
 Symbolic Z-matrix:
 Charge =  0 Multiplicity = 1

 SCF Done:  E(RHF) =  -791.455025972     A.U. after   14 cycles
 Normal termination of Gaussian 16 at Tue Apr  8 20:52:55 2025.
 Gaussian 16:  ES64L-G16RevC.01  3-Jul-2019

 ----------------------------------------------------------------------
 #t hf aug-cc-pvdz iop(5/13=1,5/36=2,99/5=2) pseudo=read geom=check gue
 ss=(read,tcheck) scf=(maxcycle=1)
 ----------------------------------------------------------------------
 -----
 title
 -----
 Structure from the checkpoint file:  "ANI1ccx_1745_conf14_mol2.chk"
 Charge =  0 Multiplicity = 1

                         Standard orientation:
 ---------------------------------------------------------------------
 Center     Atomic      Atomic             Coordinates (Angstroms)
 Number     Number       Type             X           Y           Z
 ---------------------------------------------------------------------
      1          6           0        2.128479   -1.872291    0.133527
      2          6           0        1.514340   -0.414655    0.333164
      3          6           0        3.259279   -2.103562    1.158990
      4          6           0       -0.237398    1.151720   -0.482676
      5          6           0        0.701175    2.414570   -0.276916
      6          6           0       -1.339299    1.128141    0.582053
      7          6           0       -2.338410    0.089418    0.262984
      8          6           0       -3.453100   -0.259961    0.944262
      9          6           0       -3.144811   -1.503927   -0.815055
     10          1           0        2.326182    3.100849   -0.949813
     11          1           0       -4.808601   -1.825186    0.417101
     12          1           0       -3.238421   -2.332177   -1.522100
     13          1           0       -3.875070    0.152198    1.820540
     14          1           0       -1.834488    2.043312    0.662621
     15          1           0       -0.925270    0.932596    1.597850
     16          1           0       -0.720972    1.267241   -1.531670
     17          1           0        2.934069   -1.983472    2.231780
     18          1           0        3.984739   -1.369443    1.006990
     19          1           0        3.794108   -3.100732    0.995848
     20          1           0        1.370608   -2.569041    0.321477
     21          1           0        3.266419   -1.316962   -1.499430
     22          1           0        1.957769   -2.321971   -1.869550
     23          1           0        0.208597   -0.866314   -1.211720
     24          7           0        2.704949   -2.148592   -1.155500
     25          7           0        0.545012   -0.081582   -0.614463
     26          7           0       -2.136250   -0.727109   -0.834928
     27          7           0       -3.992911   -1.301677    0.237321
     28          8           0        0.354348    3.410430    0.348993
     29          8           0        1.935750    0.328949    1.202930
     30          8           0        1.856552    2.288759   -0.919295
 ---------------------------------------------------------------------

 SCF Done:  E(RHF) =  -795.046031720     A.U. after    2 cycles

 The electronic state is 1-A.
 Alpha  occ. eigenvalues --  -21.12160 -21.04092 -21.02283 -15.81046 -15.75073
 Alpha  occ. eigenvalues --  -15.73513 -15.72540 -11.53315 -11.50721 -11.49376
 Alpha  occ. eigenvalues --  -11.45811 -11.44396 -11.43316 -11.42997 -11.37525
 Alpha  occ. eigenvalues --  -11.35822  -1.82349  -1.69758  -1.64330  -1.58716
 Alpha  occ. eigenvalues --   -1.39753  -1.33833  -1.29559  -1.17690  -1.07903
 Alpha  occ. eigenvalues --   -1.06350  -0.97304  -0.90072  -0.86700  -0.81604
 Alpha  occ. eigenvalues --   -0.79665  -0.76756  -0.72989  -0.71382  -0.67106
 Alpha  occ. eigenvalues --   -0.65146  -0.63066  -0.61530  -0.60383  -0.58458
 Alpha  occ. eigenvalues --   -0.58271  -0.57294  -0.54656  -0.52933  -0.52226
 Alpha  occ. eigenvalues --   -0.51331  -0.49115  -0.48574  -0.47370  -0.46227
 Alpha  occ. eigenvalues --   -0.44478  -0.42929  -0.41347  -0.38732  -0.37887
 Alpha  occ. eigenvalues --   -0.33335  -0.31244  -0.30721  -0.28273  -0.25984
 Alpha virt. eigenvalues --    0.02800   0.04062   0.04434   0.04907   0.05346
 Alpha virt. eigenvalues --    0.05734   0.05990   0.06532   0.07072   0.07287
 Alpha virt. eigenvalues --    0.07787   0.08094   0.08856   0.09359   0.09889

 Mulliken charges:
               1
     1  C   -2.550032
     2  C    6.594538
     3  C   -3.905112
     4  C   -4.303266
     5  C    7.531379
     6  C   -2.254224
     7  C    6.571092
     8  C   -3.682978
     9  C    1.124886
    10  H    1.158381
    11  H    0.890028
    12  H    1.733398
    13  H    1.253063
    14  H    1.327867
    15  H    1.283743
    16  H    2.006784
    17  H    1.262771
    18  H    1.374409
    19  H    1.132923
    20  H    2.185602
    21  H    0.570437
    22  H    0.559099
    23  H    0.863453
    24  N   -2.621973
    25  N   -2.376888
    26  N   -3.904461
    27  N   -3.185266
    28  O   -3.296311
    29  O   -3.539723
    30  O   -3.803622
 Sum of Mulliken charges =   0.00000

 Dipole moment (field-independent basis, Debye):
    X=             -4.3856    Y=             -2.2517    Z=             -0.8420  Tot=              5.0012

 Test job not archived.
 1\1\GINC-SE461\SP\RHF\Aug-CC-pVDZ\C9H14N4O3\OHZDE\08-Apr-2025\0\\#t hf
  aug-cc-pvdz iop(5/13=1,5/36=2,99/5=2) pseudo=read geom=check guess=(r
 ead,tcheck) scf=(maxcycle=1)\\title\\0,1\C,0,2.12848,-1.87229,0.133527
 \C,0,1.51434,-0.414654,0.333164\C,0,3.25928,-2.10356,1.15899\C,0,-0.23
 7399,1.15172,-0.482676\C,0,0.701173,2.41457,-0.276916\C,0,-1.3393,1.12
 814,0.582053\C,0,-2.33841,0.089416,0.262984\C,0,-3.4531,-0.259964,0.94
 4262\C,0,-3.14481,-1.50393,-0.815055\H,0,2.32618,3.10085,-0.949813\H,0
 ,-4.8086,-1.82519,0.417101\H,0,-3.23842,-2.33218,-1.5221\H,0,-3.87507,

 Normal termination of Gaussian 16 at Tue Apr  8 20:53:32 2025.
