 Gaussian 16, Revision C.01,

 ----------------------------------------------------------------------
 #t hf aug-cc-pvdz symm=none int=(grid=ultrafine) guess=(read,tcheck) s
 table=(opt,rrhf)
 ----------------------------------------------------------------------
 -----
 title
 -----
 Symbolic Z-matrix:
 Charge =  0 Multiplicity = 1

 SCF Done:  E(RHF) =  -456.229193556     A.U. after   11 cycles
 Normal termination of Gaussian 16 at Tue Apr  8 21:09:51 2025.
 Gaussian 16:  ES64L-G16RevC.01  3-Jul-2019

 ----------------------------------------------------------------------
 #t hf aug-cc-pvdz iop(5/13=1,5/36=2,99/5=2) pseudo=read geom=check gue
 ss=(read,tcheck) scf=(maxcycle=1)
 ----------------------------------------------------------------------
 -----
 title
 -----
 Structure from the checkpoint file:  "ANI1ccx_1844_conf347_mol1.chk"
 Charge =  0 Multiplicity = 1

                         Standard orientation:
 ---------------------------------------------------------------------
 Center     Atomic      Atomic             Coordinates (Angstroms)
 Number     Number       Type             X           Y           Z
 ---------------------------------------------------------------------
      1          1           0       -0.026506   -0.204029    1.755000
      2          1           0       -1.789544   -0.646531   -0.986285
      3          1           0       -1.457599   -2.223783   -1.497100
      4          1           0        1.916026   -0.589829    0.621007
      5          1           0        1.472082    0.887414    1.005620
      6          1           0       -0.035384    1.920230   -0.720333
      7          1           0       -1.109208   -1.233350    1.151520
      8          1           0        1.457247    2.538084   -0.914932
      9          1           0        1.562373   -0.314733   -1.266980
     10          1           0        0.650419   -1.512514   -0.886239
     11          1           0       -2.194189    2.113890   -0.033427
     12          1           0       -1.404486    0.745071    0.497752
     13          8           0        1.608791   -0.016533    1.411600
     14          8           0        1.579372   -1.247575   -0.963562
     15          8           0       -1.328386   -1.487482   -0.754180
     16          8           0        0.932867    1.625549   -0.821232
     17          8           0       -1.019226   -0.380873    1.642960
     18          8           0       -1.653572    1.321925   -0.356287
 ---------------------------------------------------------------------

 SCF Done:  E(RHF) =  -458.225439724     A.U. after    2 cycles

 The electronic state is 1-A.
 Alpha  occ. eigenvalues --  -21.10577 -21.08760 -21.08171 -21.07456 -21.05505
 Alpha  occ. eigenvalues --  -21.05011  -1.68056  -1.66166  -1.66047  -1.64226
 Alpha  occ. eigenvalues --   -1.62720  -1.60490  -0.67119  -0.64154  -0.63207
 Alpha  occ. eigenvalues --   -0.63023  -0.62107  -0.60273  -0.51263  -0.50869
 Alpha  occ. eigenvalues --   -0.48630  -0.46857  -0.44504  -0.41482  -0.36913
 Alpha  occ. eigenvalues --   -0.35981  -0.35067  -0.32818  -0.32536  -0.29817
 Alpha virt. eigenvalues --    0.03293   0.03970   0.04569   0.06953   0.07319
 Alpha virt. eigenvalues --    0.07601   0.07862   0.08574   0.08732   0.10384
 Alpha virt. eigenvalues --    0.10688   0.11158   0.17810   0.18581   0.19949

 Mulliken charges:
               1
     1  H    1.441964
     2  H    1.202141
     3  H    0.947938
     4  H    1.316849
     5  H    1.208455
     6  H    1.605080
     7  H    1.206350
     8  H    0.861157
     9  H    1.202671
    10  H    1.446488
    11  H    0.761590
    12  H    1.708984
    13  O   -2.567772
    14  O   -2.484383
    15  O   -2.447244
    16  O   -2.517152
    17  O   -2.695885
    18  O   -2.197230
 Sum of Mulliken charges =  -0.00000

 Dipole moment (field-independent basis, Debye):
    X=             -1.5002    Y=              0.8697    Z=             -1.4951  Tot=              2.2896

 Test job not archived.
 1\1\GINC-SE038\SP\RHF\Aug-CC-pVDZ\H12O6\OHZDE\08-Apr-2025\0\\#t hf aug
 -cc-pvdz iop(5/13=1,5/36=2,99/5=2) pseudo=read geom=check guess=(read,
 tcheck) scf=(maxcycle=1)\\title\\0,1\H,0,-0.0265078,-0.204029,1.755\H,
 0,-1.78955,-0.646515,-0.986285\H,0,-1.45762,-2.22377,-1.4971\H,0,1.916
 02,-0.589847,0.621007\H,0,1.47209,0.8874,1.00562\H,0,-0.0353667,1.9202
 3,-0.720333\H,0,-1.10922,-1.23334,1.15152\H,0,1.45727,2.53807,-0.91493
 2\H,0,1.56237,-0.314748,-1.26698\H,0,0.650405,-1.51252,-0.886239\H,0,-
 2.19417,2.11391,-0.0334275\H,0,-1.40448,0.745084,0.497752\O,0,1.60879,

 Normal termination of Gaussian 16 at Tue Apr  8 21:09:56 2025.
