 Gaussian 16, Revision C.01,

 ----------------------------------------------------------------------
 #t hf aug-cc-pvdz symm=none int=(grid=ultrafine) guess=(read,tcheck) s
 table=(opt,rrhf)
 ----------------------------------------------------------------------
 -----
 title
 -----
 Symbolic Z-matrix:
 Charge =  0 Multiplicity = 1

 SCF Done:  E(RHF) =  -849.428610202     A.U. after   14 cycles
 Normal termination of Gaussian 16 at Tue Apr  8 20:36:47 2025.
 Gaussian 16:  ES64L-G16RevC.01  3-Jul-2019

 ----------------------------------------------------------------------
 #t hf aug-cc-pvdz iop(5/13=1,5/36=2,99/5=2) pseudo=read geom=check gue
 ss=(read,tcheck) scf=(maxcycle=1)
 ----------------------------------------------------------------------
 -----
 title
 -----
 Structure from the checkpoint file:  "ANI1ccx_1611_conf15_mol1.chk"
 Charge =  0 Multiplicity = 1

                         Standard orientation:
 ---------------------------------------------------------------------
 Center     Atomic      Atomic             Coordinates (Angstroms)
 Number     Number       Type             X           Y           Z
 ---------------------------------------------------------------------
      1          6           0       -2.212009   -0.253271    0.877839
      2          6           0       -1.038769   -0.956284    0.149916
      3          6           0       -3.414779    0.031445   -0.044247
      4          6           0       -3.128139    1.022740   -1.170520
      5          6           0        1.203381    0.331702    0.877332
      6          6           0        1.341581    1.473080   -0.125002
      7          6           0        2.565941   -0.246252    1.273020
      8          6           0        3.187301   -0.838079    0.059321
      9          1           0        0.353511    2.719620   -1.170460
     10          1           0        4.534421   -0.970772   -1.246640
     11          1           0        4.631741    0.573882   -0.658283
     12          1           0        3.228711    0.524802    1.607990
     13          1           0        2.377601   -1.081480    1.961010
     14          1           0        0.716515    0.632016    1.830730
     15          1           0        0.730022   -1.282740   -0.410305
     16          1           0       -4.134029    1.304701   -1.440190
     17          1           0       -2.598869    0.407812   -1.950090
     18          1           0       -2.562629    1.798350   -0.734354
     19          1           0       -3.064149   -1.724290   -0.608748
     20          1           0       -4.362409    0.389076    0.501001
     21          1           0       -2.516679   -1.003330    1.611850
     22          1           0       -2.613959    1.782380    1.206790
     23          1           0       -1.943339    1.058380    2.526410
     24          7           0       -2.001989    0.974503    1.520260
     25          7           0        0.267664   -0.591779    0.190034
     26          7           0        4.178391   -0.312429   -0.630778
     27          8           0       -1.341129   -1.842410   -0.668475
     28          8           0       -3.917119   -1.230810   -0.480459
     29          8           0        2.334551    1.807300   -0.693093
     30          8           0        2.682201   -1.880650   -0.368415
     31          8           0        0.127502    2.020200   -0.535716
 ---------------------------------------------------------------------

 SCF Done:  E(RHF) =  -853.207313135     A.U. after    2 cycles

 The electronic state is 1-A.
 Alpha  occ. eigenvalues --  -21.12189 -21.08379 -21.02347 -21.01957 -21.01378
 Alpha  occ. eigenvalues --  -15.79158 -15.76501 -15.73597 -11.57341 -11.53695
 Alpha  occ. eigenvalues --  -11.53061 -11.50546 -11.47377 -11.44564 -11.42995
 Alpha  occ. eigenvalues --  -11.36367  -1.84056  -1.73403  -1.72005  -1.67277
 Alpha  occ. eigenvalues --   -1.66436  -1.41242  -1.36496  -1.36204  -1.19613
 Alpha  occ. eigenvalues --   -1.11051  -1.03656  -1.01390  -0.86396  -0.85579
 Alpha  occ. eigenvalues --   -0.80769  -0.78390  -0.72936  -0.71312  -0.70902
 Alpha  occ. eigenvalues --   -0.68247  -0.65163  -0.64768  -0.62540  -0.61265
 Alpha  occ. eigenvalues --   -0.60126  -0.57592  -0.57194  -0.55735  -0.54452
 Alpha  occ. eigenvalues --   -0.53945  -0.51536  -0.50360  -0.49113  -0.47375
 Alpha  occ. eigenvalues --   -0.47092  -0.46065  -0.45349  -0.39171  -0.36220
 Alpha  occ. eigenvalues --   -0.35839  -0.33925  -0.32115  -0.29966  -0.29138
 Alpha  occ. eigenvalues --   -0.27166  -0.26164
 Alpha virt. eigenvalues --    0.02992   0.03961   0.04052   0.04380   0.04837
 Alpha virt. eigenvalues --    0.05437   0.05683   0.06412   0.06746   0.07067
 Alpha virt. eigenvalues --    0.07759   0.08339   0.09248   0.09589   0.10575

 Mulliken charges:
               1
     1  C   -1.276348
     2  C    5.118464
     3  C    2.367706
     4  C   -4.535558
     5  C   -2.929690
     6  C    7.123762
     7  C   -4.195189
     8  C    6.746116
     9  H    0.987780
    10  H    0.680422
    11  H    0.776434
    12  H    1.369500
    13  H    1.335403
    14  H    2.245673
    15  H    0.618027
    16  H    1.072310
    17  H    1.267813
    18  H    1.515466
    19  H    1.034645
    20  H    1.453827
    21  H    1.942264
    22  H    0.557863
    23  H    0.670125
    24  N   -3.002005
    25  N   -2.325113
    26  N   -3.613873
    27  O   -3.556351
    28  O   -3.360159
    29  O   -3.367976
    30  O   -3.582423
    31  O   -3.138917
 Sum of Mulliken charges =  -0.00000

 Dipole moment (field-independent basis, Debye):
    X=              3.1666    Y=              3.6036    Z=              2.1484  Tot=              5.2563

 Test job not archived.
 1\1\GINC-SE016\SP\RHF\Aug-CC-pVDZ\C8H15N3O5\OHZDE\08-Apr-2025\0\\#t hf
  aug-cc-pvdz iop(5/13=1,5/36=2,99/5=2) pseudo=read geom=check guess=(r
 ead,tcheck) scf=(maxcycle=1)\\title\\0,1\C,0,-2.21201,-0.253271,0.8778
 39\C,0,-1.03877,-0.956284,0.149916\C,0,-3.41478,0.0314447,-0.0442472\C
 ,0,-3.12814,1.02274,-1.17052\C,0,1.20338,0.331702,0.877332\C,0,1.34158
 ,1.47308,-0.125002\C,0,2.56594,-0.246252,1.27302\C,0,3.1873,-0.838078,
 0.0593207\H,0,0.35351,2.71962,-1.17046\H,0,4.53442,-0.970771,-1.24664\
 H,0,4.63174,0.573883,-0.658283\H,0,3.22871,0.524803,1.60799\H,0,2.3776

 Normal termination of Gaussian 16 at Tue Apr  8 20:37:37 2025.
