 Gaussian 16, Revision C.01,

 ----------------------------------------------------------------------
 #t hf aug-cc-pvdz symm=none int=(grid=ultrafine) guess=(read,tcheck) s
 table=(opt,rrhf)
 ----------------------------------------------------------------------
 -----
 title
 -----
 Symbolic Z-matrix:
 Charge =  0 Multiplicity = 1

 SCF Done:  E(RHF) =  -409.825793417     A.U. after   14 cycles
 Normal termination of Gaussian 16 at Tue Apr  8 21:55:10 2025.
 Gaussian 16:  ES64L-G16RevC.01  3-Jul-2019

 ----------------------------------------------------------------------
 #t hf aug-cc-pvdz iop(5/13=1,5/36=2,99/5=2) pseudo=read geom=check gue
 ss=(read,tcheck) scf=(maxcycle=1)
 ----------------------------------------------------------------------
 -----
 title
 -----
 Structure from the checkpoint file:  "ANI1ccx_727_conf2_mol1.chk"
 Charge =  0 Multiplicity = 1

                         Standard orientation:
 ---------------------------------------------------------------------
 Center     Atomic      Atomic             Coordinates (Angstroms)
 Number     Number       Type             X           Y           Z
 ---------------------------------------------------------------------
      1          6           0       -1.102129   -0.339857    0.041622
      2          6           0        1.203901   -0.521033   -0.029050
      3          6           0        0.194108    1.671172    0.180268
      4          1           0       -2.486655   -1.838736    0.106979
      5          1           0       -3.110899   -0.237297    0.176930
      6          1           0        2.310727    1.217637   -0.084052
      7          1           0        0.189916    1.846752    1.258440
      8          1           0        0.308868    2.664132   -0.255841
      9          1           0       -1.561163    1.256117   -1.015970
     10          7           0       -2.342578   -0.813970   -0.083381
     11          7           0       -0.028535   -1.064719    0.240883
     12          7           0        1.327118    0.870505   -0.102166
     13          7           0       -1.107883    1.010568   -0.128758
     14          8           0        2.204633   -1.223373   -0.103696
 ---------------------------------------------------------------------

 SCF Done:  E(RHF) =  -411.653725965     A.U. after    2 cycles

 The electronic state is 1-A.
 Alpha  occ. eigenvalues --  -20.99190 -15.79854 -15.77881 -15.74616 -15.70737
 Alpha  occ. eigenvalues --  -11.51405 -11.47594 -11.45004  -1.68825  -1.55897
 Alpha  occ. eigenvalues --   -1.40013  -1.30769  -1.27627  -0.99777  -0.90957
 Alpha  occ. eigenvalues --   -0.77813  -0.73700  -0.70874  -0.68726  -0.64121
 Alpha  occ. eigenvalues --   -0.60778  -0.59023  -0.55692  -0.49954  -0.46807
 Alpha  occ. eigenvalues --   -0.40898  -0.36655  -0.33943  -0.28655  -0.26701
 Alpha virt. eigenvalues --    0.02659   0.03858   0.04825   0.05523   0.06159
 Alpha virt. eigenvalues --    0.06587   0.10137   0.10422   0.11681   0.11758
 Alpha virt. eigenvalues --    0.13248   0.13372   0.14349   0.15135   0.15206

 Mulliken charges:
               1
     1  C    4.729650
     2  C    5.285015
     3  C   -1.575922
     4  H    0.607800
     5  H    0.623332
     6  H    0.637600
     7  H    1.456329
     8  H    1.461450
     9  H    0.612067
    10  N   -2.868913
    11  N   -2.968887
    12  N   -2.293951
    13  N   -2.505528
    14  O   -3.200042
 Sum of Mulliken charges =   0.00000

 Dipole moment (field-independent basis, Debye):
    X=             -4.5934    Y=              3.8933    Z=             -0.2957  Tot=              6.0286

 Test job not archived.
 1\1\GINC-SE126\SP\RHF\Aug-CC-pVDZ\C3H6N4O1\OHZDE\08-Apr-2025\0\\#t hf
 aug-cc-pvdz iop(5/13=1,5/36=2,99/5=2) pseudo=read geom=check guess=(re
 ad,tcheck) scf=(maxcycle=1)\\title\\0,1\C,0,-1.10213,-0.339855,0.04162
 17\C,0,1.2039,-0.521037,-0.0290502\C,0,0.194113,1.67117,0.180268\H,0,-
 2.48666,-1.83873,0.106979\H,0,-3.1109,-0.23729,0.17693\H,0,2.31073,1.2
 1763,-0.0840522\H,0,0.189921,1.84675,1.25844\H,0,0.308875,2.66413,-0.2
 55841\H,0,-1.56116,1.25612,-1.01597\N,0,-2.34258,-0.813965,-0.0833811\
 N,0,-0.0285375,-1.06472,0.240883\N,0,1.32712,0.8705,-0.102166\N,0,-1.1

 Normal termination of Gaussian 16 at Tue Apr  8 21:55:15 2025.
