 Gaussian 16, Revision C.01,

 ----------------------------------------------------------------------
 #t hf aug-cc-pvdz symm=none int=(grid=ultrafine) guess=(read,tcheck) s
 table=(opt,rrhf)
 ----------------------------------------------------------------------
 -----
 title
 -----
 Symbolic Z-matrix:
 Charge =  0 Multiplicity = 1

 SCF Done:  E(RHF) =  -513.862266383     A.U. after   14 cycles
 Normal termination of Gaussian 16 at Tue Apr  8 19:29:37 2025.
 Gaussian 16:  ES64L-G16RevC.01  3-Jul-2019

 ----------------------------------------------------------------------
 #t hf aug-cc-pvdz iop(5/13=1,5/36=2,99/5=2) pseudo=read geom=check gue
 ss=(read,tcheck) scf=(maxcycle=1)
 ----------------------------------------------------------------------
 -----
 title
 -----
 Structure from the checkpoint file:  "ANI1ccx_1231_conf1_mol1.chk"
 Charge =  0 Multiplicity = 1

                         Standard orientation:
 ---------------------------------------------------------------------
 Center     Atomic      Atomic             Coordinates (Angstroms)
 Number     Number       Type             X           Y           Z
 ---------------------------------------------------------------------
      1          6           0        0.814446    0.467851    0.417465
      2          6           0        0.029058    1.068770   -0.845099
      3          6           0       -1.386210    1.423170   -0.527523
      4          6           0       -2.424400    0.278021   -0.574911
      5          6           0       -2.402530   -0.537897    0.743944
      6          6           0        1.759200   -0.639456   -0.123762
      7          1           0        0.197595   -1.591860   -0.337179
      8          1           0       -1.546300   -2.320380    0.999085
      9          1           0       -2.104150    0.068765    1.598340
     10          1           0       -3.352370   -1.089300    0.895250
     11          1           0       -2.265900   -0.398046   -1.408570
     12          1           0       -3.380700    0.815351   -0.685377
     13          1           0       -1.420640    1.927820    0.452649
     14          1           0        0.519071    1.962210   -1.292160
     15          1           0        0.011992    0.285324   -1.572530
     16          1           0        0.092495   -0.002310    1.092050
     17          1           0        2.431800    1.576120    0.588383
     18          1           0        1.113970    2.397840    1.100390
     19          1           0       -1.691910    2.307000   -1.170660
     20          7           0        1.595450    1.500660    1.137560
     21          8           0        1.153040   -1.682120   -0.661130
     22          8           0       -1.352510   -1.469470    0.512223
     23          8           0        2.935660   -0.449150   -0.196503
 ---------------------------------------------------------------------

 SCF Done:  E(RHF) =  -516.211700498     A.U. after    2 cycles

 The electronic state is 1-A.
 Alpha  occ. eigenvalues --  -21.10004 -21.09779 -21.02811 -15.72324 -11.51051
 Alpha  occ. eigenvalues --  -11.47766 -11.47261 -11.43360 -11.40487 -11.36926
 Alpha  occ. eigenvalues --   -1.81552  -1.75470  -1.64360  -1.34195  -1.22784
 Alpha  occ. eigenvalues --   -1.09144  -0.99322  -0.91172  -0.84145  -0.76666
 Alpha  occ. eigenvalues --   -0.70961  -0.70091  -0.65985  -0.63253  -0.61747
 Alpha  occ. eigenvalues --   -0.61321  -0.57482  -0.55963  -0.54083  -0.50301
 Alpha  occ. eigenvalues --   -0.49957  -0.48044  -0.47015  -0.45449  -0.43848
 Alpha  occ. eigenvalues --   -0.40077  -0.36171  -0.33655  -0.31890  -0.27644
 Alpha virt. eigenvalues --    0.02856   0.04095   0.04227   0.04812   0.04992
 Alpha virt. eigenvalues --    0.05225   0.05922   0.06860   0.07418   0.08435
 Alpha virt. eigenvalues --    0.08724   0.09298   0.09935   0.11555   0.12089

 Mulliken charges:
               1
     1  C   -0.478276
     2  C   -3.105290
     3  C   -2.900296
     4  C   -2.981102
     5  C   -1.688836
     6  C    6.255423
     7  H    1.625399
     8  H    0.808424
     9  H    1.591869
    10  H    1.333257
    11  H    1.292710
    12  H    1.374626
    13  H    1.730605
    14  H    1.174398
    15  H    2.038436
    16  H    2.243496
    17  H    0.468838
    18  H    0.565712
    19  H    1.178694
    20  N   -3.188092
    21  O   -3.386188
    22  O   -2.517342
    23  O   -3.436466
 Sum of Mulliken charges =   0.00000

 Dipole moment (field-independent basis, Debye):
    X=             -4.7424    Y=              0.1735    Z=             -0.1940  Tot=              4.7496

 Test job not archived.
 1\1\GINC-SE099\SP\RHF\Aug-CC-pVDZ\C6H13N1O3\OHZDE\08-Apr-2025\0\\#t hf
  aug-cc-pvdz iop(5/13=1,5/36=2,99/5=2) pseudo=read geom=check guess=(r
 ead,tcheck) scf=(maxcycle=1)\\title\\0,1\C,0,0.814446,0.467851,0.41746
 5\C,0,0.0290577,1.06877,-0.845099\C,0,-1.38621,1.42317,-0.527523\C,0,-
 2.4244,0.278021,-0.574911\C,0,-2.40253,-0.537897,0.743944\C,0,1.7592,-
 0.639456,-0.123762\H,0,0.197595,-1.59186,-0.337179\H,0,-1.5463,-2.3203
 8,0.999085\H,0,-2.10415,0.0687649,1.59834\H,0,-3.35237,-1.0893,0.89525
 \H,0,-2.2659,-0.398046,-1.40857\H,0,-3.3807,0.81535,-0.685377\H,0,-1.4

 Normal termination of Gaussian 16 at Tue Apr  8 19:29:52 2025.
