 Gaussian 16, Revision C.01,

 ----------------------------------------------------------------------
 #t hf aug-cc-pvdz symm=none int=(grid=ultrafine) guess=(read,tcheck) s
 table=(opt,rrhf)
 ----------------------------------------------------------------------
 -----
 title
 -----
 Symbolic Z-matrix:
 Charge =  0 Multiplicity = 1

 SCF Done:  E(RHF) =  -314.143089842     A.U. after   13 cycles
 Normal termination of Gaussian 16 at Tue Apr  8 21:40:56 2025.
 Gaussian 16:  ES64L-G16RevC.01  3-Jul-2019

 ----------------------------------------------------------------------
 #t hf aug-cc-pvdz iop(5/13=1,5/36=2,99/5=2) pseudo=read geom=check gue
 ss=(read,tcheck) scf=(maxcycle=1)
 ----------------------------------------------------------------------
 -----
 title
 -----
 Structure from the checkpoint file:  "ANI1ccx_445_conf1_mol1.chk"
 Charge =  0 Multiplicity = 1

                         Standard orientation:
 ---------------------------------------------------------------------
 Center     Atomic      Atomic             Coordinates (Angstroms)
 Number     Number       Type             X           Y           Z
 ---------------------------------------------------------------------
      1          6           0        0.015301    0.105457   -0.032771
      2          1           0       -3.022360   -0.086322   -0.641609
      3          1           0       -2.584580   -0.088287    1.084000
      4          1           0       -1.133700   -1.510830    0.483555
      5          1           0       -0.848049    1.721490   -0.008857
      6          1           0        1.080800   -1.449720   -0.691571
      7          1           0        2.211830    0.951092   -0.233552
      8          1           0        2.706730    0.081684    0.988733
      9          7           0       -2.307130    0.092796    0.114076
     10          7           0       -1.143100   -0.687736   -0.172539
     11          7           0        0.147591    1.370000   -0.092366
     12          7           0        1.099890   -0.736721    0.011450
     13          7           0        2.416680   -0.074317    0.027368
 ---------------------------------------------------------------------

 SCF Done:  E(RHF) =  -315.597444010     A.U. after    2 cycles

 The electronic state is 1-A.
 Alpha  occ. eigenvalues --  -15.77768 -15.77184 -15.75618 -15.74609 -15.70077
 Alpha  occ. eigenvalues --  -11.45207  -1.55376  -1.43532  -1.27864  -1.16949
 Alpha  occ. eigenvalues --   -1.06180  -0.80078  -0.73829  -0.70326  -0.64825
 Alpha  occ. eigenvalues --   -0.63615  -0.56952  -0.55398  -0.50768  -0.41628
 Alpha  occ. eigenvalues --   -0.40247  -0.38519  -0.35304  -0.32763
 Alpha virt. eigenvalues --    0.03317   0.05066   0.05389   0.05822   0.06879
 Alpha virt. eigenvalues --    0.07505   0.08186   0.11559   0.14035   0.14425
 Alpha virt. eigenvalues --    0.15031   0.15912   0.17134   0.17676   0.17923

 Mulliken charges:
               1
     1  C    4.928411
     2  H    0.715017
     3  H    0.611466
     4  H    0.644667
     5  H    0.680065
     6  H    0.720847
     7  H    0.544597
     8  H    0.698715
     9  N   -1.754923
    10  N   -1.482628
    11  N   -2.728737
    12  N   -1.777464
    13  N   -1.800035
 Sum of Mulliken charges =  -0.00000

 Dipole moment (field-independent basis, Debye):
    X=             -2.8320    Y=             -2.0421    Z=              1.0712  Tot=              3.6521

 Test job not archived.
 1\1\GINC-SE402\SP\RHF\Aug-CC-pVDZ\C1H7N5\OHZDE\08-Apr-2025\0\\#t hf au
 g-cc-pvdz iop(5/13=1,5/36=2,99/5=2) pseudo=read geom=check guess=(read
 ,tcheck) scf=(maxcycle=1)\\title\\0,1\C,0,0.0153009,0.105457,-0.032770
 7\H,0,-3.02236,-0.0863225,-0.641609\H,0,-2.58458,-0.0882874,1.084\H,0,
 -1.1337,-1.51083,0.483555\H,0,-0.848049,1.72149,-0.00885744\H,0,1.0808
 ,-1.44972,-0.691571\H,0,2.21183,0.951093,-0.233552\H,0,2.70673,0.08168
 44,0.988733\N,0,-2.30713,0.0927962,0.114076\N,0,-1.1431,-0.687736,-0.1
 72539\N,0,0.147591,1.37,-0.0923659\N,0,1.09989,-0.736721,0.0114505\N,0

 Normal termination of Gaussian 16 at Tue Apr  8 21:40:59 2025.
