 Gaussian 16, Revision C.01,

 ----------------------------------------------------------------------
 #t hf aug-cc-pvdz symm=none int=(grid=ultrafine) guess=(read,tcheck) s
 table=(opt,rrhf)
 ----------------------------------------------------------------------
 -----
 title
 -----
 Symbolic Z-matrix:
 Charge =  0 Multiplicity = 1

 SCF Done:  E(RHF) =  -567.738732105     A.U. after   14 cycles
 Normal termination of Gaussian 16 at Tue Apr  8 19:28:56 2025.
 Gaussian 16:  ES64L-G16RevC.01  3-Jul-2019

 ----------------------------------------------------------------------
 #t hf aug-cc-pvdz iop(5/13=1,5/36=2,99/5=2) pseudo=read geom=check gue
 ss=(read,tcheck) scf=(maxcycle=1)
 ----------------------------------------------------------------------
 -----
 title
 -----
 Structure from the checkpoint file:  "ANI1ccx_1213_conf1_mol1.chk"
 Charge =  0 Multiplicity = 1

                         Standard orientation:
 ---------------------------------------------------------------------
 Center     Atomic      Atomic             Coordinates (Angstroms)
 Number     Number       Type             X           Y           Z
 ---------------------------------------------------------------------
      1          6           0        1.246539    0.441189    0.462334
      2          6           0        1.070511   -0.618153   -0.637658
      3          6           0        1.636678    1.782813   -0.202377
      4          6           0       -1.424739   -0.911609   -0.085189
      5          6           0       -1.752241    0.533987    0.119608
      6          6           0       -1.337838   -1.779930    1.174460
      7          1           0       -2.230632    1.983239   -1.013780
      8          1           0       -0.282158   -1.900949    1.393720
      9          1           0       -1.888789   -1.384891    2.073040
     10          1           0       -1.586997   -2.695691    0.882658
     11          1           0       -2.288399   -1.331601   -0.662590
     12          1           0       -0.353713   -1.310769   -1.802410
     13          1           0        0.745929    2.056862   -0.937853
     14          1           0        1.646057    2.631963    0.516120
     15          1           0        2.566858    1.725534   -0.735891
     16          1           0        0.347958    0.437009    0.998328
     17          1           0        2.746629    0.614877    1.906860
     18          1           0        3.087330   -0.254636    0.616384
     19          7           0        2.315810   -0.077741    1.271420
     20          7           0       -0.268610   -0.950753   -0.898739
     21          8           0        2.037311   -1.082077   -1.243240
     22          8           0       -1.605451    1.294339    1.032600
     23          8           0       -2.116101    1.030079   -1.143160
 ---------------------------------------------------------------------

 SCF Done:  E(RHF) =  -570.308111110     A.U. after    2 cycles

 The electronic state is 1-A.
 Alpha  occ. eigenvalues --  -21.11921 -21.08109 -21.03882 -15.77170 -15.72238
 Alpha  occ. eigenvalues --  -11.56327 -11.52676 -11.48325 -11.43309 -11.40208
 Alpha  occ. eigenvalues --  -11.38957  -1.83220  -1.70740  -1.67046  -1.43979
 Alpha  occ. eigenvalues --   -1.34885  -1.16160  -1.08445  -1.00230  -0.94695
 Alpha  occ. eigenvalues --   -0.81969  -0.75652  -0.73434  -0.69794  -0.65974
 Alpha  occ. eigenvalues --   -0.63770  -0.61025  -0.59049  -0.56713  -0.55908
 Alpha  occ. eigenvalues --   -0.55318  -0.54178  -0.52788  -0.50966  -0.49927
 Alpha  occ. eigenvalues --   -0.48074  -0.47140  -0.44181  -0.35690  -0.34885
 Alpha  occ. eigenvalues --   -0.33746  -0.29659  -0.28868
 Alpha virt. eigenvalues --    0.03524   0.04624   0.04868   0.05406   0.05557
 Alpha virt. eigenvalues --    0.06116   0.06424   0.06827   0.07615   0.08463
 Alpha virt. eigenvalues --    0.08802   0.09596   0.10068   0.11415   0.11806

 Mulliken charges:
               1
     1  C   -0.290958
     2  C    5.471288
     3  C   -4.328473
     4  C   -2.282694
     5  C    7.342911
     6  C   -3.867401
     7  H    0.858265
     8  H    1.378555
     9  H    1.322631
    10  H    1.051674
    11  H    1.931495
    12  H    0.585782
    13  H    1.122805
    14  H    1.214424
    15  H    1.222120
    16  H    2.665399
    17  H    0.588786
    18  H    0.533888
    19  N   -3.315372
    20  N   -2.856534
    21  O   -3.579028
    22  O   -3.490007
    23  O   -3.279556
 Sum of Mulliken charges =   0.00000

 Dipole moment (field-independent basis, Debye):
    X=             -1.5651    Y=              0.3737    Z=             -0.4804  Tot=              1.6793

 Test job not archived.
 1\1\GINC-SE041\SP\RHF\Aug-CC-pVDZ\C6H12N2O3\OHZDE\08-Apr-2025\0\\#t hf
  aug-cc-pvdz iop(5/13=1,5/36=2,99/5=2) pseudo=read geom=check guess=(r
 ead,tcheck) scf=(maxcycle=1)\\title\\0,1\C,0,1.24654,0.441187,0.462334
 \C,0,1.07051,-0.618155,-0.637658\C,0,1.63668,1.78281,-0.202377\C,0,-1.
 42474,-0.911608,-0.0851885\C,0,-1.75224,0.533988,0.119608\C,0,-1.33784
 ,-1.77993,1.17446\H,0,-2.23063,1.98324,-1.01378\H,0,-0.28216,-1.90095,
 1.39372\H,0,-1.88879,-1.38489,2.07304\H,0,-1.587,-2.69569,0.882658\H,0
 ,-2.2884,-1.3316,-0.66259\H,0,-0.353714,-1.31077,-1.80241\H,0,0.745931

 Normal termination of Gaussian 16 at Tue Apr  8 19:29:12 2025.
