 Gaussian 16, Revision C.01,

 ----------------------------------------------------------------------
 #t hf aug-cc-pvdz symm=none int=(grid=ultrafine) guess=(read,tcheck) s
 table=(opt,rrhf)
 ----------------------------------------------------------------------
 -----
 title
 -----
 Symbolic Z-matrix:
 Charge =  0 Multiplicity = 1

 SCF Done:  E(RHF) =  -466.644826254     A.U. after   13 cycles
 Normal termination of Gaussian 16 at Tue Apr  8 21:47:14 2025.
 Gaussian 16:  ES64L-G16RevC.01  3-Jul-2019

 ----------------------------------------------------------------------
 #t hf aug-cc-pvdz iop(5/13=1,5/36=2,99/5=2) pseudo=read geom=check gue
 ss=(read,tcheck) scf=(maxcycle=1)
 ----------------------------------------------------------------------
 -----
 title
 -----
 Structure from the checkpoint file:  "ANI1ccx_540_conf24_mol2.chk"
 Charge =  0 Multiplicity = 1

                         Standard orientation:
 ---------------------------------------------------------------------
 Center     Atomic      Atomic             Coordinates (Angstroms)
 Number     Number       Type             X           Y           Z
 ---------------------------------------------------------------------
      1          6           0        1.710242    0.009206    0.007451
      2          6           0       -0.827237   -0.572625   -0.043817
      3          1           0        2.336602    1.861391   -0.311732
      4          1           0        0.624516    1.630981   -0.681186
      5          1           0        0.778183   -1.805199    0.140487
      6          1           0       -0.850716    1.249440    0.906500
      7          1           0       -2.945668   -0.038526    0.077214
      8          7           0        1.486552    1.346541   -0.226231
      9          7           0        0.545935   -0.828417    0.017122
     10          7           0       -1.213888    0.772176    0.072014
     11          8           0        2.796102   -0.475117    0.208867
     12          8           0       -1.581467   -1.479210   -0.203691
     13          8           0       -2.586028    0.885617    0.125646
 ---------------------------------------------------------------------

 SCF Done:  E(RHF) =  -468.631844798     A.U. after    2 cycles

 The electronic state is 1-A.
 Alpha  occ. eigenvalues --  -21.11175 -21.07462 -21.04920 -15.82227 -15.80028
 Alpha  occ. eigenvalues --  -15.79669 -11.55213 -11.53695  -1.85390  -1.74993
 Alpha  occ. eigenvalues --   -1.74244  -1.43084  -1.33859  -1.24823  -0.91209
 Alpha  occ. eigenvalues --   -0.85984  -0.76241  -0.75130  -0.69378  -0.63496
 Alpha  occ. eigenvalues --   -0.61394  -0.59525  -0.55250  -0.52738  -0.47952
 Alpha  occ. eigenvalues --   -0.46068  -0.38600  -0.36889  -0.34192  -0.31666
 Alpha  occ. eigenvalues --   -0.30953
 Alpha virt. eigenvalues --    0.03487   0.05207   0.06099   0.06311   0.06830
 Alpha virt. eigenvalues --    0.09958   0.10667   0.11313   0.12599   0.13629
 Alpha virt. eigenvalues --    0.14034   0.14797   0.15316   0.15686   0.16894

 Mulliken charges:
               1
     1  C    5.036790
     2  C    4.661230
     3  H    0.562146
     4  H    0.743671
     5  H    0.437988
     6  H    0.737922
     7  H    0.700837
     8  N   -2.506618
     9  N   -1.951043
    10  N    0.125042
    11  O   -2.961536
    12  O   -2.925351
    13  O   -2.661077
 Sum of Mulliken charges =   0.00000

 Dipole moment (field-independent basis, Debye):
    X=             -0.3284    Y=              1.6407    Z=              0.1316  Tot=              1.6785

 Test job not archived.
 1\1\GINC-SE398\SP\RHF\Aug-CC-pVDZ\C2H5N3O3\OHZDE\08-Apr-2025\0\\#t hf
 aug-cc-pvdz iop(5/13=1,5/36=2,99/5=2) pseudo=read geom=check guess=(re
 ad,tcheck) scf=(maxcycle=1)\\title\\0,1\C,0,1.71024,0.00920524,0.00745
 146\C,0,-0.827239,-0.572625,-0.0438166\H,0,2.3366,1.86139,-0.311732\H,
 0,0.624514,1.63098,-0.681186\H,0,0.77818,-1.8052,0.140487\H,0,-0.85071
 8,1.24944,0.9065\H,0,-2.94567,-0.0385254,0.0772138\N,0,1.48655,1.34654
 ,-0.226231\N,0,0.545932,-0.828418,0.017122\N,0,-1.21389,0.772176,0.072
 0135\O,0,2.7961,-0.475119,0.208867\O,0,-1.58147,-1.47921,-0.203691\O,0

 Normal termination of Gaussian 16 at Tue Apr  8 21:47:18 2025.
