 Gaussian 16, Revision C.01,

 ----------------------------------------------------------------------
 #t hf aug-cc-pvdz symm=none int=(grid=ultrafine) guess=(read,tcheck) s
 table=(opt,rrhf)
 ----------------------------------------------------------------------
 -----
 title
 -----
 Symbolic Z-matrix:
 Charge =  0 Multiplicity = 1

 SCF Done:  E(RHF) =  -480.061119769     A.U. after   16 cycles
 Normal termination of Gaussian 16 at Tue Apr  8 21:41:40 2025.
 Gaussian 16:  ES64L-G16RevC.01  3-Jul-2019

 ----------------------------------------------------------------------
 #t hf aug-cc-pvdz iop(5/13=1,5/36=2,99/5=2) pseudo=read geom=check gue
 ss=(read,tcheck) scf=(maxcycle=1)
 ----------------------------------------------------------------------
 -----
 title
 -----
 Structure from the checkpoint file:  "ANI1ccx_456_conf12_mol2.chk"
 Charge =  0 Multiplicity = 1

                         Standard orientation:
 ---------------------------------------------------------------------
 Center     Atomic      Atomic             Coordinates (Angstroms)
 Number     Number       Type             X           Y           Z
 ---------------------------------------------------------------------
      1          6           0       -0.051966   -0.072282   -0.024951
      2          7           0        1.404879   -0.010741   -0.023252
      3          7           0       -0.771384   -1.149850   -0.032051
      4          7           0       -2.040032   -0.651655    0.004836
      5          7           0       -2.075381    0.590684    0.023136
      6          8           0        1.837379    1.120189   -0.009259
      7          8           0        1.993258   -1.063581    0.041208
      8          8           0       -0.744984    1.066470    0.010678
 ---------------------------------------------------------------------

 SCF Done:  E(RHF) =  -482.047199359     A.U. after    2 cycles

 The electronic state is 1-A.
 Alpha  occ. eigenvalues --  -21.22291 -21.15832 -21.15561 -16.07310 -15.90490
 Alpha  occ. eigenvalues --  -15.87809 -15.84690 -11.57834  -2.08086  -2.00947
 Alpha  occ. eigenvalues --   -1.76335  -1.60928  -1.40333  -1.14835  -0.95830
 Alpha  occ. eigenvalues --   -0.86319  -0.79553  -0.78031  -0.70299  -0.67576
 Alpha  occ. eigenvalues --   -0.66411  -0.55636  -0.49665  -0.48090  -0.46526
 Alpha  occ. eigenvalues --   -0.46260  -0.40236  -0.36918  -0.36377
 Alpha virt. eigenvalues --    0.05447   0.06845   0.09510   0.10105   0.10798
 Alpha virt. eigenvalues --    0.12248   0.12794   0.12884   0.14101   0.15384
 Alpha virt. eigenvalues --    0.16596   0.17675   0.18430   0.19250   0.19832

 Mulliken charges:
               1
     1  C    4.824328
     2  N    4.023142
     3  N   -1.898155
     4  N    0.833460
     5  N    0.489313
     6  O   -2.837809
     7  O   -2.922006
     8  O   -2.512272
 Sum of Mulliken charges =  -0.00000

 Dipole moment (field-independent basis, Debye):
    X=              0.6481    Y=              1.4290    Z=              0.0136  Tot=              1.5691

 Test job not archived.
 1\1\GINC-SE083\SP\RHF\Aug-CC-pVDZ\C1N4O3\OHZDE\08-Apr-2025\0\\#t hf au
 g-cc-pvdz iop(5/13=1,5/36=2,99/5=2) pseudo=read geom=check guess=(read
 ,tcheck) scf=(maxcycle=1)\\title\\0,1\C,0,-0.0519644,-0.0722821,-0.024
 9508\N,0,1.40488,-0.0107406,-0.0232524\N,0,-0.771382,-1.14985,-0.03205
 14\N,0,-2.04003,-0.651656,0.004836\N,0,-2.07538,0.590683,0.0231364\O,0
 ,1.83738,1.12019,-0.0092587\O,0,1.99326,-1.06358,0.0412085\O,0,-0.7449
 83,1.06647,0.0106783\\Version=ES64L-G16RevC.01\State=1-A\HF=-482.04719
 94\RMSD=9.916e-02\Dipole=0.2549734,0.5621982,0.0053375\Quadrupole=-2.6

 Normal termination of Gaussian 16 at Tue Apr  8 21:42:03 2025.
