 Gaussian 16, Revision C.01,

 ----------------------------------------------------------------------
 #t hf aug-cc-pvdz symm=none int=(grid=ultrafine) guess=(read,tcheck) s
 table=(opt,rrhf)
 ----------------------------------------------------------------------
 -----
 title
 -----
 Symbolic Z-matrix:
 Charge =  0 Multiplicity = 1

 SCF Done:  E(RHF) =  -380.235493300     A.U. after   11 cycles
 Normal termination of Gaussian 16 at Tue Apr  8 21:03:27 2025.
 Gaussian 16:  ES64L-G16RevC.01  3-Jul-2019

 ----------------------------------------------------------------------
 #t hf aug-cc-pvdz iop(5/13=1,5/36=2,99/5=2) pseudo=read geom=check gue
 ss=(read,tcheck) scf=(maxcycle=1)
 ----------------------------------------------------------------------
 -----
 title
 -----
 Structure from the checkpoint file:  "ANI1ccx_1843_conf10_mol1.chk"
 Charge =  0 Multiplicity = 1

                         Standard orientation:
 ---------------------------------------------------------------------
 Center     Atomic      Atomic             Coordinates (Angstroms)
 Number     Number       Type             X           Y           Z
 ---------------------------------------------------------------------
      1          1           0        0.017300    1.466631    0.373558
      2          1           0        0.954749    2.007408    1.479690
      3          1           0       -1.812878    0.591666   -0.333254
      4          1           0       -1.428204    1.721205   -1.294210
      5          1           0       -2.723594   -1.551871    0.236924
      6          1           0       -1.172894   -1.454586    0.096219
      7          1           0        1.089037   -1.378593    0.072767
      8          1           0        0.503826   -0.621207    1.239410
      9          1           0        3.117799   -0.534713   -0.859108
     10          1           0        1.947702    0.437791   -0.444433
     11          8           0        0.880594    1.316548    0.809130
     12          8           0       -1.513695    1.538915   -0.360239
     13          8           0       -2.023783   -1.132003   -0.295832
     14          8           0        0.417788   -1.479631    0.797223
     15          8           0        2.177490   -0.329296   -1.021230
 ---------------------------------------------------------------------

 SCF Done:  E(RHF) =  -381.878324399     A.U. after    2 cycles

 The electronic state is 1-A.
 Alpha  occ. eigenvalues --  -21.09434 -21.08820 -21.08628 -21.07842 -21.06824
 Alpha  occ. eigenvalues --   -1.69494  -1.66838  -1.66574  -1.64665  -1.62995
 Alpha  occ. eigenvalues --   -0.66246  -0.64798  -0.64154  -0.63036  -0.61394
 Alpha  occ. eigenvalues --   -0.52840  -0.49450  -0.48047  -0.45340  -0.41466
 Alpha  occ. eigenvalues --   -0.36382  -0.34939  -0.34751  -0.34273  -0.32882
 Alpha virt. eigenvalues --    0.03843   0.04997   0.05130   0.05924   0.07801
 Alpha virt. eigenvalues --    0.07998   0.08509   0.09320   0.10850   0.11051
 Alpha virt. eigenvalues --    0.18099   0.18489   0.20940   0.21502   0.21906

 Mulliken charges:
               1
     1  H    1.750300
     2  H    0.901933
     3  H    1.495911
     4  H    0.782486
     5  H    0.839243
     6  H    1.421048
     7  H    1.271270
     8  H    1.258549
     9  H    0.858604
    10  H    1.309546
    11  O   -2.712308
    12  O   -2.336892
    13  O   -2.206879
    14  O   -2.694458
    15  O   -1.938353
 Sum of Mulliken charges =  -0.00000

 Dipole moment (field-independent basis, Debye):
    X=              0.4100    Y=              0.8852    Z=              0.4767  Tot=              1.0858

 Test job not archived.
 1\1\GINC-SE220\SP\RHF\Aug-CC-pVDZ\H10O5\OHZDE\08-Apr-2025\0\\#t hf aug
 -cc-pvdz iop(5/13=1,5/36=2,99/5=2) pseudo=read geom=check guess=(read,
 tcheck) scf=(maxcycle=1)\\title\\0,1\H,0,0.0172947,1.46663,0.373558\H,
 0,0.954742,2.00741,1.47969\H,0,-1.81288,0.59166,-0.333254\H,0,-1.42821
 ,1.7212,-1.29421\H,0,-2.72359,-1.55188,0.236924\H,0,-1.17289,-1.45459,
 0.0962182\H,0,1.08904,-1.37859,0.0727666\H,0,0.503827,-0.621206,1.2394
 1\H,0,3.1178,-0.534704,-0.859108\H,0,1.9477,0.437796,-0.444433\O,0,0.8
 8059,1.31655,0.80913\O,0,-1.5137,1.53891,-0.360239\O,0,-2.02378,-1.132

 Normal termination of Gaussian 16 at Tue Apr  8 21:03:31 2025.
