 Gaussian 16, Revision C.01,

 ----------------------------------------------------------------------
 #t hf aug-cc-pvdz symm=none int=(grid=ultrafine) guess=(read,tcheck) s
 table=(opt,rrhf)
 ----------------------------------------------------------------------
 -----
 title
 -----
 Symbolic Z-matrix:
 Charge =  0 Multiplicity = 1

 SCF Done:  E(RHF) =  -963.590754189     A.U. after   15 cycles
 Normal termination of Gaussian 16 at Tue Apr  8 21:52:37 2025.
 Gaussian 16:  ES64L-G16RevC.01  3-Jul-2019

 ----------------------------------------------------------------------
 #t hf aug-cc-pvdz iop(5/13=1,5/36=2,99/5=2) pseudo=read geom=check gue
 ss=(read,tcheck) scf=(maxcycle=1)
 ----------------------------------------------------------------------
 -----
 title
 -----
 Structure from the checkpoint file:  "ANI1ccx_272_conf12_mol2.chk"
 Charge =  0 Multiplicity = 1

                         Standard orientation:
 ---------------------------------------------------------------------
 Center     Atomic      Atomic             Coordinates (Angstroms)
 Number     Number       Type             X           Y           Z
 ---------------------------------------------------------------------
      1          6           0       -0.994013    1.981210   -0.502889
      2          6           0        4.318050   -0.446468   -1.238950
      3          6           0        3.301550    0.418477    0.958222
      4          6           0        2.273650   -0.712830    1.122690
      5          6           0       -0.062490   -1.505410    0.500929
      6          6           0        0.894836   -0.340294    0.506626
      7          6           0        3.674180    0.740701   -0.461495
      8          6           0       -3.873930    0.460164   -0.315748
      9          6           0       -2.709590    0.010203   -0.898914
     10          6           0       -1.590800    0.875815   -1.406540
     11          6           0       -0.700175    1.625640    0.936442
     12          6           0       -3.749570   -1.749950   -0.294582
     13          1           0        4.127880    0.119053    1.621220
     14          1           0       -1.005910   -2.471330   -0.813313
     15          1           0        5.987390   -1.605999   -1.122070
     16          1           0        5.121550   -1.449359    0.264609
     17          1           0        3.549460   -1.233969   -1.421440
     18          1           0        4.638770   -0.060913   -2.218770
     19          1           0        4.420580    1.506351   -0.446146
     20          1           0        2.801360    1.047171   -1.020040
     21          1           0        2.898230    1.353311    1.495800
     22          1           0        2.058510   -0.830308    2.188900
     23          1           0        0.164126    0.429344    2.268540
     24          1           0        1.078060   -0.007431   -0.504709
     25          1           0        0.524773    3.361300   -0.770551
     26          1           0        2.724910   -1.654089    0.820809
     27          1           0       -1.826571    2.692560   -0.393594
     28          1           0       -1.843580    1.439890   -2.287970
     29          1           0        0.695825    1.956100   -1.634490
     30          1           0       -4.115320    1.447169    0.007912
     31          1           0       -3.988580   -2.729040    0.091356
     32          1           0       -5.446430   -0.756342    0.499147
     33          1           0       -0.774583    0.225617   -1.723330
     34          7           0        0.039176    2.639300   -1.287480
     35          7           0       -2.633490   -1.353860   -0.893861
     36          7           0       -4.502140   -0.721928    0.088521
     37          7           0        0.299832    0.706718    1.302740
     38          7           0        5.465090   -0.903291   -0.502290
     39          8           0       -0.703829   -1.746910    1.495630
     40          8           0       -1.338611    2.202260    1.786290
     41          8           0       -0.102548   -2.141750   -0.693175
 ---------------------------------------------------------------------

 SCF Done:  E(RHF) =  -968.042659916     A.U. after    2 cycles

 The electronic state is 1-A.
 Alpha  occ. eigenvalues --  -21.10112 -21.04713 -21.02543 -15.81255 -15.74757
 Alpha  occ. eigenvalues --  -15.74562 -15.73311 -15.72799 -11.56037 -11.53946
 Alpha  occ. eigenvalues --  -11.48731 -11.47959 -11.46129 -11.44722 -11.44439
 Alpha  occ. eigenvalues --  -11.43438 -11.42687 -11.40146 -11.38827 -11.36434
 Alpha  occ. eigenvalues --   -1.80918  -1.71136  -1.65867  -1.57786  -1.41203
 Alpha  occ. eigenvalues --   -1.36303  -1.34973  -1.28432  -1.20820  -1.15316
 Alpha  occ. eigenvalues --   -1.09597  -1.05534  -1.00597  -0.95443  -0.90784
 Alpha  occ. eigenvalues --   -0.86190  -0.82703  -0.80699  -0.79042  -0.78591
 Alpha  occ. eigenvalues --   -0.76314  -0.68834  -0.68188  -0.66663  -0.65421
 Alpha  occ. eigenvalues --   -0.64519  -0.63129  -0.62428  -0.60966  -0.60207
 Alpha  occ. eigenvalues --   -0.59304  -0.58483  -0.57515  -0.56061  -0.55465
 Alpha  occ. eigenvalues --   -0.54373  -0.53615  -0.51522  -0.50999  -0.50184
 Alpha  occ. eigenvalues --   -0.48879  -0.47488  -0.46360  -0.45011  -0.43523
 Alpha  occ. eigenvalues --   -0.43174  -0.41311  -0.40009  -0.37631  -0.37169
 Alpha  occ. eigenvalues --   -0.35879  -0.34117  -0.31518  -0.30017  -0.28737
 Alpha  occ. eigenvalues --   -0.26925
 Alpha virt. eigenvalues --    0.03315   0.04293   0.04641   0.04770   0.05082
 Alpha virt. eigenvalues --    0.05250   0.05635   0.05728   0.06397   0.06532
 Alpha virt. eigenvalues --    0.07123   0.07470   0.08112   0.08145   0.08445

 Mulliken charges:
               1
     1  C    1.770733
     2  C   -2.281474
     3  C   -2.669401
     4  C   -3.181808
     5  C    9.195790
     6  C   -3.701687
     7  C   -3.888377
     8  C   -3.026284
     9  C    4.987615
    10  C   -4.225579
    11  C    5.871388
    12  C    0.408869
    13  H    1.382565
    14  H    1.206453
    15  H    0.514707
    16  H    0.693659
    17  H    1.578864
    18  H    1.459548
    19  H    1.477467
    20  H    2.281286
    21  H    1.383763
    22  H    1.304131
    23  H    0.690277
    24  H    3.001861
    25  H    0.760116
    26  H    1.678863
    27  H    1.600481
    28  H    1.296924
    29  H    0.568543
    30  H    1.383471
    31  H    1.908251
    32  H    0.907293
    33  H    1.772404
    34  N   -4.099943
    35  N   -3.869039
    36  N   -3.007576
    37  N   -2.875677
    38  N   -2.450715
    39  O   -3.770006
    40  O   -4.007453
    41  O   -4.030301
 Sum of Mulliken charges =  -0.00000

 Dipole moment (field-independent basis, Debye):
    X=             -2.2096    Y=             -1.6889    Z=             -0.2533  Tot=              2.7926

 Test job not archived.
 1\1\GINC-SE084\SP\RHF\Aug-CC-pVDZ\C12H21N5O3\OHZDE\08-Apr-2025\0\\#t h
 f aug-cc-pvdz iop(5/13=1,5/36=2,99/5=2) pseudo=read geom=check guess=(
 read,tcheck) scf=(maxcycle=1)\\title\\0,1\C,0,-0.994012,1.98121,-0.502
 889\C,0,4.31805,-0.446469,-1.23895\C,0,3.30155,0.418476,0.958222\C,0,2
 .27365,-0.712831,1.12269\C,0,-0.06249,-1.50541,0.500929\C,0,0.894836,-
 0.340294,0.506626\C,0,3.67418,0.7407,-0.461495\C,0,-3.87393,0.460164,-
 0.315748\C,0,-2.70959,0.0102029,-0.898914\C,0,-1.5908,0.875815,-1.4065
 4\C,0,-0.700175,1.62564,0.936442\C,0,-3.74957,-1.74995,-0.294582\H,0,4

 Normal termination of Gaussian 16 at Tue Apr  8 21:54:11 2025.
