 Gaussian 16, Revision C.01,

 ----------------------------------------------------------------------
 #t hf aug-cc-pvdz symm=none int=(grid=ultrafine) guess=(read,tcheck) s
 table=(opt,rrhf)
 ----------------------------------------------------------------------
 -----
 title
 -----
 Symbolic Z-matrix:
 Charge =  0 Multiplicity = 1

 SCF Done:  E(RHF) =  -849.418805795     A.U. after   15 cycles
 Normal termination of Gaussian 16 at Tue Apr  8 20:35:24 2025.
 Gaussian 16:  ES64L-G16RevC.01  3-Jul-2019

 ----------------------------------------------------------------------
 #t hf aug-cc-pvdz iop(5/13=1,5/36=2,99/5=2) pseudo=read geom=check gue
 ss=(read,tcheck) scf=(maxcycle=1)
 ----------------------------------------------------------------------
 -----
 title
 -----
 Structure from the checkpoint file:  "ANI1ccx_1611_conf16_mol1.chk"
 Charge =  0 Multiplicity = 1

                         Standard orientation:
 ---------------------------------------------------------------------
 Center     Atomic      Atomic             Coordinates (Angstroms)
 Number     Number       Type             X           Y           Z
 ---------------------------------------------------------------------
      1          6           0       -2.005219    0.570821    0.254093
      2          6           0       -1.177530   -0.617156   -0.112260
      3          6           0       -3.554459    0.200236    0.534330
      4          6           0       -4.325120   -0.203307   -0.690023
      5          6           0        1.076730    0.107257    0.805917
      6          6           0        1.555491    1.376139    0.217930
      7          6           0        2.158190   -0.850851    1.136720
      8          6           0        3.034310   -1.052041   -0.128168
      9          1           0       -0.001928    1.529440   -0.739925
     10          1           0        4.940990   -1.124372   -0.733783
     11          1           0        4.619490   -0.033160    0.573323
     12          1           0        2.832900   -0.582894    1.947710
     13          1           0        1.760050   -1.903381    1.303590
     14          1           0        0.548019    0.380983    1.637870
     15          1           0        0.604115   -1.245590   -0.624834
     16          1           0       -4.430659    0.741750   -1.223150
     17          1           0       -5.304040   -0.536111   -0.366682
     18          1           0       -3.752710   -0.925770   -1.233970
     19          1           0       -3.162180   -1.668819    0.683499
     20          1           0       -3.935829    1.092951    1.077010
     21          1           0       -1.719239    1.011060    1.203480
     22          1           0       -2.156809    2.416370   -0.568453
     23          1           0       -1.972529    1.260440   -1.716270
     24          7           0       -1.644979    1.565610   -0.788969
     25          7           0        0.198977   -0.494855   -0.116038
     26          7           0        4.312930   -0.563299   -0.219639
     27          8           0       -1.562910   -1.569340   -0.744321
     28          8           0       -3.307360   -0.947937    1.327540
     29          8           0        2.649601    1.844239    0.704064
     30          8           0        2.551030   -1.384921   -1.218930
     31          8           0        0.980576    1.913999   -0.750613
 ---------------------------------------------------------------------

 SCF Done:  E(RHF) =  -853.211534534     A.U. after    2 cycles

 The electronic state is 1-A.
 Alpha  occ. eigenvalues --  -21.09725 -21.07399 -21.04485 -21.02573 -21.00462
 Alpha  occ. eigenvalues --  -15.79155 -15.76860 -15.75108 -11.55443 -11.53471
 Alpha  occ. eigenvalues --  -11.51934 -11.50242 -11.48671 -11.46477 -11.42789
 Alpha  occ. eigenvalues --  -11.39737  -1.83021  -1.76902  -1.72563  -1.70866
 Alpha  occ. eigenvalues --   -1.60573  -1.44747  -1.38934  -1.33453  -1.17635
 Alpha  occ. eigenvalues --   -1.15340  -1.05901  -1.01939  -0.91111  -0.82471
 Alpha  occ. eigenvalues --   -0.80816  -0.78117  -0.75578  -0.74150  -0.70185
 Alpha  occ. eigenvalues --   -0.67702  -0.66969  -0.66532  -0.63657  -0.62608
 Alpha  occ. eigenvalues --   -0.62113  -0.59824  -0.58490  -0.56161  -0.54169
 Alpha  occ. eigenvalues --   -0.53919  -0.51701  -0.51306  -0.50200  -0.48376
 Alpha  occ. eigenvalues --   -0.47433  -0.46625  -0.45898  -0.40646  -0.37930
 Alpha  occ. eigenvalues --   -0.34576  -0.32662  -0.31637  -0.29862  -0.29276
 Alpha  occ. eigenvalues --   -0.28849  -0.26030
 Alpha virt. eigenvalues --    0.02876   0.03560   0.04172   0.04694   0.05324
 Alpha virt. eigenvalues --    0.05530   0.05664   0.06046   0.06459   0.07018
 Alpha virt. eigenvalues --    0.07511   0.08579   0.08904   0.09277   0.10326

 Mulliken charges:
               1
     1  C   -0.055205
     2  C    5.628338
     3  C    1.511813
     4  C   -4.490533
     5  C   -3.593438
     6  C    7.957790
     7  C   -3.592416
     8  C    5.464748
     9  H    1.847399
    10  H    0.714588
    11  H    0.660395
    12  H    1.341621
    13  H    1.310779
    14  H    2.422814
    15  H    0.691775
    16  H    1.328436
    17  H    1.139899
    18  H    1.143227
    19  H    0.797378
    20  H    1.394438
    21  H    1.813509
    22  H    0.695605
    23  H    0.638041
    24  N   -3.309858
    25  N   -2.850596
    26  N   -3.213421
    27  O   -3.638196
    28  O   -3.398351
    29  O   -3.427026
    30  O   -3.083998
    31  O   -3.849557
 Sum of Mulliken charges =  -0.00000

 Dipole moment (field-independent basis, Debye):
    X=             -2.3265    Y=              0.2646    Z=              0.6685  Tot=              2.4350

 Test job not archived.
 1\1\GINC-SE364\SP\RHF\Aug-CC-pVDZ\C8H15N3O5\OHZDE\08-Apr-2025\0\\#t hf
  aug-cc-pvdz iop(5/13=1,5/36=2,99/5=2) pseudo=read geom=check guess=(r
 ead,tcheck) scf=(maxcycle=1)\\title\\0,1\C,0,-2.00522,0.570821,0.25409
 3\C,0,-1.17753,-0.617156,-0.11226\C,0,-3.55446,0.200235,0.53433\C,0,-4
 .32512,-0.203308,-0.690023\C,0,1.07673,0.107258,0.805917\C,0,1.55549,1
 .37614,0.21793\C,0,2.15819,-0.85085,1.13672\C,0,3.03431,-1.05204,-0.12
 8168\H,0,-0.00192858,1.52944,-0.739925\H,0,4.94099,-1.12437,-0.733783\
 H,0,4.61949,-0.0331588,0.573323\H,0,2.8329,-0.582893,1.94771\H,0,1.760

 Normal termination of Gaussian 16 at Tue Apr  8 20:36:02 2025.
