 Gaussian 16, Revision C.01,

 ----------------------------------------------------------------------
 #t hf aug-cc-pvdz symm=none int=(grid=ultrafine) guess=(read,tcheck) s
 table=(opt,rrhf)
 ----------------------------------------------------------------------
 -----
 title
 -----
 Symbolic Z-matrix:
 Charge =  0 Multiplicity = 1

 SCF Done:  E(RHF) =  -311.840132788     A.U. after   15 cycles
 Normal termination of Gaussian 16 at Tue Apr  8 21:37:44 2025.
 Gaussian 16:  ES64L-G16RevC.01  3-Jul-2019

 ----------------------------------------------------------------------
 #t hf aug-cc-pvdz iop(5/13=1,5/36=2,99/5=2) pseudo=read geom=check gue
 ss=(read,tcheck) scf=(maxcycle=1)
 ----------------------------------------------------------------------
 -----
 title
 -----
 Structure from the checkpoint file:  "ANI1ccx_392_conf7_mol1.chk"
 Charge =  0 Multiplicity = 1

                         Standard orientation:
 ---------------------------------------------------------------------
 Center     Atomic      Atomic             Coordinates (Angstroms)
 Number     Number       Type             X           Y           Z
 ---------------------------------------------------------------------
      1          6           0       -0.643021   -0.020948   -0.023356
      2          1           0       -2.610309    0.797332    0.176193
      3          1           0       -2.487269   -0.898370    0.132095
      4          1           0        2.168161   -1.094189    0.145130
      5          7           0       -2.013419   -0.040297   -0.030972
      6          7           0        0.128466    1.149890    0.005364
      7          7           0        1.350601    0.729885   -0.005343
      8          7           0        1.357561   -0.551077    0.000827
      9          7           0        0.146440   -1.099700   -0.014631
 ---------------------------------------------------------------------

 SCF Done:  E(RHF) =  -313.229990043     A.U. after    2 cycles

 The electronic state is 1-A.
 Alpha  occ. eigenvalues --  -15.85574 -15.81930 -15.78122 -15.76220 -15.76038
 Alpha  occ. eigenvalues --  -11.46838  -1.76650  -1.39627  -1.38098  -1.22172
 Alpha  occ. eigenvalues --   -0.92745  -0.85544  -0.76471  -0.69204  -0.66868
 Alpha  occ. eigenvalues --   -0.61500  -0.53382  -0.49071  -0.42932  -0.40851
 Alpha  occ. eigenvalues --   -0.39844  -0.30563
 Alpha virt. eigenvalues --    0.03688   0.04585   0.06241   0.11359   0.11844
 Alpha virt. eigenvalues --    0.12291   0.13872   0.14630   0.15100   0.15157
 Alpha virt. eigenvalues --    0.16936   0.17396   0.18181   0.19422   0.19951

 Mulliken charges:
               1
     1  C    4.391627
     2  H    0.666936
     3  H    0.656656
     4  H    0.997744
     5  N   -2.715642
     6  N   -1.565535
     7  N   -0.200918
     8  N   -0.275798
     9  N   -1.955070
 Sum of Mulliken charges =  -0.00000

 Dipole moment (field-independent basis, Debye):
    X=             -0.7569    Y=             -1.8401    Z=              0.6698  Tot=              2.0994

 Test job not archived.
 1\1\GINC-SE334\SP\RHF\Aug-CC-pVDZ\C1H3N5\OHZDE\08-Apr-2025\0\\#t hf au
 g-cc-pvdz iop(5/13=1,5/36=2,99/5=2) pseudo=read geom=check guess=(read
 ,tcheck) scf=(maxcycle=1)\\title\\0,1\C,0,-0.643022,-0.0209477,-0.0233
 563\H,0,-2.61031,0.797333,0.176193\H,0,-2.48727,-0.898369,0.132095\H,0
 ,2.16816,-1.09419,0.14513\N,0,-2.01342,-0.0402968,-0.0309723\N,0,0.128
 466,1.14989,0.00536407\N,0,1.3506,0.729884,-0.00534263\N,0,1.35756,-0.
 551078,0.00082712\N,0,0.146439,-1.0997,-0.0146305\\Version=ES64L-G16Re
 vC.01\State=1-A\HF=-313.22999\RMSD=9.295e-02\Dipole=-0.2977859,-0.7239

 Normal termination of Gaussian 16 at Tue Apr  8 21:37:47 2025.
