 Gaussian 16, Revision C.01,

 ----------------------------------------------------------------------
 #t hf aug-cc-pvdz symm=none int=(grid=ultrafine) guess=(read,tcheck) s
 table=(opt,rrhf)
 ----------------------------------------------------------------------
 -----
 title
 -----
 Symbolic Z-matrix:
 Charge =  0 Multiplicity = 1

 SCF Done:  E(RHF) =  -394.554665840     A.U. after   14 cycles
 Normal termination of Gaussian 16 at Tue Apr  8 21:39:38 2025.
 Gaussian 16:  ES64L-G16RevC.01  3-Jul-2019

 ----------------------------------------------------------------------
 #t hf aug-cc-pvdz iop(5/13=1,5/36=2,99/5=2) pseudo=read geom=check gue
 ss=(read,tcheck) scf=(maxcycle=1)
 ----------------------------------------------------------------------
 -----
 title
 -----
 Structure from the checkpoint file:  "ANI1ccx_415_conf1_mol2.chk"
 Charge =  0 Multiplicity = 1

                         Standard orientation:
 ---------------------------------------------------------------------
 Center     Atomic      Atomic             Coordinates (Angstroms)
 Number     Number       Type             X           Y           Z
 ---------------------------------------------------------------------
      1          6           0        1.962050    0.285211   -0.091172
      2          1           0       -0.839794   -0.935392    0.131585
      3          1           0       -2.396910    1.260439    0.863113
      4          1           0        3.725220   -0.709872    0.156260
      5          1           0        3.724550    0.942769    0.701724
      6          1           0        1.577710    1.299720    0.064853
      7          7           0        3.265400    0.182608    0.229770
      8          8           0       -1.740250   -0.984497    0.530922
      9          8           0       -2.480300   -0.175403   -0.325199
     10          8           0       -2.098200    1.152219   -0.055614
     11          8           0        1.266140   -0.598218   -0.522471
 ---------------------------------------------------------------------

 SCF Done:  E(RHF) =  -396.189098811     A.U. after    2 cycles

 The electronic state is 1-A.
 Alpha  occ. eigenvalues --  -21.13243 -21.11860 -21.10858 -21.04973 -15.80323
 Alpha  occ. eigenvalues --  -11.49972  -2.07283  -1.72540  -1.67550  -1.36694
 Alpha  occ. eigenvalues --   -1.25229  -0.88668  -0.75076  -0.67451  -0.65214
 Alpha  occ. eigenvalues --   -0.56280  -0.55294  -0.54669  -0.53388  -0.51829
 Alpha  occ. eigenvalues --   -0.35105  -0.34510  -0.32695  -0.31357  -0.27851
 Alpha virt. eigenvalues --    0.02707   0.04540   0.05492   0.07017   0.09226
 Alpha virt. eigenvalues --    0.10732   0.12611   0.14235   0.14760   0.15303
 Alpha virt. eigenvalues --    0.16078   0.16813   0.18557   0.19646   0.20569

 Mulliken charges:
               1
     1  C    2.236571
     2  H    1.333302
     3  H    0.922313
     4  H    0.641672
     5  H    0.782466
     6  H    1.561124
     7  N   -2.548777
     8  O   -1.468924
     9  O    0.291813
    10  O   -1.063985
    11  O   -2.687576
 Sum of Mulliken charges =   0.00000

 Dipole moment (field-independent basis, Debye):
    X=              3.7098    Y=              1.2716    Z=              1.6367  Tot=              4.2495

 Test job not archived.
 1\1\GINC-SE041\SP\RHF\Aug-CC-pVDZ\C1H5N1O4\OHZDE\08-Apr-2025\0\\#t hf
 aug-cc-pvdz iop(5/13=1,5/36=2,99/5=2) pseudo=read geom=check guess=(re
 ad,tcheck) scf=(maxcycle=1)\\title\\0,1\C,0,1.96205,0.285211,-0.091171
 8\H,0,-0.839794,-0.935391,0.131585\H,0,-2.39691,1.26044,0.863113\H,0,3
 .72522,-0.709872,0.15626\H,0,3.72455,0.942769,0.701724\H,0,1.57771,1.2
 9972,0.0648525\N,0,3.2654,0.182608,0.22977\O,0,-1.74025,-0.984496,0.53
 0922\O,0,-2.4803,-0.175402,-0.325199\O,0,-2.0982,1.15222,-0.0556142\O,
 0,1.26614,-0.598218,-0.522471\\Version=ES64L-G16RevC.01\State=1-A\HF=-

 Normal termination of Gaussian 16 at Tue Apr  8 21:39:41 2025.
