 Gaussian 16, Revision C.01,

 ----------------------------------------------------------------------
 #t hf aug-cc-pvdz symm=none int=(grid=ultrafine) guess=(read,tcheck) s
 table=(opt,rrhf)
 ----------------------------------------------------------------------
 -----
 title
 -----
 Symbolic Z-matrix:
 Charge =  0 Multiplicity = 1

 SCF Done:  E(RHF) =  -451.127094188     A.U. after   16 cycles
 Normal termination of Gaussian 16 at Tue Apr  8 21:13:27 2025.
 Gaussian 16:  ES64L-G16RevC.01  3-Jul-2019

 ----------------------------------------------------------------------
 #t hf aug-cc-pvdz iop(5/13=1,5/36=2,99/5=2) pseudo=read geom=check gue
 ss=(read,tcheck) scf=(maxcycle=1)
 ----------------------------------------------------------------------
 -----
 title
 -----
 Structure from the checkpoint file:  "ANI1ccx_1886_conf6_mol1.chk"
 Charge =  0 Multiplicity = 1

                         Standard orientation:
 ---------------------------------------------------------------------
 Center     Atomic      Atomic             Coordinates (Angstroms)
 Number     Number       Type             X           Y           Z
 ---------------------------------------------------------------------
      1          1           0       -0.241704   -0.650146   -0.167154
      2          1           0       -3.323120    0.403969    0.587427
      3          1           0        0.980505    1.334550    0.968033
      4          1           0        3.373800    0.319316   -0.793414
      5          8           0       -0.909803   -0.535948    0.527451
      6          8           0       -2.044880   -0.612802   -0.277475
      7          8           0       -2.836780    0.560607   -0.229925
      8          8           0        1.033860    1.004040    0.031844
      9          8           0        1.582740   -0.322849   -0.047278
     10          8           0        3.076180   -0.269007   -0.078978
 ---------------------------------------------------------------------

 SCF Done:  E(RHF) =  -452.935417051     A.U. after    2 cycles

 The electronic state is 1-A.
 Alpha  occ. eigenvalues --  -21.18062 -21.15771 -21.14641 -21.13253 -21.12908
 Alpha  occ. eigenvalues --  -21.11408  -2.06749  -2.02325  -1.70092  -1.68663
 Alpha  occ. eigenvalues --   -1.32741  -1.25738  -0.69249  -0.67149  -0.61710
 Alpha  occ. eigenvalues --   -0.58265  -0.56397  -0.54816  -0.53661  -0.50089
 Alpha  occ. eigenvalues --   -0.39446  -0.37136  -0.34006  -0.33647  -0.33148
 Alpha  occ. eigenvalues --   -0.26770
 Alpha virt. eigenvalues --    0.04330   0.05459   0.05841   0.08688   0.13151
 Alpha virt. eigenvalues --    0.13774   0.14842   0.16442   0.18892   0.19349
 Alpha virt. eigenvalues --    0.19909   0.20637   0.21866   0.22263   0.22910

 Mulliken charges:
               1
     1  H    1.418256
     2  H    0.919787
     3  H    0.929302
     4  H    0.982867
     5  O   -1.524464
     6  O    0.196149
     7  O   -0.933617
     8  O   -0.956280
     9  O    0.020889
    10  O   -1.052890
 Sum of Mulliken charges =  -0.00000

 Dipole moment (field-independent basis, Debye):
    X=              1.0696    Y=              1.2515    Z=              0.5387  Tot=              1.7322

 Test job not archived.
 1\1\GINC-SE221\SP\RHF\Aug-CC-pVDZ\H4O6\OHZDE\08-Apr-2025\0\\#t hf aug-
 cc-pvdz iop(5/13=1,5/36=2,99/5=2) pseudo=read geom=check guess=(read,t
 check) scf=(maxcycle=1)\\title\\0,1\H,0,-0.241704,-0.650146,-0.167154\
 H,0,-3.32312,0.403969,0.587427\H,0,0.980505,1.33455,0.968033\H,0,3.373
 8,0.319316,-0.793414\O,0,-0.909803,-0.535948,0.527451\O,0,-2.04488,-0.
 612802,-0.277475\O,0,-2.83678,0.560607,-0.229925\O,0,1.03386,1.00404,0
 .0318445\O,0,1.58274,-0.322849,-0.0472782\O,0,3.07618,-0.269007,-0.078
 9783\\Version=ES64L-G16RevC.01\State=1-A\HF=-452.9354171\RMSD=3.261e-0

 Normal termination of Gaussian 16 at Tue Apr  8 21:13:29 2025.
