 Gaussian 16, Revision C.01,

 ----------------------------------------------------------------------
 #t hf aug-cc-pvdz symm=none int=(grid=ultrafine) guess=(read,tcheck) s
 table=(opt,rrhf)
 ----------------------------------------------------------------------
 -----
 title
 -----
 Symbolic Z-matrix:
 Charge =  0 Multiplicity = 1

 SCF Done:  E(RHF) =  -809.715719816     A.U. after   14 cycles
 Normal termination of Gaussian 16 at Tue Apr  8 20:50:34 2025.
 Gaussian 16:  ES64L-G16RevC.01  3-Jul-2019

 ----------------------------------------------------------------------
 #t hf aug-cc-pvdz iop(5/13=1,5/36=2,99/5=2) pseudo=read geom=check gue
 ss=(read,tcheck) scf=(maxcycle=1)
 ----------------------------------------------------------------------
 -----
 title
 -----
 Structure from the checkpoint file:  "ANI1ccx_1634_conf35_mol1.chk"
 Charge =  0 Multiplicity = 1

                         Standard orientation:
 ---------------------------------------------------------------------
 Center     Atomic      Atomic             Coordinates (Angstroms)
 Number     Number       Type             X           Y           Z
 ---------------------------------------------------------------------
      1          6           0        2.520280    1.769439    0.654341
      2          6           0        0.989533    1.648829    0.439506
      3          6           0        1.030200   -0.926734    0.493875
      4          6           0        1.579640   -1.639671   -0.817048
      5          6           0        0.051466   -1.831611    1.201289
      6          6           0       -1.019650   -1.325531    2.120129
      7          6           0       -2.088550   -0.368445    1.495019
      8          6           0       -2.819110    0.413082   -0.847844
      9          1           0        2.543410   -0.052259   -1.131651
     10          1           0       -3.015070    2.242629   -1.202181
     11          1           0       -1.562880    2.244549   -0.295943
     12          1           0       -3.727970   -0.702485   -1.993901
     13          1           0       -2.096070   -1.439341   -0.340340
     14          1           0       -1.934170    0.694117    1.450019
     15          1           0       -3.051220   -0.465969    1.929149
     16          1           0       -1.574370   -2.166911    2.602929
     17          1           0       -0.520159   -0.770388    2.954569
     18          1           0       -0.446791   -2.229751    0.293280
     19          1           0        0.688321   -2.746501    1.484099
     20          1           0        1.797520   -0.812112    1.137389
     21          1           0       -0.580700    0.439703   -0.012244
     22          1           0        2.685100    1.135939    1.546339
     23          1           0        2.805840    2.758409    0.965852
     24          1           0        3.716360    2.005519   -1.052591
     25          1           0        4.024150    0.697761   -0.024435
     26          7           0        3.270070    1.255419   -0.442213
     27          7           0        0.459689    0.404250    0.210907
     28          7           0       -2.233570   -0.504083    0.008518
     29          7           0       -3.671180    0.243796   -1.831081
     30          7           0       -2.417060    1.704689   -0.605091
     31          8           0        0.233487    2.631209    0.373939
     32          8           0        1.194460   -2.765651   -1.150691
     33          8           0        2.438330   -0.990251   -1.489901
 ---------------------------------------------------------------------

 SCF Done:  E(RHF) =  -813.426127081     A.U. after    2 cycles

 The electronic state is 1-A.
 Alpha  occ. eigenvalues --  -21.10562 -21.04696 -21.03240 -15.79919 -15.76757
 Alpha  occ. eigenvalues --  -15.74363 -15.72963 -15.68867 -11.54937 -11.53442
 Alpha  occ. eigenvalues --  -11.50231 -11.49201 -11.47833 -11.45901 -11.43077
 Alpha  occ. eigenvalues --  -11.40844  -1.83745  -1.72402  -1.63795  -1.48896
 Alpha  occ. eigenvalues --   -1.43405  -1.39227  -1.31674  -1.21961  -1.20098
 Alpha  occ. eigenvalues --   -1.09495  -1.05227  -0.97859  -0.87326  -0.84114
 Alpha  occ. eigenvalues --   -0.83086  -0.81026  -0.74620  -0.74444  -0.72791
 Alpha  occ. eigenvalues --   -0.68389  -0.67663  -0.66512  -0.62724  -0.61889
 Alpha  occ. eigenvalues --   -0.61013  -0.59208  -0.57400  -0.56087  -0.55020
 Alpha  occ. eigenvalues --   -0.54029  -0.53547  -0.52485  -0.51973  -0.49819
 Alpha  occ. eigenvalues --   -0.49470  -0.47237  -0.45436  -0.44613  -0.39212
 Alpha  occ. eigenvalues --   -0.38481  -0.34670  -0.33510  -0.31859  -0.31061
 Alpha  occ. eigenvalues --   -0.28962  -0.27491
 Alpha virt. eigenvalues --    0.02035   0.03168   0.03740   0.03995   0.04897
 Alpha virt. eigenvalues --    0.05285   0.05930   0.06679   0.06743   0.07013
 Alpha virt. eigenvalues --    0.07423   0.07580   0.08235   0.09260   0.09784

 Mulliken charges:
               1
     1  C   -3.186159
     2  C    5.512570
     3  C   -2.782834
     4  C    6.735381
     5  C   -2.270797
     6  C   -3.428650
     7  C   -3.477763
     8  C    5.372588
     9  H    2.075164
    10  H    0.548377
    11  H    0.897912
    12  H    0.581456
    13  H    0.655771
    14  H    2.059689
    15  H    1.218630
    16  H    1.068623
    17  H    1.492533
    18  H    1.985925
    19  H    1.067634
    20  H    2.555576
    21  H    1.534995
    22  H    1.577152
    23  H    1.402121
    24  H    0.608876
    25  H    0.468437
    26  N   -2.180773
    27  N   -2.759639
    28  N   -1.832770
    29  N   -3.538115
    30  N   -2.816265
    31  O   -3.772734
    32  O   -3.280903
    33  O   -4.092008
 Sum of Mulliken charges =   0.00000

 Dipole moment (field-independent basis, Debye):
    X=              5.2135    Y=              1.1345    Z=              4.4139  Tot=              6.9246

 Test job not archived.
 1\1\GINC-SE343\SP\RHF\Aug-CC-pVDZ\C8H17N5O3\OHZDE\08-Apr-2025\0\\#t hf
  aug-cc-pvdz iop(5/13=1,5/36=2,99/5=2) pseudo=read geom=check guess=(r
 ead,tcheck) scf=(maxcycle=1)\\title\\0,1\C,0,2.52028,1.76944,0.654342\
 C,0,0.989533,1.64883,0.439507\C,0,1.0302,-0.926733,0.493876\C,0,1.5796
 4,-1.63967,-0.817047\C,0,0.0514666,-1.83161,1.20129\C,0,-1.01965,-1.32
 553,2.12013\C,0,-2.08855,-0.368444,1.49502\C,0,-2.81911,0.413083,-0.84
 7843\H,0,2.54341,-0.0522575,-1.13165\H,0,-3.01507,2.24263,-1.20218\H,0
 ,-1.56288,2.24455,-0.295942\H,0,-3.72797,-0.702484,-1.9939\H,0,-2.0960

 Normal termination of Gaussian 16 at Tue Apr  8 20:51:21 2025.
