 Gaussian 16, Revision C.01,

 ----------------------------------------------------------------------
 #t hf aug-cc-pvdz symm=none int=(grid=ultrafine) guess=(read,tcheck) s
 table=(opt,rrhf)
 ----------------------------------------------------------------------
 -----
 title
 -----
 Symbolic Z-matrix:
 Charge =  0 Multiplicity = 1

 SCF Done:  E(RHF) =  -794.440659684     A.U. after   14 cycles
 Normal termination of Gaussian 16 at Tue Apr  8 20:24:57 2025.
 Gaussian 16:  ES64L-G16RevC.01  3-Jul-2019

 ----------------------------------------------------------------------
 #t hf aug-cc-pvdz iop(5/13=1,5/36=2,99/5=2) pseudo=read geom=check gue
 ss=(read,tcheck) scf=(maxcycle=1)
 ----------------------------------------------------------------------
 -----
 title
 -----
 Structure from the checkpoint file:  "ANI1ccx_1592_conf13_mol1.chk"
 Charge =  0 Multiplicity = 1

                         Standard orientation:
 ---------------------------------------------------------------------
 Center     Atomic      Atomic             Coordinates (Angstroms)
 Number     Number       Type             X           Y           Z
 ---------------------------------------------------------------------
      1          6           0        0.235712    1.090619   -0.298364
      2          6           0       -1.113689    1.666880    0.135220
      3          6           0        1.224111    1.112178    0.918618
      4          6           0        2.655980    0.708089    0.483138
      5          6           0        2.865289   -0.750080    0.208379
      6          6           0       -1.598681   -0.734153    0.727547
      7          6           0       -1.857861   -1.257689   -0.730147
      8          6           0       -2.616292   -1.350478    1.683840
      9          1           0       -0.209360   -2.169611   -0.448832
     10          1           0       -3.692581   -1.200447    1.470200
     11          1           0       -2.415621   -0.871971    2.673830
     12          1           0       -2.534493   -2.465528    1.807780
     13          1           0       -0.592497   -1.098310    0.962585
     14          1           0       -2.689509    1.014432    1.167340
     15          1           0        4.067388   -2.050135   -0.209206
     16          1           0        2.960871    1.311086   -0.382034
     17          1           0        3.363421    1.053796    1.288360
     18          1           0        1.290112    2.112858    1.334780
     19          1           0        0.864501    0.507030    1.772060
     20          1           0       -0.018910    0.136864   -0.719149
     21          1           0        0.263077    1.751999   -2.287240
     22          1           0        0.782444    2.899798   -1.283040
     23          7           0        0.800401    1.902008   -1.444290
     24          7           0       -1.862340    0.712933    0.716697
     25          8           0       -1.441337    2.841921   -0.014626
     26          8           0        1.970268   -1.412293   -0.293039
     27          8           0        4.128899   -1.171155    0.222883
     28          8           0       -2.846721   -0.967284   -1.345970
     29          8           0       -0.907694   -2.059770   -1.172210
 ---------------------------------------------------------------------

 SCF Done:  E(RHF) =  -797.956771743     A.U. after    2 cycles

 The electronic state is 1-A.
 Alpha  occ. eigenvalues --  -21.15081 -21.12896 -21.07146 -21.05048 -21.02617
 Alpha  occ. eigenvalues --  -15.77467 -15.73086 -11.55893 -11.54430 -11.52056
 Alpha  occ. eigenvalues --  -11.48825 -11.48022 -11.44742 -11.41675 -11.41004
 Alpha  occ. eigenvalues --   -1.86052  -1.83399  -1.69978  -1.67476  -1.66149
 Alpha  occ. eigenvalues --   -1.43763  -1.33227  -1.19227  -1.15938  -1.05203
 Alpha  occ. eigenvalues --   -0.97324  -0.94216  -0.81251  -0.80072  -0.79163
 Alpha  occ. eigenvalues --   -0.71585  -0.71033  -0.69533  -0.66766  -0.65518
 Alpha  occ. eigenvalues --   -0.64137  -0.61426  -0.60176  -0.58360  -0.56952
 Alpha  occ. eigenvalues --   -0.55907  -0.54755  -0.53421  -0.52480  -0.51671
 Alpha  occ. eigenvalues --   -0.50730  -0.49566  -0.47455  -0.46784  -0.46177
 Alpha  occ. eigenvalues --   -0.43661  -0.36281  -0.35728  -0.34497  -0.32715
 Alpha  occ. eigenvalues --   -0.32017  -0.28737  -0.27879
 Alpha virt. eigenvalues --    0.03052   0.03648   0.04416   0.04755   0.05108
 Alpha virt. eigenvalues --    0.05832   0.06154   0.06684   0.07150   0.07309
 Alpha virt. eigenvalues --    0.07786   0.08743   0.08791   0.10137   0.10565

 Mulliken charges:
               1
     1  C   -1.844362
     2  C    6.491377
     3  C   -3.108670
     4  C   -4.041941
     5  C    6.246832
     6  C   -1.236340
     7  C    7.115959
     8  C   -5.013949
     9  H    1.083947
    10  H    1.352972
    11  H    1.136029
    12  H    1.164502
    13  H    2.274612
    14  H    0.676703
    15  H    0.809780
    16  H    1.655492
    17  H    1.258585
    18  H    1.339155
    19  H    1.921466
    20  H    2.877729
    21  H    0.631404
    22  H    0.546423
    23  N   -2.898529
    24  N   -3.164669
    25  O   -3.982058
    26  O   -2.989820
    27  O   -3.247332
    28  O   -3.630223
    29  O   -3.425074
 Sum of Mulliken charges =  -0.00000

 Dipole moment (field-independent basis, Debye):
    X=              2.3235    Y=             -1.5366    Z=              2.2164  Tot=              3.5598

 Test job not archived.
 1\1\GINC-SE462\SP\RHF\Aug-CC-pVDZ\C8H14N2O5\OHZDE\08-Apr-2025\0\\#t hf
  aug-cc-pvdz iop(5/13=1,5/36=2,99/5=2) pseudo=read geom=check guess=(r
 ead,tcheck) scf=(maxcycle=1)\\title\\0,1\C,0,0.235711,1.09062,-0.29836
 4\C,0,-1.11369,1.66688,0.13522\C,0,1.22411,1.11218,0.918618\C,0,2.6559
 8,0.708092,0.483138\C,0,2.86529,-0.750076,0.208379\C,0,-1.59868,-0.734
 154,0.727547\C,0,-1.85786,-1.25769,-0.730147\C,0,-2.61629,-1.35048,1.6
 8384\H,0,-0.209358,-2.16961,-0.448832\H,0,-3.69258,-1.20045,1.4702\H,0
 ,-2.41562,-0.871973,2.67383\H,0,-2.53449,-2.46553,1.80778\H,0,-0.59249

 Normal termination of Gaussian 16 at Tue Apr  8 20:25:29 2025.
