 Gaussian 16, Revision C.01,

 ----------------------------------------------------------------------
 #t hf aug-cc-pvdz symm=none int=(grid=ultrafine) guess=(read,tcheck) s
 table=(opt,rrhf)
 ----------------------------------------------------------------------
 -----
 title
 -----
 Symbolic Z-matrix:
 Charge =  0 Multiplicity = 1

 SCF Done:  E(RHF) =  -857.001072619     A.U. after   15 cycles
 Normal termination of Gaussian 16 at Tue Apr  8 21:54:46 2025.
 Gaussian 16:  ES64L-G16RevC.01  3-Jul-2019

 ----------------------------------------------------------------------
 #t hf aug-cc-pvdz iop(5/13=1,5/36=2,99/5=2) pseudo=read geom=check gue
 ss=(read,tcheck) scf=(maxcycle=1)
 ----------------------------------------------------------------------
 -----
 title
 -----
 Structure from the checkpoint file:  "ANI1ccx_290_conf3_mol1.chk"
 Charge =  0 Multiplicity = 1

                         Standard orientation:
 ---------------------------------------------------------------------
 Center     Atomic      Atomic             Coordinates (Angstroms)
 Number     Number       Type             X           Y           Z
 ---------------------------------------------------------------------
      1          6           0       -1.713952   -1.110587    0.616506
      2          6           0        2.878211    0.791042    0.586406
      3          6           0        1.986762    1.108666   -0.657361
      4          6           0        0.803857    2.057578   -0.440185
      5          6           0       -1.446195    2.698072    0.178230
      6          6           0       -0.546638    1.491260    0.003445
      7          6           0        3.888359   -0.346769    0.340611
      8          6           0       -0.115229   -3.086990    0.114837
      9          6           0        0.246248   -1.570421    2.060270
     10          6           0       -0.277391   -1.669650    0.655186
     11          6           0       -1.849091   -0.475020   -0.730600
     12          6           0       -0.222832   -3.123530   -1.448940
     13          1           0        0.623665    2.664398   -1.336760
     14          1           0        2.642013    1.518185   -1.434160
     15          1           0        1.543150    0.177800   -1.072720
     16          1           0        3.420953    1.694553    0.930716
     17          1           0        2.271511    0.494841    1.446290
     18          1           0        4.441369   -0.657170    1.253260
     19          1           0        5.464699   -0.803754   -0.751957
     20          1           0        4.625891    0.335025   -1.450290
     21          1           0       -2.002773    3.949583    1.436240
     22          1           0        1.174985    2.811647    0.262650
     23          1           0        3.298858   -1.245997   -0.035787
     24          1           0       -0.237946    0.891451    0.840319
     25          1           0        0.637516   -2.560522   -1.852620
     26          1           0       -1.142165   -2.743158   -1.790090
     27          1           0       -3.267824   -2.365595    0.183197
     28          1           0       -2.496145   -2.698906    1.674740
     29          1           0       -1.641941   -0.309255    1.341890
     30          1           0       -1.270338    1.018492   -1.923960
     31          1           0        0.607324   -0.550547    2.320940
     32          1           0        0.337055   -1.059921    0.021500
     33          1           0       -0.536536   -1.824820    2.808460
     34          1           0       -0.791092   -3.772999    0.595238
     35          1           0        0.852625   -3.468272    0.327410
     36          1           0       -0.137389   -4.193660   -1.745030
     37          1           0        1.090006   -2.232053    2.283940
     38          7           0       -2.813454   -1.984165    0.991829
     39          7           0       -1.112529    0.638743   -0.990216
     40          7           0        4.950010    0.074126   -0.559618
     41          8           0       -2.040694    3.226763   -0.774186
     42          8           0       -2.480952   -0.942178   -1.679900
     43          8           0       -1.536894    3.121392    1.441860
 ---------------------------------------------------------------------

 SCF Done:  E(RHF) =  -861.055436310     A.U. after    2 cycles

 The electronic state is 1-A.
 Alpha  occ. eigenvalues --  -21.15184 -21.06493 -21.01819 -15.75912 -15.73696
 Alpha  occ. eigenvalues --  -15.73493 -11.56425 -11.54995 -11.52129 -11.48173
 Alpha  occ. eigenvalues --  -11.45920 -11.44949 -11.44030 -11.42023 -11.41305
 Alpha  occ. eigenvalues --  -11.38643 -11.38169 -11.36423  -1.84850  -1.70866
 Alpha  occ. eigenvalues --   -1.66281  -1.44057  -1.36467  -1.35405  -1.23623
 Alpha  occ. eigenvalues --   -1.22209  -1.12015  -1.09449  -1.03244  -1.00904
 Alpha  occ. eigenvalues --   -0.92197  -0.90288  -0.84853  -0.83653  -0.83320
 Alpha  occ. eigenvalues --   -0.79914  -0.73086  -0.68667  -0.67191  -0.66748
 Alpha  occ. eigenvalues --   -0.66086  -0.65185  -0.63095  -0.61844  -0.61302
 Alpha  occ. eigenvalues --   -0.59647  -0.58494  -0.57583  -0.56977  -0.56498
 Alpha  occ. eigenvalues --   -0.54753  -0.53983  -0.53554  -0.52010  -0.51197
 Alpha  occ. eigenvalues --   -0.50766  -0.48923  -0.47787  -0.47228  -0.46246
 Alpha  occ. eigenvalues --   -0.45070  -0.44601  -0.43561  -0.42453  -0.40956
 Alpha  occ. eigenvalues --   -0.36602  -0.35149  -0.34132  -0.32131  -0.30116
 Alpha  occ. eigenvalues --   -0.28398
 Alpha virt. eigenvalues --    0.03615   0.04054   0.04270   0.04354   0.04772
 Alpha virt. eigenvalues --    0.04970   0.05166   0.05879   0.06054   0.06250
 Alpha virt. eigenvalues --    0.06822   0.07211   0.07333   0.07526   0.08282

 Mulliken charges:
               1
     1  C   -0.486056
     2  C   -3.631596
     3  C   -3.614317
     4  C   -3.142921
     5  C    8.619546
     6  C   -5.968545
     7  C   -2.510317
     8  C   -4.104267
     9  C   -6.125416
    10  C   -0.319239
    11  C    6.823091
    12  C   -5.578422
    13  H    1.499259
    14  H    1.271387
    15  H    2.646408
    16  H    1.234692
    17  H    2.292666
    18  H    1.568127
    19  H    0.469023
    20  H    0.800712
    21  H    0.935764
    22  H    1.677854
    23  H    1.729971
    24  H    3.200319
    25  H    1.413178
    26  H    1.541250
    27  H    0.467037
    28  H    0.496027
    29  H    2.174890
    30  H    0.801535
    31  H    1.710817
    32  H    6.091587
    33  H    1.187336
    34  H    1.382966
    35  H    1.405768
    36  H    1.160772
    37  H    1.507601
    38  N   -4.033243
    39  N   -2.805535
    40  N   -2.585522
    41  O   -3.474115
    42  O   -4.132676
    43  O   -3.597395
 Sum of Mulliken charges =  -0.00000

 Dipole moment (field-independent basis, Debye):
    X=              1.9479    Y=             -0.1713    Z=              1.2078  Tot=              2.2983

 Test job not archived.
 1\1\GINC-SE343\SP\RHF\Aug-CC-pVDZ\C12H25N3O3\OHZDE\08-Apr-2025\0\\#t h
 f aug-cc-pvdz iop(5/13=1,5/36=2,99/5=2) pseudo=read geom=check guess=(
 read,tcheck) scf=(maxcycle=1)\\title\\0,1\C,0,-1.71395,-1.11059,0.6165
 06\C,0,2.87821,0.791048,0.586406\C,0,1.98676,1.10867,-0.657361\C,0,0.8
 03853,2.05758,-0.440185\C,0,-1.4462,2.69807,0.17823\C,0,-0.546641,1.49
 126,0.00344467\C,0,3.88836,-0.346761,0.340611\C,0,-0.115223,-3.08699,0
 .114837\C,0,0.246251,-1.57042,2.06027\C,0,-0.277388,-1.66965,0.655186\
 C,0,-1.84909,-0.475023,-0.7306\C,0,-0.222826,-3.12353,-1.44894\H,0,0.6

 Normal termination of Gaussian 16 at Tue Apr  8 21:56:13 2025.
