 Gaussian 16, Revision C.01,

 ----------------------------------------------------------------------
 #t hf aug-cc-pvdz symm=none int=(grid=ultrafine) guess=(read,tcheck) s
 table=(opt,rrhf)
 ----------------------------------------------------------------------
 -----
 title
 -----
 Symbolic Z-matrix:
 Charge =  0 Multiplicity = 1

 SCF Done:  E(RHF) =  -456.275473253     A.U. after   11 cycles
 Normal termination of Gaussian 16 at Tue Apr  8 21:10:48 2025.
 Gaussian 16:  ES64L-G16RevC.01  3-Jul-2019

 ----------------------------------------------------------------------
 #t hf aug-cc-pvdz iop(5/13=1,5/36=2,99/5=2) pseudo=read geom=check gue
 ss=(read,tcheck) scf=(maxcycle=1)
 ----------------------------------------------------------------------
 -----
 title
 -----
 Structure from the checkpoint file:  "ANI1ccx_1844_conf74_mol1.chk"
 Charge =  0 Multiplicity = 1

                         Standard orientation:
 ---------------------------------------------------------------------
 Center     Atomic      Atomic             Coordinates (Angstroms)
 Number     Number       Type             X           Y           Z
 ---------------------------------------------------------------------
      1          1           0       -0.881935   -2.097162    1.626000
      2          1           0       -2.238440    0.505441   -0.189897
      3          1           0       -3.342579   -0.440580   -0.758240
      4          1           0        1.544939    1.482921    0.387439
      5          1           0        0.795235    2.145220    1.537960
      6          1           0       -0.497254    1.974659   -0.146695
      7          1           0       -1.647048   -1.575372    0.363248
      8          1           0       -1.767462    2.748598   -0.592377
      9          1           0        1.910973   -2.724029   -0.480787
     10          1           0        0.552195   -1.979920   -0.286440
     11          1           0        2.216961   -0.561671   -0.236753
     12          1           0        3.343670    0.553115   -0.616099
     13          8           0        0.907641    2.236000    0.607603
     14          8           0        1.424102   -1.907549   -0.741913
     15          8           0       -2.781389   -0.310761    0.029775
     16          8           0       -1.331641    1.892548   -0.706121
     17          8           0       -0.896350   -2.185772    0.656336
     18          8           0        2.678980    0.271632    0.078400
 ---------------------------------------------------------------------

 SCF Done:  E(RHF) =  -458.262662001     A.U. after    2 cycles

 The electronic state is 1-A.
 Alpha  occ. eigenvalues --  -21.08352 -21.08323 -21.07794 -21.07767 -21.07212
 Alpha  occ. eigenvalues --  -21.06926  -1.69032  -1.67516  -1.66684  -1.63752
 Alpha  occ. eigenvalues --   -1.63276  -1.62319  -0.64665  -0.63986  -0.63801
 Alpha  occ. eigenvalues --   -0.63624  -0.63345  -0.62953  -0.53099  -0.50329
 Alpha  occ. eigenvalues --   -0.49783  -0.43831  -0.43324  -0.40680  -0.35281
 Alpha  occ. eigenvalues --   -0.34916  -0.34189  -0.34045  -0.33533  -0.33054
 Alpha virt. eigenvalues --    0.03887   0.04804   0.05240   0.05399   0.06259
 Alpha virt. eigenvalues --    0.06879   0.08801   0.09157   0.09804   0.10431
 Alpha virt. eigenvalues --    0.10989   0.11607   0.18559   0.19533   0.19620

 Mulliken charges:
               1
     1  H    0.894168
     2  H    1.558078
     3  H    0.774992
     4  H    1.606661
     5  H    0.812862
     6  H    1.741929
     7  H    1.529615
     8  H    0.797114
     9  H    0.773812
    10  H    1.582129
    11  H    1.634273
    12  H    0.763317
    13  O   -2.513806
    14  O   -2.396513
    15  O   -2.283505
    16  O   -2.402385
    17  O   -2.537859
    18  O   -2.334880
 Sum of Mulliken charges =  -0.00000

 Dipole moment (field-independent basis, Debye):
    X=              0.1943    Y=             -0.1369    Z=              0.5123  Tot=              0.5648

 Test job not archived.
 1\1\GINC-SE038\SP\RHF\Aug-CC-pVDZ\H12O6\OHZDE\08-Apr-2025\0\\#t hf aug
 -cc-pvdz iop(5/13=1,5/36=2,99/5=2) pseudo=read geom=check guess=(read,
 tcheck) scf=(maxcycle=1)\\title\\0,1\H,0,-0.881938,-2.09716,1.626\H,0,
 -2.23844,0.505444,-0.189897\H,0,-3.34258,-0.440576,-0.75824\H,0,1.5449
 4,1.48292,0.387439\H,0,0.795236,2.14522,1.53796\H,0,-0.497253,1.97466,
 -0.146695\H,0,-1.64705,-1.57537,0.363248\H,0,-1.76746,2.7486,-0.592377
 \H,0,1.91097,-2.72403,-0.480787\H,0,0.552193,-1.97992,-0.28644\H,0,2.2
 1696,-0.561672,-0.236753\H,0,3.34367,0.553113,-0.616099\O,0,0.907642,2

 Normal termination of Gaussian 16 at Tue Apr  8 21:10:55 2025.
