 Gaussian 16, Revision C.01,

 ----------------------------------------------------------------------
 #t hf aug-cc-pvdz symm=none int=(grid=ultrafine) guess=(read,tcheck) s
 table=(opt,rrhf)
 ----------------------------------------------------------------------
 -----
 title
 -----
 Symbolic Z-matrix:
 Charge =  0 Multiplicity = 1

 SCF Done:  E(RHF) =  -681.666622212     A.U. after   14 cycles
 Normal termination of Gaussian 16 at Tue Apr  8 19:55:14 2025.
 Gaussian 16:  ES64L-G16RevC.01  3-Jul-2019

 ----------------------------------------------------------------------
 #t hf aug-cc-pvdz iop(5/13=1,5/36=2,99/5=2) pseudo=read geom=check gue
 ss=(read,tcheck) scf=(maxcycle=1)
 ----------------------------------------------------------------------
 -----
 title
 -----
 Structure from the checkpoint file:  "ANI1ccx_1434_conf5_mol1.chk"
 Charge =  0 Multiplicity = 1

                         Standard orientation:
 ---------------------------------------------------------------------
 Center     Atomic      Atomic             Coordinates (Angstroms)
 Number     Number       Type             X           Y           Z
 ---------------------------------------------------------------------
      1          6           0        1.933889    0.684273    0.091162
      2          6           0        0.494400    1.098690    0.026294
      3          6           0        2.214489   -0.664158   -0.645077
      4          6           0        3.736829   -0.868561   -0.687108
      5          6           0       -1.879371    0.550327    0.143538
      6          6           0       -2.680741   -0.731500    0.245238
      7          6           0       -2.393101    1.400590   -1.041480
      8          1           0       -1.569580   -1.747960   -1.044950
      9          1           0       -3.468691    1.388219   -0.964363
     10          1           0       -2.012081    2.458040   -1.027310
     11          1           0       -2.186991    0.928642   -2.022660
     12          1           0       -2.190581    1.140150    1.059090
     13          1           0       -0.296585   -0.729789    0.077270
     14          1           0        3.980990   -1.903179   -0.857701
     15          1           0        4.158219   -0.210570   -1.439770
     16          1           0        4.156749   -0.552687    0.279431
     17          1           0        1.917160   -1.620719    0.914053
     18          1           0        1.806289   -0.572024   -1.715980
     19          1           0        2.499839    1.527591   -0.365507
     20          1           0        3.155259    1.197081    1.614750
     21          1           0        1.813699    0.712923    2.270420
     22          7           0        2.405429    0.578549    1.470750
     23          7           0       -0.501818    0.217564    0.149512
     24          8           0        0.190583    2.272580   -0.185465
     25          8           0        1.509870   -1.632029    0.053553
     26          8           0       -3.773911   -0.787249    0.774275
     27          8           0       -2.132460   -1.904110   -0.256618
 ---------------------------------------------------------------------

 SCF Done:  E(RHF) =  -684.720448433     A.U. after    2 cycles

 The electronic state is 1-A.
 Alpha  occ. eigenvalues --  -21.12473 -21.09350 -21.05897 -21.02185 -15.77247
 Alpha  occ. eigenvalues --  -15.76116 -11.54741 -11.54274 -11.49263 -11.46376
 Alpha  occ. eigenvalues --  -11.44519 -11.38979 -11.38660  -1.81707  -1.77100
 Alpha  occ. eigenvalues --   -1.71373  -1.65203  -1.43150  -1.36966  -1.16445
 Alpha  occ. eigenvalues --   -1.14249  -1.03501  -0.96307  -0.87119  -0.81960
 Alpha  occ. eigenvalues --   -0.80926  -0.75148  -0.71166  -0.68476  -0.66795
 Alpha  occ. eigenvalues --   -0.63897  -0.61462  -0.60072  -0.58237  -0.56702
 Alpha  occ. eigenvalues --   -0.55518  -0.53762  -0.53241  -0.52645  -0.51125
 Alpha  occ. eigenvalues --   -0.50594  -0.47824  -0.45974  -0.43846  -0.42683
 Alpha  occ. eigenvalues --   -0.39241  -0.34983  -0.33696  -0.31733  -0.29704
 Alpha  occ. eigenvalues --   -0.27718
 Alpha virt. eigenvalues --    0.03159   0.04077   0.04573   0.04995   0.05122
 Alpha virt. eigenvalues --    0.05386   0.05822   0.06314   0.06914   0.07341
 Alpha virt. eigenvalues --    0.07468   0.08250   0.09354   0.10014   0.10834

 Mulliken charges:
               1
     1  C   -4.086638
     2  C    8.493266
     3  C    2.248873
     4  C   -4.408511
     5  C   -1.984803
     6  C    6.090286
     7  C   -4.000314
     8  H    0.957476
     9  H    1.089944
    10  H    1.436766
    11  H    1.439268
    12  H    1.742013
    13  H    1.036620
    14  H    1.113259
    15  H    1.244084
    16  H    1.211112
    17  H    0.762858
    18  H    1.902588
    19  H    1.959070
    20  H    0.557842
    21  H    0.703637
    22  N   -2.515742
    23  N   -3.121996
    24  O   -3.853022
    25  O   -3.605046
    26  O   -3.269054
    27  O   -3.143835
 Sum of Mulliken charges =  -0.00000

 Dipole moment (field-independent basis, Debye):
    X=              2.9256    Y=             -0.4945    Z=             -0.2610  Tot=              2.9785

 Test job not archived.
 1\1\GINC-SE079\SP\RHF\Aug-CC-pVDZ\C7H14N2O4\OHZDE\08-Apr-2025\0\\#t hf
  aug-cc-pvdz iop(5/13=1,5/36=2,99/5=2) pseudo=read geom=check guess=(r
 ead,tcheck) scf=(maxcycle=1)\\title\\0,1\C,0,1.93389,0.684272,0.091161
 3\C,0,0.494401,1.09869,0.0262936\C,0,2.21449,-0.664159,-0.645077\C,0,3
 .73683,-0.868562,-0.687108\C,0,-1.87937,0.550327,0.143538\C,0,-2.68074
 ,-0.731499,0.245238\C,0,-2.3931,1.40059,-1.04148\H,0,-1.56958,-1.74796
 ,-1.04495\H,0,-3.46869,1.38822,-0.964363\H,0,-2.01208,2.45804,-1.02731
 \H,0,-2.18699,0.928642,-2.02266\H,0,-2.19058,1.14015,1.05909\H,0,-0.29

 Normal termination of Gaussian 16 at Tue Apr  8 19:55:38 2025.
