 Gaussian 16, Revision C.01,

 ----------------------------------------------------------------------
 #t hf aug-cc-pvdz symm=none int=(grid=ultrafine) guess=(read,tcheck) s
 table=(opt,rrhf)
 ----------------------------------------------------------------------
 -----
 title
 -----
 Symbolic Z-matrix:
 Charge =  0 Multiplicity = 1

 SCF Done:  E(RHF) =  -869.519198600     A.U. after   15 cycles
 Normal termination of Gaussian 16 at Tue Apr  8 21:33:15 2025.
 Gaussian 16:  ES64L-G16RevC.01  3-Jul-2019

 ----------------------------------------------------------------------
 #t hf aug-cc-pvdz iop(5/13=1,5/36=2,99/5=2) pseudo=read geom=check gue
 ss=(read,tcheck) scf=(maxcycle=1)
 ----------------------------------------------------------------------
 -----
 title
 -----
 Structure from the checkpoint file:  "ANI1ccx_185_conf10_mol2.chk"
 Charge =  0 Multiplicity = 1

                         Standard orientation:
 ---------------------------------------------------------------------
 Center     Atomic      Atomic             Coordinates (Angstroms)
 Number     Number       Type             X           Y           Z
 ---------------------------------------------------------------------
      1          6           0       -0.726866    2.117310   -0.441158
      2          6           0        3.138749   -1.488622   -0.865187
      3          6           0        2.683639   -0.139629   -0.311366
      4          6           0        0.914806   -1.307471    1.100830
      5          6           0        1.298609   -0.051396    0.269007
      6          6           0        2.906420    1.037648   -1.255350
      7          6           0       -2.886241   -0.815691    0.434286
      8          6           0       -2.308081    0.109678   -0.408760
      9          6           0       -2.177710    1.569581   -0.269522
     10          6           0       -0.034946    1.909400    0.971308
     11          6           0       -1.920412   -1.823469   -1.244170
     12          1           0        3.300849   -0.004478    0.606770
     13          1           0        0.195732   -3.075201    1.017790
     14          1           0        2.477228   -1.780302   -1.646530
     15          1           0        3.145138   -2.241442   -0.073411
     16          1           0        4.165209   -1.419413   -1.284120
     17          1           0        2.717210    2.002688   -0.805160
     18          1           0        2.259600    0.921710   -2.140800
     19          1           0        3.970800    1.031778   -1.545950
     20          1           0        0.508695   -0.073244   -0.466213
     21          1           0       -1.632402   -2.642010   -1.838090
     22          1           0       -2.758442   -2.929809    0.321106
     23          1           0       -3.390831   -0.687785    1.380720
     24          1           0       -2.484470    1.858871    0.739985
     25          1           0       -2.839780    2.043731   -0.990153
     26          1           0       -0.869530    3.210310   -0.464756
     27          1           0       -0.151813    2.496590   -2.296900
     28          1           0       -0.396080    0.921243   -2.061070
     29          1           0        1.231930    1.038599    2.025420
     30          7           0        0.001994    1.749810   -1.648760
     31          7           0       -1.664761   -0.547536   -1.412350
     32          7           0       -2.574842   -2.019649   -0.098450
     33          7           0        1.110100    1.113739    1.059120
     34          8           0        0.872308   -1.293011    2.287080
     35          8           0       -0.546469    2.510630    1.896680
     36          8           0        0.563626   -2.398921    0.359355
 ---------------------------------------------------------------------

 SCF Done:  E(RHF) =  -873.525683863     A.U. after    2 cycles

 The electronic state is 1-A.
 Alpha  occ. eigenvalues --  -21.12287 -21.06104 -21.02334 -15.81386 -15.74876
 Alpha  occ. eigenvalues --  -15.72096 -15.71745 -11.55209 -11.51745 -11.50561
 Alpha  occ. eigenvalues --  -11.47249 -11.45553 -11.44292 -11.42251 -11.42036
 Alpha  occ. eigenvalues --  -11.38357 -11.37764 -11.35690  -1.82963  -1.70310
 Alpha  occ. eigenvalues --   -1.66510  -1.59286  -1.42319  -1.34703  -1.28686
 Alpha  occ. eigenvalues --   -1.22388  -1.15598  -1.05859  -1.04137  -1.00048
 Alpha  occ. eigenvalues --   -0.93901  -0.86495  -0.85147  -0.80295  -0.79194
 Alpha  occ. eigenvalues --   -0.78444  -0.73979  -0.68000  -0.66556  -0.66046
 Alpha  occ. eigenvalues --   -0.64030  -0.63586  -0.61574  -0.60163  -0.59013
 Alpha  occ. eigenvalues --   -0.58176  -0.57524  -0.56601  -0.54771  -0.54088
 Alpha  occ. eigenvalues --   -0.53124  -0.52363  -0.51690  -0.49661  -0.48171
 Alpha  occ. eigenvalues --   -0.46781  -0.45996  -0.44176  -0.43610  -0.42045
 Alpha  occ. eigenvalues --   -0.39941  -0.37507  -0.35488  -0.34691  -0.31828
 Alpha  occ. eigenvalues --   -0.30209  -0.29210  -0.26607
 Alpha virt. eigenvalues --    0.02727   0.03871   0.04248   0.04605   0.05348
 Alpha virt. eigenvalues --    0.05537   0.05973   0.06333   0.06453   0.06684
 Alpha virt. eigenvalues --    0.07253   0.07815   0.08166   0.08483   0.09103

 Mulliken charges:
               1
     1  C   -0.118014
     2  C   -5.044493
     3  C   -1.788549
     4  C    8.222070
     5  C   -2.792334
     6  C   -5.266650
     7  C   -2.492185
     8  C    6.015668
     9  C   -3.893806
    10  C    6.295457
    11  C    0.161080
    12  H    1.754966
    13  H    0.763520
    14  H    1.411760
    15  H    1.247303
    16  H    1.189362
    17  H    1.494383
    18  H    1.494230
    19  H    1.109846
    20  H    4.002564
    21  H    1.901987
    22  H    0.969880
    23  H    1.345954
    24  H    1.220974
    25  H    1.209103
    26  H    1.624659
    27  H    0.599604
    28  H    0.746165
    29  H    0.711483
    30  N   -3.287592
    31  N   -3.771730
    32  N   -3.324423
    33  N   -2.714480
    34  O   -3.592071
    35  O   -4.062129
    36  O   -3.343563
 Sum of Mulliken charges =   0.00000

 Dipole moment (field-independent basis, Debye):
    X=             -2.0804    Y=             -4.3113    Z=             -1.3579  Tot=              4.9758

 Test job not archived.
 1\1\GINC-SE110\SP\RHF\Aug-CC-pVDZ\C11H18N4O3\OHZDE\08-Apr-2025\0\\#t h
 f aug-cc-pvdz iop(5/13=1,5/36=2,99/5=2) pseudo=read geom=check guess=(
 read,tcheck) scf=(maxcycle=1)\\title\\0,1\C,0,-0.726866,2.11731,-0.441
 158\C,0,3.13875,-1.48862,-0.865187\C,0,2.68364,-0.139627,-0.311366\C,0
 ,0.914807,-1.30747,1.10083\C,0,1.29861,-0.0513951,0.269007\C,0,2.90642
 ,1.03765,-1.25535\C,0,-2.88624,-0.815692,0.434286\C,0,-2.30808,0.10967
 7,-0.40876\C,0,-2.17771,1.56958,-0.269522\C,0,-0.0349465,1.9094,0.9713
 08\C,0,-1.92041,-1.82347,-1.24417\H,0,3.30085,-0.00447575,0.60677\H,0,

 Normal termination of Gaussian 16 at Tue Apr  8 21:34:24 2025.
