 Gaussian 16, Revision C.01,

 ----------------------------------------------------------------------
 #t hf aug-cc-pvdz symm=none int=(grid=ultrafine) guess=(read,tcheck) s
 table=(opt,rrhf)
 ----------------------------------------------------------------------
 -----
 title
 -----
 Symbolic Z-matrix:
 Charge =  0 Multiplicity = 1

 SCF Done:  E(RHF) =  -809.797731327     A.U. after   14 cycles
 Normal termination of Gaussian 16 at Tue Apr  8 20:47:42 2025.
 Gaussian 16:  ES64L-G16RevC.01  3-Jul-2019

 ----------------------------------------------------------------------
 #t hf aug-cc-pvdz iop(5/13=1,5/36=2,99/5=2) pseudo=read geom=check gue
 ss=(read,tcheck) scf=(maxcycle=1)
 ----------------------------------------------------------------------
 -----
 title
 -----
 Structure from the checkpoint file:  "ANI1ccx_1634_conf9_mol1.chk"
 Charge =  0 Multiplicity = 1

                         Standard orientation:
 ---------------------------------------------------------------------
 Center     Atomic      Atomic             Coordinates (Angstroms)
 Number     Number       Type             X           Y           Z
 ---------------------------------------------------------------------
      1          6           0       -3.417370    0.005056    0.523167
      2          6           0       -2.210751   -0.760142   -0.013905
      3          6           0       -0.556742    1.093971    0.506166
      4          6           0       -0.165531    1.792781   -0.892446
      5          6           0        0.480448    1.238190    1.676751
      6          6           0        1.542330    0.142107    1.884011
      7          6           0        2.852740    0.231895    1.137581
      8          6           0        2.183259   -1.249061   -0.665317
      9          1           0        1.269551    2.733090   -1.687689
     10          1           0        3.936468   -2.123652    0.029359
     11          1           0        2.817658   -3.198901   -0.712253
     12          1           0        1.101768   -2.225460   -1.836679
     13          1           0        2.272190    0.785488   -0.725686
     14          1           0        3.266821    1.226178    1.219931
     15          1           0        3.523289   -0.523836    1.590331
     16          1           0        1.791100    0.251556    2.952661
     17          1           0        1.155169   -0.885177    1.712591
     18          1           0       -0.093743    1.326410    2.597401
     19          1           0        1.000401    2.192840    1.535451
     20          1           0       -1.442289    1.684431    0.794689
     21          1           0       -0.265824   -0.847102   -0.284129
     22          1           0       -3.238810    0.477792    1.511751
     23          1           0       -3.623880    0.858869   -0.114780
     24          1           0       -4.900221   -0.970420   -0.464578
     25          1           0       -4.506061   -1.667967    0.945669
     26          7           0       -4.615241   -0.771820    0.489899
     27          7           0       -0.939370   -0.246439    0.181565
     28          7           0        2.670080   -0.024245   -0.248759
     29          7           0        1.203459   -1.256860   -1.484099
     30          7           0        2.950578   -2.332781   -0.208684
     31          8           0       -2.327291   -1.891498   -0.448805
     32          8           0       -0.911033    1.908781   -1.810789
     33          8           0        1.088271    2.277980   -0.879093
 ---------------------------------------------------------------------

 SCF Done:  E(RHF) =  -813.487973713     A.U. after    2 cycles

 The electronic state is 1-A.
 Alpha  occ. eigenvalues --  -21.14084 -21.06242 -21.00824 -15.77647 -15.73298
 Alpha  occ. eigenvalues --  -15.73257 -15.71591 -15.70829 -11.54665 -11.50195
 Alpha  occ. eigenvalues --  -11.49301 -11.48938 -11.46997 -11.43953 -11.40075
 Alpha  occ. eigenvalues --  -11.38009  -1.85078  -1.69388  -1.67490  -1.50757
 Alpha  occ. eigenvalues --   -1.39653  -1.33302  -1.32031  -1.25316  -1.18282
 Alpha  occ. eigenvalues --   -1.07179  -1.00044  -0.96448  -0.87570  -0.82758
 Alpha  occ. eigenvalues --   -0.81513  -0.78442  -0.71357  -0.69161  -0.67383
 Alpha  occ. eigenvalues --   -0.67157  -0.66546  -0.66114  -0.63424  -0.62198
 Alpha  occ. eigenvalues --   -0.60007  -0.58743  -0.57344  -0.55995  -0.54623
 Alpha  occ. eigenvalues --   -0.53638  -0.52781  -0.50665  -0.50186  -0.48795
 Alpha  occ. eigenvalues --   -0.47513  -0.46152  -0.45734  -0.43524  -0.40189
 Alpha  occ. eigenvalues --   -0.36558  -0.35303  -0.33918  -0.32030  -0.31624
 Alpha  occ. eigenvalues --   -0.27596  -0.27258
 Alpha virt. eigenvalues --    0.03490   0.04008   0.04366   0.04521   0.05032
 Alpha virt. eigenvalues --    0.05285   0.05676   0.06321   0.06537   0.07165
 Alpha virt. eigenvalues --    0.07271   0.07830   0.08509   0.08847   0.09165

 Mulliken charges:
               1
     1  C   -2.619695
     2  C    5.645474
     3  C   -2.852360
     4  C    7.364935
     5  C   -2.645539
     6  C   -3.542729
     7  C   -2.958302
     8  C    6.031631
     9  H    1.101306
    10  H    0.655535
    11  H    0.633019
    12  H    0.642419
    13  H    1.187073
    14  H    1.440178
    15  H    1.432282
    16  H    1.287041
    17  H    1.788793
    18  H    1.174975
    19  H    1.643444
    20  H    1.919630
    21  H    1.018502
    22  H    1.507082
    23  H    1.581495
    24  H    0.531239
    25  H    0.627091
    26  N   -2.796252
    27  N   -2.269907
    28  N   -2.346480
    29  N   -3.220549
    30  N   -3.277406
    31  O   -3.528326
    32  O   -3.648615
    33  O   -3.506980
 Sum of Mulliken charges =   0.00000

 Dipole moment (field-independent basis, Debye):
    X=              5.1407    Y=              0.5270    Z=              1.4084  Tot=              5.3561

 Test job not archived.
 1\1\GINC-SE078\SP\RHF\Aug-CC-pVDZ\C8H17N5O3\OHZDE\08-Apr-2025\0\\#t hf
  aug-cc-pvdz iop(5/13=1,5/36=2,99/5=2) pseudo=read geom=check guess=(r
 ead,tcheck) scf=(maxcycle=1)\\title\\0,1\C,0,-3.41737,0.0050533,0.5231
 66\C,0,-2.21075,-0.760144,-0.0139054\C,0,-0.556742,1.09397,0.506165\C,
 0,-0.165532,1.79278,-0.892447\C,0,0.480447,1.23819,1.67675\C,0,1.54233
 ,0.142108,1.88401\C,0,2.85274,0.231896,1.13758\C,0,2.18326,-1.24906,-0
 .665318\H,0,1.26955,2.73309,-1.68769\H,0,3.93647,-2.12365,0.0293588\H,
 0,2.81766,-3.1989,-0.712254\H,0,1.10177,-2.22546,-1.83668\H,0,2.27219,

 Normal termination of Gaussian 16 at Tue Apr  8 20:48:28 2025.
