 Gaussian 16, Revision C.01,

 ----------------------------------------------------------------------
 #t hf aug-cc-pvdz symm=none int=(grid=ultrafine) guess=(read,tcheck) s
 table=(opt,rrhf)
 ----------------------------------------------------------------------
 -----
 title
 -----
 Symbolic Z-matrix:
 Charge =  0 Multiplicity = 1

 SCF Done:  E(RHF) =  -903.407979119     A.U. after   15 cycles
 Normal termination of Gaussian 16 at Tue Apr  8 20:38:08 2025.
 Gaussian 16:  ES64L-G16RevC.01  3-Jul-2019

 ----------------------------------------------------------------------
 #t hf aug-cc-pvdz iop(5/13=1,5/36=2,99/5=2) pseudo=read geom=check gue
 ss=(read,tcheck) scf=(maxcycle=1)
 ----------------------------------------------------------------------
 -----
 title
 -----
 Structure from the checkpoint file:  "ANI1ccx_1597_conf3_mol2.chk"
 Charge =  0 Multiplicity = 1

                         Standard orientation:
 ---------------------------------------------------------------------
 Center     Atomic      Atomic             Coordinates (Angstroms)
 Number     Number       Type             X           Y           Z
 ---------------------------------------------------------------------
      1          6           0       -1.918051   -1.379059   -0.302494
      2          6           0       -0.663812   -1.067269    0.522298
      3          6           0       -3.115551   -0.501729    0.101130
      4          6           0       -2.983780    0.936454   -0.339627
      5          6           0        1.213209    0.490928    0.946009
      6          6           0        1.703190    1.834580    0.484590
      7          6           0        2.426599   -0.507452    0.852708
      8          6           0        2.871989   -1.038620   -0.536860
      9          1           0        1.528670    3.142160   -0.848252
     10          1           0        1.866879    0.329366   -1.697519
     11          1           0        3.002079   -0.706207   -2.427259
     12          1           0        2.222979   -1.390900    1.454851
     13          1           0        3.310519   -0.017104    1.284441
     14          1           0        0.901173    0.564338    1.999821
     15          1           0       -0.171557    0.563251   -0.708268
     16          1           0       -4.957420    1.301082    0.308008
     17          1           0       -4.041851   -0.939936   -0.306056
     18          1           0       -3.298571   -0.512734    1.183031
     19          1           0       -1.760141   -1.103309   -1.357109
     20          1           0       -1.509391   -3.297349   -0.638696
     21          1           0       -2.340971   -3.034619    0.720706
     22          1           0       -4.064990    2.627912   -0.312880
     23          7           0       -2.257911   -2.746469   -0.243986
     24          7           0       -4.084950    1.661782   -0.017562
     25          7           0        0.080734   -0.023717    0.121740
     26          7           0        2.722099   -0.202502   -1.590599
     27          8           0        3.486059   -2.077730   -0.656985
     28          8           0       -0.430235   -1.725689    1.531901
     29          8           0       -2.028380    1.386271   -0.976575
     30          8           0        2.468900    2.490510    1.133671
     31          8           0        1.114910    2.307061   -0.645568
 ---------------------------------------------------------------------

 SCF Done:  E(RHF) =  -907.382907376     A.U. after    2 cycles

 The electronic state is 1-A.
 Alpha  occ. eigenvalues --  -21.14606 -21.07180 -21.04967 -21.02782 -21.02647
 Alpha  occ. eigenvalues --  -15.80134 -15.77264 -15.76566 -15.73738 -11.56688
 Alpha  occ. eigenvalues --  -11.54346 -11.53196 -11.51088 -11.48515 -11.47633
 Alpha  occ. eigenvalues --  -11.41519 -11.41053  -1.85457  -1.73203  -1.71277
 Alpha  occ. eigenvalues --   -1.70640  -1.67916  -1.41483  -1.38822  -1.35833
 Alpha  occ. eigenvalues --   -1.34505  -1.17265  -1.13513  -1.02155  -0.95827
 Alpha  occ. eigenvalues --   -0.84321  -0.84176  -0.79256  -0.78811  -0.74102
 Alpha  occ. eigenvalues --   -0.73249  -0.71426  -0.68313  -0.67021  -0.65900
 Alpha  occ. eigenvalues --   -0.65073  -0.62488  -0.61334  -0.59535  -0.59146
 Alpha  occ. eigenvalues --   -0.55600  -0.54879  -0.53616  -0.51796  -0.51018
 Alpha  occ. eigenvalues --   -0.50019  -0.49847  -0.48308  -0.47142  -0.47009
 Alpha  occ. eigenvalues --   -0.44862  -0.36984  -0.36408  -0.35394  -0.33814
 Alpha  occ. eigenvalues --   -0.32723  -0.31825  -0.30157  -0.29138  -0.28154
 Alpha virt. eigenvalues --    0.02641   0.04071   0.04373   0.04455   0.05063
 Alpha virt. eigenvalues --    0.05849   0.06374   0.06588   0.06948   0.07325
 Alpha virt. eigenvalues --    0.07782   0.08644   0.09332   0.09705   0.10133

 Mulliken charges:
               1
     1  C   -1.683928
     2  C    7.146662
     3  C   -3.236786
     4  C    5.399647
     5  C   -3.290284
     6  C    7.660946
     7  C   -2.984768
     8  C    5.319281
     9  H    0.971170
    10  H    0.821747
    11  H    0.712089
    12  H    1.378606
    13  H    1.392429
    14  H    1.532716
    15  H    1.013786
    16  H    0.859699
    17  H    1.427586
    18  H    1.446933
    19  H    1.967295
    20  H    0.570296
    21  H    0.592855
    22  H    0.740008
    23  N   -3.164219
    24  N   -3.484986
    25  N   -2.185633
    26  N   -3.333545
    27  O   -3.496348
    28  O   -3.834163
    29  O   -3.370540
    30  O   -3.592839
    31  O   -3.295710
 Sum of Mulliken charges =   0.00000

 Dipole moment (field-independent basis, Debye):
    X=             -4.6411    Y=              3.0357    Z=             -1.4029  Tot=              5.7204

 Test job not archived.
 1\1\GINC-SE060\SP\RHF\Aug-CC-pVDZ\C8H14N4O5\OHZDE\08-Apr-2025\0\\#t hf
  aug-cc-pvdz iop(5/13=1,5/36=2,99/5=2) pseudo=read geom=check guess=(r
 ead,tcheck) scf=(maxcycle=1)\\title\\0,1\C,0,-1.91805,-1.37906,-0.3024
 95\C,0,-0.663811,-1.06727,0.522297\C,0,-3.11555,-0.50173,0.101129\C,0,
 -2.98378,0.936453,-0.339628\C,0,1.21321,0.490927,0.946008\C,0,1.70319,
 1.83458,0.484589\C,0,2.4266,-0.507452,0.852707\C,0,2.87199,-1.03862,-0
 .536861\H,0,1.52867,3.14216,-0.848253\H,0,1.86688,0.329366,-1.69752\H,
 0,3.00208,-0.706207,-2.42726\H,0,2.22298,-1.3909,1.45485\H,0,3.31052,-

 Normal termination of Gaussian 16 at Tue Apr  8 20:38:52 2025.
