 Gaussian 16, Revision C.01,

 ----------------------------------------------------------------------
 #t hf aug-cc-pvdz symm=none int=(grid=ultrafine) guess=(read,tcheck) s
 table=(opt,rrhf)
 ----------------------------------------------------------------------
 -----
 title
 -----
 Symbolic Z-matrix:
 Charge =  0 Multiplicity = 1

 SCF Done:  E(RHF) =  -464.386656228     A.U. after   15 cycles
 Normal termination of Gaussian 16 at Tue Apr  8 21:42:51 2025.
 Gaussian 16:  ES64L-G16RevC.01  3-Jul-2019

 ----------------------------------------------------------------------
 #t hf aug-cc-pvdz iop(5/13=1,5/36=2,99/5=2) pseudo=read geom=check gue
 ss=(read,tcheck) scf=(maxcycle=1)
 ----------------------------------------------------------------------
 -----
 title
 -----
 Structure from the checkpoint file:  "ANI1ccx_474_conf7_mol1.chk"
 Charge =  0 Multiplicity = 1

                         Standard orientation:
 ---------------------------------------------------------------------
 Center     Atomic      Atomic             Coordinates (Angstroms)
 Number     Number       Type             X           Y           Z
 ---------------------------------------------------------------------
      1          6           0        1.134090   -0.548166    0.159304
      2          6           0        0.207355    1.616639    0.023660
      3          1           0        2.692570   -0.670295   -1.027220
      4          7           0        1.068751    0.795544   -0.135539
      5          7           0       -2.058060   -0.680470   -0.529429
      6          7           0       -2.907110   -1.141019   -0.001186
      7          8           0        2.117410   -1.227613   -0.490162
      8          8           0       -0.519904    2.519949    0.085508
      9          8           0        0.469206   -1.112202    0.978718
 ---------------------------------------------------------------------

 SCF Done:  E(RHF) =  -466.277983695     A.U. after    2 cycles

 The electronic state is 1-A.
 Alpha  occ. eigenvalues --  -21.17200 -21.14609 -21.07118 -15.87320 -15.87066
 Alpha  occ. eigenvalues --  -15.81172 -11.63392 -11.57225  -1.85530  -1.81567
 Alpha  occ. eigenvalues --   -1.68357  -1.56277  -1.44113  -0.96775  -0.79210
 Alpha  occ. eigenvalues --   -0.76962  -0.68147  -0.67316  -0.65063  -0.58256
 Alpha  occ. eigenvalues --   -0.57938  -0.57612  -0.55895  -0.55668  -0.49523
 Alpha  occ. eigenvalues --   -0.43051  -0.39122  -0.34896  -0.32935
 Alpha virt. eigenvalues --    0.03569   0.07196   0.09528   0.09975   0.10629
 Alpha virt. eigenvalues --    0.11325   0.11686   0.12362   0.12787   0.13756
 Alpha virt. eigenvalues --    0.14331   0.14874   0.15611   0.15995   0.17219

 Mulliken charges:
               1
     1  C    5.789612
     2  C    3.720082
     3  H    0.945246
     4  N   -2.586551
     5  N    0.016123
     6  N    0.017110
     7  O   -2.779288
     8  O   -2.500434
     9  O   -2.621899
 Sum of Mulliken charges =  -0.00000

 Dipole moment (field-independent basis, Debye):
    X=              0.1829    Y=              1.5244    Z=             -0.9600  Tot=              1.8107

 Test job not archived.
 1\1\GINC-SE454\SP\RHF\Aug-CC-pVDZ\C2H1N3O3\OHZDE\08-Apr-2025\0\\#t hf
 aug-cc-pvdz iop(5/13=1,5/36=2,99/5=2) pseudo=read geom=check guess=(re
 ad,tcheck) scf=(maxcycle=1)\\title\\0,1\C,0,1.13409,-0.548164,0.159304
 \C,0,0.207353,1.61664,0.0236604\H,0,2.69257,-0.670292,-1.02722\N,0,1.0
 6875,0.795546,-0.135539\N,0,-2.05806,-0.68047,-0.529429\N,0,-2.90711,-
 1.14102,-0.00118618\O,0,2.11741,-1.22761,-0.490162\O,0,-0.519907,2.519
 95,0.0855078\O,0,0.469206,-1.1122,0.978718\\Version=ES64L-G16RevC.01\S
 tate=1-A\HF=-466.2779837\RMSD=7.922e-02\Dipole=0.0719411,0.599728,-0.3

 Normal termination of Gaussian 16 at Tue Apr  8 21:42:54 2025.
