 Gaussian 16, Revision C.01,

 ----------------------------------------------------------------------
 #t hf aug-cc-pvdz symm=none int=(grid=ultrafine) guess=(read,tcheck) s
 table=(opt,rrhf)
 ----------------------------------------------------------------------
 -----
 title
 -----
 Symbolic Z-matrix:
 Charge =  0 Multiplicity = 1

 SCF Done:  E(RHF) =  -304.170316750     A.U. after   11 cycles
 Normal termination of Gaussian 16 at Tue Apr  8 21:15:27 2025.
 Gaussian 16:  ES64L-G16RevC.01  3-Jul-2019

 ----------------------------------------------------------------------
 #t hf aug-cc-pvdz iop(5/13=1,5/36=2,99/5=2) pseudo=read geom=check gue
 ss=(read,tcheck) scf=(maxcycle=1)
 ----------------------------------------------------------------------
 -----
 title
 -----
 Structure from the checkpoint file:  "ANI1ccx_1904_conf27_mol1.chk"
 Charge =  0 Multiplicity = 1

                         Standard orientation:
 ---------------------------------------------------------------------
 Center     Atomic      Atomic             Coordinates (Angstroms)
 Number     Number       Type             X           Y           Z
 ---------------------------------------------------------------------
      1          1           0        2.675528    0.554282   -0.580297
      2          1           0        1.292247    0.986866    0.139241
      3          1           0        0.976991   -1.098979   -0.136882
      4          1           0        0.452603   -2.216130    0.800618
      5          1           0       -1.210359   -0.939074   -0.156716
      6          1           0       -2.189300   -0.416544    0.886910
      7          1           0       -0.975420    1.043687   -0.068865
      8          1           0       -0.447608    2.334688   -0.695645
      9          8           0        1.986608    0.277269    0.082235
     10          8           0        0.296076   -1.824440   -0.108214
     11          8           0       -1.980980   -0.293807   -0.114635
     12          8           0       -0.373539    1.809878    0.117069
 ---------------------------------------------------------------------

 SCF Done:  E(RHF) =  -305.498195436     A.U. after    2 cycles

 The electronic state is 1-A.
 Alpha  occ. eigenvalues --  -21.09118 -21.08350 -21.08102 -21.07915  -1.68340
 Alpha  occ. eigenvalues --   -1.66007  -1.65204  -1.62392  -0.65186  -0.63394
 Alpha  occ. eigenvalues --   -0.62788  -0.61411  -0.52401  -0.48864  -0.47204
 Alpha  occ. eigenvalues --   -0.43568  -0.36099  -0.34743  -0.33957  -0.33286
 Alpha virt. eigenvalues --    0.03497   0.05030   0.05659   0.06404   0.08021
 Alpha virt. eigenvalues --    0.08772   0.09249   0.11071   0.17947   0.18874
 Alpha virt. eigenvalues --    0.20109   0.20473   0.21813   0.22439   0.23293

 Mulliken charges:
               1
     1  H    0.854939
     2  H    1.290507
     3  H    1.537415
     4  H    0.775581
     5  H    1.400283
     6  H    0.725189
     7  H    1.549732
     8  H    0.765053
     9  O   -2.273069
    10  O   -2.243902
    11  O   -2.253828
    12  O   -2.127900
 Sum of Mulliken charges =  -0.00000

 Dipole moment (field-independent basis, Debye):
    X=              0.6361    Y=              0.2024    Z=             -0.1245  Tot=              0.6790

 Test job not archived.
 1\1\GINC-SE219\SP\RHF\Aug-CC-pVDZ\H8O4\OHZDE\08-Apr-2025\0\\#t hf aug-
 cc-pvdz iop(5/13=1,5/36=2,99/5=2) pseudo=read geom=check guess=(read,t
 check) scf=(maxcycle=1)\\title\\0,1\H,0,2.67553,0.554277,-0.580297\H,0
 ,1.29225,0.986864,0.139241\H,0,0.97699,-1.09898,-0.136882\H,0,0.4526,-
 2.21613,0.800618\H,0,-1.21036,-0.939071,-0.156716\H,0,-2.1893,-0.41653
 9,0.88691\H,0,-0.975417,1.04369,-0.0688644\H,0,-0.447602,2.33469,-0.69
 5645\O,0,1.98661,0.277266,0.0822353\O,0,0.296073,-1.82444,-0.108214\O,
 0,-1.98098,-0.293802,-0.114635\O,0,-0.373534,1.80988,0.117069\\Version

 Normal termination of Gaussian 16 at Tue Apr  8 21:15:30 2025.
