 Gaussian 16, Revision C.01,

 ----------------------------------------------------------------------
 #t hf aug-cc-pvdz symm=none int=(grid=ultrafine) guess=(read,tcheck) s
 table=(opt,rrhf)
 ----------------------------------------------------------------------
 -----
 title
 -----
 Symbolic Z-matrix:
 Charge =  0 Multiplicity = 1

 SCF Done:  E(RHF) =  -407.108981560     A.U. after   14 cycles
 Normal termination of Gaussian 16 at Tue Apr  8 21:49:28 2025.
 Gaussian 16:  ES64L-G16RevC.01  3-Jul-2019

 ----------------------------------------------------------------------
 #t hf aug-cc-pvdz iop(5/13=1,5/36=2,99/5=2) pseudo=read geom=check gue
 ss=(read,tcheck) scf=(maxcycle=1)
 ----------------------------------------------------------------------
 -----
 title
 -----
 Structure from the checkpoint file:  "ANI1ccx_588_conf5_mol1.chk"
 Charge =  0 Multiplicity = 1

                         Standard orientation:
 ---------------------------------------------------------------------
 Center     Atomic      Atomic             Coordinates (Angstroms)
 Number     Number       Type             X           Y           Z
 ---------------------------------------------------------------------
      1          6           0        1.606311    0.003898   -0.043228
      2          6           0       -1.832299    0.008009   -0.045770
      3          1           0        3.492621    0.564456    0.224961
      4          1           0        2.683791    1.371399   -0.987330
      5          1           0        0.856064   -1.314540    1.309050
      6          1           0        2.321040   -1.680751    0.629771
      7          1           0       -0.541358   -1.217429   -1.031160
      8          1           0       -1.087218    1.813441    0.504156
      9          1           0       -2.733369    1.590442    0.715241
     10          1           0       -2.502050   -1.466318   -0.962965
     11          7           0        2.780661    0.487232   -0.502138
     12          7           0        1.755850   -0.909155    0.974599
     13          7           0        0.510513    0.481317   -0.470912
     14          7           0       -0.533487   -0.427023   -0.410644
     15          7           0       -1.844749    1.135151    0.747023
     16          7           0       -2.830730   -0.729256   -0.319033
 ---------------------------------------------------------------------

 SCF Done:  E(RHF) =  -408.996109236     A.U. after    2 cycles

 The electronic state is 1-A.
 Alpha  occ. eigenvalues --  -15.78165 -15.77745 -15.75327 -15.75107 -15.71831
 Alpha  occ. eigenvalues --  -15.68246 -11.48308 -11.45902  -1.57281  -1.46901
 Alpha  occ. eigenvalues --   -1.34608  -1.29261  -1.24130  -1.11620  -0.84345
 Alpha  occ. eigenvalues --   -0.81705  -0.73804  -0.71756  -0.70737  -0.61782
 Alpha  occ. eigenvalues --   -0.60645  -0.59088  -0.57617  -0.55380  -0.53524
 Alpha  occ. eigenvalues --   -0.45947  -0.40530  -0.38811  -0.35759  -0.34094
 Alpha  occ. eigenvalues --   -0.26582
 Alpha virt. eigenvalues --    0.03187   0.04521   0.05213   0.05858   0.06332
 Alpha virt. eigenvalues --    0.06817   0.07954   0.08411   0.11573   0.12519
 Alpha virt. eigenvalues --    0.12705   0.14156   0.14406   0.14694   0.15485

 Mulliken charges:
               1
     1  C    5.696205
     2  C    4.702465
     3  H    0.587958
     4  H    0.578469
     5  H    0.704675
     6  H    0.592849
     7  H    0.681273
     8  H    0.622922
     9  H    0.590345
    10  H    0.596297
    11  N   -2.971606
    12  N   -2.797754
    13  N   -2.021554
    14  N   -1.821389
    15  N   -2.725595
    16  N   -3.015559
 Sum of Mulliken charges =  -0.00000

 Dipole moment (field-independent basis, Debye):
    X=              5.0468    Y=              0.3213    Z=              0.0841  Tot=              5.0577

 Test job not archived.
 1\1\GINC-SE331\SP\RHF\Aug-CC-pVDZ\C2H8N6\OHZDE\08-Apr-2025\0\\#t hf au
 g-cc-pvdz iop(5/13=1,5/36=2,99/5=2) pseudo=read geom=check guess=(read
 ,tcheck) scf=(maxcycle=1)\\title\\0,1\C,0,1.60631,0.0038983,-0.0432276
 \C,0,-1.8323,0.00800786,-0.0457703\H,0,3.49262,0.564457,0.224961\H,0,2
 .68379,1.3714,-0.98733\H,0,0.856064,-1.31454,1.30905\H,0,2.32104,-1.68
 075,0.629771\H,0,-0.541358,-1.21743,-1.03116\H,0,-1.08722,1.81344,0.50
 4156\H,0,-2.73337,1.59044,0.715241\H,0,-2.50205,-1.46632,-0.962965\N,0
 ,2.78066,0.487233,-0.502138\N,0,1.75585,-0.909155,0.974599\N,0,0.51051

 Normal termination of Gaussian 16 at Tue Apr  8 21:49:33 2025.
