 Gaussian 16, Revision C.01,

 ----------------------------------------------------------------------
 #t hf aug-cc-pvdz symm=none int=(grid=ultrafine) guess=(read,tcheck) s
 table=(opt,rrhf)
 ----------------------------------------------------------------------
 -----
 title
 -----
 Symbolic Z-matrix:
 Charge =  0 Multiplicity = 1

 SCF Done:  E(RHF) =  -390.242513132     A.U. after   17 cycles
 Normal termination of Gaussian 16 at Tue Apr  8 22:01:08 2025.
 Gaussian 16:  ES64L-G16RevC.01  3-Jul-2019

 ----------------------------------------------------------------------
 #t hf aug-cc-pvdz iop(5/13=1,5/36=2,99/5=2) pseudo=read geom=check gue
 ss=(read,tcheck) scf=(maxcycle=1)
 ----------------------------------------------------------------------
 -----
 title
 -----
 Structure from the checkpoint file:  "ANI1ccx_847_conf8_mol1.chk"
 Charge =  0 Multiplicity = 1

                         Standard orientation:
 ---------------------------------------------------------------------
 Center     Atomic      Atomic             Coordinates (Angstroms)
 Number     Number       Type             X           Y           Z
 ---------------------------------------------------------------------
      1          6           0       -1.489709   -0.297433   -0.010489
      2          6           0       -1.113758    1.222040    0.019056
      3          6           0        0.633096   -0.048235   -0.029760
      4          6           0        2.040071   -0.206618    0.003623
      5          1           0       -1.891718    1.967300    0.051691
      6          7           0        0.126405    1.339649   -0.020416
      7          7           0       -0.203680   -0.935372   -0.011873
      8          7           0        3.222211   -0.326012    0.022688
      9          8           0       -2.567629   -0.816710    0.015117
 ---------------------------------------------------------------------

 SCF Done:  E(RHF) =  -391.912606974     A.U. after    2 cycles

 The electronic state is 1-A.
 Alpha  occ. eigenvalues --  -21.13248 -15.82880 -15.81148 -15.79877 -11.56518
 Alpha  occ. eigenvalues --  -11.56006 -11.49721 -11.48275  -1.78123  -1.59661
 Alpha  occ. eigenvalues --   -1.34796  -1.33036  -1.10646  -0.91869  -0.85389
 Alpha  occ. eigenvalues --   -0.77136  -0.66824  -0.66561  -0.60151  -0.56090
 Alpha  occ. eigenvalues --   -0.51736  -0.51317  -0.48198  -0.47812  -0.44251
 Alpha  occ. eigenvalues --   -0.42284  -0.34456
 Alpha virt. eigenvalues --    0.00727   0.02841   0.07017   0.08092   0.09254
 Alpha virt. eigenvalues --    0.09370   0.10110   0.10938   0.11035   0.12205
 Alpha virt. eigenvalues --    0.12781   0.13263   0.14300   0.14755   0.15287

 Mulliken charges:
               1
     1  C    4.491088
     2  C    0.234155
     3  C    4.246439
     4  C    1.406912
     5  H    1.575652
     6  N   -3.160600
     7  N   -3.170468
     8  N   -2.490894
     9  O   -3.132285
 Sum of Mulliken charges =   0.00000

 Dipole moment (field-independent basis, Debye):
    X=             -3.1296    Y=              1.3470    Z=              0.0030  Tot=              3.4071

 Test job not archived.
 1\1\GINC-SE331\SP\RHF\Aug-CC-pVDZ\C4H1N3O1\OHZDE\08-Apr-2025\0\\#t hf
 aug-cc-pvdz iop(5/13=1,5/36=2,99/5=2) pseudo=read geom=check guess=(re
 ad,tcheck) scf=(maxcycle=1)\\title\\0,1\C,0,-1.48971,-0.297433,-0.0104
 892\C,0,-1.11376,1.22204,0.0190564\C,0,0.633095,-0.0482337,-0.0297603\
 C,0,2.04007,-0.206617,0.00362256\H,0,-1.89172,1.9673,0.0516911\N,0,0.1
 26403,1.33965,-0.020416\N,0,-0.203681,-0.935371,-0.0118729\N,0,3.22221
 ,-0.32601,0.0226881\O,0,-2.56763,-0.81671,0.0151172\\Version=ES64L-G16
 RevC.01\State=1-A\HF=-391.912607\RMSD=6.457e-01\Dipole=-1.231263,0.529

 Normal termination of Gaussian 16 at Tue Apr  8 22:01:12 2025.
