 Gaussian 16, Revision C.01,

 ----------------------------------------------------------------------
 #t hf aug-cc-pvdz symm=none int=(grid=ultrafine) guess=(read,tcheck) s
 table=(opt,rrhf)
 ----------------------------------------------------------------------
 -----
 title
 -----
 Symbolic Z-matrix:
 Charge =  0 Multiplicity = 1

 SCF Done:  E(RHF) =  -388.964581415     A.U. after   13 cycles
 Normal termination of Gaussian 16 at Tue Apr  8 21:41:04 2025.
 Gaussian 16:  ES64L-G16RevC.01  3-Jul-2019

 ----------------------------------------------------------------------
 #t hf aug-cc-pvdz iop(5/13=1,5/36=2,99/5=2) pseudo=read geom=check gue
 ss=(read,tcheck) scf=(maxcycle=1)
 ----------------------------------------------------------------------
 -----
 title
 -----
 Structure from the checkpoint file:  "ANI1ccx_446_conf1_mol2.chk"
 Charge =  0 Multiplicity = 1

                         Standard orientation:
 ---------------------------------------------------------------------
 Center     Atomic      Atomic             Coordinates (Angstroms)
 Number     Number       Type             X           Y           Z
 ---------------------------------------------------------------------
      1          6           0        0.199842   -0.150862   -0.031493
      2          1           0        2.890971    0.315998   -0.774555
      3          1           0        2.155921    0.941308    0.575329
      4          1           0        1.495781   -1.548780    0.521182
      5          1           0       -0.589161   -1.841630   -0.764965
      6          1           0       -2.372389   -0.918344    1.069640
      7          1           0       -2.323119    0.013727   -0.326303
      8          1           0       -1.020509    2.565180   -0.036652
      9          7           0        2.552211    0.096561    0.170909
     10          7           0        1.439971   -0.776307   -0.147465
     11          7           0       -0.767543   -1.175440   -0.051405
     12          7           0       -2.149559   -0.892823    0.071894
     13          7           0        0.096849    1.111670    0.035832
     14          8           0       -1.205009    1.604010   -0.079133
 ---------------------------------------------------------------------

 SCF Done:  E(RHF) =  -390.715314892     A.U. after    2 cycles

 The electronic state is 1-A.
 Alpha  occ. eigenvalues --  -21.09895 -15.76778 -15.76665 -15.75415 -15.75183
 Alpha  occ. eigenvalues --  -15.75146 -11.46792  -1.79649  -1.54302  -1.44590
 Alpha  occ. eigenvalues --   -1.25722  -1.14933  -1.06228  -0.79781  -0.74017
 Alpha  occ. eigenvalues --   -0.70386  -0.67315  -0.64017  -0.59296  -0.57388
 Alpha  occ. eigenvalues --   -0.54605  -0.54347  -0.44676  -0.44634  -0.37985
 Alpha  occ. eigenvalues --   -0.35563  -0.33677  -0.27249
 Alpha virt. eigenvalues --    0.04272   0.05317   0.05712   0.06151   0.06596
 Alpha virt. eigenvalues --    0.07271   0.07561   0.11781   0.13809   0.14271
 Alpha virt. eigenvalues --    0.14782   0.16255   0.17354   0.17408   0.17519

 Mulliken charges:
               1
     1  C    4.733525
     2  H    0.679629
     3  H    0.627530
     4  H    0.686396
     5  H    0.759572
     6  H    0.724478
     7  H    0.802622
     8  H    0.973191
     9  N   -1.898009
    10  N   -1.575542
    11  N   -1.332263
    12  N   -2.162608
    13  N   -0.211475
    14  O   -2.807046
 Sum of Mulliken charges =  -0.00000

 Dipole moment (field-independent basis, Debye):
    X=             -0.8285    Y=              0.5012    Z=             -0.0405  Tot=              0.9691

 Test job not archived.
 1\1\GINC-SE424\SP\RHF\Aug-CC-pVDZ\C1H7N5O1\OHZDE\08-Apr-2025\0\\#t hf
 aug-cc-pvdz iop(5/13=1,5/36=2,99/5=2) pseudo=read geom=check guess=(re
 ad,tcheck) scf=(maxcycle=1)\\title\\0,1\C,0,0.199841,-0.150862,-0.0314
 932\H,0,2.89097,0.315998,-0.774555\H,0,2.15592,0.941308,0.575329\H,0,1
 .49578,-1.54878,0.521182\H,0,-0.589162,-1.84163,-0.764965\H,0,-2.37239
 ,-0.918344,1.06964\H,0,-2.32312,0.0137267,-0.326303\H,0,-1.02051,2.565
 18,-0.0366524\N,0,2.55221,0.0965604,0.170909\N,0,1.43997,-0.776307,-0.
 147465\N,0,-0.767544,-1.17544,-0.0514053\N,0,-2.14956,-0.892823,0.0718

 Normal termination of Gaussian 16 at Tue Apr  8 21:41:08 2025.
