 Gaussian 16, Revision C.01,

 ----------------------------------------------------------------------
 #t hf aug-cc-pvdz symm=none int=(grid=ultrafine) guess=(read,tcheck) s
 table=(opt,rrhf)
 ----------------------------------------------------------------------
 -----
 title
 -----
 Symbolic Z-matrix:
 Charge =  0 Multiplicity = 1

 SCF Done:  E(RHF) =  -626.311211598     A.U. after   16 cycles
 Normal termination of Gaussian 16 at Tue Apr  8 20:39:32 2025.
 Gaussian 16:  ES64L-G16RevC.01  3-Jul-2019

 ----------------------------------------------------------------------
 #t hf aug-cc-pvdz iop(5/13=1,5/36=2,99/5=2) pseudo=read geom=check gue
 ss=(read,tcheck) scf=(maxcycle=1)
 ----------------------------------------------------------------------
 -----
 title
 -----
 Structure from the checkpoint file:  "ANI1ccx_1715_conf1_mol1.chk"
 Charge =  0 Multiplicity = 1

                         Standard orientation:
 ---------------------------------------------------------------------
 Center     Atomic      Atomic             Coordinates (Angstroms)
 Number     Number       Type             X           Y           Z
 ---------------------------------------------------------------------
      1          6           0        1.986269   -1.134760   -0.326954
      2          6           0       -2.389241    0.493281   -0.316454
      3          6           0       -2.128801   -0.853058    0.281050
      4          6           0       -1.105391    0.706792   -1.284540
      5          6           0        0.235517    0.458530   -0.761474
      6          6           0        0.955729    1.454921   -0.183129
      7          6           0        0.797985   -0.862473   -0.919692
      8          6           0        2.232859    1.120410    0.416625
      9          6           0        2.781809   -0.158037    0.273988
     10          1           0       -1.326671   -0.013370   -2.100020
     11          1           0       -1.197821    1.729321   -1.629070
     12          1           0       -3.196771    0.467839   -1.102490
     13          1           0       -2.910531    1.244281    1.478860
     14          1           0       -1.949901   -1.702389    2.001720
     15          1           0        2.813379    1.802020    1.049450
     16          1           0        4.636059    0.456919    0.537364
     17          1           0        0.634950    2.493441   -0.192222
     18          1           0        2.507389   -2.067240   -0.249757
     19          1           0       -1.792100    2.208111    0.773836
     20          1           0        0.111784   -1.596679   -1.341640
     21          7           0       -2.627281    1.639171    0.566354
     22          8           0       -2.101551   -1.813459   -0.442306
     23          8           0       -2.026231   -0.806836    1.638130
     24          8           0        4.110379   -0.360967    0.520799
 ---------------------------------------------------------------------

 SCF Done:  E(RHF) =  -629.137093122     A.U. after    2 cycles

 The electronic state is 1-A.
 Alpha  occ. eigenvalues --  -21.13667 -21.10225 -21.05776 -15.73545 -11.54730
 Alpha  occ. eigenvalues --  -11.51391 -11.46950 -11.45185 -11.44338 -11.42314
 Alpha  occ. eigenvalues --  -11.40580 -11.40439 -11.37055  -1.82853  -1.75469
 Alpha  occ. eigenvalues --   -1.67591  -1.36629  -1.31019  -1.14740  -1.09334
 Alpha  occ. eigenvalues --   -1.04287  -0.94728  -0.89149  -0.83569  -0.78312
 Alpha  occ. eigenvalues --   -0.70513  -0.67247  -0.66108  -0.65869  -0.63113
 Alpha  occ. eigenvalues --   -0.61897  -0.58821  -0.57448  -0.57176  -0.55068
 Alpha  occ. eigenvalues --   -0.53796  -0.51260  -0.48696  -0.46352  -0.46193
 Alpha  occ. eigenvalues --   -0.44187  -0.41706  -0.38989  -0.37803  -0.34796
 Alpha  occ. eigenvalues --   -0.32957  -0.29418  -0.26622
 Alpha virt. eigenvalues --    0.03489   0.04272   0.04814   0.05396   0.05854
 Alpha virt. eigenvalues --    0.06152   0.06657   0.06844   0.07730   0.07979
 Alpha virt. eigenvalues --    0.08313   0.10093   0.10231   0.11075   0.11851

 Mulliken charges:
               1
     1  C   -0.045866
     2  C   -1.835113
     3  C    8.258963
     4  C   -4.439481
     5  C    5.828179
     6  C   -3.505638
     7  C   -2.745588
     8  C   -2.905469
     9  C    2.274239
    10  H    0.910510
    11  H    1.216490
    12  H    1.561781
    13  H    0.636224
    14  H    0.992024
    15  H    1.459012
    16  H    0.952491
    17  H    1.894786
    18  H    1.357866
    19  H    0.463953
    20  H    1.907264
    21  N   -2.965314
    22  O   -3.545979
    23  O   -3.548752
    24  O   -4.176579
 Sum of Mulliken charges =  -0.00000

 Dipole moment (field-independent basis, Debye):
    X=              1.2729    Y=              0.5524    Z=              1.3866  Tot=              1.9617

 Test job not archived.
 1\1\GINC-SE036\SP\RHF\Aug-CC-pVDZ\C9H11N1O3\OHZDE\08-Apr-2025\0\\#t hf
  aug-cc-pvdz iop(5/13=1,5/36=2,99/5=2) pseudo=read geom=check guess=(r
 ead,tcheck) scf=(maxcycle=1)\\title\\0,1\C,0,1.98627,-1.13476,-0.32695
 4\C,0,-2.38924,0.49328,-0.316454\C,0,-2.1288,-0.853059,0.28105\C,0,-1.
 10539,0.706791,-1.28454\C,0,0.235518,0.458529,-0.761474\C,0,0.95573,1.
 45492,-0.183129\C,0,0.797986,-0.862474,-0.919692\C,0,2.23286,1.12041,0
 .416625\C,0,2.78181,-0.158037,0.273988\H,0,-1.32667,-0.0133708,-2.1000
 2\H,0,-1.19782,1.72932,-1.62907\H,0,-3.19677,0.467838,-1.10249\H,0,-2.

 Normal termination of Gaussian 16 at Tue Apr  8 20:39:53 2025.
