 Gaussian 16, Revision C.01,

 ----------------------------------------------------------------------
 #t hf aug-cc-pvdz symm=none int=(grid=ultrafine) guess=(read,tcheck) s
 table=(opt,rrhf)
 ----------------------------------------------------------------------
 -----
 title
 -----
 Symbolic Z-matrix:
 Charge =  0 Multiplicity = 1

 SCF Done:  E(RHF) =  -502.736178471     A.U. after   15 cycles
 Normal termination of Gaussian 16 at Tue Apr  8 22:15:25 2025.
 Gaussian 16:  ES64L-G16RevC.01  3-Jul-2019

 ----------------------------------------------------------------------
 #t hf aug-cc-pvdz iop(5/13=1,5/36=2,99/5=2) pseudo=read geom=check gue
 ss=(read,tcheck) scf=(maxcycle=1)
 ----------------------------------------------------------------------
 -----
 title
 -----
 Structure from the checkpoint file:  "ANI1ccx_948_conf1_mol2.chk"
 Charge =  0 Multiplicity = 1

                         Standard orientation:
 ---------------------------------------------------------------------
 Center     Atomic      Atomic             Coordinates (Angstroms)
 Number     Number       Type             X           Y           Z
 ---------------------------------------------------------------------
      1          6           0        3.318901   -0.230057   -0.008582
      2          6           0        0.978584    0.236649   -0.008066
      3          6           0       -2.005370   -1.478469   -0.017279
      4          6           0       -1.498869    0.543198    0.001189
      5          1           0       -2.445579    2.236201   -0.152456
      6          1           0       -0.650186    2.437540   -0.068454
      7          1           0        1.769710   -1.726910    0.175226
      8          1           0       -2.570060   -2.398329   -0.008667
      9          1           0        3.269481    0.854435   -0.061032
     10          1           0        3.920510   -0.635130   -0.825116
     11          1           0        3.842270   -0.557674    0.907329
     12          7           0       -1.506069    1.880661    0.116410
     13          7           0        1.968400   -0.761563   -0.012122
     14          7           0       -0.358450   -0.214084    0.051723
     15          7           0       -0.699641   -1.551320    0.027776
     16          7           0       -2.545089   -0.217267   -0.083045
     17          8           0        1.261291    1.425870   -0.059450
 ---------------------------------------------------------------------

 SCF Done:  E(RHF) =  -504.987982304     A.U. after    2 cycles

 The electronic state is 1-A.
 Alpha  occ. eigenvalues --  -21.04497 -15.80588 -15.78218 -15.77074 -15.75650
 Alpha  occ. eigenvalues --  -15.72459 -11.54432 -11.51415 -11.43600 -11.39606
 Alpha  occ. eigenvalues --   -1.75591  -1.66045  -1.41497  -1.37922  -1.31523
 Alpha  occ. eigenvalues --   -1.18616  -1.02237  -0.90988  -0.86096  -0.79702
 Alpha  occ. eigenvalues --   -0.75408  -0.68925  -0.66854  -0.64735  -0.60979
 Alpha  occ. eigenvalues --   -0.59420  -0.57848  -0.55173  -0.52277  -0.51148
 Alpha  occ. eigenvalues --   -0.47734  -0.46046  -0.40044  -0.37979  -0.33140
 Alpha  occ. eigenvalues --   -0.32548  -0.30313
 Alpha virt. eigenvalues --    0.03587   0.04967   0.05284   0.06101   0.06435
 Alpha virt. eigenvalues --    0.06796   0.08431   0.09649   0.10792   0.11148
 Alpha virt. eigenvalues --    0.11930   0.12140   0.13442   0.14000   0.14337

 Mulliken charges:
               1
     1  C   -3.730632
     2  C    5.569560
     3  C    1.217874
     4  C    4.228863
     5  H    0.577465
     6  H    0.745184
     7  H    0.819963
     8  H    1.725501
     9  H    1.322220
    10  H    1.354714
    11  H    1.345231
    12  N   -3.021078
    13  N   -2.725500
    14  N   -1.189861
    15  N   -2.078669
    16  N   -3.261297
    17  O   -2.899538
 Sum of Mulliken charges =  -0.00000

 Dipole moment (field-independent basis, Debye):
    X=              1.5675    Y=              0.6243    Z=             -0.1788  Tot=              1.6966

 Test job not archived.
 1\1\GINC-SE132\SP\RHF\Aug-CC-pVDZ\C4H7N5O1\OHZDE\08-Apr-2025\0\\#t hf
 aug-cc-pvdz iop(5/13=1,5/36=2,99/5=2) pseudo=read geom=check guess=(re
 ad,tcheck) scf=(maxcycle=1)\\title\\0,1\C,0,3.3189,-0.230057,-0.008582
 39\C,0,0.978583,0.236649,-0.00806602\C,0,-2.00537,-1.47847,-0.0172785\
 C,0,-1.49887,0.543197,0.00118947\H,0,-2.44558,2.2362,-0.152456\H,0,-0.
 650187,2.43754,-0.0684544\H,0,1.76971,-1.72691,0.175226\H,0,-2.57006,-
 2.39833,-0.00866661\H,0,3.26948,0.854435,-0.0610323\H,0,3.92051,-0.635
 13,-0.825116\H,0,3.84227,-0.557674,0.907329\N,0,-1.50607,1.88066,0.116

 Normal termination of Gaussian 16 at Tue Apr  8 22:15:34 2025.
