 Gaussian 16, Revision C.01,

 ----------------------------------------------------------------------
 #t hf aug-cc-pvdz symm=none int=(grid=ultrafine) guess=(read,tcheck) s
 table=(opt,rrhf)
 ----------------------------------------------------------------------
 -----
 title
 -----
 Symbolic Z-matrix:
 Charge =  0 Multiplicity = 1

 SCF Done:  E(RHF) =  -813.577337599     A.U. after   15 cycles
 Normal termination of Gaussian 16 at Tue Apr  8 21:18:32 2025.
 Gaussian 16:  ES64L-G16RevC.01  3-Jul-2019

 ----------------------------------------------------------------------
 #t hf aug-cc-pvdz iop(5/13=1,5/36=2,99/5=2) pseudo=read geom=check gue
 ss=(read,tcheck) scf=(maxcycle=1)
 ----------------------------------------------------------------------
 -----
 title
 -----
 Structure from the checkpoint file:  "ANI1ccx_1770_conf10_mol1.chk"
 Charge =  0 Multiplicity = 1

                         Standard orientation:
 ---------------------------------------------------------------------
 Center     Atomic      Atomic             Coordinates (Angstroms)
 Number     Number       Type             X           Y           Z
 ---------------------------------------------------------------------
      1          6           0       -1.340099   -0.815982    0.029880
      2          6           0        1.634610   -0.262042   -0.785728
      3          6           0        1.223738    2.081271   -0.167436
      4          6           0        1.446349    0.709624    0.320041
      5          6           0        2.087462   -1.611538   -0.346043
      6          6           0       -3.198281    0.823862   -0.477057
      7          6           0       -1.953580    0.141182   -0.966889
      8          6           0       -0.794571   -0.117338    1.335860
      9          6           0       -2.236289   -0.708725   -2.193440
     10          1           0        0.836493    0.369616    2.304860
     11          1           0        0.551090    3.709350    0.306624
     12          1           0        4.069971   -1.128816   -0.615257
     13          1           0        3.746062   -2.416637    0.482456
     14          1           0        0.610551   -0.412452   -1.096710
     15          1           0        2.139330    0.178011   -1.611530
     16          1           0        2.463549    0.755294    0.719870
     17          1           0       -1.321459   -1.337601   -2.518140
     18          1           0       -2.606100   -0.118919   -3.034540
     19          1           0       -3.449582    1.698387   -1.117440
     20          1           0       -4.053510    0.120758   -0.540530
     21          1           0       -3.049741    1.204167    0.570777
     22          1           0       -1.138101    0.972625   -1.087160
     23          1           0       -0.469993   -1.324451   -0.388645
     24          1           0       -1.445997   -2.586732    0.746057
     25          1           0       -2.687808   -1.723993    1.295690
     26          1           0       -3.098679   -1.307273   -1.947830
     27          7           0       -2.199848   -1.870642    0.449534
     28          7           0        0.527500    0.349866    1.363130
     29          7           0        3.420702   -1.896707   -0.362327
     30          8           0        1.281972   -2.322019    0.295295
     31          8           0       -1.559130    0.081302    2.284420
     32          8           0        1.996148    2.684922   -0.944729
     33          8           0        0.212186    2.784440    0.475515
 ---------------------------------------------------------------------

 SCF Done:  E(RHF) =  -817.269232278     A.U. after    2 cycles

 The electronic state is 1-A.
 Alpha  occ. eigenvalues --  -21.13716 -21.07817 -21.04947 -21.03023 -15.80535
 Alpha  occ. eigenvalues --  -15.76572 -15.71444 -11.59218 -11.54790 -11.52755
 Alpha  occ. eigenvalues --  -11.51883 -11.46524 -11.44168 -11.41637 -11.38640
 Alpha  occ. eigenvalues --  -11.36170  -1.83053  -1.72326  -1.69995  -1.65622
 Alpha  occ. eigenvalues --   -1.43546  -1.37022  -1.35896  -1.20754  -1.20146
 Alpha  occ. eigenvalues --   -1.05007  -0.98979  -0.98514  -0.85253  -0.84159
 Alpha  occ. eigenvalues --   -0.81059  -0.76860  -0.75095  -0.72478  -0.68305
 Alpha  occ. eigenvalues --   -0.68057  -0.65941  -0.63412  -0.62562  -0.60748
 Alpha  occ. eigenvalues --   -0.60010  -0.57462  -0.55636  -0.54421  -0.53443
 Alpha  occ. eigenvalues --   -0.53333  -0.51306  -0.51147  -0.49710  -0.48016
 Alpha  occ. eigenvalues --   -0.47188  -0.46080  -0.44877  -0.43080  -0.41217
 Alpha  occ. eigenvalues --   -0.37800  -0.35471  -0.35359  -0.32952  -0.31263
 Alpha  occ. eigenvalues --   -0.29087  -0.27363
 Alpha virt. eigenvalues --    0.02524   0.03896   0.04327   0.04646   0.05011
 Alpha virt. eigenvalues --    0.05697   0.06127   0.06531   0.07045   0.07271
 Alpha virt. eigenvalues --    0.07407   0.08459   0.08601   0.08890   0.09751

 Mulliken charges:
               1
     1  C    1.898758
     2  C   -3.686265
     3  C    8.048092
     4  C   -3.438322
     5  C    5.777408
     6  C   -5.046882
     7  C   -0.986618
     8  C    5.521889
     9  C   -6.146613
    10  H    0.571631
    11  H    0.758485
    12  H    0.610751
    13  H    0.591695
    14  H    2.704988
    15  H    1.441059
    16  H    1.841171
    17  H    1.188957
    18  H    1.254390
    19  H    1.066670
    20  H    1.259614
    21  H    1.064628
    22  H    2.083260
    23  H    3.959169
    24  H    0.281655
    25  H    0.596510
    26  H    1.493059
    27  N   -4.048426
    28  N   -3.137708
    29  N   -3.723277
    30  O   -3.269746
    31  O   -3.831497
    32  O   -3.525539
    33  O   -3.172944
 Sum of Mulliken charges =   0.00000

 Dipole moment (field-independent basis, Debye):
    X=              3.1552    Y=              0.9318    Z=              0.8457  Tot=              3.3969

 Test job not archived.
 1\1\GINC-SE084\SP\RHF\Aug-CC-pVDZ\C9H17N3O4\OHZDE\08-Apr-2025\0\\#t hf
  aug-cc-pvdz iop(5/13=1,5/36=2,99/5=2) pseudo=read geom=check guess=(r
 ead,tcheck) scf=(maxcycle=1)\\title\\0,1\C,0,-1.3401,-0.815981,0.02988
 07\C,0,1.63461,-0.262043,-0.785728\C,0,1.22374,2.08127,-0.167436\C,0,1
 .44635,0.709623,0.320041\C,0,2.08746,-1.61154,-0.346043\C,0,-3.19828,0
 .823865,-0.477057\C,0,-1.95358,0.141184,-0.966889\C,0,-0.794571,-0.117
 337,1.33586\C,0,-2.23629,-0.708723,-2.19344\H,0,0.836493,0.369615,2.30
 486\H,0,0.551093,3.70935,0.306624\H,0,4.06997,-1.12882,-0.615257\H,0,3

 Normal termination of Gaussian 16 at Tue Apr  8 21:19:22 2025.
