 Gaussian 16, Revision C.01,

 ----------------------------------------------------------------------
 #t hf aug-cc-pvdz symm=none int=(grid=ultrafine) guess=(read,tcheck) s
 table=(opt,rrhf)
 ----------------------------------------------------------------------
 -----
 title
 -----
 Symbolic Z-matrix:
 Charge =  0 Multiplicity = 1

 SCF Done:  E(RHF) =  -221.195014759     A.U. after   15 cycles
 Normal termination of Gaussian 16 at Tue Apr  8 21:14:24 2025.
 Gaussian 16:  ES64L-G16RevC.01  3-Jul-2019

 ----------------------------------------------------------------------
 #t hf aug-cc-pvdz iop(5/13=1,5/36=2,99/5=2) pseudo=read geom=check gue
 ss=(read,tcheck) scf=(maxcycle=1)
 ----------------------------------------------------------------------
 -----
 title
 -----
 Structure from the checkpoint file:  "ANI1ccx_1899_conf11_mol1.chk"
 Charge =  0 Multiplicity = 1

                         Standard orientation:
 ---------------------------------------------------------------------
 Center     Atomic      Atomic             Coordinates (Angstroms)
 Number     Number       Type             X           Y           Z
 ---------------------------------------------------------------------
      1          1           0       -1.419871   -0.914941    1.201380
      2          1           0       -1.816031   -1.390380   -0.381727
      3          1           0       -1.214321    1.174640   -0.806299
      4          1           0       -2.000471    1.226050    0.630892
      5          1           0        1.842739    0.826499    1.015950
      6          1           0        0.654242   -0.438086   -0.059941
      7          7           0       -1.418961   -0.665265    0.192179
      8          7           0       -1.934921    0.658792   -0.200540
      9          7           0        2.339879    0.342743    0.204489
     10          7           0        1.578819   -0.405381   -0.424736
 ---------------------------------------------------------------------

 SCF Done:  E(RHF) =  -222.207000066     A.U. after    2 cycles

 The electronic state is 1-A.
 Alpha  occ. eigenvalues --  -15.79760 -15.78751 -15.77490 -15.76596  -1.49069
 Alpha  occ. eigenvalues --   -1.41856  -1.09636  -0.94917  -0.71812  -0.70187
 Alpha  occ. eigenvalues --   -0.61461  -0.59755  -0.51180  -0.47979  -0.47331
 Alpha  occ. eigenvalues --   -0.36202  -0.31899
 Alpha virt. eigenvalues --    0.03185   0.04302   0.05479   0.06074   0.07312
 Alpha virt. eigenvalues --    0.09010   0.12108   0.14879   0.15752   0.16340
 Alpha virt. eigenvalues --    0.16753   0.17266   0.19315   0.19837   0.20339

 Mulliken charges:
               1
     1  H    0.682009
     2  H    0.797596
     3  H    0.643847
     4  H    0.692316
     5  H    0.573517
     6  H    1.059208
     7  N   -1.658663
     8  N   -1.205992
     9  N   -0.777663
    10  N   -0.806175
 Sum of Mulliken charges =  -0.00000

 Dipole moment (field-independent basis, Debye):
    X=             -2.6556    Y=              0.3943    Z=              2.2194  Tot=              3.4833

 Test job not archived.
 1\1\GINC-SE132\SP\RHF\Aug-CC-pVDZ\H6N4\OHZDE\08-Apr-2025\0\\#t hf aug-
 cc-pvdz iop(5/13=1,5/36=2,99/5=2) pseudo=read geom=check guess=(read,t
 check) scf=(maxcycle=1)\\title\\0,1\H,0,-1.41987,-0.914941,1.20138\H,0
 ,-1.81603,-1.39038,-0.381727\H,0,-1.21432,1.17464,-0.806299\H,0,-2.000
 47,1.22605,0.630892\H,0,1.84274,0.826498,1.01595\H,0,0.654243,-0.43808
 6,-0.0599406\N,0,-1.41896,-0.665265,0.192179\N,0,-1.93492,0.658792,-0.
 20054\N,0,2.33988,0.342742,0.204489\N,0,1.57882,-0.405382,-0.424736\\V
 ersion=ES64L-G16RevC.01\State=1-A\HF=-222.2070001\RMSD=5.395e-02\Dipol

 Normal termination of Gaussian 16 at Tue Apr  8 21:14:26 2025.
