 Gaussian 16, Revision C.01,

 ----------------------------------------------------------------------
 #t hf aug-cc-pvdz symm=none int=(grid=ultrafine) guess=(read,tcheck) s
 table=(opt,rrhf)
 ----------------------------------------------------------------------
 -----
 title
 -----
 Symbolic Z-matrix:
 Charge =  0 Multiplicity = 1

 SCF Done:  E(RHF) =  -756.569805665     A.U. after   14 cycles
 Normal termination of Gaussian 16 at Tue Apr  8 19:56:16 2025.
 Gaussian 16:  ES64L-G16RevC.01  3-Jul-2019

 ----------------------------------------------------------------------
 #t hf aug-cc-pvdz iop(5/13=1,5/36=2,99/5=2) pseudo=read geom=check gue
 ss=(read,tcheck) scf=(maxcycle=1)
 ----------------------------------------------------------------------
 -----
 title
 -----
 Structure from the checkpoint file:  "ANI1ccx_1435_conf17_mol2.chk"
 Charge =  0 Multiplicity = 1

                         Standard orientation:
 ---------------------------------------------------------------------
 Center     Atomic      Atomic             Coordinates (Angstroms)
 Number     Number       Type             X           Y           Z
 ---------------------------------------------------------------------
      1          6           0       -1.729711   -0.650062    0.380153
      2          6           0       -0.369370   -0.534093   -0.161425
      3          6           0       -2.795681   -0.147493   -0.640030
      4          6           0       -4.150031   -0.363396   -0.108598
      5          6           0        1.960959   -0.182382    0.503495
      6          6           0        1.899259    1.298731    0.225126
      7          6           0        2.773539   -0.962538   -0.492608
      8          1           0        2.868628    2.784221   -0.285810
      9          1           0        2.001300   -2.641509    0.075601
     10          1           0        2.308269   -0.770934   -1.459330
     11          1           0        3.865209   -0.638853   -0.554533
     12          1           0        2.388239   -0.283377    1.518920
     13          1           0        0.264202   -0.783261    1.678890
     14          1           0       -4.396610   -1.403441    0.063915
     15          1           0       -4.354681    0.237658    0.745899
     16          1           0       -4.859311   -0.036307   -0.890707
     17          1           0       -1.736811    1.278460   -1.406010
     18          1           0       -2.655931   -0.716494   -1.580140
     19          1           0       -1.950090   -1.717750    0.520112
     20          1           0       -2.686971   -0.282941    2.153750
     21          1           0       -1.803131    0.915678    1.574600
     22          7           0       -1.816931   -0.082787    1.701170
     23          7           0        0.628622   -0.762018    0.726180
     24          8           0       -0.112040   -0.321928   -1.337530
     25          8           0       -2.585011    1.228009   -0.912283
     26          8           0        1.019129    2.032081    0.598972
     27          8           0        2.865600   -2.352889   -0.186189
     28          8           0        3.003829    1.817211   -0.335878
 ---------------------------------------------------------------------

 SCF Done:  E(RHF) =  -759.910551341     A.U. after    2 cycles

 The electronic state is 1-A.
 Alpha  occ. eigenvalues --  -21.13533 -21.07308 -21.06350 -21.05816 -21.03956
 Alpha  occ. eigenvalues --  -15.76828 -15.75133 -11.55820 -11.54438 -11.48971
 Alpha  occ. eigenvalues --  -11.47517 -11.43742 -11.42402 -11.37780  -1.85321
 Alpha  occ. eigenvalues --   -1.74410  -1.71169  -1.70183  -1.66323  -1.43420
 Alpha  occ. eigenvalues --   -1.36075  -1.15232  -1.14413  -1.03253  -0.93884
 Alpha  occ. eigenvalues --   -0.87646  -0.82274  -0.76831  -0.75144  -0.70312
 Alpha  occ. eigenvalues --   -0.68105  -0.67462  -0.65157  -0.63291  -0.62153
 Alpha  occ. eigenvalues --   -0.59358  -0.57888  -0.56783  -0.54374  -0.52759
 Alpha  occ. eigenvalues --   -0.52071  -0.50334  -0.49916  -0.49282  -0.47590
 Alpha  occ. eigenvalues --   -0.46818  -0.42116  -0.41476  -0.38196  -0.35735
 Alpha  occ. eigenvalues --   -0.33595  -0.33463  -0.31525  -0.30102  -0.28874
 Alpha virt. eigenvalues --    0.03519   0.04281   0.04554   0.05056   0.05420
 Alpha virt. eigenvalues --    0.05737   0.06110   0.06498   0.06852   0.07659
 Alpha virt. eigenvalues --    0.07712   0.08319   0.08678   0.09335   0.11716

 Mulliken charges:
               1
     1  C   -1.239961
     2  C    7.219847
     3  C    1.299490
     4  C   -4.208851
     5  C   -4.773191
     6  C    7.283817
     7  C   -0.093595
     8  H    0.770788
     9  H    0.910584
    10  H    1.430359
    11  H    1.389324
    12  H    2.008069
    13  H    0.732348
    14  H    1.211422
    15  H    1.401770
    16  H    0.926297
    17  H    0.734224
    18  H    1.773509
    19  H    2.066708
    20  H    0.651410
    21  H    0.531432
    22  N   -2.818378
    23  N   -2.735861
    24  O   -3.737867
    25  O   -3.167439
    26  O   -3.335802
    27  O   -3.045282
    28  O   -3.185170
 Sum of Mulliken charges =   0.00000

 Dipole moment (field-independent basis, Debye):
    X=             -0.6808    Y=              0.2920    Z=              1.3751  Tot=              1.5619

 Test job not archived.
 1\1\GINC-SE398\SP\RHF\Aug-CC-pVDZ\C7H14N2O5\OHZDE\08-Apr-2025\0\\#t hf
  aug-cc-pvdz iop(5/13=1,5/36=2,99/5=2) pseudo=read geom=check guess=(r
 ead,tcheck) scf=(maxcycle=1)\\title\\0,1\C,0,-1.72971,-0.650062,0.3801
 53\C,0,-0.369369,-0.534093,-0.161425\C,0,-2.79568,-0.147492,-0.64003\C
 ,0,-4.15003,-0.363395,-0.108598\C,0,1.96096,-0.182383,0.503495\C,0,1.8
 9926,1.29873,0.225126\C,0,2.77354,-0.962539,-0.492608\H,0,2.86863,2.78
 422,-0.28581\H,0,2.0013,-2.64151,0.075601\H,0,2.30827,-0.770935,-1.459
 33\H,0,3.86521,-0.638854,-0.554533\H,0,2.38824,-0.283378,1.51892\H,0,0

 Normal termination of Gaussian 16 at Tue Apr  8 19:56:44 2025.
