 Gaussian 16, Revision C.01,

 ----------------------------------------------------------------------
 #t hf aug-cc-pvdz symm=none int=(grid=ultrafine) guess=(read,tcheck) s
 table=(opt,rrhf)
 ----------------------------------------------------------------------
 -----
 title
 -----
 Symbolic Z-matrix:
 Charge =  0 Multiplicity = 1

 SCF Done:  E(RHF) =  -569.553375142     A.U. after   13 cycles

 1\1\GINC-SE086\Stability\RHF\Aug-CC-pVDZ\C5H10O5\OHZDE\08-Apr-2025\0\\
 #t hf aug-cc-pvdz symm=none int=(grid=ultrafine) guess=(read,tcheck) s
 table=(opt,rrhf)\\title\\0,1\C,0,2.07088,-0.248411,-1.05787\C,0,1.0737
 ,0.172141,-0.00726973\C,0,-0.710914,1.70026,-0.0747229\C,0,-1.27277,0.
 343552,-0.557255\C,0,-0.266095,-0.652538,-0.00822544\H,0,-0.995268,-2.
 25122,-0.69581\H,0,0.0962307,-0.952714,1.87797\H,0,-2.521,-0.185523,0.
 743168\H,0,-1.2491,0.428739,-1.64895\H,0,-0.951816,2.60207,-0.636191\H
 ,0,-0.939107,1.82583,1.00162\H,0,2.16195,0.815558,1.46655\H,0,2.34231,

 Normal termination of Gaussian 16 at Tue Apr  8 19:20:44 2025.
 Gaussian 16:  ES64L-G16RevC.01  3-Jul-2019

 ----------------------------------------------------------------------
 #t hf aug-cc-pvdz iop(5/13=1,5/36=2,99/5=2) pseudo=read geom=check gue
 ss=(read,tcheck) scf=(maxcycle=1)
 ----------------------------------------------------------------------
 -----
 title
 -----
 Structure from the checkpoint file:  "ANI1ccx_1010_conf10_mol2.chk"
 Charge =  0 Multiplicity = 1

                         Standard orientation:
 ---------------------------------------------------------------------
 Center     Atomic      Atomic             Coordinates (Angstroms)
 Number     Number       Type             X           Y           Z
 ---------------------------------------------------------------------
      1          6           0        2.070880   -0.248410   -1.057871
      2          6           0        1.073700    0.172142   -0.007270
      3          6           0       -0.710915    1.700260   -0.074724
      4          6           0       -1.272770    0.343552   -0.557256
      5          6           0       -0.266095   -0.652538   -0.008226
      6          1           0       -0.995268   -2.251220   -0.695811
      7          1           0        0.096231   -0.952714    1.877969
      8          1           0       -2.521000   -0.185523    0.743167
      9          1           0       -1.249101    0.428739   -1.648951
     10          1           0       -0.951817    2.602070   -0.636192
     11          1           0       -0.939108    1.825830    1.001619
     12          1           0        2.161949    0.815559    1.466549
     13          1           0        2.342310   -1.305459   -0.912747
     14          1           0        1.608170   -0.241667   -2.054181
     15          1           0        2.934199    0.416264   -0.951976
     16          8           0        1.675120   -0.000932    1.270749
     17          8           0        0.739362    1.490961   -0.192426
     18          8           0       -2.579340    0.103267   -0.179326
     19          8           0       -0.695336   -0.883925    1.320009
     20          8           0       -0.121725   -1.839610   -0.713678
 ---------------------------------------------------------------------

 SCF Done:  E(RHF) =  -572.014698843     A.U. after    2 cycles

 The electronic state is 1-A.
 Alpha  occ. eigenvalues --  -21.09003 -21.07955 -21.07861 -21.07790 -21.05710
 Alpha  occ. eigenvalues --  -11.58406 -11.50723 -11.48510 -11.42532 -11.37548
 Alpha  occ. eigenvalues --   -1.87029  -1.78118  -1.72830  -1.68953  -1.66486
 Alpha  occ. eigenvalues --   -1.12697  -1.12305  -0.98791  -0.87084  -0.80579
 Alpha  occ. eigenvalues --   -0.73422  -0.69588  -0.64980  -0.62952  -0.59719
 Alpha  occ. eigenvalues --   -0.58461  -0.57308  -0.55398  -0.53290  -0.52001
 Alpha  occ. eigenvalues --   -0.48885  -0.46366  -0.44243  -0.42589  -0.39564
 Alpha  occ. eigenvalues --   -0.34795  -0.33327  -0.31961  -0.30548  -0.28965
 Alpha virt. eigenvalues --    0.04166   0.04677   0.04883   0.04981   0.05256
 Alpha virt. eigenvalues --    0.06372   0.07026   0.07123   0.07537   0.08750
 Alpha virt. eigenvalues --    0.11296   0.12842   0.13273   0.13472   0.14278

 Mulliken charges:
               1
     1  C   -4.035120
     2  C    7.624053
     3  C   -2.205917
     4  C    0.675161
     5  C    6.603297
     6  H    0.584336
     7  H    0.829442
     8  H    0.680636
     9  H    1.545560
    10  H    1.386538
    11  H    1.519124
    12  H    0.464977
    13  H    1.086421
    14  H    1.159490
    15  H    1.229408
    16  O   -3.661620
    17  O   -4.135927
    18  O   -3.538838
    19  O   -3.778884
    20  O   -4.032139
 Sum of Mulliken charges =   0.00000

 Dipole moment (field-independent basis, Debye):
    X=              0.1894    Y=              0.3462    Z=              0.2639  Tot=              0.4748

 Test job not archived.
 1\1\GINC-SE086\SP\RHF\Aug-CC-pVDZ\C5H10O5\OHZDE\08-Apr-2025\0\\#t hf a
 ug-cc-pvdz iop(5/13=1,5/36=2,99/5=2) pseudo=read geom=check guess=(rea
 d,tcheck) scf=(maxcycle=1)\\title\\0,1\C,0,2.07088,-0.248411,-1.05787\
 C,0,1.0737,0.172141,-0.00726973\C,0,-0.710914,1.70026,-0.0747229\C,0,-
 1.27277,0.343552,-0.557255\C,0,-0.266095,-0.652538,-0.00822544\H,0,-0.
 995268,-2.25122,-0.69581\H,0,0.0962307,-0.952714,1.87797\H,0,-2.521,-0
 .185523,0.743168\H,0,-1.2491,0.428739,-1.64895\H,0,-0.951816,2.60207,-
 0.636191\H,0,-0.939107,1.82583,1.00162\H,0,2.16195,0.815558,1.46655\H,

 Normal termination of Gaussian 16 at Tue Apr  8 19:20:55 2025.
