 Gaussian 16, Revision C.01,

 ----------------------------------------------------------------------
 #t hf aug-cc-pvdz symm=none int=(grid=ultrafine) guess=(read,tcheck) s
 table=(opt,rrhf)
 ----------------------------------------------------------------------
 -----
 title
 -----
 Symbolic Z-matrix:
 Charge =  0 Multiplicity = 1

 SCF Done:  E(RHF) =  -489.168051712     A.U. after   13 cycles
 Normal termination of Gaussian 16 at Tue Apr  8 21:51:42 2025.
 Gaussian 16:  ES64L-G16RevC.01  3-Jul-2019

 ----------------------------------------------------------------------
 #t hf aug-cc-pvdz iop(5/13=1,5/36=2,99/5=2) pseudo=read geom=check gue
 ss=(read,tcheck) scf=(maxcycle=1)
 ----------------------------------------------------------------------
 -----
 title
 -----
 Structure from the checkpoint file:  "ANI1ccx_667_conf3_mol2.chk"
 Charge =  0 Multiplicity = 1

                         Standard orientation:
 ---------------------------------------------------------------------
 Center     Atomic      Atomic             Coordinates (Angstroms)
 Number     Number       Type             X           Y           Z
 ---------------------------------------------------------------------
      1          6           0        1.209279   -0.386374   -0.009914
      2          6           0        0.009965    1.582180    0.267569
      3          6           0       -1.220501   -0.360783   -0.022763
      4          1           0        0.008419    1.531720    1.348270
      5          1           0       -0.077156    2.591750   -0.107705
      6          8           0        2.199498   -1.024663   -0.109091
      7          8           0        1.158471    0.952620   -0.223869
      8          8           0       -1.174309    0.920309   -0.243093
      9          8           0       -2.188522   -1.040106   -0.088065
     10          8           0        0.014395   -0.949861    0.332879
 ---------------------------------------------------------------------

 SCF Done:  E(RHF) =  -491.135094478     A.U. after    2 cycles

 The electronic state is 1-A.
 Alpha  occ. eigenvalues --  -21.16341 -21.16218 -21.15977 -21.09521 -21.09340
 Alpha  occ. eigenvalues --  -11.60188 -11.59005 -11.53257  -2.02455  -1.86794
 Alpha  occ. eigenvalues --   -1.82045  -1.71237  -1.69723  -1.07727  -0.94583
 Alpha  occ. eigenvalues --   -0.80799  -0.75636  -0.74310  -0.70761  -0.62659
 Alpha  occ. eigenvalues --   -0.61088  -0.58777  -0.56683  -0.47219  -0.46923
 Alpha  occ. eigenvalues --   -0.41840  -0.38285  -0.36946  -0.34983  -0.33070
 Alpha virt. eigenvalues --    0.02447   0.04218   0.07730   0.07818   0.10167
 Alpha virt. eigenvalues --    0.10352   0.11055   0.11183   0.11634   0.12029
 Alpha virt. eigenvalues --    0.13841   0.13951   0.14029   0.15230   0.16651

 Mulliken charges:
               1
     1  C    6.231117
     2  C   -0.755412
     3  C    6.225444
     4  H    1.545969
     5  H    1.533684
     6  O   -3.018261
     7  O   -2.912854
     8  O   -2.868023
     9  O   -2.997963
    10  O   -2.983701
 Sum of Mulliken charges =  -0.00000

 Dipole moment (field-independent basis, Debye):
    X=             -0.0830    Y=              2.8185    Z=              0.6023  Tot=              2.8834

 Test job not archived.
 1\1\GINC-SE221\SP\RHF\Aug-CC-pVDZ\C3H2O5\OHZDE\08-Apr-2025\0\\#t hf au
 g-cc-pvdz iop(5/13=1,5/36=2,99/5=2) pseudo=read geom=check guess=(read
 ,tcheck) scf=(maxcycle=1)\\title\\0,1\C,0,1.20928,-0.386372,-0.0099138
 2\C,0,0.00996225,1.58218,0.267569\C,0,-1.2205,-0.360785,-0.0227631\H,0
 ,0.00841688,1.53172,1.34827\H,0,-0.0771595,2.59175,-0.107705\O,0,2.199
 5,-1.02466,-0.109091\O,0,1.15847,0.952621,-0.223869\O,0,-1.17431,0.920
 307,-0.243093\O,0,-2.18852,-1.04011,-0.0880648\O,0,0.0143964,-0.949861
 ,0.332879\\Version=ES64L-G16RevC.01\State=1-A\HF=-491.1350945\RMSD=6.3

 Normal termination of Gaussian 16 at Tue Apr  8 21:51:46 2025.
