 Gaussian 16, Revision C.01,

 ----------------------------------------------------------------------
 #t hf aug-cc-pvdz symm=none int=(grid=ultrafine) guess=(read,tcheck) s
 table=(opt,rrhf)
 ----------------------------------------------------------------------
 -----
 title
 -----
 Symbolic Z-matrix:
 Charge =  0 Multiplicity = 1

 SCF Done:  E(RHF) =  -464.334382419     A.U. after   16 cycles
 Normal termination of Gaussian 16 at Tue Apr  8 21:42:52 2025.
 Gaussian 16:  ES64L-G16RevC.01  3-Jul-2019

 ----------------------------------------------------------------------
 #t hf aug-cc-pvdz iop(5/13=1,5/36=2,99/5=2) pseudo=read geom=check gue
 ss=(read,tcheck) scf=(maxcycle=1)
 ----------------------------------------------------------------------
 -----
 title
 -----
 Structure from the checkpoint file:  "ANI1ccx_474_conf34_mol1.chk"
 Charge =  0 Multiplicity = 1

                         Standard orientation:
 ---------------------------------------------------------------------
 Center     Atomic      Atomic             Coordinates (Angstroms)
 Number     Number       Type             X           Y           Z
 ---------------------------------------------------------------------
      1          6           0       -0.237599    1.123636    0.132536
      2          6           0       -1.345129   -1.103336    0.046476
      3          1           0       -1.338084    1.868854   -0.950188
      4          7           0       -1.328634    0.142417   -0.094266
      5          7           0        1.831427   -0.745363   -0.543470
      6          7           0        2.804599   -1.001319   -0.009118
      7          8           0       -0.656357    2.246902   -0.377929
      8          8           0       -1.691986   -2.229340    0.121407
      9          8           0        0.808682    1.137338    0.807034
 ---------------------------------------------------------------------

 SCF Done:  E(RHF) =  -466.232056802     A.U. after    2 cycles

 The electronic state is 1-A.
 Alpha  occ. eigenvalues --  -21.18857 -21.15994 -21.07354 -15.87512 -15.87187
 Alpha  occ. eigenvalues --  -15.82448 -11.63859 -11.58078  -1.88317  -1.81627
 Alpha  occ. eigenvalues --   -1.67109  -1.53994  -1.41176  -0.93921  -0.80599
 Alpha  occ. eigenvalues --   -0.77280  -0.67836  -0.66177  -0.64990  -0.58578
 Alpha  occ. eigenvalues --   -0.57139  -0.56403  -0.55905  -0.54915  -0.50130
 Alpha  occ. eigenvalues --   -0.44606  -0.39496  -0.34793  -0.32831
 Alpha virt. eigenvalues --    0.03716   0.06965   0.09322   0.09553   0.10373
 Alpha virt. eigenvalues --    0.10868   0.11389   0.11919   0.12223   0.13288
 Alpha virt. eigenvalues --    0.13460   0.14373   0.15274   0.15684   0.16249

 Mulliken charges:
               1
     1  C    5.347055
     2  C    3.441808
     3  H    0.890946
     4  N   -2.253084
     5  N    0.040310
     6  N    0.023045
     7  O   -2.675374
     8  O   -2.317116
     9  O   -2.497590
 Sum of Mulliken charges =  -0.00000

 Dipole moment (field-independent basis, Debye):
    X=             -1.3044    Y=             -1.3451    Z=             -0.6642  Tot=              1.9879

 Test job not archived.
 1\1\GINC-SE393\SP\RHF\Aug-CC-pVDZ\C2H1N3O3\OHZDE\08-Apr-2025\0\\#t hf
 aug-cc-pvdz iop(5/13=1,5/36=2,99/5=2) pseudo=read geom=check guess=(re
 ad,tcheck) scf=(maxcycle=1)\\title\\0,1\C,0,-0.237584,1.12364,0.132536
 \C,0,-1.34514,-1.10332,0.0464761\H,0,-1.33806,1.86887,-0.950188\N,0,-1
 .32863,0.142433,-0.0942663\N,0,1.83142,-0.745383,-0.54347\N,0,2.80459,
 -1.00135,-0.00911804\O,0,-0.656329,2.24691,-0.377929\O,0,-1.69201,-2.2
 2932,0.121407\O,0,0.808697,1.13733,0.807034\\Version=ES64L-G16RevC.01\
 State=1-A\HF=-466.2320568\RMSD=7.440e-02\Dipole=-0.5131771,-0.5291792,

 Normal termination of Gaussian 16 at Tue Apr  8 21:42:56 2025.
