 Gaussian 16, Revision C.01,

 ----------------------------------------------------------------------
 #t hf aug-cc-pvdz symm=none int=(grid=ultrafine) guess=(read,tcheck) s
 table=(opt,rrhf)
 ----------------------------------------------------------------------
 -----
 title
 -----
 Symbolic Z-matrix:
 Charge =  0 Multiplicity = 1

 SCF Done:  E(RHF) =  -509.550747759     A.U. after   14 cycles
 Normal termination of Gaussian 16 at Tue Apr  8 22:13:32 2025.
 Gaussian 16:  ES64L-G16RevC.01  3-Jul-2019

 ----------------------------------------------------------------------
 #t hf aug-cc-pvdz iop(5/13=1,5/36=2,99/5=2) pseudo=read geom=check gue
 ss=(read,tcheck) scf=(maxcycle=1)
 ----------------------------------------------------------------------
 -----
 title
 -----
 Structure from the checkpoint file:  "ANI1ccx_939_conf1_mol1.chk"
 Charge =  0 Multiplicity = 1

                         Standard orientation:
 ---------------------------------------------------------------------
 Center     Atomic      Atomic             Coordinates (Angstroms)
 Number     Number       Type             X           Y           Z
 ---------------------------------------------------------------------
      1          6           0       -0.828064    0.654489   -0.719774
      2          6           0       -1.256330   -0.641633   -0.100417
      3          6           0        0.693959    0.652979   -0.956487
      4          6           0        1.596080    0.120651    0.117442
      5          1           0       -1.483280    2.565111   -0.291824
      6          1           0       -1.949500    1.308751    0.766476
      7          1           0       -1.376220    0.815889   -1.624801
      8          1           0        1.000680    0.209914   -1.910011
      9          1           0        1.092880    1.684141   -1.094581
     10          1           0        1.735550   -0.263171    1.894919
     11          1           0       -0.809382   -2.461229   -0.205080
     12          7           0       -1.195460    1.721581    0.246335
     13          8           0       -2.122380   -0.742773    0.737752
     14          8           0        2.656730   -0.390571   -0.131491
     15          8           0        1.093010    0.203369    1.353499
     16          8           0       -0.511906   -1.648699   -0.622767
 ---------------------------------------------------------------------

 SCF Done:  E(RHF) =  -511.728565764     A.U. after    2 cycles

 The electronic state is 1-A.
 Alpha  occ. eigenvalues --  -21.14336 -21.12638 -21.07387 -21.04821 -15.73428
 Alpha  occ. eigenvalues --  -11.54913 -11.53412 -11.47449 -11.41230  -1.84860
 Alpha  occ. eigenvalues --   -1.83637  -1.68317  -1.65555  -1.35890  -1.14376
 Alpha  occ. eigenvalues --   -1.00462  -0.83667  -0.77579  -0.71167  -0.67968
 Alpha  occ. eigenvalues --   -0.65849  -0.60897  -0.60711  -0.58662  -0.55688
 Alpha  occ. eigenvalues --   -0.53394  -0.51061  -0.50000  -0.46258  -0.45457
 Alpha  occ. eigenvalues --   -0.36542  -0.36129  -0.33705  -0.31868  -0.29457
 Alpha virt. eigenvalues --    0.03297   0.04323   0.05404   0.05898   0.05982
 Alpha virt. eigenvalues --    0.06556   0.07887   0.09717   0.10762   0.11612
 Alpha virt. eigenvalues --    0.12237   0.13023   0.13580   0.14288   0.14769

 Mulliken charges:
               1
     1  C   -2.306466
     2  C    6.735198
     3  C   -3.038305
     4  C    6.019609
     5  H    0.494784
     6  H    0.635674
     7  H    1.839128
     8  H    1.142324
     9  H    1.485065
    10  H    0.843006
    11  H    0.890922
    12  N   -2.366901
    13  O   -3.205782
    14  O   -3.169982
    15  O   -2.921709
    16  O   -3.076565
 Sum of Mulliken charges =  -0.00000

 Dipole moment (field-independent basis, Debye):
    X=             -1.3971    Y=             -0.0468    Z=             -0.7192  Tot=              1.5721

 Test job not archived.
 1\1\GINC-SE059\SP\RHF\Aug-CC-pVDZ\C4H7N1O4\OHZDE\08-Apr-2025\0\\#t hf
 aug-cc-pvdz iop(5/13=1,5/36=2,99/5=2) pseudo=read geom=check guess=(re
 ad,tcheck) scf=(maxcycle=1)\\title\\0,1\C,0,-0.828064,0.654488,-0.7197
 73\C,0,-1.25633,-0.641634,-0.100416\C,0,0.693959,0.652978,-0.956486\C,
 0,1.59608,0.12065,0.117443\H,0,-1.48328,2.56511,-0.291823\H,0,-1.9495,
 1.30875,0.766477\H,0,-1.37622,0.815888,-1.6248\H,0,1.00068,0.209913,-1
 .91001\H,0,1.09288,1.68414,-1.09458\H,0,1.73555,-0.263172,1.89492\H,0,
 -0.809381,-2.46123,-0.205079\N,0,-1.19546,1.72158,0.246336\O,0,-2.1223

 Normal termination of Gaussian 16 at Tue Apr  8 22:13:39 2025.
