 Gaussian 16, Revision C.01,

 ----------------------------------------------------------------------
 #t hf aug-cc-pvdz symm=none int=(grid=ultrafine) guess=(read,tcheck) s
 table=(opt,rrhf)
 ----------------------------------------------------------------------
 -----
 title
 -----
 Symbolic Z-matrix:
 Charge =  0 Multiplicity = 1

 SCF Done:  E(RHF) =  -1001.30732504     A.U. after   15 cycles
 Normal termination of Gaussian 16 at Tue Apr  8 22:11:55 2025.
 Gaussian 16:  ES64L-G16RevC.01  3-Jul-2019

 ----------------------------------------------------------------------
 #t hf aug-cc-pvdz iop(5/13=1,5/36=2,99/5=2) pseudo=read geom=check gue
 ss=(read,tcheck) scf=(maxcycle=1)
 ----------------------------------------------------------------------
 -----
 title
 -----
 Structure from the checkpoint file:  "ANI1ccx_64_conf4_mol1.chk"
 Charge =  0 Multiplicity = 1

                         Standard orientation:
 ---------------------------------------------------------------------
 Center     Atomic      Atomic             Coordinates (Angstroms)
 Number     Number       Type             X           Y           Z
 ---------------------------------------------------------------------
      1          6           0        1.673779    1.977532   -0.271794
      2          6           0       -3.946150    0.312401   -0.258217
      3          6           0       -2.026149   -1.255951   -0.596770
      4          6           0       -0.195901   -1.696820    1.135689
      5          6           0       -1.065979   -0.621063    0.381382
      6          6           0       -2.950940   -0.236374   -1.238171
      7          6           0        3.266250   -0.061331    0.083404
      8          6           0        3.120139    1.442443   -0.042505
      9          6           0        0.591416    1.240731    0.465820
     10          6           0        2.703211   -0.878178   -1.033221
     11          1           0       -1.619530   -0.066346    1.145549
     12          1           0        0.281737   -0.270149    2.373869
     13          1           0       -4.549291    1.176837   -1.781081
     14          1           0       -3.541709   -0.740472   -2.015811
     15          1           0       -2.344290    0.554505   -1.751201
     16          1           0       -2.626308   -2.030371   -0.100822
     17          1           0       -1.354409   -1.671821   -1.360731
     18          1           0        0.340862   -0.060671   -1.052281
     19          1           0        2.497422   -2.791098   -1.669901
     20          1           0        4.337590   -0.265435    0.169919
     21          1           0        2.796900   -0.443074    1.009149
     22          1           0        3.764149    1.729113   -0.896175
     23          1           0        3.467239    1.978313    0.854185
     24          1           0        1.441019    1.856632   -1.330301
     25          1           0        0.723279    3.799431   -0.095472
     26          1           0        1.821638    3.397892    1.039739
     27          1           0        3.200882   -2.687227   -0.125335
     28          7           0        1.648628    3.402092    0.040816
     29          7           0        3.022192   -2.233817   -1.006411
     30          7           0       -0.115725    0.326803   -0.238678
     31          8           0       -4.044110    0.010607    0.894981
     32          8           0        0.057790   -2.808089    0.672085
     33          8           0       -4.789541    1.253317   -0.844290
     34          8           0        0.472529    1.360011    1.707619
     35          8           0        1.953151   -0.487849   -1.908561
     36          8           0        0.407568   -1.236989    2.261029
 ---------------------------------------------------------------------

 SCF Done:  E(RHF) =  -1005.73535648     A.U. after    2 cycles

 The electronic state is 1-A.
 Alpha  occ. eigenvalues --  -21.13107 -21.10535 -21.07163 -21.05428 -21.05286
 Alpha  occ. eigenvalues --  -21.04819 -15.78381 -15.78078 -15.74605 -11.57035
 Alpha  occ. eigenvalues --  -11.55552 -11.55254 -11.54817 -11.49650 -11.49060
 Alpha  occ. eigenvalues --  -11.46309 -11.44634 -11.41807 -11.40764  -1.82673
 Alpha  occ. eigenvalues --   -1.80559  -1.74813  -1.72771  -1.67319  -1.64684
 Alpha  occ. eigenvalues --   -1.43910  -1.37532  -1.34697  -1.24015  -1.19988
 Alpha  occ. eigenvalues --   -1.09985  -1.03240  -0.95524  -0.92443  -0.82455
 Alpha  occ. eigenvalues --   -0.80524  -0.79458  -0.78617  -0.73222  -0.72040
 Alpha  occ. eigenvalues --   -0.71170  -0.70671  -0.68335  -0.67080  -0.65270
 Alpha  occ. eigenvalues --   -0.64760  -0.64045  -0.60672  -0.57800  -0.56765
 Alpha  occ. eigenvalues --   -0.56032  -0.55315  -0.54586  -0.53299  -0.51516
 Alpha  occ. eigenvalues --   -0.51215  -0.50949  -0.50004  -0.48728  -0.48348
 Alpha  occ. eigenvalues --   -0.47373  -0.45987  -0.45152  -0.43603  -0.39271
 Alpha  occ. eigenvalues --   -0.35906  -0.35477  -0.34682  -0.32424  -0.31765
 Alpha  occ. eigenvalues --   -0.31299  -0.30555  -0.28180
 Alpha virt. eigenvalues --    0.02889   0.03965   0.04311   0.04787   0.05156
 Alpha virt. eigenvalues --    0.05419   0.05672   0.05991   0.06799   0.07040
 Alpha virt. eigenvalues --    0.07582   0.07735   0.08177   0.08758   0.09269

 Mulliken charges:
               1
     1  C   -1.824738
     2  C    5.294163
     3  C   -3.189528
     4  C    5.908749
     5  C   -1.537694
     6  C   -3.384442
     7  C   -3.440092
     8  C   -3.174699
     9  C    8.210774
    10  C    6.112906
    11  H    2.410607
    12  H    1.441767
    13  H    1.046488
    14  H    1.440166
    15  H    1.657157
    16  H    1.222516
    17  H    1.497648
    18  H    1.173267
    19  H    0.755066
    20  H    1.377847
    21  H    1.619628
    22  H    1.180419
    23  H    1.214672
    24  H    1.822363
    25  H    0.612149
    26  H    0.481643
    27  H    0.762136
    28  N   -3.010517
    29  N   -3.747241
    30  N   -3.018495
    31  O   -3.055213
    32  O   -3.389773
    33  O   -3.029656
    34  O   -4.068958
    35  O   -3.801627
    36  O   -3.569458
 Sum of Mulliken charges =  -0.00000

 Dipole moment (field-independent basis, Debye):
    X=              0.9014    Y=             -0.3343    Z=             -1.9650  Tot=              2.1876

 Test job not archived.
 1\1\GINC-SE457\SP\RHF\Aug-CC-pVDZ\C10H17N3O6\OHZDE\08-Apr-2025\0\\#t h
 f aug-cc-pvdz iop(5/13=1,5/36=2,99/5=2) pseudo=read geom=check guess=(
 read,tcheck) scf=(maxcycle=1)\\title\\0,1\C,0,1.67378,1.97753,-0.27179
 3\C,0,-3.94615,0.312403,-0.258216\C,0,-2.02615,-1.25595,-0.596769\C,0,
 -0.195902,-1.69682,1.13569\C,0,-1.06598,-0.621063,0.381383\C,0,-2.9509
 4,-0.236372,-1.23817\C,0,3.26625,-0.0613336,0.0834044\C,0,3.12014,1.44
 244,-0.0425045\C,0,0.591417,1.24073,0.465821\C,0,2.70321,-0.87818,-1.0
 3322\H,0,-1.61953,-0.0663448,1.14555\H,0,0.281737,-0.27015,2.37387\H,0

 Normal termination of Gaussian 16 at Tue Apr  8 22:12:57 2025.
