 Gaussian 16, Revision C.01,

 ----------------------------------------------------------------------
 #t hf aug-cc-pvdz symm=none int=(grid=ultrafine) guess=(read,tcheck) s
 table=(opt,rrhf)
 ----------------------------------------------------------------------
 -----
 title
 -----
 Symbolic Z-matrix:
 Charge =  0 Multiplicity = 1

 SCF Done:  E(RHF) =  -532.260765041     A.U. after   11 cycles
 Normal termination of Gaussian 16 at Tue Apr  8 21:11:00 2025.
 Gaussian 16:  ES64L-G16RevC.01  3-Jul-2019

 ----------------------------------------------------------------------
 #t hf aug-cc-pvdz iop(5/13=1,5/36=2,99/5=2) pseudo=read geom=check gue
 ss=(read,tcheck) scf=(maxcycle=1)
 ----------------------------------------------------------------------
 -----
 title
 -----
 Structure from the checkpoint file:  "ANI1ccx_1845_conf420_mol1.chk"
 Charge =  0 Multiplicity = 1

                         Standard orientation:
 ---------------------------------------------------------------------
 Center     Atomic      Atomic             Coordinates (Angstroms)
 Number     Number       Type             X           Y           Z
 ---------------------------------------------------------------------
      1          1           0       -1.345425   -2.770683    0.928118
      2          1           0        1.124514   -2.207099   -1.441750
      3          1           0        0.178108   -1.973310   -0.182348
      4          1           0       -2.548440    0.154030    0.237375
      5          1           0       -3.707498   -0.669572   -0.609110
      6          1           0       -2.068436   -1.919984   -0.137032
      7          1           0       -1.230333    2.140817    0.019035
      8          1           0        2.762399    0.696453   -0.554414
      9          1           0       -2.305953    2.190455    1.128430
     10          1           0        2.311102   -1.082846    0.786375
     11          1           0        3.045171   -0.144522    1.821150
     12          1           0        0.303921    3.596800   -0.454859
     13          1           0        1.055616    2.289071   -0.150677
     14          1           0        1.458351   -0.080871   -0.864311
     15          8           0       -1.194395   -2.460223    0.039307
     16          8           0        1.826719    0.850361   -1.031360
     17          8           0       -3.017938   -0.754257    0.075937
     18          8           0        3.212131   -0.528191    0.931106
     19          8           0        1.159164   -1.822458   -0.402360
     20          8           0       -2.143403    1.845706    0.222637
     21          8           0        0.278585    2.841720    0.098986
 ---------------------------------------------------------------------

 SCF Done:  E(RHF) =  -534.595661337     A.U. after    2 cycles

 The electronic state is 1-A.
 Alpha  occ. eigenvalues --  -21.09169 -21.09028 -21.08430 -21.07393 -21.06778
 Alpha  occ. eigenvalues --  -21.06123 -21.04445  -1.70514  -1.68754  -1.66249
 Alpha  occ. eigenvalues --   -1.64166  -1.63230  -1.60466  -1.59582  -0.66578
 Alpha  occ. eigenvalues --   -0.65992  -0.64552  -0.63915  -0.63660  -0.60544
 Alpha  occ. eigenvalues --   -0.57492  -0.53423  -0.51723  -0.48688  -0.47687
 Alpha  occ. eigenvalues --   -0.43564  -0.42450  -0.39878  -0.35835  -0.35551
 Alpha  occ. eigenvalues --   -0.34549  -0.34061  -0.33392  -0.32690  -0.30866
 Alpha virt. eigenvalues --    0.03753   0.04710   0.04981   0.05669   0.05765
 Alpha virt. eigenvalues --    0.06088   0.08137   0.08413   0.09345   0.09505
 Alpha virt. eigenvalues --    0.10431   0.10977   0.11368   0.11750   0.17852

 Mulliken charges:
               1
     1  H    0.748457
     2  H    0.741027
     3  H    2.227560
     4  H    1.549852
     5  H    0.849198
     6  H    1.639979
     7  H    1.648965
     8  H    1.022801
     9  H    0.803169
    10  H    1.379012
    11  H    0.819716
    12  H    0.762443
    13  H    1.436024
    14  H    1.590602
    15  O   -2.685435
    16  O   -2.650289
    17  O   -2.503168
    18  O   -1.976097
    19  O   -2.717538
    20  O   -2.399293
    21  O   -2.286986
 Sum of Mulliken charges =  -0.00000

 Dipole moment (field-independent basis, Debye):
    X=             -1.9183    Y=              0.6546    Z=              0.5950  Tot=              2.1125

 Test job not archived.
 1\1\GINC-SE368\SP\RHF\Aug-CC-pVDZ\H14O7\OHZDE\08-Apr-2025\0\\#t hf aug
 -cc-pvdz iop(5/13=1,5/36=2,99/5=2) pseudo=read geom=check guess=(read,
 tcheck) scf=(maxcycle=1)\\title\\0,1\H,0,-1.34543,-2.77068,0.928118\H,
 0,1.12451,-2.2071,-1.44175\H,0,0.178104,-1.97331,-0.182348\H,0,-2.5484
 4,0.154035,0.237375\H,0,-3.7075,-0.669565,-0.60911\H,0,-2.06844,-1.919
 98,-0.137032\H,0,-1.23033,2.14082,0.0190349\H,0,2.7624,0.696449,-0.554
 414\H,0,-2.30595,2.19046,1.12843\H,0,2.3111,-1.08285,0.786375\H,0,3.04
 517,-0.144527,1.82115\H,0,0.303927,3.5968,-0.454859\H,0,1.05562,2.2890

 Normal termination of Gaussian 16 at Tue Apr  8 21:11:05 2025.
