 Gaussian 16, Revision C.01,

 ----------------------------------------------------------------------
 #t hf aug-cc-pvdz symm=none int=(grid=ultrafine) guess=(read,tcheck) s
 table=(opt,rrhf)
 ----------------------------------------------------------------------
 -----
 title
 -----
 Symbolic Z-matrix:
 Charge =  0 Multiplicity = 1

 SCF Done:  E(RHF) =  -532.323441568     A.U. after   11 cycles
 Normal termination of Gaussian 16 at Tue Apr  8 21:11:03 2025.
 Gaussian 16:  ES64L-G16RevC.01  3-Jul-2019

 ----------------------------------------------------------------------
 #t hf aug-cc-pvdz iop(5/13=1,5/36=2,99/5=2) pseudo=read geom=check gue
 ss=(read,tcheck) scf=(maxcycle=1)
 ----------------------------------------------------------------------
 -----
 title
 -----
 Structure from the checkpoint file:  "ANI1ccx_1845_conf155_mol1.chk"
 Charge =  0 Multiplicity = 1

                         Standard orientation:
 ---------------------------------------------------------------------
 Center     Atomic      Atomic             Coordinates (Angstroms)
 Number     Number       Type             X           Y           Z
 ---------------------------------------------------------------------
      1          1           0        2.077989   -2.625401   -1.324580
      2          1           0       -0.930119   -1.978101    0.908248
      3          1           0       -0.339293   -1.755311   -0.430205
      4          1           0        3.073199   -0.004317    0.307526
      5          1           0        2.148639   -0.546882    1.418050
      6          1           0        2.313699   -2.081961    0.036944
      7          1           0        1.736639    2.070159   -0.329031
      8          1           0       -2.972071    1.080699    0.243891
      9          1           0        2.754339    2.031549   -1.388630
     10          1           0       -3.091381   -1.348451    0.073385
     11          1           0       -4.002941   -1.225321   -1.082960
     12          1           0       -0.056732    3.052869    0.866780
     13          1           0       -0.766149    2.549279   -0.366016
     14          1           0       -1.524151    0.642055    0.370996
     15          8           0        1.659619   -2.590511   -0.442327
     16          8           0       -2.109141    1.396859    0.466550
     17          8           0        2.973169   -0.781036    0.928543
     18          8           0       -3.930791   -0.913176   -0.166344
     19          8           0       -1.127101   -1.607361    0.056253
     20          8           0        2.435879    1.504109   -0.631089
     21          8           0        0.045659    3.008509   -0.124636
 ---------------------------------------------------------------------

 SCF Done:  E(RHF) =  -534.604478422     A.U. after    2 cycles

 The electronic state is 1-A.
 Alpha  occ. eigenvalues --  -21.12051 -21.10248 -21.09387 -21.09293 -21.08940
 Alpha  occ. eigenvalues --  -21.08936 -21.08072  -1.70128  -1.68888  -1.67885
 Alpha  occ. eigenvalues --   -1.66876  -1.65419  -1.64948  -1.63796  -0.65927
 Alpha  occ. eigenvalues --   -0.64691  -0.64112  -0.63474  -0.62070  -0.61914
 Alpha  occ. eigenvalues --   -0.61800  -0.53677  -0.52176  -0.50811  -0.48648
 Alpha  occ. eigenvalues --   -0.45694  -0.44469  -0.42751  -0.37873  -0.37474
 Alpha  occ. eigenvalues --   -0.36168  -0.35543  -0.35155  -0.34674  -0.32827
 Alpha virt. eigenvalues --    0.03608   0.04462   0.05045   0.05197   0.05748
 Alpha virt. eigenvalues --    0.06974   0.07743   0.07875   0.08693   0.09115
 Alpha virt. eigenvalues --    0.09695   0.10021   0.10563   0.11203   0.16696

 Mulliken charges:
               1
     1  H    0.901526
     2  H    0.971920
     3  H    1.406660
     4  H    1.423276
     5  H    0.881522
     6  H    1.486074
     7  H    1.502530
     8  H    1.092546
     9  H    0.833853
    10  H    1.380655
    11  H    0.784819
    12  H    0.925621
    13  H    1.313056
    14  H    1.321228
    15  O   -2.166179
    16  O   -2.302087
    17  O   -2.443764
    18  O   -2.023446
    19  O   -2.549562
    20  O   -2.310782
    21  O   -2.429464
 Sum of Mulliken charges =  -0.00000

 Dipole moment (field-independent basis, Debye):
    X=              0.5032    Y=             -0.0413    Z=             -0.8326  Tot=              0.9737

 Test job not archived.
 1\1\GINC-SE226\SP\RHF\Aug-CC-pVDZ\H14O7\OHZDE\08-Apr-2025\0\\#t hf aug
 -cc-pvdz iop(5/13=1,5/36=2,99/5=2) pseudo=read geom=check guess=(read,
 tcheck) scf=(maxcycle=1)\\title\\0,1\H,0,2.07799,-2.6254,-1.32458\H,0,
 -0.930118,-1.9781,0.908248\H,0,-0.339292,-1.75531,-0.430205\H,0,3.0732
 ,-0.00431565,0.307526\H,0,2.14864,-0.546881,1.41805\H,0,2.3137,-2.0819
 6,0.0369439\H,0,1.73664,2.07016,-0.329031\H,0,-2.97207,1.0807,0.243891
 \H,0,2.75434,2.03155,-1.38863\H,0,-3.09138,-1.34845,0.0733852\H,0,-4.0
 0294,-1.22532,-1.08296\H,0,-0.0567308,3.05287,0.86678\H,0,-0.766148,2.

 Normal termination of Gaussian 16 at Tue Apr  8 21:11:10 2025.
