 Gaussian 16, Revision C.01,

 ----------------------------------------------------------------------
 #t hf aug-cc-pvdz symm=none int=(grid=ultrafine) guess=(read,tcheck) s
 table=(opt,rrhf)
 ----------------------------------------------------------------------
 -----
 title
 -----
 Symbolic Z-matrix:
 Charge =  0 Multiplicity = 1

 SCF Done:  E(RHF) =  -506.570114236     A.U. after   15 cycles
 Normal termination of Gaussian 16 at Tue Apr  8 19:23:16 2025.
 Gaussian 16:  ES64L-G16RevC.01  3-Jul-2019

 ----------------------------------------------------------------------
 #t hf aug-cc-pvdz iop(5/13=1,5/36=2,99/5=2) pseudo=read geom=check gue
 ss=(read,tcheck) scf=(maxcycle=1)
 ----------------------------------------------------------------------
 -----
 title
 -----
 Structure from the checkpoint file:  "ANI1ccx_1139_conf2_mol1.chk"
 Charge =  0 Multiplicity = 1

                         Standard orientation:
 ---------------------------------------------------------------------
 Center     Atomic      Atomic             Coordinates (Angstroms)
 Number     Number       Type             X           Y           Z
 ---------------------------------------------------------------------
      1          6           0        2.411611    0.413295    0.153263
      2          6           0        1.016991    0.168892    0.114111
      3          6           0        0.064677    1.216660    0.012649
      4          6           0       -1.727990   -0.366572    0.017132
      5          6           0        0.497542   -1.136891    0.005632
      6          1           0        2.375897   -1.966784    0.179747
      7          1           0        1.022165   -3.089212    0.052236
      8          1           0       -1.960297    1.649904   -0.036759
      9          1           0        1.235935    2.717148   -0.320266
     10          1           0        2.892861    0.170681    1.105440
     11          1           0        2.892080   -0.117544   -0.701736
     12          1           0        2.674313    1.442426    0.104083
     13          7           0       -1.222228    0.930784   -0.036005
     14          7           0       -0.794481   -1.410458   -0.101041
     15          7           0        1.440776   -2.209862   -0.181740
     16          8           0        0.338190    2.518440   -0.126676
     17          8           0       -2.922991   -0.487462    0.130680
 ---------------------------------------------------------------------

 SCF Done:  E(RHF) =  -508.821557514     A.U. after    2 cycles

 The electronic state is 1-A.
 Alpha  occ. eigenvalues --  -21.16436 -21.01069 -15.80374 -15.77693 -15.70808
 Alpha  occ. eigenvalues --  -11.56697 -11.51738 -11.49966 -11.43178 -11.39161
 Alpha  occ. eigenvalues --   -1.83996  -1.71278  -1.49032  -1.39319  -1.26255
 Alpha  occ. eigenvalues --   -1.21075  -1.02907  -0.92293  -0.89417  -0.75948
 Alpha  occ. eigenvalues --   -0.73129  -0.69267  -0.66432  -0.65100  -0.62061
 Alpha  occ. eigenvalues --   -0.60330  -0.56798  -0.54464  -0.53389  -0.49049
 Alpha  occ. eigenvalues --   -0.48685  -0.46438  -0.38189  -0.36550  -0.35183
 Alpha  occ. eigenvalues --   -0.28791  -0.25902
 Alpha virt. eigenvalues --    0.02272   0.04268   0.04507   0.05517   0.06088
 Alpha virt. eigenvalues --    0.06701   0.07171   0.09587   0.10091   0.10613
 Alpha virt. eigenvalues --    0.11044   0.12029   0.12794   0.13346   0.13922

 Mulliken charges:
               1
     1  C   -4.932380
     2  C    2.922562
     3  C    4.850815
     4  C    5.070772
     5  C    3.318386
     6  H    0.603108
     7  H    0.750395
     8  H    0.763767
     9  H    0.788397
    10  H    1.114162
    11  H    1.076625
    12  H    1.350615
    13  N   -3.294298
    14  N   -3.642544
    15  N   -3.529417
    16  O   -3.824333
    17  O   -3.386632
 Sum of Mulliken charges =   0.00000

 Dipole moment (field-independent basis, Debye):
    X=              4.8181    Y=              3.6329    Z=              0.3837  Tot=              6.0465

 Test job not archived.
 1\1\GINC-SE144\SP\RHF\Aug-CC-pVDZ\C5H7N3O2\OHZDE\08-Apr-2025\0\\#t hf
 aug-cc-pvdz iop(5/13=1,5/36=2,99/5=2) pseudo=read geom=check guess=(re
 ad,tcheck) scf=(maxcycle=1)\\title\\0,1\C,0,2.41161,0.413299,0.153263\
 C,0,1.01699,0.168894,0.114111\C,0,0.064675,1.21666,0.0126492\C,0,-1.72
 799,-0.366575,0.0171319\C,0,0.497544,-1.13689,0.00563189\H,0,2.3759,-1
 .96678,0.179747\H,0,1.02217,-3.08921,0.0522355\H,0,-1.9603,1.6499,-0.0
 367595\H,0,1.23593,2.71715,-0.320266\H,0,2.89286,0.170686,1.10544\H,0,
 2.89208,-0.117539,-0.701736\H,0,2.67431,1.44243,0.104083\N,0,-1.22223,

 Normal termination of Gaussian 16 at Tue Apr  8 19:23:24 2025.
