 Gaussian 16, Revision C.01,

 ----------------------------------------------------------------------
 #t hf aug-cc-pvdz symm=none int=(grid=ultrafine) guess=(read,tcheck) s
 table=(opt,rrhf)
 ----------------------------------------------------------------------
 -----
 title
 -----
 Symbolic Z-matrix:
 Charge =  0 Multiplicity = 1

 SCF Done:  E(RHF) =  -456.242189562     A.U. after   11 cycles
 Normal termination of Gaussian 16 at Tue Apr  8 21:09:48 2025.
 Gaussian 16:  ES64L-G16RevC.01  3-Jul-2019

 ----------------------------------------------------------------------
 #t hf aug-cc-pvdz iop(5/13=1,5/36=2,99/5=2) pseudo=read geom=check gue
 ss=(read,tcheck) scf=(maxcycle=1)
 ----------------------------------------------------------------------
 -----
 title
 -----
 Structure from the checkpoint file:  "ANI1ccx_1844_conf400_mol1.chk"
 Charge =  0 Multiplicity = 1

                         Standard orientation:
 ---------------------------------------------------------------------
 Center     Atomic      Atomic             Coordinates (Angstroms)
 Number     Number       Type             X           Y           Z
 ---------------------------------------------------------------------
      1          1           0        2.303381   -0.425664    0.502279
      2          1           0       -3.709809   -0.065472    0.557367
      3          1           0       -2.768569   -0.805605   -0.447196
      4          1           0        0.047162   -1.870022    0.907736
      5          1           0        0.274098   -0.313871    0.832703
      6          1           0       -0.779188    1.748018    1.769100
      7          1           0        3.689901    0.253234    0.604921
      8          1           0       -1.587260    1.425328    0.447263
      9          1           0        0.369156    1.356779   -0.392693
     10          1           0        1.756010    0.899784   -0.974602
     11          1           0       -0.056245   -0.571484   -1.074440
     12          1           0       -0.774753   -1.992872   -1.502860
     13          8           0        0.687843   -1.160741    1.200370
     14          8           0        0.864891    1.205739   -1.222460
     15          8           0       -3.067319    0.013519   -0.110276
     16          8           0       -0.674057    1.423008    0.879062
     17          8           0        3.100071   -0.159872   -0.054295
     18          8           0       -0.756915   -1.276422   -0.846099
 ---------------------------------------------------------------------

 SCF Done:  E(RHF) =  -458.209569372     A.U. after    2 cycles

 The electronic state is 1-A.
 Alpha  occ. eigenvalues --  -21.11492 -21.10783 -21.08153 -21.07688 -21.06140
 Alpha  occ. eigenvalues --  -21.05169  -1.70310  -1.68449  -1.66712  -1.64546
 Alpha  occ. eigenvalues --   -1.62893  -1.61263  -0.67774  -0.67326  -0.65432
 Alpha  occ. eigenvalues --   -0.63544  -0.63120  -0.58932  -0.52673  -0.48239
 Alpha  occ. eigenvalues --   -0.46605  -0.45549  -0.43705  -0.41698  -0.38931
 Alpha  occ. eigenvalues --   -0.35833  -0.34886  -0.33305  -0.32848  -0.30978
 Alpha virt. eigenvalues --    0.03133   0.04354   0.04817   0.05362   0.06546
 Alpha virt. eigenvalues --    0.07378   0.08020   0.08943   0.10108   0.10594
 Alpha virt. eigenvalues --    0.11253   0.12159   0.17147   0.19007   0.19964

 Mulliken charges:
               1
     1  H    1.288522
     2  H    0.883064
     3  H    1.277799
     4  H    0.938327
     5  H    1.725874
     6  H    1.074949
     7  H    0.765900
     8  H    1.178857
     9  H    1.707695
    10  H    1.196747
    11  H    1.454778
    12  H    0.919492
    13  O   -2.479158
    14  O   -2.314621
    15  O   -2.040780
    16  O   -2.962476
    17  O   -2.055683
    18  O   -2.559287
 Sum of Mulliken charges =  -0.00000

 Dipole moment (field-independent basis, Debye):
    X=             -1.9199    Y=             -0.4690    Z=              1.6544  Tot=              2.5774

 Test job not archived.
 1\1\GINC-SE143\SP\RHF\Aug-CC-pVDZ\H12O6\OHZDE\08-Apr-2025\0\\#t hf aug
 -cc-pvdz iop(5/13=1,5/36=2,99/5=2) pseudo=read geom=check guess=(read,
 tcheck) scf=(maxcycle=1)\\title\\0,1\H,0,2.30338,-0.425663,0.502279\H,
 0,-3.70981,-0.0654692,0.557367\H,0,-2.76857,-0.805602,-0.447196\H,0,0.
 0471607,-1.87002,0.907736\H,0,0.274097,-0.31387,0.832703\H,0,-0.779188
 ,1.74802,1.7691\H,0,3.6899,0.253234,0.604921\H,0,-1.58726,1.42533,0.44
 7263\H,0,0.369156,1.35678,-0.392693\H,0,1.75601,0.899785,-0.974602\H,0
 ,-0.0562463,-0.571482,-1.07444\H,0,-0.774754,-1.99287,-1.50286\O,0,0.6

 Normal termination of Gaussian 16 at Tue Apr  8 21:09:53 2025.
