 Gaussian 16, Revision C.01,

 ----------------------------------------------------------------------
 #t hf aug-cc-pvdz symm=none int=(grid=ultrafine) guess=(read,tcheck) s
 table=(opt,rrhf)
 ----------------------------------------------------------------------
 -----
 title
 -----
 Symbolic Z-matrix:
 Charge =  0 Multiplicity = 1

 SCF Done:  E(RHF) =  -484.397421639     A.U. after   16 cycles
 Normal termination of Gaussian 16 at Tue Apr  8 19:21:56 2025.
 Gaussian 16:  ES64L-G16RevC.01  3-Jul-2019

 ----------------------------------------------------------------------
 #t hf aug-cc-pvdz iop(5/13=1,5/36=2,99/5=2) pseudo=read geom=check gue
 ss=(read,tcheck) scf=(maxcycle=1)
 ----------------------------------------------------------------------
 -----
 title
 -----
 Structure from the checkpoint file:  "ANI1ccx_1091_conf2_mol2.chk"
 Charge =  0 Multiplicity = 1

                         Standard orientation:
 ---------------------------------------------------------------------
 Center     Atomic      Atomic             Coordinates (Angstroms)
 Number     Number       Type             X           Y           Z
 ---------------------------------------------------------------------
      1          6           0       -1.216351    0.906911   -0.043224
      2          6           0       -1.598258   -1.417753    0.063409
      3          6           0        0.657479   -0.777362   -0.058121
      4          6           0        2.427530    0.330582    0.024612
      5          6           0        0.218223    0.531195   -0.020164
      6          1           0       -2.291147   -2.226594    0.093447
      7          1           0        0.002064   -2.739341   -0.180909
      8          1           0        3.458139    0.611996    0.086694
      9          1           0        1.371697    2.224761    0.096095
     10          7           0       -2.085470   -0.232923    0.102488
     11          7           0       -0.301746   -1.762281   -0.045970
     12          7           0        2.004861   -0.922765   -0.029593
     13          7           0        1.407099    1.235501    0.079181
     14          8           0       -1.580712    2.058127   -0.079642
 ---------------------------------------------------------------------

 SCF Done:  E(RHF) =  -486.536512615     A.U. after    2 cycles

 The electronic state is 1-A.
 Alpha  occ. eigenvalues --  -21.02929 -15.82679 -15.81926 -15.75582 -15.73379
 Alpha  occ. eigenvalues --  -11.52148 -11.50200 -11.48394 -11.46961 -11.41548
 Alpha  occ. eigenvalues --   -1.70833  -1.61172  -1.49422  -1.33820  -1.28315
 Alpha  occ. eigenvalues --   -1.13171  -0.94282  -0.92243  -0.87102  -0.79463
 Alpha  occ. eigenvalues --   -0.73052  -0.69352  -0.66544  -0.63926  -0.58067
 Alpha  occ. eigenvalues --   -0.57860  -0.57035  -0.50356  -0.49647  -0.42911
 Alpha  occ. eigenvalues --   -0.39957  -0.39485  -0.36885  -0.27995  -0.27306
 Alpha virt. eigenvalues --    0.02745   0.03957   0.05601   0.05995   0.08287
 Alpha virt. eigenvalues --    0.08812   0.09858   0.10024   0.11370   0.11519
 Alpha virt. eigenvalues --    0.12419   0.12875   0.13369   0.13843   0.14209

 Mulliken charges:
               1
     1  C    5.178792
     2  C    0.828695
     3  C    4.124179
     4  C    0.763140
     5  C    1.452401
     6  H    1.732207
     7  H    0.871719
     8  H    1.613470
     9  H    0.755067
    10  N   -3.103368
    11  N   -3.563427
    12  N   -3.467649
    13  N   -3.571333
    14  O   -3.613892
 Sum of Mulliken charges =  -0.00000

 Dipole moment (field-independent basis, Debye):
    X=              3.3190    Y=             -1.7399    Z=             -0.0172  Tot=              3.7475

 Test job not archived.
 1\1\GINC-SE230\SP\RHF\Aug-CC-pVDZ\C5H4N4O1\OHZDE\08-Apr-2025\0\\#t hf
 aug-cc-pvdz iop(5/13=1,5/36=2,99/5=2) pseudo=read geom=check guess=(re
 ad,tcheck) scf=(maxcycle=1)\\title\\0,1\C,0,-1.21635,0.906913,-0.04322
 45\C,0,-1.59826,-1.41775,0.0634093\C,0,0.657478,-0.777362,-0.0581208\C
 ,0,2.42753,0.33058,0.0246118\C,0,0.218224,0.531196,-0.0201643\H,0,-2.2
 9115,-2.22659,0.0934472\H,0,0.00206043,-2.73934,-0.180909\H,0,3.45814,
 0.611993,0.0866937\H,0,1.3717,2.22476,0.0960952\N,0,-2.08547,-0.23292,
 0.102488\N,0,-0.301748,-1.76228,-0.0459703\N,0,2.00486,-0.922766,-0.02

 Normal termination of Gaussian 16 at Tue Apr  8 19:22:02 2025.
