 Gaussian 16, Revision C.01,

 ----------------------------------------------------------------------
 #t hf aug-cc-pvdz symm=none int=(grid=ultrafine) guess=(read,tcheck) s
 table=(opt,rrhf)
 ----------------------------------------------------------------------
 -----
 title
 -----
 Symbolic Z-matrix:
 Charge =  0 Multiplicity = 1

 SCF Done:  E(RHF) =  -390.627191414     A.U. after   14 cycles
 Normal termination of Gaussian 16 at Tue Apr  8 21:44:51 2025.
 Gaussian 16:  ES64L-G16RevC.01  3-Jul-2019

 ----------------------------------------------------------------------
 #t hf aug-cc-pvdz iop(5/13=1,5/36=2,99/5=2) pseudo=read geom=check gue
 ss=(read,tcheck) scf=(maxcycle=1)
 ----------------------------------------------------------------------
 -----
 title
 -----
 Structure from the checkpoint file:  "ANI1ccx_502_conf1_mol2.chk"
 Charge =  0 Multiplicity = 1

                         Standard orientation:
 ---------------------------------------------------------------------
 Center     Atomic      Atomic             Coordinates (Angstroms)
 Number     Number       Type             X           Y           Z
 ---------------------------------------------------------------------
      1          6           0       -1.143989   -0.179260    0.051985
      2          6           0        1.152951   -0.211152   -0.031850
      3          1           0       -1.236829    1.743869   -0.535948
      4          1           0        1.182561    1.711099    0.590902
      5          1           0        0.010294   -2.005241    0.055407
      6          7           0       -0.706954    1.148699    0.133614
      7          7           0        0.722602    1.151729   -0.128866
      8          7           0        0.012105   -0.970961    0.040315
      9          8           0       -2.325849   -0.531739   -0.048148
     10          8           0        2.300341   -0.519953   -0.020178
 ---------------------------------------------------------------------

 SCF Done:  E(RHF) =  -392.276606658     A.U. after    2 cycles

 The electronic state is 1-A.
 Alpha  occ. eigenvalues --  -21.06970 -21.06332 -15.82576 -15.81405 -15.80916
 Alpha  occ. eigenvalues --  -11.55286 -11.53590  -1.77801  -1.73230  -1.57890
 Alpha  occ. eigenvalues --   -1.38541  -1.21063  -0.90940  -0.89355  -0.73032
 Alpha  occ. eigenvalues --   -0.71284  -0.64819  -0.63012  -0.55965  -0.53137
 Alpha  occ. eigenvalues --   -0.52763  -0.49887  -0.35400  -0.35182  -0.33529
 Alpha  occ. eigenvalues --   -0.31352
 Alpha virt. eigenvalues --    0.03295   0.05478   0.05552   0.09479   0.09701
 Alpha virt. eigenvalues --    0.10551   0.11942   0.12121   0.12640   0.14401
 Alpha virt. eigenvalues --    0.14715   0.15909   0.16382   0.17061   0.17609

 Mulliken charges:
               1
     1  C    4.741900
     2  C    4.826887
     3  H    0.669406
     4  H    0.676828
     5  H    0.700504
     6  N   -1.840860
     7  N   -1.762218
     8  N   -2.130715
     9  O   -2.881490
    10  O   -3.000243
 Sum of Mulliken charges =   0.00000

 Dipole moment (field-independent basis, Debye):
    X=              0.0797    Y=              0.5589    Z=              0.1351  Tot=              0.5805

 Test job not archived.
 1\1\GINC-SE343\SP\RHF\Aug-CC-pVDZ\C2H3N3O2\OHZDE\08-Apr-2025\0\\#t hf
 aug-cc-pvdz iop(5/13=1,5/36=2,99/5=2) pseudo=read geom=check guess=(re
 ad,tcheck) scf=(maxcycle=1)\\title\\0,1\C,0,-1.14399,-0.179259,0.05198
 44\C,0,1.15295,-0.211151,-0.0318505\H,0,-1.23683,1.74387,-0.535948\H,0
 ,1.18256,1.7111,0.590902\H,0,0.010293,-2.00524,0.0554065\N,0,-0.706955
 ,1.1487,0.133614\N,0,0.722601,1.15173,-0.128866\N,0,0.0121035,-0.97096
 ,0.040315\O,0,-2.32585,-0.531738,-0.0481483\O,0,2.30034,-0.519952,-0.0
 201782\\Version=ES64L-G16RevC.01\State=1-A\HF=-392.2766067\RMSD=6.653e

 Normal termination of Gaussian 16 at Tue Apr  8 21:44:54 2025.
