 Gaussian 16, Revision C.01,

 ----------------------------------------------------------------------
 #t hf aug-cc-pvdz symm=none int=(grid=ultrafine) guess=(read,tcheck) s
 table=(opt,rrhf)
 ----------------------------------------------------------------------
 -----
 title
 -----
 Symbolic Z-matrix:
 Charge =  0 Multiplicity = 1

 SCF Done:  E(RHF) =  -849.490005861     A.U. after   14 cycles
 Normal termination of Gaussian 16 at Tue Apr  8 20:36:45 2025.
 Gaussian 16:  ES64L-G16RevC.01  3-Jul-2019

 ----------------------------------------------------------------------
 #t hf aug-cc-pvdz iop(5/13=1,5/36=2,99/5=2) pseudo=read geom=check gue
 ss=(read,tcheck) scf=(maxcycle=1)
 ----------------------------------------------------------------------
 -----
 title
 -----
 Structure from the checkpoint file:  "ANI1ccx_1611_conf15_mol2.chk"
 Charge =  0 Multiplicity = 1

                         Standard orientation:
 ---------------------------------------------------------------------
 Center     Atomic      Atomic             Coordinates (Angstroms)
 Number     Number       Type             X           Y           Z
 ---------------------------------------------------------------------
      1          6           0       -2.344570   -0.664858    0.594027
      2          6           0       -0.996028   -1.169380    0.086067
      3          6           0       -3.069420    0.389705   -0.282861
      4          6           0       -2.520711    1.815169   -0.119519
      5          6           0        1.258250   -0.477039   -0.774686
      6          6           0        2.372170   -1.319908   -0.016842
      7          6           0        1.704419    0.954255   -1.220890
      8          6           0        1.610339    1.895901   -0.016092
      9          1           0        1.005191   -2.538339    0.116857
     10          1           0        3.704189    1.848122    0.181905
     11          1           0        2.740568    2.733802    1.303970
     12          1           0        2.719479    0.944179   -1.601100
     13          1           0        0.961145    1.357121   -1.879060
     14          1           0        0.937405   -1.139069   -1.569160
     15          1           0       -0.255020    0.644768    0.224045
     16          1           0       -2.202821    2.074129    0.892502
     17          1           0       -1.679381    1.825289   -0.753614
     18          1           0       -3.192382    2.598179   -0.391047
     19          1           0       -3.603590    0.310432   -2.142190
     20          1           0       -4.075050    0.415724    0.082360
     21          1           0       -2.982039   -1.549591    0.579443
     22          1           0       -2.180780   -1.038121    2.628610
     23          1           0       -1.585560    0.399565    2.156610
     24          7           0       -2.349980   -0.219734    2.001660
     25          7           0        0.057340   -0.298223    0.018937
     26          7           0        2.822839    2.197812    0.487535
     27          8           0       -0.748454   -2.352840   -0.172129
     28          8           0       -3.003170   -0.152936   -1.585470
     29          8           0        3.475210   -0.875785    0.190691
     30          8           0        0.554813    2.271061    0.476769
     31          8           0        1.957921   -2.538029    0.229857
 ---------------------------------------------------------------------

 SCF Done:  E(RHF) =  -853.258330116     A.U. after    2 cycles

 The electronic state is 1-A.
 Alpha  occ. eigenvalues --  -21.11404 -21.08727 -21.05221 -21.04534 -21.04002
 Alpha  occ. eigenvalues --  -15.79697 -15.76163 -15.75322 -11.54473 -11.54033
 Alpha  occ. eigenvalues --  -11.53484 -11.49515 -11.48420 -11.43916 -11.43403
 Alpha  occ. eigenvalues --  -11.38303  -1.83268  -1.74810  -1.73769  -1.72152
 Alpha  occ. eigenvalues --   -1.66416  -1.42618  -1.37620  -1.35204  -1.16999
 Alpha  occ. eigenvalues --   -1.13572  -1.03936  -1.00315  -0.88586  -0.84022
 Alpha  occ. eigenvalues --   -0.80566  -0.78769  -0.74514  -0.72590  -0.71075
 Alpha  occ. eigenvalues --   -0.68435  -0.67095  -0.66785  -0.63870  -0.61719
 Alpha  occ. eigenvalues --   -0.60079  -0.56575  -0.55842  -0.54838  -0.54622
 Alpha  occ. eigenvalues --   -0.53841  -0.51725  -0.51156  -0.50243  -0.49545
 Alpha  occ. eigenvalues --   -0.47353  -0.45652  -0.45051  -0.42720  -0.39322
 Alpha  occ. eigenvalues --   -0.35712  -0.33920  -0.33391  -0.32860  -0.31122
 Alpha  occ. eigenvalues --   -0.28936  -0.27997
 Alpha virt. eigenvalues --    0.03681   0.04104   0.04470   0.04810   0.05297
 Alpha virt. eigenvalues --    0.05371   0.06056   0.06119   0.07002   0.07076
 Alpha virt. eigenvalues --    0.07643   0.08648   0.08936   0.09826   0.10084

 Mulliken charges:
               1
     1  C   -2.349081
     2  C    6.973717
     3  C    1.253797
     4  C   -4.772292
     5  C   -3.418093
     6  C    6.320844
     7  C   -3.116847
     8  C    6.147007
     9  H    1.566926
    10  H    0.841177
    11  H    0.673893
    12  H    1.444949
    13  H    1.160364
    14  H    2.202936
    15  H    1.611246
    16  H    1.367877
    17  H    1.929678
    18  H    1.006528
    19  H    0.787872
    20  H    1.685396
    21  H    1.784176
    22  H    0.540433
    23  H    0.717608
    24  N   -2.754014
    25  N   -2.418739
    26  N   -3.579854
    27  O   -3.789753
    28  O   -3.489542
    29  O   -3.254338
    30  O   -3.529842
    31  O   -3.544029
 Sum of Mulliken charges =  -0.00000

 Dipole moment (field-independent basis, Debye):
    X=             -0.4067    Y=              2.5569    Z=             -0.6054  Tot=              2.6589

 Test job not archived.
 1\1\GINC-SE109\SP\RHF\Aug-CC-pVDZ\C8H15N3O5\OHZDE\08-Apr-2025\0\\#t hf
  aug-cc-pvdz iop(5/13=1,5/36=2,99/5=2) pseudo=read geom=check guess=(r
 ead,tcheck) scf=(maxcycle=1)\\title\\0,1\C,0,-2.34457,-0.664857,0.5940
 27\C,0,-0.996028,-1.16938,0.0860671\C,0,-3.06942,0.389706,-0.282861\C,
 0,-2.52071,1.81517,-0.119519\C,0,1.25825,-0.47704,-0.774686\C,0,2.3721
 7,-1.31991,-0.0168423\C,0,1.70442,0.954254,-1.22089\C,0,1.61034,1.8959
 ,-0.0160922\H,0,1.00519,-2.53834,0.116857\H,0,3.70419,1.84812,0.181905
 \H,0,2.74057,2.7338,1.30397\H,0,2.71948,0.944177,-1.6011\H,0,0.961146,

 Normal termination of Gaussian 16 at Tue Apr  8 20:37:28 2025.
