 Gaussian 16, Revision C.01,

 ----------------------------------------------------------------------
 #t hf aug-cc-pvdz symm=none int=(grid=ultrafine) guess=(read,tcheck) s
 table=(opt,rrhf)
 ----------------------------------------------------------------------
 -----
 title
 -----
 Symbolic Z-matrix:
 Charge =  0 Multiplicity = 1

 SCF Done:  E(RHF) =  -443.088682447     A.U. after   19 cycles
 Normal termination of Gaussian 16 at Tue Apr  8 21:49:56 2025.
 Gaussian 16:  ES64L-G16RevC.01  3-Jul-2019

 ----------------------------------------------------------------------
 #t hf aug-cc-pvdz iop(5/13=1,5/36=2,99/5=2) pseudo=read geom=check gue
 ss=(read,tcheck) scf=(maxcycle=1)
 ----------------------------------------------------------------------
 -----
 title
 -----
 Structure from the checkpoint file:  "ANI1ccx_609_conf3_mol1.chk"
 Charge =  0 Multiplicity = 1

                         Standard orientation:
 ---------------------------------------------------------------------
 Center     Atomic      Atomic             Coordinates (Angstroms)
 Number     Number       Type             X           Y           Z
 ---------------------------------------------------------------------
      1          6           0       -0.035874   -0.597316    0.174863
      2          6           0        0.042332    0.897962    0.028766
      3          7           0       -2.239599   -0.496218   -0.119828
      4          7           0       -1.235969   -1.133293    0.018648
      5          7           0        1.186571   -1.161111    0.043297
      6          7           0        2.217761   -0.574098   -0.123044
      7          8           0        1.175939    1.358809   -0.004704
      8          8           0       -1.118451    1.359837    0.010294
 ---------------------------------------------------------------------

 SCF Done:  E(RHF) =  -444.940685937     A.U. after    2 cycles

 The electronic state is 1-A.
 Alpha  occ. eigenvalues --  -21.05650 -21.04671 -15.97236 -15.96502 -15.96044
 Alpha  occ. eigenvalues --  -15.95460 -11.53089 -11.49046  -1.80896  -1.67233
 Alpha  occ. eigenvalues --   -1.66110  -1.59820  -1.25072  -1.00466  -0.91240
 Alpha  occ. eigenvalues --   -0.74948  -0.72366  -0.71229  -0.66746  -0.63745
 Alpha  occ. eigenvalues --   -0.63114  -0.54507  -0.52277  -0.51551  -0.37283
 Alpha  occ. eigenvalues --   -0.33962  -0.31244  -0.30357
 Alpha virt. eigenvalues --    0.03860   0.05144   0.06540   0.07535   0.08981
 Alpha virt. eigenvalues --    0.09931   0.09983   0.11369   0.12535   0.12618
 Alpha virt. eigenvalues --    0.12904   0.15054   0.15242   0.16440   0.18339

 Mulliken charges:
               1
     1  C    2.151360
     2  C    6.523251
     3  N   -1.143835
     4  N   -0.665364
     5  N   -0.565175
     6  N   -1.142669
     7  O   -2.628074
     8  O   -2.529494
 Sum of Mulliken charges =  -0.00000

 Dipole moment (field-independent basis, Debye):
    X=              0.0637    Y=             -2.3356    Z=             -0.0442  Tot=              2.3369

 Test job not archived.
 1\1\GINC-SE094\SP\RHF\Aug-CC-pVDZ\C2N4O2\OHZDE\08-Apr-2025\0\\#t hf au
 g-cc-pvdz iop(5/13=1,5/36=2,99/5=2) pseudo=read geom=check guess=(read
 ,tcheck) scf=(maxcycle=1)\\title\\0,1\C,0,-0.0358745,-0.597314,0.17486
 3\C,0,0.0423325,0.897964,0.0287665\N,0,-2.2396,-0.496214,-0.119828\N,0
 ,-1.23597,-1.13329,0.0186479\N,0,1.18657,-1.16111,0.0432972\N,0,2.2177
 6,-0.574098,-0.123044\O,0,1.17594,1.35881,-0.00470436\O,0,-1.11845,1.3
 5984,0.010294\\Version=ES64L-G16RevC.01\State=1-A\HF=-444.9406859\RMSD
 =1.792e-01\Dipole=0.0250463,-0.9188961,-0.0173985\Quadrupole=-0.558195

 Normal termination of Gaussian 16 at Tue Apr  8 21:49:59 2025.
