 Gaussian 16, Revision C.01,

 ----------------------------------------------------------------------
 #t hf aug-cc-pvdz symm=none int=(grid=ultrafine) guess=(read,tcheck) s
 table=(opt,rrhf)
 ----------------------------------------------------------------------
 -----
 title
 -----
 Symbolic Z-matrix:
 Charge =  0 Multiplicity = 1

 SCF Done:  E(RHF) =  -626.317668992     A.U. after   16 cycles
 Normal termination of Gaussian 16 at Tue Apr  8 20:39:35 2025.
 Gaussian 16:  ES64L-G16RevC.01  3-Jul-2019

 ----------------------------------------------------------------------
 #t hf aug-cc-pvdz iop(5/13=1,5/36=2,99/5=2) pseudo=read geom=check gue
 ss=(read,tcheck) scf=(maxcycle=1)
 ----------------------------------------------------------------------
 -----
 title
 -----
 Structure from the checkpoint file:  "ANI1ccx_1715_conf2_mol2.chk"
 Charge =  0 Multiplicity = 1

                         Standard orientation:
 ---------------------------------------------------------------------
 Center     Atomic      Atomic             Coordinates (Angstroms)
 Number     Number       Type             X           Y           Z
 ---------------------------------------------------------------------
      1          6           0       -2.506060   -1.128411    0.353428
      2          6           0        2.202960    0.447203    0.652816
      3          6           0        2.479950   -0.627099   -0.425730
      4          6           0        0.914482    0.007365    1.333080
      5          6           0       -0.385498   -0.009904    0.648236
      6          6           0       -0.874340    1.082009   -0.037086
      7          6           0       -1.241780   -1.139521    0.813309
      8          6           0       -2.207711    1.148929   -0.391829
      9          6           0       -2.990190    0.040519   -0.249757
     10          1           0        1.166320   -0.945474    1.748520
     11          1           0        0.766666    0.627080    2.256050
     12          1           0        3.045220    0.310379    1.315380
     13          1           0        2.652719    2.352550    0.952065
     14          1           0        3.437460   -0.920246   -1.978360
     15          1           0       -2.637071    2.010919   -0.943493
     16          1           0       -4.317631    0.941180   -1.252760
     17          1           0       -0.222345    1.950910   -0.158799
     18          1           0       -3.015050   -2.097191    0.497182
     19          1           0        2.706579    2.071431   -0.659713
     20          1           0       -0.907062   -2.028291    1.306970
     21          7           0        2.193959    1.781670    0.184264
     22          8           0        1.941370   -1.682100   -0.488842
     23          8           0        3.498260   -0.298460   -1.281670
     24          8           0       -4.237680    0.021624   -0.798449
 ---------------------------------------------------------------------

 SCF Done:  E(RHF) =  -629.149163592     A.U. after    2 cycles

 The electronic state is 1-A.
 Alpha  occ. eigenvalues --  -21.12649 -21.08621 -21.05998 -15.74294 -11.53925
 Alpha  occ. eigenvalues --  -11.50973 -11.47894 -11.44416 -11.42358 -11.42043
 Alpha  occ. eigenvalues --  -11.39832 -11.39235 -11.35383  -1.83725  -1.73832
 Alpha  occ. eigenvalues --   -1.66565  -1.38607  -1.31563  -1.14513  -1.09760
 Alpha  occ. eigenvalues --   -1.03922  -0.94197  -0.86940  -0.83180  -0.77881
 Alpha  occ. eigenvalues --   -0.70161  -0.68114  -0.67303  -0.64341  -0.62366
 Alpha  occ. eigenvalues --   -0.60786  -0.58534  -0.58032  -0.54505  -0.54402
 Alpha  occ. eigenvalues --   -0.53374  -0.51668  -0.49997  -0.46670  -0.44978
 Alpha  occ. eigenvalues --   -0.43768  -0.41518  -0.40446  -0.35289  -0.34587
 Alpha  occ. eigenvalues --   -0.33273  -0.29927  -0.24770
 Alpha virt. eigenvalues --    0.03559   0.04311   0.04576   0.05041   0.05917
 Alpha virt. eigenvalues --    0.06357   0.06567   0.06777   0.07532   0.08221
 Alpha virt. eigenvalues --    0.09175   0.10373   0.11116   0.11554   0.12169

 Mulliken charges:
               1
     1  C   -2.676131
     2  C   -0.458641
     3  C    5.773261
     4  C   -4.156809
     5  C    2.748967
     6  C    0.115634
     7  C   -1.443729
     8  C   -5.196522
     9  C    5.289580
    10  H    1.296541
    11  H    1.065734
    12  H    1.787715
    13  H    0.388477
    14  H    0.921059
    15  H    1.645541
    16  H    0.850047
    17  H    1.949789
    18  H    1.567082
    19  H    0.688670
    20  H    1.690067
    21  N   -3.291807
    22  O   -3.109996
    23  O   -3.229927
    24  O   -4.214604
 Sum of Mulliken charges =   0.00000

 Dipole moment (field-independent basis, Debye):
    X=              1.7897    Y=              1.1433    Z=             -0.2953  Tot=              2.1442

 Test job not archived.
 1\1\GINC-SE273\SP\RHF\Aug-CC-pVDZ\C9H11N1O3\OHZDE\08-Apr-2025\0\\#t hf
  aug-cc-pvdz iop(5/13=1,5/36=2,99/5=2) pseudo=read geom=check guess=(r
 ead,tcheck) scf=(maxcycle=1)\\title\\0,1\C,0,-2.50606,-1.12841,0.35342
 8\C,0,2.20296,0.447203,0.652816\C,0,2.47995,-0.627099,-0.42573\C,0,0.9
 14482,0.00736515,1.33308\C,0,-0.385498,-0.00990313,0.648236\C,0,-0.874
 339,1.08201,-0.0370863\C,0,-1.24178,-1.13952,0.813309\C,0,-2.20771,1.1
 4893,-0.391829\C,0,-2.99019,0.0405198,-0.249757\H,0,1.16632,-0.945474,
 1.74852\H,0,0.766666,0.62708,2.25605\H,0,3.04522,0.310378,1.31538\H,0,

 Normal termination of Gaussian 16 at Tue Apr  8 20:39:55 2025.
