 Gaussian 16, Revision C.01,

 ----------------------------------------------------------------------
 #t hf aug-cc-pvdz symm=none int=(grid=ultrafine) guess=(read,tcheck) s
 table=(opt,rrhf)
 ----------------------------------------------------------------------
 -----
 title
 -----
 Symbolic Z-matrix:
 Charge =  0 Multiplicity = 1

 SCF Done:  E(RHF) =  -337.198606159     A.U. after   13 cycles

 1\1\GINC-SE221\Stability\RHF\Aug-CC-pVDZ\C3H10N4\OHZDE\08-Apr-2025\0\\
 #t hf aug-cc-pvdz symm=none int=(grid=ultrafine) guess=(read,tcheck) s
 table=(opt,rrhf)\\title\\0,1\C,0,2.5845,0.0365174,0.312689\C,0,0.14026
 5,-0.253239,-0.10506\C,0,-1.367,1.70181,-0.308715\H,0,-2.11963,0.94793
 1,-0.601589\H,0,-0.936062,2.18819,-1.20288\H,0,-1.78957,2.43609,0.3794
 35\H,0,0.507877,1.58492,0.724082\H,0,1.51306,-1.26477,-0.954756\H,0,3.
 49032,-0.354026,-0.198631\H,0,2.59854,-0.365495,1.34676\H,0,2.75395,1.
 15378,0.271105\H,0,-1.92194,-0.762244,1.17949\H,0,-2.29229,-2.06185,0.

 Normal termination of Gaussian 16 at Tue Apr  8 21:50:25 2025.
 Gaussian 16:  ES64L-G16RevC.01  3-Jul-2019

 ----------------------------------------------------------------------
 #t hf aug-cc-pvdz iop(5/13=1,5/36=2,99/5=2) pseudo=read geom=check gue
 ss=(read,tcheck) scf=(maxcycle=1)
 ----------------------------------------------------------------------
 -----
 title
 -----
 Structure from the checkpoint file:  "ANI1ccx_616_conf2_mol1.chk"
 Charge =  0 Multiplicity = 1

                         Standard orientation:
 ---------------------------------------------------------------------
 Center     Atomic      Atomic             Coordinates (Angstroms)
 Number     Number       Type             X           Y           Z
 ---------------------------------------------------------------------
      1          6           0        2.584500    0.036517    0.312689
      2          6           0        0.140266   -0.253240   -0.105060
      3          6           0       -1.367000    1.701809   -0.308715
      4          1           0       -2.119630    0.947930   -0.601589
      5          1           0       -0.936062    2.188189   -1.202880
      6          1           0       -1.789570    2.436089    0.379435
      7          1           0        0.507877    1.584919    0.724082
      8          1           0        1.513061   -1.264770   -0.954756
      9          1           0        3.490321   -0.354026   -0.198631
     10          1           0        2.598541   -0.365495    1.346760
     11          1           0        2.753950    1.153780    0.271105
     12          1           0       -1.921939   -0.762245    1.179490
     13          1           0       -2.292289   -2.061852    0.348561
     14          7           0       -1.973999   -1.142021    0.214526
     15          7           0       -0.630896   -1.265191   -0.220359
     16          7           0       -0.283496    0.973640    0.447966
     17          7           0        1.466841   -0.339718   -0.539998
 ---------------------------------------------------------------------

 SCF Done:  E(RHF) =  -338.810883691     A.U. after    2 cycles

 The electronic state is 1-A.
 Alpha  occ. eigenvalues --  -15.74345 -15.73708 -15.73133 -15.70841 -11.44653
 Alpha  occ. eigenvalues --  -11.40504 -11.38977  -1.51683  -1.37916  -1.31312
 Alpha  occ. eigenvalues --   -1.12684  -0.97980  -0.96407  -0.76789  -0.70262
 Alpha  occ. eigenvalues --   -0.65938  -0.63523  -0.60761  -0.58769  -0.57570
 Alpha  occ. eigenvalues --   -0.54771  -0.53270  -0.51166  -0.48929  -0.41772
 Alpha  occ. eigenvalues --   -0.35450  -0.34417  -0.26618
 Alpha virt. eigenvalues --    0.03558   0.04813   0.05649   0.05939   0.06071
 Alpha virt. eigenvalues --    0.06347   0.06836   0.07572   0.08528   0.09087
 Alpha virt. eigenvalues --    0.11451   0.12486   0.13562   0.14117   0.14517

 Mulliken charges:
               1
     1  C   -3.472862
     2  C    5.667586
     3  C   -3.710834
     4  H    1.402551
     5  H    1.320023
     6  H    1.253890
     7  H    0.764080
     8  H    0.565325
     9  H    1.240765
    10  H    1.261644
    11  H    1.343476
    12  H    0.545927
    13  H    0.748578
    14  N   -1.727326
    15  N   -1.905216
    16  N   -2.478139
    17  N   -2.819467
 Sum of Mulliken charges =  -0.00000

 Dipole moment (field-independent basis, Debye):
    X=              1.2709    Y=              1.0592    Z=              1.1928  Tot=              2.0396

 Test job not archived.
 1\1\GINC-SE221\SP\RHF\Aug-CC-pVDZ\C3H10N4\OHZDE\08-Apr-2025\0\\#t hf a
 ug-cc-pvdz iop(5/13=1,5/36=2,99/5=2) pseudo=read geom=check guess=(rea
 d,tcheck) scf=(maxcycle=1)\\title\\0,1\C,0,2.5845,0.0365174,0.312689\C
 ,0,0.140265,-0.253239,-0.10506\C,0,-1.367,1.70181,-0.308715\H,0,-2.119
 63,0.947931,-0.601589\H,0,-0.936062,2.18819,-1.20288\H,0,-1.78957,2.43
 609,0.379435\H,0,0.507877,1.58492,0.724082\H,0,1.51306,-1.26477,-0.954
 756\H,0,3.49032,-0.354026,-0.198631\H,0,2.59854,-0.365495,1.34676\H,0,
 2.75395,1.15378,0.271105\H,0,-1.92194,-0.762244,1.17949\H,0,-2.29229,-

 Normal termination of Gaussian 16 at Tue Apr  8 21:50:31 2025.
