 Gaussian 16, Revision C.01,

 ----------------------------------------------------------------------
 #t hf aug-cc-pvdz symm=none int=(grid=ultrafine) guess=(read,tcheck) s
 table=(opt,rrhf)
 ----------------------------------------------------------------------
 -----
 title
 -----
 Symbolic Z-matrix:
 Charge =  0 Multiplicity = 1

 SCF Done:  E(RHF) =  -563.426670965     A.U. after   14 cycles
 Normal termination of Gaussian 16 at Tue Apr  8 22:11:47 2025.
 Gaussian 16:  ES64L-G16RevC.01  3-Jul-2019

 ----------------------------------------------------------------------
 #t hf aug-cc-pvdz iop(5/13=1,5/36=2,99/5=2) pseudo=read geom=check gue
 ss=(read,tcheck) scf=(maxcycle=1)
 ----------------------------------------------------------------------
 -----
 title
 -----
 Structure from the checkpoint file:  "ANI1ccx_918_conf1_mol1.chk"
 Charge =  0 Multiplicity = 1

                         Standard orientation:
 ---------------------------------------------------------------------
 Center     Atomic      Atomic             Coordinates (Angstroms)
 Number     Number       Type             X           Y           Z
 ---------------------------------------------------------------------
      1          6           0        1.140680   -0.021863    0.011240
      2          6           0       -0.908111    1.239204   -0.082458
      3          6           0       -1.536220   -0.001806    0.450504
      4          6           0       -0.905386   -1.261276   -0.095219
      5          1           0        1.618325   -0.887302    1.795821
      6          1           0        1.912355    0.687734    1.673061
      7          1           0        2.946044   -0.741553   -0.508158
      8          1           0        2.297399    0.161406   -1.655529
      9          1           0       -1.469810   -0.065624    1.559261
     10          1           0       -2.578981    0.019973    0.089334
     11          7           0        1.241070   -0.023411    1.431831
     12          7           0        2.380399    0.087890   -0.653633
     13          8           0        0.451688    1.170193   -0.371240
     14          8           0       -1.458404    2.326671   -0.223272
     15          8           0       -1.507207   -2.268569   -0.274618
     16          8           0        0.411250   -1.147238   -0.394064
 ---------------------------------------------------------------------

 SCF Done:  E(RHF) =  -565.826620152     A.U. after    2 cycles

 The electronic state is 1-A.
 Alpha  occ. eigenvalues --  -21.12100 -21.10775 -21.07797 -21.06965 -15.77839
 Alpha  occ. eigenvalues --  -15.77407 -11.55866 -11.55429 -11.54874 -11.45036
 Alpha  occ. eigenvalues --   -1.94185  -1.81916  -1.71779  -1.66400  -1.40887
 Alpha  occ. eigenvalues --   -1.30784  -1.18999  -0.95892  -0.88056  -0.76403
 Alpha  occ. eigenvalues --   -0.75223  -0.72369  -0.71395  -0.66186  -0.64896
 Alpha  occ. eigenvalues --   -0.62346  -0.56078  -0.54770  -0.52116  -0.51500
 Alpha  occ. eigenvalues --   -0.47423  -0.44247  -0.43641  -0.40318  -0.35312
 Alpha  occ. eigenvalues --   -0.33722  -0.32832  -0.29451
 Alpha virt. eigenvalues --    0.02831   0.04065   0.04375   0.05529   0.06355
 Alpha virt. eigenvalues --    0.07273   0.09479   0.10300   0.10888   0.11272
 Alpha virt. eigenvalues --    0.11847   0.13112   0.13548   0.13855   0.14148

 Mulliken charges:
               1
     1  C    9.068130
     2  C    5.151112
     3  C   -3.780896
     4  C    5.538042
     5  H    0.461418
     6  H    0.556726
     7  H    0.537979
     8  H    0.595247
     9  H    1.358481
    10  H    1.116842
    11  N   -3.223543
    12  N   -3.169361
    13  O   -3.641871
    14  O   -3.308033
    15  O   -3.522273
    16  O   -3.738000
 Sum of Mulliken charges =  -0.00000

 Dipole moment (field-independent basis, Debye):
    X=              3.1487    Y=             -0.9671    Z=              0.8038  Tot=              3.3906

 Test job not archived.
 1\1\GINC-SE143\SP\RHF\Aug-CC-pVDZ\C4H6N2O4\OHZDE\08-Apr-2025\0\\#t hf
 aug-cc-pvdz iop(5/13=1,5/36=2,99/5=2) pseudo=read geom=check guess=(re
 ad,tcheck) scf=(maxcycle=1)\\title\\0,1\C,0,1.14068,-0.0218694,0.01123
 9\C,0,-0.908103,1.23921,-0.0824582\C,0,-1.53622,-0.00179656,0.450503\C
 ,0,-0.905393,-1.26127,-0.0952191\H,0,1.61832,-0.887312,1.79582\H,0,1.9
 1236,0.687723,1.67306\H,0,2.94604,-0.741571,-0.508159\H,0,2.2974,0.161
 392,-1.65553\H,0,-1.46981,-0.0656146,1.55926\H,0,-2.57898,0.0199883,0.
 0893339\N,0,1.24107,-0.0234182,1.43183\N,0,2.3804,0.0878758,-0.653634\

 Normal termination of Gaussian 16 at Tue Apr  8 22:11:55 2025.
