 Gaussian 16, Revision C.01,

 ----------------------------------------------------------------------
 #t hf aug-cc-pvdz symm=none int=(grid=ultrafine) guess=(read,tcheck) s
 table=(opt,rrhf)
 ----------------------------------------------------------------------
 -----
 title
 -----
 Symbolic Z-matrix:
 Charge =  0 Multiplicity = 1

 SCF Done:  E(RHF) =  -868.311117618     A.U. after   16 cycles
 Normal termination of Gaussian 16 at Tue Apr  8 20:58:32 2025.
 Gaussian 16:  ES64L-G16RevC.01  3-Jul-2019

 ----------------------------------------------------------------------
 #t hf aug-cc-pvdz iop(5/13=1,5/36=2,99/5=2) pseudo=read geom=check gue
 ss=(read,tcheck) scf=(maxcycle=1)
 ----------------------------------------------------------------------
 -----
 title
 -----
 Structure from the checkpoint file:  "ANI1ccx_170_conf14_mol1.chk"
 Charge =  0 Multiplicity = 1

                         Standard orientation:
 ---------------------------------------------------------------------
 Center     Atomic      Atomic             Coordinates (Angstroms)
 Number     Number       Type             X           Y           Z
 ---------------------------------------------------------------------
      1          6           0       -0.629846    0.896053    1.168981
      2          6           0        1.610812   -2.023919    0.154728
      3          6           0        3.598902   -0.677139    0.234346
      4          6           0        2.228471    1.035001   -1.013849
      5          6           0        2.402321    0.243238    0.272014
      6          6           0        3.026122   -1.943539   -0.371194
      7          6           0       -2.697508   -0.706796   -1.230769
      8          6           0       -2.566709    0.278311   -0.317918
      9          6           0       -1.338669    1.140110   -0.152795
     10          6           0        0.146151   -0.392830    1.218641
     11          6           0       -4.608979   -0.374032   -0.167294
     12          1           0        3.888832   -0.840483    1.293441
     13          1           0        1.393991    2.155611    0.010190
     14          1           0        0.932014   -2.432170   -0.567326
     15          1           0        1.500192   -2.532869    1.085141
     16          1           0        3.427792   -2.923509   -0.081047
     17          1           0        2.988042   -1.865109   -1.443929
     18          1           0        4.567091   -0.345061   -0.229922
     19          1           0        2.328211    1.049481    1.068841
     20          1           0       -2.061508   -1.164501   -1.985989
     21          1           0       -5.671869   -0.441205    0.197764
     22          1           0       -0.680641    1.042790   -1.007509
     23          1           0       -1.639350    2.206230   -0.041799
     24          1           0       -1.363519    0.855263    1.983421
     25          1           0       -0.242113    2.926320    1.489541
     26          1           0        0.906900    1.834610    2.211701
     27          1           0       -4.631228   -1.635272   -1.798879
     28          7           0        0.363573    2.073290    1.375761
     29          7           0       -3.807359    0.525014    0.386448
     30          7           0       -4.073838   -1.126781   -1.131999
     31          7           0        1.222301   -0.630935    0.428101
     32          8           0        2.736171    0.603826   -2.042069
     33          8           0       -0.305769   -1.362010    1.934161
     34          8           0        1.494351    2.180561   -0.937230
 ---------------------------------------------------------------------

 SCF Done:  E(RHF) =  -872.266227509     A.U. after    2 cycles

 The electronic state is 1-A.
 Alpha  occ. eigenvalues --  -21.10195 -21.03674 -21.02654 -15.79919 -15.76909
 Alpha  occ. eigenvalues --  -15.74798 -15.72236 -11.55415 -11.54317 -11.49724
 Alpha  occ. eigenvalues --  -11.49080 -11.46975 -11.45416 -11.44259 -11.43673
 Alpha  occ. eigenvalues --  -11.42493 -11.39512 -11.37368  -1.80877  -1.68452
 Alpha  occ. eigenvalues --   -1.64880  -1.54798  -1.47509  -1.36897  -1.26186
 Alpha  occ. eigenvalues --   -1.20088  -1.16066  -1.12537  -1.06242  -0.97825
 Alpha  occ. eigenvalues --   -0.92719  -0.86911  -0.83984  -0.80537  -0.78643
 Alpha  occ. eigenvalues --   -0.77270  -0.75046  -0.72043  -0.69658  -0.65652
 Alpha  occ. eigenvalues --   -0.64648  -0.64169  -0.62131  -0.60553  -0.58893
 Alpha  occ. eigenvalues --   -0.58484  -0.56885  -0.55766  -0.54601  -0.52732
 Alpha  occ. eigenvalues --   -0.51223  -0.50884  -0.50455  -0.47943  -0.46645
 Alpha  occ. eigenvalues --   -0.46297  -0.45808  -0.44493  -0.40976  -0.39480
 Alpha  occ. eigenvalues --   -0.37241  -0.35740  -0.32877  -0.31619  -0.31018
 Alpha  occ. eigenvalues --   -0.28303  -0.26263
 Alpha virt. eigenvalues --    0.03048   0.03969   0.04523   0.04607   0.05239
 Alpha virt. eigenvalues --    0.05724   0.05934   0.06128   0.06514   0.07235
 Alpha virt. eigenvalues --    0.07679   0.07768   0.07946   0.08623   0.09146

 Mulliken charges:
               1
     1  C   -1.419739
     2  C   -2.711825
     3  C   -3.632050
     4  C    6.732645
     5  C   -2.252380
     6  C   -3.002530
     7  C   -3.138339
     8  C    5.799632
     9  C   -5.202996
    10  C    7.013215
    11  C    1.105195
    12  H    1.108418
    13  H    2.116022
    14  H    1.850846
    15  H    1.905898
    16  H    1.214647
    17  H    1.479623
    18  H    1.367530
    19  H    1.876494
    20  H    1.225474
    21  H    1.730997
    22  H    2.067371
    23  H    1.446992
    24  H    1.851239
    25  H    0.574174
    26  H    0.787925
    27  H    0.869142
    28  N   -2.782558
    29  N   -3.748671
    30  N   -3.165589
    31  N   -2.561444
    32  O   -3.534500
    33  O   -3.576262
    34  O   -3.394593
 Sum of Mulliken charges =   0.00000

 Dipole moment (field-independent basis, Debye):
    X=             -1.6728    Y=             -1.2965    Z=             -0.2234  Tot=              2.1282

 Test job not archived.
 1\1\GINC-SE088\SP\RHF\Aug-CC-pVDZ\C11H16N4O3\OHZDE\08-Apr-2025\0\\#t h
 f aug-cc-pvdz iop(5/13=1,5/36=2,99/5=2) pseudo=read geom=check guess=(
 read,tcheck) scf=(maxcycle=1)\\title\\0,1\C,0,-0.629847,0.896053,1.168
 98\C,0,1.61081,-2.02392,0.154727\C,0,3.5989,-0.67714,0.234345\C,0,2.22
 847,1.035,-1.01385\C,0,2.40232,0.243237,0.272013\C,0,3.02612,-1.94354,
 -0.371195\C,0,-2.69751,-0.706795,-1.23077\C,0,-2.56671,0.278312,-0.317
 919\C,0,-1.33867,1.14011,-0.152796\C,0,0.14615,-0.39283,1.21864\C,0,-4
 .60898,-0.37403,-0.167295\H,0,3.88883,-0.840484,1.29344\H,0,1.39399,2.

 Normal termination of Gaussian 16 at Tue Apr  8 20:59:30 2025.
