 Gaussian 16, Revision C.01,

 ----------------------------------------------------------------------
 #t hf aug-cc-pvdz symm=none int=(grid=ultrafine) guess=(read,tcheck) s
 table=(opt,rrhf)
 ----------------------------------------------------------------------
 -----
 title
 -----
 Symbolic Z-matrix:
 Charge =  0 Multiplicity = 1

 SCF Done:  E(RHF) =  -774.644024728     A.U. after   14 cycles
 Normal termination of Gaussian 16 at Tue Apr  8 20:31:41 2025.
 Gaussian 16:  ES64L-G16RevC.01  3-Jul-2019

 ----------------------------------------------------------------------
 #t hf aug-cc-pvdz iop(5/13=1,5/36=2,99/5=2) pseudo=read geom=check gue
 ss=(read,tcheck) scf=(maxcycle=1)
 ----------------------------------------------------------------------
 -----
 title
 -----
 Structure from the checkpoint file:  "ANI1ccx_1610_conf2_mol2.chk"
 Charge =  0 Multiplicity = 1

                         Standard orientation:
 ---------------------------------------------------------------------
 Center     Atomic      Atomic             Coordinates (Angstroms)
 Number     Number       Type             X           Y           Z
 ---------------------------------------------------------------------
      1          6           0       -2.676629   -1.320940    0.059331
      2          6           0       -1.389030   -0.783694    0.698593
      3          6           0       -2.295009   -2.084500   -1.202810
      4          6           0        0.097805    1.273621    0.768942
      5          6           0        0.217081    2.608881   -0.012937
      6          6           0        1.435519    0.530050    0.801157
      7          6           0        1.771940   -0.063968   -0.569643
      8          6           0        2.724761   -1.264857   -0.410717
      9          1           0       -0.661421    3.708411   -1.203190
     10          1           0        1.304011   -2.380868    0.698857
     11          1           0        2.753152   -3.148317    0.343168
     12          1           0        2.301649    0.678869   -1.166230
     13          1           0        0.897225   -0.450015   -1.091500
     14          1           0        1.387690   -0.209476    1.613950
     15          1           0        2.175389    1.310333    1.078590
     16          1           0       -1.656711    0.865858   -0.354052
     17          1           0       -1.612208   -2.907680   -0.946232
     18          1           0       -1.721809   -1.459820   -1.914540
     19          1           0       -3.192969   -2.439551   -1.716750
     20          1           0       -3.036489   -2.024691    0.827805
     21          1           0       -3.885840    0.254031    0.598372
     22          1           0       -4.422580   -0.589133   -0.682130
     23          1           0       -0.153632    1.585801    1.806070
     24          7           0       -3.583230   -0.204793   -0.262829
     25          7           0       -1.007061    0.438702    0.273524
     26          7           0        2.160831   -2.363007    0.193895
     27          8           0        3.905120   -1.233036   -0.739053
     28          8           0       -0.697308   -1.468469    1.453780
     29          8           0        1.029978    3.467132    0.134384
     30          8           0       -0.836273    2.827171   -0.863590
 ---------------------------------------------------------------------

 SCF Done:  E(RHF) =  -778.114184565     A.U. after    2 cycles

 The electronic state is 1-A.
 Alpha  occ. eigenvalues --  -21.13880 -21.07924 -21.03494 -21.01376 -15.77320
 Alpha  occ. eigenvalues --  -15.76434 -15.75918 -11.56988 -11.54315 -11.50767
 Alpha  occ. eigenvalues --  -11.49995 -11.45842 -11.43953 -11.39892 -11.39013
 Alpha  occ. eigenvalues --   -1.85483  -1.71937  -1.68512  -1.67467  -1.43763
 Alpha  occ. eigenvalues --   -1.36492  -1.33103  -1.20815  -1.12527  -1.07541
 Alpha  occ. eigenvalues --   -0.94770  -0.92657  -0.81990  -0.80132  -0.78396
 Alpha  occ. eigenvalues --   -0.72595  -0.70644  -0.68805  -0.67629  -0.65974
 Alpha  occ. eigenvalues --   -0.63401  -0.62530  -0.61811  -0.57934  -0.57735
 Alpha  occ. eigenvalues --   -0.56362  -0.54523  -0.53912  -0.52045  -0.51683
 Alpha  occ. eigenvalues --   -0.50121  -0.48523  -0.48394  -0.46708  -0.46119
 Alpha  occ. eigenvalues --   -0.44401  -0.39670  -0.36297  -0.32326  -0.31941
 Alpha  occ. eigenvalues --   -0.31127  -0.29554  -0.27057
 Alpha virt. eigenvalues --    0.03142   0.03933   0.04260   0.04477   0.05015
 Alpha virt. eigenvalues --    0.05573   0.06282   0.06611   0.06948   0.07599
 Alpha virt. eigenvalues --    0.07917   0.08171   0.08636   0.09611   0.10229

 Mulliken charges:
               1
     1  C   -1.848397
     2  C    6.452822
     3  C   -3.857828
     4  C   -3.392995
     5  C    7.332018
     6  C   -1.789337
     7  C   -4.651304
     8  C    5.881335
     9  H    0.950655
    10  H    0.783548
    11  H    0.742254
    12  H    1.222141
    13  H    2.188892
    14  H    1.811637
    15  H    1.270525
    16  H    0.887582
    17  H    1.218788
    18  H    1.390442
    19  H    1.282724
    20  H    1.617829
    21  H    0.596666
    22  H    0.589805
    23  H    1.573671
    24  N   -2.826056
    25  N   -2.174230
    26  N   -3.136261
    27  O   -3.549121
    28  O   -4.033335
    29  O   -3.476135
    30  O   -3.058335
 Sum of Mulliken charges =   0.00000

 Dipole moment (field-independent basis, Debye):
    X=             -5.5321    Y=              0.3296    Z=              0.1676  Tot=              5.5444

 Test job not archived.
 1\1\GINC-SE342\SP\RHF\Aug-CC-pVDZ\C8H15N3O4\OHZDE\08-Apr-2025\0\\#t hf
  aug-cc-pvdz iop(5/13=1,5/36=2,99/5=2) pseudo=read geom=check guess=(r
 ead,tcheck) scf=(maxcycle=1)\\title\\0,1\C,0,-2.67663,-1.32094,0.05933
 12\C,0,-1.38903,-0.783694,0.698593\C,0,-2.29501,-2.0845,-1.20281\C,0,0
 .0978063,1.27362,0.768942\C,0,0.217083,2.60888,-0.0129368\C,0,1.43552,
 0.530048,0.801157\C,0,1.77194,-0.0639707,-0.569643\C,0,2.72476,-1.2648
 6,-0.410717\H,0,-0.661418,3.70841,-1.20319\H,0,1.30401,-2.38087,0.6988
 57\H,0,2.75315,-3.14832,0.343168\H,0,2.30165,0.678866,-1.16623\H,0,0.8

 Normal termination of Gaussian 16 at Tue Apr  8 20:32:15 2025.
