 Gaussian 16, Revision C.01,

 ----------------------------------------------------------------------
 #t hf aug-cc-pvdz symm=none int=(grid=ultrafine) guess=(read,tcheck) s
 table=(opt,rrhf)
 ----------------------------------------------------------------------
 -----
 title
 -----
 Symbolic Z-matrix:
 Charge =  0 Multiplicity = 1

 SCF Done:  E(RHF) =  -456.270003053     A.U. after   11 cycles
 Normal termination of Gaussian 16 at Tue Apr  8 21:07:42 2025.
 Gaussian 16:  ES64L-G16RevC.01  3-Jul-2019

 ----------------------------------------------------------------------
 #t hf aug-cc-pvdz iop(5/13=1,5/36=2,99/5=2) pseudo=read geom=check gue
 ss=(read,tcheck) scf=(maxcycle=1)
 ----------------------------------------------------------------------
 -----
 title
 -----
 Structure from the checkpoint file:  "ANI1ccx_1844_conf109_mol1.chk"
 Charge =  0 Multiplicity = 1

                         Standard orientation:
 ---------------------------------------------------------------------
 Center     Atomic      Atomic             Coordinates (Angstroms)
 Number     Number       Type             X           Y           Z
 ---------------------------------------------------------------------
      1          1           0        0.754983   -2.089714    1.542080
      2          1           0       -1.814504   -1.276824   -0.465127
      3          1           0       -1.817471   -2.826054   -0.190808
      4          1           0       -0.183544    2.195970    0.210359
      5          1           0       -0.978730    2.484513    1.582130
      6          1           0       -2.002286    0.810151    0.325154
      7          1           0        0.213907   -1.986172    0.110973
      8          1           0       -2.991167    0.517993   -0.884669
      9          1           0        3.205459   -0.515981   -0.753597
     10          1           0        2.128557   -0.883612    0.339686
     11          1           0        1.735735    1.202132   -0.443095
     12          1           0        1.896711    2.685421   -0.598664
     13          8           0       -1.082870    2.210693    0.619137
     14          8           0        2.748100   -0.193920    0.039614
     15          8           0       -1.284148   -2.087816   -0.646872
     16          8           0       -2.681139    0.131917   -0.016293
     17          8           0        1.060432   -2.090945    0.613806
     18          8           0        1.221169    1.990344   -0.706195
 ---------------------------------------------------------------------

 SCF Done:  E(RHF) =  -458.258369066     A.U. after    2 cycles

 The electronic state is 1-A.
 Alpha  occ. eigenvalues --  -21.08901 -21.08016 -21.07937 -21.07789 -21.07178
 Alpha  occ. eigenvalues --  -21.07169  -1.69053  -1.67698  -1.66519  -1.63961
 Alpha  occ. eigenvalues --   -1.63268  -1.62065  -0.65182  -0.64737  -0.63739
 Alpha  occ. eigenvalues --   -0.63032  -0.62858  -0.62405  -0.52555  -0.50647
 Alpha  occ. eigenvalues --   -0.49320  -0.45135  -0.43131  -0.41476  -0.35298
 Alpha  occ. eigenvalues --   -0.34911  -0.34894  -0.33727  -0.33403  -0.33039
 Alpha virt. eigenvalues --    0.03756   0.04682   0.05102   0.05570   0.06424
 Alpha virt. eigenvalues --    0.06716   0.08475   0.09130   0.09776   0.10379
 Alpha virt. eigenvalues --    0.10744   0.11273   0.18282   0.19385   0.19859

 Mulliken charges:
               1
     1  H    0.863854
     2  H    1.589605
     3  H    0.725339
     4  H    1.668755
     5  H    0.813351
     6  H    1.563085
     7  H    1.634917
     8  H    0.788461
     9  H    0.791382
    10  H    1.687263
    11  H    1.500074
    12  H    0.744979
    13  O   -2.440556
    14  O   -2.344876
    15  O   -2.343981
    16  O   -2.328883
    17  O   -2.558626
    18  O   -2.354143
 Sum of Mulliken charges =  -0.00000

 Dipole moment (field-independent basis, Debye):
    X=              0.0502    Y=              0.3429    Z=              0.4921  Tot=              0.6019

 Test job not archived.
 1\1\GINC-SE368\SP\RHF\Aug-CC-pVDZ\H12O6\OHZDE\08-Apr-2025\0\\#t hf aug
 -cc-pvdz iop(5/13=1,5/36=2,99/5=2) pseudo=read geom=check guess=(read,
 tcheck) scf=(maxcycle=1)\\title\\0,1\H,0,0.754991,-2.08971,1.54208\H,0
 ,-1.8145,-1.27683,-0.465127\H,0,-1.81746,-2.82606,-0.190808\H,0,-0.183
 553,2.19597,0.210359\H,0,-0.978741,2.48451,1.58213\H,0,-2.00229,0.8101
 44,0.325154\H,0,0.213914,-1.98617,0.110973\H,0,-2.99117,0.517982,-0.88
 4669\H,0,3.20546,-0.515967,-0.753597\H,0,2.12856,-0.883602,0.339686\H,
 0,1.73573,1.20214,-0.443095\H,0,1.8967,2.68543,-0.598664\O,0,-1.08288,

 Normal termination of Gaussian 16 at Tue Apr  8 21:07:46 2025.
