 Gaussian 16, Revision C.01,

 ----------------------------------------------------------------------
 #t hf aug-cc-pvdz symm=none int=(grid=ultrafine) guess=(read,tcheck) s
 table=(opt,rrhf)
 ----------------------------------------------------------------------
 -----
 title
 -----
 Symbolic Z-matrix:
 Charge =  0 Multiplicity = 1

 SCF Done:  E(RHF) =  -423.360642521     A.U. after   17 cycles
 Normal termination of Gaussian 16 at Tue Apr  8 21:42:52 2025.
 Gaussian 16:  ES64L-G16RevC.01  3-Jul-2019

 ----------------------------------------------------------------------
 #t hf aug-cc-pvdz iop(5/13=1,5/36=2,99/5=2) pseudo=read geom=check gue
 ss=(read,tcheck) scf=(maxcycle=1)
 ----------------------------------------------------------------------
 -----
 title
 -----
 Structure from the checkpoint file:  "ANI1ccx_477_conf1_mol1.chk"
 Charge =  0 Multiplicity = 1

                         Standard orientation:
 ---------------------------------------------------------------------
 Center     Atomic      Atomic             Coordinates (Angstroms)
 Number     Number       Type             X           Y           Z
 ---------------------------------------------------------------------
      1          6           0       -0.392481   -0.298280   -0.017908
      2          6           0        0.555165    0.840581    0.007845
      3          1           0        2.671990    0.452680   -0.006339
      4          7           0        1.499249   -1.265222   -0.004806
      5          7           0        0.239505   -1.485511    0.006624
      6          7           0       -1.691500   -0.159469    0.024309
      7          7           0       -2.799210   -0.051040   -0.014637
      8          7           0        1.731060    0.080065   -0.000554
      9          8           0        0.437273    2.057719   -0.001228
 ---------------------------------------------------------------------

 SCF Done:  E(RHF) =  -425.174562429     A.U. after    2 cycles

 The electronic state is 1-A.
 Alpha  occ. eigenvalues --  -21.05238 -15.99571 -15.93842 -15.83827 -15.81907
 Alpha  occ. eigenvalues --  -15.81351 -11.54387 -11.48251  -1.75638  -1.68361
 Alpha  occ. eigenvalues --   -1.65414  -1.34999  -1.24291  -1.02705  -0.91925
 Alpha  occ. eigenvalues --   -0.77159  -0.72762  -0.72486  -0.68697  -0.64648
 Alpha  occ. eigenvalues --   -0.62554  -0.56320  -0.49389  -0.48727  -0.45112
 Alpha  occ. eigenvalues --   -0.42254  -0.30377  -0.28077
 Alpha virt. eigenvalues --    0.04286   0.07181   0.07720   0.08401   0.09510
 Alpha virt. eigenvalues --    0.10231   0.11014   0.11524   0.12095   0.12340
 Alpha virt. eigenvalues --    0.13657   0.16347   0.16874   0.17248   0.17316

 Mulliken charges:
               1
     1  C    3.262950
     2  C    4.546094
     3  H    0.915144
     4  N   -0.213042
     5  N   -1.882625
     6  N    0.616495
     7  N   -1.841878
     8  N   -1.884504
     9  O   -3.518634
 Sum of Mulliken charges =   0.00000

 Dipole moment (field-independent basis, Debye):
    X=             -0.4093    Y=              0.3489    Z=              0.0310  Tot=              0.5388

 Test job not archived.
 1\1\GINC-SE458\SP\RHF\Aug-CC-pVDZ\C2H1N5O1\OHZDE\08-Apr-2025\0\\#t hf
 aug-cc-pvdz iop(5/13=1,5/36=2,99/5=2) pseudo=read geom=check guess=(re
 ad,tcheck) scf=(maxcycle=1)\\title\\0,1\C,0,-0.392481,-0.298279,-0.017
 9084\C,0,0.555164,0.840583,0.00784483\H,0,2.67199,0.452683,-0.00633854
 \N,0,1.49925,-1.26522,-0.00480592\N,0,0.239506,-1.48551,0.00662364\N,0
 ,-1.6915,-0.159469,0.024309\N,0,-2.79921,-0.0510415,-0.0146374\N,0,1.7
 3106,0.0800681,-0.00055444\O,0,0.437271,2.05772,-0.00122811\\Version=E
 S64L-G16RevC.01\State=1-A\HF=-425.1745624\RMSD=2.274e-01\Dipole=-0.161

 Normal termination of Gaussian 16 at Tue Apr  8 21:42:55 2025.
