 Gaussian 16, Revision C.01,

 ----------------------------------------------------------------------
 #t hf aug-cc-pvdz symm=none int=(grid=ultrafine) guess=(read,tcheck) s
 table=(opt,rrhf)
 ----------------------------------------------------------------------
 -----
 title
 -----
 Symbolic Z-matrix:
 Charge =  0 Multiplicity = 1

 SCF Done:  E(RHF) =  -375.792177425     A.U. after   14 cycles
 Normal termination of Gaussian 16 at Tue Apr  8 21:54:12 2025.
 Gaussian 16:  ES64L-G16RevC.01  3-Jul-2019

 ----------------------------------------------------------------------
 #t hf aug-cc-pvdz iop(5/13=1,5/36=2,99/5=2) pseudo=read geom=check gue
 ss=(read,tcheck) scf=(maxcycle=1)
 ----------------------------------------------------------------------
 -----
 title
 -----
 Structure from the checkpoint file:  "ANI1ccx_723_conf3_mol1.chk"
 Charge =  0 Multiplicity = 1

                         Standard orientation:
 ---------------------------------------------------------------------
 Center     Atomic      Atomic             Coordinates (Angstroms)
 Number     Number       Type             X           Y           Z
 ---------------------------------------------------------------------
      1          6           0        1.216341    0.015897    0.052443
      2          6           0       -0.035308   -0.809276    0.307220
      3          6           0       -1.380099   -0.139092   -0.022342
      4          1           0        2.399933   -1.747809   -0.160913
      5          1           0        3.250971   -0.195061   -0.313123
      6          1           0        2.037880    1.769840   -0.230761
      7          1           0       -0.064514   -1.122021    1.355380
      8          1           0       -0.022961   -1.679331   -0.303645
      9          1           0       -0.534435    1.601638    0.024643
     10          7           0        2.374782   -0.705309   -0.118848
     11          7           0        1.141100    1.299080   -0.027173
     12          8           0       -1.463000    1.197768    0.061367
     13          8           0       -2.347458   -0.846370   -0.233036
 ---------------------------------------------------------------------

 SCF Done:  E(RHF) =  -377.446135720     A.U. after    2 cycles

 The electronic state is 1-A.
 Alpha  occ. eigenvalues --  -21.07867 -21.03206 -15.80372 -15.74129 -11.52722
 Alpha  occ. eigenvalues --  -11.51491 -11.42158  -1.79145  -1.62918  -1.46147
 Alpha  occ. eigenvalues --   -1.26225  -1.13689  -0.86471  -0.78494  -0.72437
 Alpha  occ. eigenvalues --   -0.71220  -0.66966  -0.62271  -0.56859  -0.53633
 Alpha  occ. eigenvalues --   -0.50012  -0.48791  -0.46893  -0.36669  -0.36484
 Alpha  occ. eigenvalues --   -0.30731  -0.28374
 Alpha virt. eigenvalues --    0.02162   0.04128   0.04554   0.05853   0.07114
 Alpha virt. eigenvalues --    0.08437   0.10224   0.11016   0.11562   0.12735
 Alpha virt. eigenvalues --    0.13010   0.13692   0.14428   0.15050   0.15541

 Mulliken charges:
               1
     1  C    4.016917
     2  C   -3.302678
     3  C    5.455861
     4  H    0.716184
     5  H    0.678740
     6  H    0.720812
     7  H    1.443168
     8  H    1.456791
     9  H    1.327743
    10  N   -3.198725
    11  N   -3.087738
    12  O   -3.154289
    13  O   -3.072783
 Sum of Mulliken charges =   0.00000

 Dipole moment (field-independent basis, Debye):
    X=              5.4418    Y=             -1.3246    Z=              0.0457  Tot=              5.6009

 Test job not archived.
 1\1\GINC-SE072\SP\RHF\Aug-CC-pVDZ\C3H6N2O2\OHZDE\08-Apr-2025\0\\#t hf
 aug-cc-pvdz iop(5/13=1,5/36=2,99/5=2) pseudo=read geom=check guess=(re
 ad,tcheck) scf=(maxcycle=1)\\title\\0,1\C,0,1.21634,0.0158969,0.052442
 7\C,0,-0.0353095,-0.809275,0.30722\C,0,-1.3801,-0.13909,-0.0223418\H,0
 ,2.39993,-1.74781,-0.160913\H,0,3.25097,-0.195062,-0.313123\H,0,2.0378
 8,1.76984,-0.230761\H,0,-0.0645163,-1.12202,1.35538\H,0,-0.022964,-1.6
 7933,-0.303645\H,0,-0.534435,1.60164,0.0246433\N,0,2.37478,-0.70531,-0
 .118848\N,0,1.1411,1.29908,-0.0271733\O,0,-1.463,1.19777,0.0613667\O,0

 Normal termination of Gaussian 16 at Tue Apr  8 21:54:16 2025.
