 Gaussian 16, Revision C.01,

 ----------------------------------------------------------------------
 #t hf aug-cc-pvdz symm=none int=(grid=ultrafine) guess=(read,tcheck) s
 table=(opt,rrhf)
 ----------------------------------------------------------------------
 -----
 title
 -----
 Symbolic Z-matrix:
 Charge =  0 Multiplicity = 1

 SCF Done:  E(RHF) =  -355.484368061     A.U. after   16 cycles
 Normal termination of Gaussian 16 at Tue Apr  8 21:12:20 2025.
 Gaussian 16:  ES64L-G16RevC.01  3-Jul-2019

 ----------------------------------------------------------------------
 #t hf aug-cc-pvdz iop(5/13=1,5/36=2,99/5=2) pseudo=read geom=check gue
 ss=(read,tcheck) scf=(maxcycle=1)
 ----------------------------------------------------------------------
 -----
 title
 -----
 Structure from the checkpoint file:  "ANI1ccx_1871_conf1_mol2.chk"
 Charge =  0 Multiplicity = 1

                         Standard orientation:
 ---------------------------------------------------------------------
 Center     Atomic      Atomic             Coordinates (Angstroms)
 Number     Number       Type             X           Y           Z
 ---------------------------------------------------------------------
      1          1           0        3.099550   -0.044044    0.916687
      2          1           0        0.924905    0.062105   -0.031147
      3          1           0       -1.463989    1.646952    0.559042
      4          7           0       -1.936410   -0.127332    0.429606
      5          8           0        2.736430   -0.475671    0.136193
      6          8           0        1.764800    0.455272   -0.302147
      7          8           0       -1.330889    0.981717   -0.133732
      8          8           0       -1.796041   -1.058028   -0.256793
 ---------------------------------------------------------------------

 SCF Done:  E(RHF) =  -356.918351495     A.U. after    2 cycles

 The electronic state is 1-A.
 Alpha  occ. eigenvalues --  -21.16583 -21.15635 -21.11772 -21.11278 -15.95309
 Alpha  occ. eigenvalues --   -2.00546  -1.93772  -1.73179  -1.39137  -0.97022
 Alpha  occ. eigenvalues --   -0.74306  -0.64238  -0.62676  -0.62235  -0.60052
 Alpha  occ. eigenvalues --   -0.50551  -0.46858  -0.38753  -0.34075  -0.32005
 Alpha  occ. eigenvalues --   -0.31723
 Alpha virt. eigenvalues --    0.03774   0.05239   0.09592   0.11528   0.12552
 Alpha virt. eigenvalues --    0.13056   0.15759   0.16272   0.17552   0.19294
 Alpha virt. eigenvalues --    0.19889   0.20878   0.22109   0.23592   0.24091

 Mulliken charges:
               1
     1  H    0.933620
     2  H    1.103980
     3  H    0.879766
     4  N    2.839793
     5  O   -0.915818
     6  O   -1.147040
     7  O   -1.902261
     8  O   -1.792039
 Sum of Mulliken charges =  -0.00000

 Dipole moment (field-independent basis, Debye):
    X=             -0.5456    Y=              1.0969    Z=              0.9681  Tot=              1.5615

 Test job not archived.
 1\1\GINC-SE398\SP\RHF\Aug-CC-pVDZ\H3N1O4\OHZDE\08-Apr-2025\0\\#t hf au
 g-cc-pvdz iop(5/13=1,5/36=2,99/5=2) pseudo=read geom=check guess=(read
 ,tcheck) scf=(maxcycle=1)\\title\\0,1\H,0,3.09955,-0.0440426,0.916687\
 H,0,0.924905,0.0621048,-0.0311471\H,0,-1.46399,1.64695,0.559042\N,0,-1
 .93641,-0.127334,0.429606\O,0,2.73643,-0.47567,0.136193\O,0,1.7648,0.4
 55272,-0.302147\O,0,-1.33089,0.981715,-0.133732\O,0,-1.79604,-1.05803,
 -0.256793\\Version=ES64L-G16RevC.01\State=1-A\HF=-356.9183515\RMSD=5.0
 83e-02\Dipole=-0.2146646,0.4315649,0.3808813\Quadrupole=-0.4490645,0.6

 Normal termination of Gaussian 16 at Tue Apr  8 21:12:22 2025.
