 Gaussian 16, Revision C.01,

 ----------------------------------------------------------------------
 #t hf aug-cc-pvdz symm=none int=(grid=ultrafine) guess=(read,tcheck) s
 table=(opt,rrhf)
 ----------------------------------------------------------------------
 -----
 title
 -----
 Symbolic Z-matrix:
 Charge =  0 Multiplicity = 1

 SCF Done:  E(RHF) =  -636.063606140     A.U. after   16 cycles
 Normal termination of Gaussian 16 at Tue Apr  8 19:56:34 2025.
 Gaussian 16:  ES64L-G16RevC.01  3-Jul-2019

 ----------------------------------------------------------------------
 #t hf aug-cc-pvdz iop(5/13=1,5/36=2,99/5=2) pseudo=read geom=check gue
 ss=(read,tcheck) scf=(maxcycle=1)
 ----------------------------------------------------------------------
 -----
 title
 -----
 Structure from the checkpoint file:  "ANI1ccx_1499_conf7_mol1.chk"
 Charge =  0 Multiplicity = 1

                         Standard orientation:
 ---------------------------------------------------------------------
 Center     Atomic      Atomic             Coordinates (Angstroms)
 Number     Number       Type             X           Y           Z
 ---------------------------------------------------------------------
      1          6           0        0.637006    1.538870   -0.006422
      2          6           0       -1.899651   -0.079040    1.063880
      3          6           0       -2.053361   -0.077145   -1.058250
      4          6           0        1.246599    0.182307    0.028786
      5          6           0        2.669379    0.013046   -0.033171
      6          6           0        2.904119   -1.367010   -0.050077
      7          6           0        0.696940   -1.062270    0.029100
      8          1           0       -0.279083   -1.469170    0.060160
      9          1           0        3.789269   -1.969190   -0.048370
     10          1           0        3.372599    0.841954   -0.111118
     11          1           0       -1.863461    0.157217   -2.065370
     12          1           0       -1.691121    0.127831    2.110330
     13          1           0       -1.077061    2.644170   -0.275901
     14          7           0       -0.716336    1.711230    0.021276
     15          7           0       -1.566841    0.620467   -0.022504
     16          7           0       -2.584521   -1.120240    0.710353
     17          7           0       -2.615481   -1.132600   -0.681405
     18          8           0        1.400909    2.522360    0.035605
     19          8           0        1.714709   -1.994530    0.001039
 ---------------------------------------------------------------------

 SCF Done:  E(RHF) =  -638.887866901     A.U. after    2 cycles

 The electronic state is 1-A.
 Alpha  occ. eigenvalues --  -21.13818 -21.05159 -15.85253 -15.83907 -15.76329
 Alpha  occ. eigenvalues --  -15.75781 -11.55621 -11.51511 -11.48301 -11.47618
 Alpha  occ. eigenvalues --  -11.45282 -11.44540 -11.40557  -1.86775  -1.73905
 Alpha  occ. eigenvalues --   -1.70263  -1.50551  -1.25983  -1.22683  -1.22069
 Alpha  occ. eigenvalues --   -1.08678  -0.94635  -0.89332  -0.87748  -0.84890
 Alpha  occ. eigenvalues --   -0.81752  -0.79525  -0.74678  -0.68039  -0.64288
 Alpha  occ. eigenvalues --   -0.62469  -0.60927  -0.60388  -0.57257  -0.56162
 Alpha  occ. eigenvalues --   -0.52743  -0.50757  -0.45509  -0.44536  -0.42578
 Alpha  occ. eigenvalues --   -0.42196  -0.39181  -0.36750  -0.33117  -0.32782
 Alpha  occ. eigenvalues --   -0.31282
 Alpha virt. eigenvalues --    0.02825   0.04701   0.04964   0.05341   0.06054
 Alpha virt. eigenvalues --    0.07195   0.08812   0.09070   0.09526   0.10470
 Alpha virt. eigenvalues --    0.10778   0.11063   0.11473   0.11652   0.11942

 Mulliken charges:
               1
     1  C    6.047707
     2  C    0.256106
     3  C    0.550413
     4  C    3.382934
     5  C   -3.847963
     6  C   -0.251920
     7  C   -0.261760
     8  H    2.117332
     9  H    1.451696
    10  H    1.360587
    11  H    1.724671
    12  H    1.698087
    13  H    0.987729
    14  N   -1.769910
    15  N   -2.049964
    16  N   -1.762654
    17  N   -1.818430
    18  O   -3.604015
    19  O   -4.210645
 Sum of Mulliken charges =   0.00000

 Dipole moment (field-independent basis, Debye):
    X=              1.5441    Y=              1.8875    Z=             -0.4973  Tot=              2.4888

 Test job not archived.
 1\1\GINC-SE332\SP\RHF\Aug-CC-pVDZ\C7H6N4O2\OHZDE\08-Apr-2025\0\\#t hf
 aug-cc-pvdz iop(5/13=1,5/36=2,99/5=2) pseudo=read geom=check guess=(re
 ad,tcheck) scf=(maxcycle=1)\\title\\0,1\C,0,0.637007,1.53887,-0.006422
 09\C,0,-1.89965,-0.0790399,1.06388\C,0,-2.05336,-0.0771446,-1.05825\C,
 0,1.2466,0.182307,0.0287856\C,0,2.66938,0.0130453,-0.0331715\C,0,2.904
 12,-1.36701,-0.0500767\C,0,0.696941,-1.06227,0.0290995\H,0,-0.279082,-
 1.46917,0.06016\H,0,3.78927,-1.96919,-0.0483703\H,0,3.3726,0.841954,-0
 .111118\H,0,-1.86346,0.157217,-2.06537\H,0,-1.69112,0.127831,2.11033\H

 Normal termination of Gaussian 16 at Tue Apr  8 19:56:46 2025.
