 Gaussian 16, Revision C.01,

 ----------------------------------------------------------------------
 #t hf aug-cc-pvdz symm=none int=(grid=ultrafine) guess=(read,tcheck) s
 table=(opt,rrhf)
 ----------------------------------------------------------------------
 -----
 title
 -----
 Symbolic Z-matrix:
 Charge =  0 Multiplicity = 1

 SCF Done:  E(RHF) =  -376.430063782     A.U. after   15 cycles
 Normal termination of Gaussian 16 at Tue Apr  8 21:44:34 2025.
 Gaussian 16:  ES64L-G16RevC.01  3-Jul-2019

 ----------------------------------------------------------------------
 #t hf aug-cc-pvdz iop(5/13=1,5/36=2,99/5=2) pseudo=read geom=check gue
 ss=(read,tcheck) scf=(maxcycle=1)
 ----------------------------------------------------------------------
 -----
 title
 -----
 Structure from the checkpoint file:  "ANI1ccx_494_conf2_mol1.chk"
 Charge =  0 Multiplicity = 1

                         Standard orientation:
 ---------------------------------------------------------------------
 Center     Atomic      Atomic             Coordinates (Angstroms)
 Number     Number       Type             X           Y           Z
 ---------------------------------------------------------------------
      1          6           0        0.720732    0.153611   -0.030492
      2          6           0       -0.779198   -0.175983   -0.079587
      3          1           0        2.427170   -0.708297   -0.007962
      4          1           0       -1.004210    1.625150    0.237095
      5          8           0        1.503300   -0.941232    0.108063
      6          8           0        1.129660    1.280730   -0.082613
      7          8           0       -1.571350    0.856224    0.087675
      8          8           0       -1.195630   -1.293550   -0.059207
 ---------------------------------------------------------------------

 SCF Done:  E(RHF) =  -377.946421451     A.U. after    2 cycles

 The electronic state is 1-A.
 Alpha  occ. eigenvalues --  -21.16127 -21.15360 -21.11316 -21.08317 -11.58278
 Alpha  occ. eigenvalues --  -11.53584  -1.89639  -1.83462  -1.71448  -1.67859
 Alpha  occ. eigenvalues --   -1.01317  -0.80060  -0.74149  -0.65058  -0.63595
 Alpha  occ. eigenvalues --   -0.57165  -0.54224  -0.52386  -0.47930  -0.39801
 Alpha  occ. eigenvalues --   -0.38164  -0.35697  -0.30087
 Alpha virt. eigenvalues --    0.03366   0.05574   0.09398   0.09778   0.10083
 Alpha virt. eigenvalues --    0.10742   0.11528   0.11906   0.12669   0.14774
 Alpha virt. eigenvalues --    0.17379   0.19217   0.20009   0.21156   0.22896

 Mulliken charges:
               1
     1  C    4.511549
     2  C    4.803445
     3  H    0.882760
     4  H    1.079303
     5  O   -2.801081
     6  O   -2.782483
     7  O   -2.924553
     8  O   -2.768939
 Sum of Mulliken charges =   0.00000

 Dipole moment (field-independent basis, Debye):
    X=              1.5710    Y=              0.6424    Z=              0.1936  Tot=              1.7083

 Test job not archived.
 1\1\GINC-SE051\SP\RHF\Aug-CC-pVDZ\C2H2O4\OHZDE\08-Apr-2025\0\\#t hf au
 g-cc-pvdz iop(5/13=1,5/36=2,99/5=2) pseudo=read geom=check guess=(read
 ,tcheck) scf=(maxcycle=1)\\title\\0,1\C,0,0.720732,0.153611,-0.0304922
 \C,0,-0.779198,-0.175983,-0.0795867\H,0,2.42717,-0.708297,-0.00796193\
 H,0,-1.00421,1.62515,0.237095\O,0,1.5033,-0.941232,0.108063\O,0,1.1296
 6,1.28073,-0.0826128\O,0,-1.57135,0.856224,0.0876745\O,0,-1.19563,-1.2
 9355,-0.0592073\\Version=ES64L-G16RevC.01\State=1-A\HF=-377.9464215\RM
 SD=1.519e-01\Dipole=0.6180939,0.2527405,0.0761776\Quadrupole=1.4030669

 Normal termination of Gaussian 16 at Tue Apr  8 21:44:37 2025.
