 Gaussian 16, Revision C.01,

 ----------------------------------------------------------------------
 #t hf aug-cc-pvdz symm=none int=(grid=ultrafine) guess=(read,tcheck) s
 table=(opt,rrhf)
 ----------------------------------------------------------------------
 -----
 title
 -----
 Symbolic Z-matrix:
 Charge =  0 Multiplicity = 1

 SCF Done:  E(RHF) =  -334.537145491     A.U. after   14 cycles
 Normal termination of Gaussian 16 at Tue Apr  8 21:11:20 2025.
 Gaussian 16:  ES64L-G16RevC.01  3-Jul-2019

 ----------------------------------------------------------------------
 #t hf aug-cc-pvdz iop(5/13=1,5/36=2,99/5=2) pseudo=read geom=check gue
 ss=(read,tcheck) scf=(maxcycle=1)
 ----------------------------------------------------------------------
 -----
 title
 -----
 Structure from the checkpoint file:  "ANI1ccx_1859_conf2_mol1.chk"
 Charge =  0 Multiplicity = 1

                         Standard orientation:
 ---------------------------------------------------------------------
 Center     Atomic      Atomic             Coordinates (Angstroms)
 Number     Number       Type             X           Y           Z
 ---------------------------------------------------------------------
      1          1           0       -1.902869    1.408463   -0.413522
      2          1           0       -1.539270   -1.236588    0.954526
      3          7           0        1.861490   -0.069424   -0.248328
      4          7           0        2.858640   -0.074783    0.228944
      5          8           0       -1.193999    1.185072    0.198673
      6          8           0       -0.761198   -0.073908   -0.285396
      7          8           0       -1.744650   -1.006467    0.036058
 ---------------------------------------------------------------------

 SCF Done:  E(RHF) =  -335.885763210     A.U. after    2 cycles

 The electronic state is 1-A.
 Alpha  occ. eigenvalues --  -21.15176 -21.13716 -21.13536 -15.86226 -15.86020
 Alpha  occ. eigenvalues --   -2.08511  -1.69958  -1.55109  -1.27818  -0.78092
 Alpha  occ. eigenvalues --   -0.69344  -0.59461  -0.56781  -0.56472  -0.56430
 Alpha  occ. eigenvalues --   -0.55739  -0.54962  -0.35732  -0.33353  -0.31505
 Alpha virt. eigenvalues --    0.04784   0.06008   0.11501   0.14026   0.14400
 Alpha virt. eigenvalues --    0.14706   0.15497   0.16644   0.17419   0.18796
 Alpha virt. eigenvalues --    0.19704   0.19784   0.21664   0.22717   0.26217

 Mulliken charges:
               1
     1  H    0.942876
     2  H    0.889859
     3  N   -0.304345
     4  N    0.272701
     5  O   -1.224296
     6  O    0.475720
     7  O   -1.052515
 Sum of Mulliken charges =  -0.00000

 Dipole moment (field-independent basis, Debye):
    X=             -0.8067    Y=              0.0239    Z=              0.3400  Tot=              0.8757

 Test job not archived.
 1\1\GINC-SE461\SP\RHF\Aug-CC-pVDZ\H2N2O3\OHZDE\08-Apr-2025\0\\#t hf au
 g-cc-pvdz iop(5/13=1,5/36=2,99/5=2) pseudo=read geom=check guess=(read
 ,tcheck) scf=(maxcycle=1)\\title\\0,1\H,0,-1.90287,1.40846,-0.413522\H
 ,0,-1.53927,-1.23659,0.954526\N,0,1.86149,-0.069424,-0.248328\N,0,2.85
 864,-0.0747824,0.228944\O,0,-1.194,1.18507,0.198673\O,0,-0.761198,-0.0
 739102,-0.285396\O,0,-1.74465,-1.00647,0.0360584\\Version=ES64L-G16Rev
 C.01\State=1-A\HF=-335.8857632\RMSD=9.450e-02\Dipole=-0.3173703,0.0094
 135,0.1337554\Quadrupole=-0.387404,0.0496736,0.3377304,-1.0822666,-0.2

 Normal termination of Gaussian 16 at Tue Apr  8 21:11:22 2025.
