 Gaussian 16, Revision C.01,

 ----------------------------------------------------------------------
 #t hf aug-cc-pvdz symm=none int=(grid=ultrafine) guess=(read,tcheck) s
 table=(opt,rrhf)
 ----------------------------------------------------------------------
 -----
 title
 -----
 Symbolic Z-matrix:
 Charge =  0 Multiplicity = 1

 SCF Done:  E(RHF) =  -258.514618193     A.U. after  124 cycles
 Normal termination of Gaussian 16 at Tue Apr  8 21:16:24 2025.
 Gaussian 16:  ES64L-G16RevC.01  3-Jul-2019

 ----------------------------------------------------------------------
 #t hf aug-cc-pvdz iop(5/13=1,5/36=2,99/5=2) pseudo=read geom=check gue
 ss=(read,tcheck) scf=(maxcycle=1)
 ----------------------------------------------------------------------
 -----
 title
 -----
 Structure from the checkpoint file:  "ANI1ccx_1907_conf25_mol2.chk"
 Charge =  0 Multiplicity = 1

                         Standard orientation:
 ---------------------------------------------------------------------
 Center     Atomic      Atomic             Coordinates (Angstroms)
 Number     Number       Type             X           Y           Z
 ---------------------------------------------------------------------
      1          7           0        1.885593   -0.438191    0.309696
      2          7           0        2.358333    0.356518   -0.285302
      3          8           0       -1.751977    0.608424    0.171368
      4          8           0       -1.961457   -0.536960   -0.192713
 ---------------------------------------------------------------------

 SCF Done:  E(RHF) =  -259.526573300     A.U. after    2 cycles

 The electronic state is 1-A.
 Alpha  occ. eigenvalues --  -21.23348 -21.22720 -15.87346 -15.87208  -2.10417
 Alpha  occ. eigenvalues --   -1.56396  -1.22379  -0.78814  -0.61648  -0.58152
 Alpha  occ. eigenvalues --   -0.57635  -0.57590  -0.55521  -0.53764  -0.27839
 Alpha virt. eigenvalues --    0.09717   0.10723   0.12359   0.13756   0.14080
 Alpha virt. eigenvalues --    0.15136   0.16450   0.16506   0.19222   0.20321
 Alpha virt. eigenvalues --    0.21550   0.22666   0.27536   0.29449   0.30743

 Mulliken charges:
               1
     1  N    0.037894
     2  N   -0.052453
     3  O    0.022437
     4  O   -0.007878
 Sum of Mulliken charges =  -0.00000

 Dipole moment (field-independent basis, Debye):
    X=             -0.0450    Y=              0.0012    Z=             -0.0035  Tot=              0.0452

 Test job not archived.
 1\1\GINC-SE187\SP\RHF\Aug-CC-pVDZ\N2O2\OHZDE\08-Apr-2025\0\\#t hf aug-
 cc-pvdz iop(5/13=1,5/36=2,99/5=2) pseudo=read geom=check guess=(read,t
 check) scf=(maxcycle=1)\\title\\0,1\N,0,1.88559,-0.438191,0.309696\N,0
 ,2.35833,0.356518,-0.285302\O,0,-1.75198,0.608424,0.171368\O,0,-1.9614
 6,-0.53696,-0.192713\\Version=ES64L-G16RevC.01\State=1-A\HF=-259.52657
 33\RMSD=1.312e-01\Dipole=-0.0177151,0.0004815,-0.0013649\Quadrupole=-0
 .7772238,0.1182483,0.6589754,-0.168373,0.6781606,-0.0099674\PG=C01 [X(
 N2O2)]\\@

 Normal termination of Gaussian 16 at Tue Apr  8 21:16:25 2025.
