 Gaussian 16, Revision C.01,

 ----------------------------------------------------------------------
 #t hf aug-cc-pvdz symm=none int=(grid=ultrafine) guess=(read,tcheck) s
 table=(opt,rrhf)
 ----------------------------------------------------------------------
 -----
 title
 -----
 Symbolic Z-matrix:
 Charge =  0 Multiplicity = 1

 SCF Done:  E(RHF) =  -469.354524883     A.U. after   13 cycles
 Normal termination of Gaussian 16 at Tue Apr  8 21:52:00 2025.
 Gaussian 16:  ES64L-G16RevC.01  3-Jul-2019

 ----------------------------------------------------------------------
 #t hf aug-cc-pvdz iop(5/13=1,5/36=2,99/5=2) pseudo=read geom=check gue
 ss=(read,tcheck) scf=(maxcycle=1)
 ----------------------------------------------------------------------
 -----
 title
 -----
 Structure from the checkpoint file:  "ANI1ccx_672_conf2_mol2.chk"
 Charge =  0 Multiplicity = 1

                         Standard orientation:
 ---------------------------------------------------------------------
 Center     Atomic      Atomic             Coordinates (Angstroms)
 Number     Number       Type             X           Y           Z
 ---------------------------------------------------------------------
      1          6           0       -1.249359   -0.358254   -0.028177
      2          6           0        1.247611   -0.335353   -0.029021
      3          6           0        0.010553    1.538710    0.294341
      4          1           0       -0.019779   -1.877150    0.487156
      5          1           0        0.092301    1.411810    1.361320
      6          1           0       -0.034724    2.565330   -0.037935
      7          7           0        0.021529   -0.893584    0.286119
      8          8           0       -2.230510   -1.040817   -0.132966
      9          8           0        2.248520   -1.020853   -0.062367
     10          8           0        1.172192    0.970990   -0.308610
     11          8           0       -1.220368    0.976239   -0.150586
 ---------------------------------------------------------------------

 SCF Done:  E(RHF) =  -471.287148986     A.U. after    2 cycles

 The electronic state is 1-A.
 Alpha  occ. eigenvalues --  -21.15091 -21.14845 -21.08030 -21.07278 -15.82248
 Alpha  occ. eigenvalues --  -11.57362 -11.56897 -11.51867  -1.95948  -1.85007
 Alpha  occ. eigenvalues --   -1.72299  -1.69489  -1.42255  -1.05994  -0.94000
 Alpha  occ. eigenvalues --   -0.84752  -0.75173  -0.74133  -0.71121  -0.63139
 Alpha  occ. eigenvalues --   -0.58701  -0.55832  -0.55268  -0.53191  -0.46411
 Alpha  occ. eigenvalues --   -0.41558  -0.37061  -0.36040  -0.33828  -0.32085
 Alpha virt. eigenvalues --    0.02869   0.04499   0.05915   0.08539   0.09179
 Alpha virt. eigenvalues --    0.10069   0.10522   0.11154   0.11281   0.12386
 Alpha virt. eigenvalues --    0.13739   0.13855   0.14361   0.15035   0.16183

 Mulliken charges:
               1
     1  C    5.674493
     2  C    5.754078
     3  C   -0.645296
     4  H    0.641312
     5  H    1.539132
     6  H    1.507292
     7  N   -2.558898
     8  O   -3.037310
     9  O   -2.997317
    10  O   -2.947696
    11  O   -2.929789
 Sum of Mulliken charges =   0.00000

 Dipole moment (field-independent basis, Debye):
    X=             -0.0783    Y=              1.8440    Z=              0.8210  Tot=              2.0200

 Test job not archived.
 1\1\GINC-SE331\SP\RHF\Aug-CC-pVDZ\C3H3N1O4\OHZDE\08-Apr-2025\0\\#t hf
 aug-cc-pvdz iop(5/13=1,5/36=2,99/5=2) pseudo=read geom=check guess=(re
 ad,tcheck) scf=(maxcycle=1)\\title\\0,1\C,0,-1.24936,-0.358256,-0.0281
 77\C,0,1.24761,-0.335351,-0.0290208\C,0,0.0105498,1.53871,0.294341\H,0
 ,-0.019777,-1.87715,0.487156\H,0,0.0922981,1.41181,1.36132\H,0,-0.0347
 284,2.56533,-0.0379351\N,0,0.0215293,-0.893584,0.286119\O,0,-2.23051,-
 1.04082,-0.132966\O,0,2.24852,-1.02085,-0.0623675\O,0,1.17219,0.970991
 ,-0.30861\O,0,-1.22037,0.976237,-0.150586\\Version=ES64L-G16RevC.01\St

 Normal termination of Gaussian 16 at Tue Apr  8 21:52:04 2025.
