 Gaussian 16, Revision C.01,

 ----------------------------------------------------------------------
 #t hf aug-cc-pvdz symm=none int=(grid=ultrafine) guess=(read,tcheck) s
 table=(opt,rrhf)
 ----------------------------------------------------------------------
 -----
 title
 -----
 Symbolic Z-matrix:
 Charge =  0 Multiplicity = 1

 SCF Done:  E(RHF) =  -794.442009607     A.U. after   15 cycles
 Normal termination of Gaussian 16 at Tue Apr  8 20:25:17 2025.
 Gaussian 16:  ES64L-G16RevC.01  3-Jul-2019

 ----------------------------------------------------------------------
 #t hf aug-cc-pvdz iop(5/13=1,5/36=2,99/5=2) pseudo=read geom=check gue
 ss=(read,tcheck) scf=(maxcycle=1)
 ----------------------------------------------------------------------
 -----
 title
 -----
 Structure from the checkpoint file:  "ANI1ccx_1592_conf9_mol1.chk"
 Charge =  0 Multiplicity = 1

                         Standard orientation:
 ---------------------------------------------------------------------
 Center     Atomic      Atomic             Coordinates (Angstroms)
 Number     Number       Type             X           Y           Z
 ---------------------------------------------------------------------
      1          6           0        0.536262    1.309071   -0.312284
      2          6           0       -0.820462    1.805871    0.129501
      3          6           0        1.486331    1.224561    0.903417
      4          6           0        2.692291    0.405304    0.545434
      5          6           0        2.398310   -1.015019    0.136888
      6          6           0       -1.548649   -0.542958    0.659461
      7          6           0       -1.915080   -1.201679   -0.712691
      8          6           0       -2.381710   -1.171029    1.774890
      9          1           0       -0.129362   -1.918289   -0.833360
     10          1           0       -3.457340   -0.915322    1.589600
     11          1           0       -2.072700   -0.770482    2.756740
     12          1           0       -2.276350   -2.238069    1.790550
     13          1           0       -0.439510   -0.701576    0.905527
     14          1           0       -2.724259    1.200092    0.547489
     15          1           0        3.422940   -2.535200   -0.231653
     16          1           0        3.242611    0.940136   -0.247529
     17          1           0        3.474401    0.326960    1.378910
     18          1           0        1.798761    2.195431    1.394210
     19          1           0        0.905613    0.735229    1.630370
     20          1           0        0.348845    0.328132   -0.578779
     21          1           0        0.541917    1.731561   -2.218810
     22          1           0        0.971342    3.030731   -1.294930
     23          7           0        1.100481    2.062121   -1.387360
     24          7           0       -1.767379    0.851137    0.553532
     25          8           0       -1.176909    2.996061   -0.010416
     26          8           0        1.372290   -1.656629    0.267339
     27          8           0        3.547230   -1.557020   -0.240149
     28          8           0       -2.894820   -0.947843   -1.311360
     29          8           0       -1.050590   -2.170429   -1.142820
 ---------------------------------------------------------------------

 SCF Done:  E(RHF) =  -797.964275229     A.U. after    2 cycles

 The electronic state is 1-A.
 Alpha  occ. eigenvalues --  -21.15758 -21.09931 -21.09339 -21.05410 -21.03011
 Alpha  occ. eigenvalues --  -15.76163 -15.74890 -11.58024 -11.53827 -11.52974
 Alpha  occ. eigenvalues --  -11.48696 -11.46705 -11.45888 -11.41724 -11.40362
 Alpha  occ. eigenvalues --   -1.87776  -1.81120  -1.70223  -1.69342  -1.65396
 Alpha  occ. eigenvalues --   -1.42823  -1.37357  -1.21889  -1.13943  -1.06606
 Alpha  occ. eigenvalues --   -0.95489  -0.94625  -0.81656  -0.81052  -0.78790
 Alpha  occ. eigenvalues --   -0.73246  -0.70555  -0.69360  -0.67673  -0.66477
 Alpha  occ. eigenvalues --   -0.64129  -0.62388  -0.60144  -0.59656  -0.57112
 Alpha  occ. eigenvalues --   -0.55556  -0.54336  -0.53757  -0.53270  -0.51721
 Alpha  occ. eigenvalues --   -0.50439  -0.49989  -0.47688  -0.46896  -0.45628
 Alpha  occ. eigenvalues --   -0.42481  -0.38312  -0.37587  -0.34438  -0.33727
 Alpha  occ. eigenvalues --   -0.32241  -0.28791  -0.27387
 Alpha virt. eigenvalues --    0.03144   0.03664   0.04140   0.05062   0.05180
 Alpha virt. eigenvalues --    0.05960   0.06372   0.06676   0.07155   0.07565
 Alpha virt. eigenvalues --    0.07990   0.08812   0.08996   0.09784   0.10474

 Mulliken charges:
               1
     1  C   -1.280371
     2  C    6.151635
     3  C   -3.546185
     4  C   -3.907646
     5  C    6.507904
     6  C   -2.159457
     7  C    7.120772
     8  C   -5.053555
     9  H    1.511258
    10  H    1.257217
    11  H    1.232173
    12  H    1.198791
    13  H    2.694853
    14  H    0.715832
    15  H    0.897947
    16  H    1.516444
    17  H    1.340887
    18  H    1.200218
    19  H    1.992698
    20  H    3.188884
    21  H    0.432288
    22  H    0.606479
    23  N   -3.087568
    24  N   -2.905225
    25  O   -3.737527
    26  O   -3.370297
    27  O   -3.466861
    28  O   -3.532243
    29  O   -3.519346
 Sum of Mulliken charges =   0.00000

 Dipole moment (field-independent basis, Debye):
    X=              3.4356    Y=             -1.3830    Z=              1.6901  Tot=              4.0709

 Test job not archived.
 1\1\GINC-SE338\SP\RHF\Aug-CC-pVDZ\C8H14N2O5\OHZDE\08-Apr-2025\0\\#t hf
  aug-cc-pvdz iop(5/13=1,5/36=2,99/5=2) pseudo=read geom=check guess=(r
 ead,tcheck) scf=(maxcycle=1)\\title\\0,1\C,0,0.536261,1.30907,-0.31228
 4\C,0,-0.820463,1.80587,0.129501\C,0,1.48633,1.22456,0.903417\C,0,2.69
 229,0.405303,0.545434\C,0,2.39831,-1.01502,0.136888\C,0,-1.54865,-0.54
 2959,0.659461\C,0,-1.91508,-1.20168,-0.712691\C,0,-2.38171,-1.17103,1.
 77489\H,0,-0.129362,-1.91829,-0.83336\H,0,-3.45734,-0.915324,1.5896\H,
 0,-2.0727,-0.770483,2.75674\H,0,-2.27635,-2.23807,1.79055\H,0,-0.43951

 Normal termination of Gaussian 16 at Tue Apr  8 20:25:46 2025.
