 Gaussian 16, Revision C.01,

 ----------------------------------------------------------------------
 #t hf aug-cc-pvdz symm=none int=(grid=ultrafine) guess=(read,tcheck) s
 table=(opt,rrhf)
 ----------------------------------------------------------------------
 -----
 title
 -----
 Symbolic Z-matrix:
 Charge =  0 Multiplicity = 1

 SCF Done:  E(RHF) =  -564.590943083     A.U. after   14 cycles
 Normal termination of Gaussian 16 at Tue Apr  8 22:17:04 2025.
 Gaussian 16:  ES64L-G16RevC.01  3-Jul-2019

 ----------------------------------------------------------------------
 #t hf aug-cc-pvdz iop(5/13=1,5/36=2,99/5=2) pseudo=read geom=check gue
 ss=(read,tcheck) scf=(maxcycle=1)
 ----------------------------------------------------------------------
 -----
 title
 -----
 Structure from the checkpoint file:  "ANI1ccx_958_conf2_mol2.chk"
 Charge =  0 Multiplicity = 1

                         Standard orientation:
 ---------------------------------------------------------------------
 Center     Atomic      Atomic             Coordinates (Angstroms)
 Number     Number       Type             X           Y           Z
 ---------------------------------------------------------------------
      1          6           0       -0.690119    1.802140    1.098920
      2          6           0       -0.377887    0.014294   -0.482815
      3          6           0        2.015020   -0.338079    0.021781
      4          6           0       -1.643720   -0.730435   -0.147953
      5          1           0       -2.523909    0.779895   -0.797127
      6          1           0        1.610001    1.549539   -0.799001
      7          1           0        3.222891    0.930030   -1.013490
      8          1           0        0.509731   -1.394271    0.784020
      9          1           0       -1.566729    1.342010    1.546470
     10          1           0        0.207425    1.499640    1.630970
     11          1           0       -0.713242    2.892660    1.082810
     12          1           0       -0.134359   -0.084023   -1.558070
     13          7           0        0.688794   -0.541564    0.266170
     14          7           0        2.251991    0.733917   -0.802302
     15          8           0       -2.758680   -0.135003   -0.511850
     16          8           0       -0.525322    1.400740   -0.267368
     17          8           0        2.865080   -1.113622    0.437501
     18          8           0       -1.708211   -1.820800    0.333809
 ---------------------------------------------------------------------

 SCF Done:  E(RHF) =  -567.019477228     A.U. after    2 cycles

 The electronic state is 1-A.
 Alpha  occ. eigenvalues --  -21.14309 -21.09689 -21.07078 -21.01989 -15.77881
 Alpha  occ. eigenvalues --  -15.76647 -11.56539 -11.51249 -11.49475 -11.44363
 Alpha  occ. eigenvalues --   -1.88060  -1.80337  -1.71488  -1.67804  -1.42935
 Alpha  occ. eigenvalues --   -1.31906  -1.10170  -0.99383  -0.85448  -0.82701
 Alpha  occ. eigenvalues --   -0.76545  -0.74041  -0.70866  -0.66988  -0.64450
 Alpha  occ. eigenvalues --   -0.60155  -0.60007  -0.57507  -0.55292  -0.52749
 Alpha  occ. eigenvalues --   -0.51474  -0.47951  -0.43890  -0.39535  -0.37924
 Alpha  occ. eigenvalues --   -0.35593  -0.32150  -0.31166  -0.29129
 Alpha virt. eigenvalues --    0.02783   0.04317   0.04396   0.05054   0.05815
 Alpha virt. eigenvalues --    0.06219   0.07461   0.08387   0.09563   0.10687
 Alpha virt. eigenvalues --    0.11634   0.12548   0.13001   0.13225   0.13499

 Mulliken charges:
               1
     1  C   -3.546957
     2  C    0.360508
     3  C    5.612023
     4  C    6.800700
     5  H    1.053233
     6  H    0.683732
     7  H    0.652340
     8  H    0.592405
     9  H    1.452711
    10  H    1.470016
    11  H    1.159334
    12  H    2.041197
    13  N   -2.541198
    14  N   -2.830330
    15  O   -3.392217
    16  O   -3.021366
    17  O   -3.201622
    18  O   -3.344508
 Sum of Mulliken charges =  -0.00000

 Dipole moment (field-independent basis, Debye):
    X=             -1.2365    Y=              3.7706    Z=             -0.9031  Tot=              4.0696

 Test job not archived.
 1\1\GINC-SE220\SP\RHF\Aug-CC-pVDZ\C4H8N2O4\OHZDE\08-Apr-2025\0\\#t hf
 aug-cc-pvdz iop(5/13=1,5/36=2,99/5=2) pseudo=read geom=check guess=(re
 ad,tcheck) scf=(maxcycle=1)\\title\\0,1\C,0,-0.69012,1.80214,1.09892\C
 ,0,-0.377887,0.0142941,-0.482815\C,0,2.01502,-0.338078,0.021781\C,0,-1
 .64372,-0.730435,-0.147953\H,0,-2.52391,0.779894,-0.797127\H,0,1.61,1.
 54954,-0.799001\H,0,3.22289,0.930032,-1.01349\H,0,0.509732,-1.39427,0.
 78402\H,0,-1.56673,1.34201,1.54647\H,0,0.207424,1.49964,1.63097\H,0,-0
 .713244,2.89266,1.08281\H,0,-0.134359,-0.084023,-1.55807\N,0,0.688794,

 Normal termination of Gaussian 16 at Tue Apr  8 22:17:14 2025.
