 Gaussian 16, Revision C.01,

 ----------------------------------------------------------------------
 #t hf aug-cc-pvdz symm=none int=(grid=ultrafine) guess=(read,tcheck) s
 table=(opt,rrhf)
 ----------------------------------------------------------------------
 -----
 title
 -----
 Symbolic Z-matrix:
 Charge =  0 Multiplicity = 1

 SCF Done:  E(RHF) =  -460.281704454     A.U. after   15 cycles
 Normal termination of Gaussian 16 at Tue Apr  8 21:33:44 2025.
 Gaussian 16:  ES64L-G16RevC.01  3-Jul-2019

 ----------------------------------------------------------------------
 #t hf aug-cc-pvdz iop(5/13=1,5/36=2,99/5=2) pseudo=read geom=check gue
 ss=(read,tcheck) scf=(maxcycle=1)
 ----------------------------------------------------------------------
 -----
 title
 -----
 Structure from the checkpoint file:  "ANI1ccx_373_conf10_mol2.chk"
 Charge =  0 Multiplicity = 1

                         Standard orientation:
 ---------------------------------------------------------------------
 Center     Atomic      Atomic             Coordinates (Angstroms)
 Number     Number       Type             X           Y           Z
 ---------------------------------------------------------------------
      1          6           0        0.029231    0.019941    0.079092
      2          1           0        2.763180   -1.115088    0.012728
      3          7           0       -1.410051   -0.014412    0.001466
      4          7           0        0.766834    1.137590    0.027098
      5          7           0        1.982438    0.701925   -0.068974
      6          7           0        1.928719   -0.570002   -0.043914
      7          7           0        0.739524   -1.083620    0.083778
      8          8           0       -1.937122    1.065277    0.003528
      9          8           0       -1.936730   -1.090893   -0.063961
 ---------------------------------------------------------------------

 SCF Done:  E(RHF) =  -462.235104499     A.U. after    2 cycles

 The electronic state is 1-A.
 Alpha  occ. eigenvalues --  -21.11913 -21.11717 -16.03643 -15.91798 -15.86175
 Alpha  occ. eigenvalues --  -15.84289 -15.82032 -11.50788  -2.04821  -1.84577
 Alpha  occ. eigenvalues --   -1.73023  -1.45081  -1.37175  -1.10810  -0.98096
 Alpha  occ. eigenvalues --   -0.85603  -0.79978  -0.77203  -0.71514  -0.69307
 Alpha  occ. eigenvalues --   -0.63535  -0.58517  -0.49441  -0.46533  -0.45756
 Alpha  occ. eigenvalues --   -0.43420  -0.37739  -0.33676  -0.33420
 Alpha virt. eigenvalues --    0.02666   0.08565   0.09126   0.10074   0.10240
 Alpha virt. eigenvalues --    0.12069   0.12541   0.13001   0.13136   0.15020
 Alpha virt. eigenvalues --    0.16136   0.16614   0.17271   0.18359   0.19393

 Mulliken charges:
               1
     1  C    4.613091
     2  H    1.020324
     3  N    4.263355
     4  N   -1.658630
     5  N   -0.219864
     6  N   -0.000173
     7  N   -1.974388
     8  O   -3.012418
     9  O   -3.031297
 Sum of Mulliken charges =  -0.00000

 Dipole moment (field-independent basis, Debye):
    X=              3.4569    Y=             -2.0115    Z=              0.0650  Tot=              4.0001

 Test job not archived.
 1\1\GINC-SE250\SP\RHF\Aug-CC-pVDZ\C1H1N5O2\OHZDE\08-Apr-2025\0\\#t hf
 aug-cc-pvdz iop(5/13=1,5/36=2,99/5=2) pseudo=read geom=check guess=(re
 ad,tcheck) scf=(maxcycle=1)\\title\\0,1\C,0,0.0292321,0.0199416,0.0790
 924\H,0,2.76318,-1.11509,0.0127277\N,0,-1.41005,-0.0144101,0.00146648\
 N,0,0.766836,1.13759,0.027098\N,0,1.98244,0.701924,-0.0689743\N,0,1.92
 872,-0.570003,-0.0439141\N,0,0.739524,-1.08362,0.0837784\O,0,-1.93712,
 1.06528,0.00352832\O,0,-1.93673,-1.09089,-0.0639613\\Version=ES64L-G16
 RevC.01\State=1-A\HF=-462.2351045\RMSD=1.095e-01\Dipole=1.3600314,-0.7

 Normal termination of Gaussian 16 at Tue Apr  8 21:33:48 2025.
