 Gaussian 16, Revision C.01,

 ----------------------------------------------------------------------
 #t hf aug-cc-pvdz symm=none int=(grid=ultrafine) guess=(read,tcheck) s
 table=(opt,rrhf)
 ----------------------------------------------------------------------
 -----
 title
 -----
 Symbolic Z-matrix:
 Charge =  0 Multiplicity = 1

 SCF Done:  E(RHF) =  -984.952672164     A.U. after   16 cycles
 Normal termination of Gaussian 16 at Tue Apr  8 21:44:02 2025.
 Gaussian 16:  ES64L-G16RevC.01  3-Jul-2019

 ----------------------------------------------------------------------
 #t hf aug-cc-pvdz iop(5/13=1,5/36=2,99/5=2) pseudo=read geom=check gue
 ss=(read,tcheck) scf=(maxcycle=1)
 ----------------------------------------------------------------------
 -----
 title
 -----
 Structure from the checkpoint file:  "ANI1ccx_319_conf8_mol2.chk"
 Charge =  0 Multiplicity = 1

                         Standard orientation:
 ---------------------------------------------------------------------
 Center     Atomic      Atomic             Coordinates (Angstroms)
 Number     Number       Type             X           Y           Z
 ---------------------------------------------------------------------
      1          6           0        0.325261   -2.074780   -0.108006
      2          6           0       -3.283450   -0.325926   -0.533781
      3          6           0       -1.974020    0.257381   -1.139190
      4          6           0       -0.997042    0.851755   -0.073325
      5          6           0        4.508689    1.154122    0.037622
      6          6           0        3.721069    1.517292   -1.081990
      7          6           0       -1.548771    2.171059    0.535136
      8          6           0        2.641770    0.714973   -1.292410
      9          6           0        3.031141   -0.743334    0.516736
     10          6           0        2.254920   -0.383400   -0.562223
     11          6           0        1.150891   -1.303830   -1.185330
     12          6           0       -0.027754   -1.227680    1.116190
     13          6           0        4.179000    0.026119    0.854515
     14          1           0        5.383529    1.785633    0.282920
     15          1           0       -1.967142    3.862229    0.035262
     16          1           0       -2.229369   -1.879841   -0.470692
     17          1           0       -1.496130   -0.590609   -1.643970
     18          1           0       -2.191191    1.086479   -1.827850
     19          1           0       -0.096755    1.037940   -0.601287
     20          1           0       -0.835573    0.329284    1.961100
     21          1           0        3.885329    2.404292   -1.687720
     22          1           0        0.508802   -0.892148   -1.994110
     23          1           0        2.019860    0.841921   -2.131480
     24          1           0        2.759541   -1.574229    1.177640
     25          1           0        1.696931   -2.038009   -1.741880
     26          1           0        0.978304   -2.777150    0.372016
     27          1           0       -0.716934   -3.136771   -1.544060
     28          1           0       -1.265018   -3.423571   -0.035564
     29          1           0        4.798980   -0.139909    1.713180
     30          7           0       -0.896120   -2.689931   -0.630342
     31          7           0       -0.777435   -0.113889    1.028600
     32          8           0       -3.148699   -1.565892   -0.284332
     33          8           0        0.353669   -1.648220    2.190630
     34          8           0       -1.720761    2.398579    1.682440
     35          8           0       -4.229060    0.345609   -0.272631
     36          8           0       -1.681212    3.086009   -0.460484
 ---------------------------------------------------------------------

 SCF Done:  E(RHF) =  -989.380361648     A.U. after    2 cycles

 The electronic state is 1-A.
 Alpha  occ. eigenvalues --  -21.14113 -21.08399 -21.08347 -21.03402 -21.02549
 Alpha  occ. eigenvalues --  -15.79056 -15.76758 -11.57005 -11.56046 -11.53448
 Alpha  occ. eigenvalues --  -11.52170 -11.50611 -11.49964 -11.46830 -11.45562
 Alpha  occ. eigenvalues --  -11.44711 -11.42919 -11.42770 -11.42402 -11.38357
 Alpha  occ. eigenvalues --   -1.85488  -1.82990  -1.72731  -1.68662  -1.64709
 Alpha  occ. eigenvalues --   -1.42996  -1.39844  -1.35606  -1.17855  -1.17203
 Alpha  occ. eigenvalues --   -1.10790  -1.07581  -1.01284  -0.97159  -0.88371
 Alpha  occ. eigenvalues --   -0.85633  -0.83273  -0.82934  -0.77474  -0.74018
 Alpha  occ. eigenvalues --   -0.72323  -0.70721  -0.67851  -0.67277  -0.66890
 Alpha  occ. eigenvalues --   -0.66026  -0.63539  -0.62073  -0.61487  -0.60354
 Alpha  occ. eigenvalues --   -0.58743  -0.58461  -0.56452  -0.56055  -0.55405
 Alpha  occ. eigenvalues --   -0.53127  -0.51687  -0.51584  -0.50610  -0.49971
 Alpha  occ. eigenvalues --   -0.48020  -0.46341  -0.45580  -0.45234  -0.43656
 Alpha  occ. eigenvalues --   -0.36485  -0.36334  -0.34574  -0.33727  -0.33282
 Alpha  occ. eigenvalues --   -0.32319  -0.30743  -0.29321  -0.27510
 Alpha virt. eigenvalues --    0.02679   0.03393   0.03448   0.04478   0.04672
 Alpha virt. eigenvalues --    0.05179   0.05603   0.05810   0.06224   0.07014
 Alpha virt. eigenvalues --    0.07604   0.08241   0.08465   0.08905   0.09304

 Mulliken charges:
               1
     1  C    0.221672
     2  C    6.612298
     3  C   -4.508155
     4  C   -4.552167
     5  C   -4.001210
     6  C   -3.342230
     7  C    8.273694
     8  C    0.671126
     9  C   -1.807851
    10  C    5.559404
    11  C   -5.321053
    12  C    7.947925
    13  C   -3.970720
    14  H    1.474256
    15  H    0.962951
    16  H    2.490390
    17  H    2.204650
    18  H    1.383468
    19  H    2.818539
    20  H    0.736975
    21  H    1.405406
    22  H    1.600553
    23  H    1.697147
    24  H    2.055700
    25  H    1.218023
    26  H    1.610189
    27  H    0.619105
    28  H    0.600313
    29  H    1.541954
    30  N   -3.967743
    31  N   -3.426546
    32  O   -4.076059
    33  O   -4.385489
    34  O   -3.420479
    35  O   -3.545362
    36  O   -3.380672
 Sum of Mulliken charges =   0.00000

 Dipole moment (field-independent basis, Debye):
    X=              4.2733    Y=             -0.6387    Z=             -2.8621  Tot=              5.1827

 Test job not archived.
 1\1\GINC-SE460\SP\RHF\Aug-CC-pVDZ\C13H16N2O5\OHZDE\08-Apr-2025\0\\#t h
 f aug-cc-pvdz iop(5/13=1,5/36=2,99/5=2) pseudo=read geom=check guess=(
 read,tcheck) scf=(maxcycle=1)\\title\\0,1\C,0,0.32526,-2.07478,-0.1080
 06\C,0,-3.28345,-0.325924,-0.533781\C,0,-1.97402,0.257382,-1.13919\C,0
 ,-0.997042,0.851756,-0.0733255\C,0,4.50869,1.15412,0.0376217\C,0,3.721
 07,1.51729,-1.08199\C,0,-1.54877,2.17106,0.535136\C,0,2.64177,0.714972
 ,-1.29241\C,0,3.03114,-0.743335,0.516736\C,0,2.25492,-0.383401,-0.5622
 23\C,0,1.15089,-1.30383,-1.18533\C,0,-0.0277545,-1.22768,1.11619\C,0,4

 Normal termination of Gaussian 16 at Tue Apr  8 21:45:11 2025.
