 Gaussian 16, Revision C.01,

 ----------------------------------------------------------------------
 #t hf aug-cc-pvdz symm=none int=(grid=ultrafine) guess=(read,tcheck) s
 table=(opt,rrhf)
 ----------------------------------------------------------------------
 -----
 title
 -----
 Symbolic Z-matrix:
 Charge =  0 Multiplicity = 1

 SCF Done:  E(RHF) =  -636.075389702     A.U. after   16 cycles
 Normal termination of Gaussian 16 at Tue Apr  8 19:55:56 2025.
 Gaussian 16:  ES64L-G16RevC.01  3-Jul-2019

 ----------------------------------------------------------------------
 #t hf aug-cc-pvdz iop(5/13=1,5/36=2,99/5=2) pseudo=read geom=check gue
 ss=(read,tcheck) scf=(maxcycle=1)
 ----------------------------------------------------------------------
 -----
 title
 -----
 Structure from the checkpoint file:  "ANI1ccx_1499_conf2_mol1.chk"
 Charge =  0 Multiplicity = 1

                         Standard orientation:
 ---------------------------------------------------------------------
 Center     Atomic      Atomic             Coordinates (Angstroms)
 Number     Number       Type             X           Y           Z
 ---------------------------------------------------------------------
      1          6           0        0.349453    0.449457    0.005564
      2          6           0       -2.674529   -0.516632   -1.032300
      3          6           0       -2.653349    0.073788    1.041890
      4          6           0        1.745781    0.051928    0.081416
      5          6           0        2.486460   -1.207611    0.205367
      6          6           0        3.811920   -0.900320    0.042552
      7          6           0        2.730231    0.968887   -0.125558
      8          1           0        2.627271    2.014369   -0.409847
      9          1           0        4.752000   -1.491641    0.121817
     10          1           0        2.084170   -2.189531    0.375156
     11          1           0       -2.274099    0.360456    2.063770
     12          1           0       -2.303780   -0.940254   -1.978570
     13          1           0       -0.219130   -1.561030    0.316909
     14          7           0       -0.518641   -0.600920    0.129253
     15          7           0       -1.863629   -0.379473    0.033165
     16          7           0       -3.879749   -0.161613   -0.692519
     17          7           0       -3.870029    0.257884    0.624810
     18          8           0       -0.034657    1.596690   -0.184380
     19          8           0        3.969921    0.463248   -0.123845
 ---------------------------------------------------------------------

 SCF Done:  E(RHF) =  -638.883898911     A.U. after    2 cycles

 The electronic state is 1-A.
 Alpha  occ. eigenvalues --  -21.15812 -21.05208 -15.83627 -15.82737 -15.74708
 Alpha  occ. eigenvalues --  -15.74082 -11.55963 -11.51613 -11.49061 -11.46704
 Alpha  occ. eigenvalues --  -11.45712 -11.42618 -11.42296  -1.88499  -1.74435
 Alpha  occ. eigenvalues --   -1.67314  -1.49093  -1.27646  -1.21685  -1.18484
 Alpha  occ. eigenvalues --   -1.10059  -0.95441  -0.86999  -0.85211  -0.83019
 Alpha  occ. eigenvalues --   -0.81869  -0.79696  -0.75417  -0.65141  -0.63353
 Alpha  occ. eigenvalues --   -0.61024  -0.60751  -0.59969  -0.58127  -0.56079
 Alpha  occ. eigenvalues --   -0.55939  -0.50751  -0.47040  -0.43494  -0.41608
 Alpha  occ. eigenvalues --   -0.39032  -0.36710  -0.35237  -0.35177  -0.32951
 Alpha  occ. eigenvalues --   -0.32114
 Alpha virt. eigenvalues --    0.02133   0.03682   0.04572   0.05365   0.05950
 Alpha virt. eigenvalues --    0.06115   0.07995   0.08980   0.09453   0.09853
 Alpha virt. eigenvalues --    0.10610   0.11031   0.11524   0.11705   0.12102

 Mulliken charges:
               1
     1  C    6.374842
     2  C    1.146704
     3  C    0.889498
     4  C    2.871396
     5  C   -2.815529
     6  C   -0.044831
     7  C   -0.627315
     8  H    1.390659
     9  H    1.367635
    10  H    1.481025
    11  H    1.605775
    12  H    1.616121
    13  H    1.086051
    14  N   -3.193121
    15  N   -1.998954
    16  N   -1.711487
    17  N   -1.690760
    18  O   -3.627624
    19  O   -4.120088
 Sum of Mulliken charges =  -0.00000

 Dipole moment (field-independent basis, Debye):
    X=              6.6947    Y=             -2.5648    Z=              0.2903  Tot=              7.1751

 Test job not archived.
 1\1\GINC-SE092\SP\RHF\Aug-CC-pVDZ\C7H6N4O2\OHZDE\08-Apr-2025\0\\#t hf
 aug-cc-pvdz iop(5/13=1,5/36=2,99/5=2) pseudo=read geom=check guess=(re
 ad,tcheck) scf=(maxcycle=1)\\title\\0,1\C,0,0.349452,0.449457,0.005563
 69\C,0,-2.67453,-0.516633,-1.0323\C,0,-2.65335,0.0737877,1.04189\C,0,1
 .74578,0.0519283,0.081416\C,0,2.48646,-1.20761,0.205367\C,0,3.81192,-0
 .900319,0.0425513\C,0,2.73023,0.968888,-0.125558\H,0,2.62727,2.01437,-
 0.409847\H,0,4.752,-1.49164,0.121817\H,0,2.08417,-2.18953,0.375156\H,0
 ,-2.2741,0.360456,2.06377\H,0,-2.30378,-0.940254,-1.97857\H,0,-0.21913

 Normal termination of Gaussian 16 at Tue Apr  8 19:56:10 2025.
