 Gaussian 16, Revision C.01,

 ----------------------------------------------------------------------
 #t hf aug-cc-pvdz symm=none int=(grid=ultrafine) guess=(read,tcheck) s
 table=(opt,rrhf)
 ----------------------------------------------------------------------
 -----
 title
 -----
 Symbolic Z-matrix:
 Charge =  0 Multiplicity = 1

 SCF Done:  E(RHF) =  -355.354279029     A.U. after   14 cycles
 Normal termination of Gaussian 16 at Tue Apr  8 21:42:07 2025.
 Gaussian 16:  ES64L-G16RevC.01  3-Jul-2019

 ----------------------------------------------------------------------
 #t hf aug-cc-pvdz iop(5/13=1,5/36=2,99/5=2) pseudo=read geom=check gue
 ss=(read,tcheck) scf=(maxcycle=1)
 ----------------------------------------------------------------------
 -----
 title
 -----
 Structure from the checkpoint file:  "ANI1ccx_469_conf16_mol2.chk"
 Charge =  0 Multiplicity = 1

                         Standard orientation:
 ---------------------------------------------------------------------
 Center     Atomic      Atomic             Coordinates (Angstroms)
 Number     Number       Type             X           Y           Z
 ---------------------------------------------------------------------
      1          6           0        0.780506    0.008126   -0.004657
      2          6           0       -1.321421    0.555997    0.004608
      3          1           0       -2.175582    1.212757   -0.003505
      4          7           0       -1.361080   -0.721171    0.001231
      5          8           0        1.961929    0.055541    0.004105
      6          8           0       -0.088574    1.094999   -0.002865
      7          8           0       -0.004776   -1.094201   -0.001843
 ---------------------------------------------------------------------

 SCF Done:  E(RHF) =  -356.792656662     A.U. after    2 cycles

 The electronic state is 1-A.
 Alpha  occ. eigenvalues --  -21.17817 -21.16028 -21.09268 -15.83251 -11.58748
 Alpha  occ. eigenvalues --  -11.51269  -2.03051  -1.79321  -1.73788  -1.30675
 Alpha  occ. eigenvalues --   -0.92490  -0.87034  -0.75085  -0.70784  -0.60995
 Alpha  occ. eigenvalues --   -0.56181  -0.52551  -0.50636  -0.46801  -0.44867
 Alpha  occ. eigenvalues --   -0.33981  -0.30986
 Alpha virt. eigenvalues --    0.02740   0.08007   0.08629   0.08670   0.11456
 Alpha virt. eigenvalues --    0.11598   0.11680   0.13126   0.14653   0.15474
 Alpha virt. eigenvalues --    0.16561   0.18859   0.19225   0.19421   0.22693

 Mulliken charges:
               1
     1  C    5.703083
     2  C    1.496694
     3  H    1.681261
     4  N   -0.681797
     5  O   -2.998264
     6  O   -2.748314
     7  O   -2.452663
 Sum of Mulliken charges =   0.00000

 Dipole moment (field-independent basis, Debye):
    X=             -2.0483    Y=              1.6830    Z=             -0.0078  Tot=              2.6511

 Test job not archived.
 1\1\GINC-SE273\SP\RHF\Aug-CC-pVDZ\C2H1N1O3\OHZDE\08-Apr-2025\0\\#t hf
 aug-cc-pvdz iop(5/13=1,5/36=2,99/5=2) pseudo=read geom=check guess=(re
 ad,tcheck) scf=(maxcycle=1)\\title\\0,1\C,0,-0.780507,0.00812671,0.004
 65701\C,0,1.32142,0.555999,-0.00460759\H,0,2.17558,1.21276,0.00350531\
 N,0,1.36108,-0.721168,-0.00123129\O,0,-1.96193,0.0555403,-0.00410549\O
 ,0,0.0885722,1.095,0.00286471\O,0,0.0047762,-1.0942,0.00184291\\Versio
 n=ES64L-G16RevC.01\State=1-A\HF=-356.7926567\RMSD=6.663e-02\Dipole=0.8
 058817,0.662125,0.0030765\Quadrupole=-1.278908,0.3047735,0.9741345,3.1

 Normal termination of Gaussian 16 at Tue Apr  8 21:42:10 2025.
