 Gaussian 16, Revision C.01,

 ----------------------------------------------------------------------
 #t hf aug-cc-pvdz symm=none int=(grid=ultrafine) guess=(read,tcheck) s
 table=(opt,rrhf)
 ----------------------------------------------------------------------
 -----
 title
 -----
 Symbolic Z-matrix:
 Charge =  0 Multiplicity = 1

 SCF Done:  E(RHF) =  -259.761027195     A.U. after   13 cycles
 Normal termination of Gaussian 16 at Tue Apr  8 21:11:18 2025.
 Gaussian 16:  ES64L-G16RevC.01  3-Jul-2019

 ----------------------------------------------------------------------
 #t hf aug-cc-pvdz iop(5/13=1,5/36=2,99/5=2) pseudo=read geom=check gue
 ss=(read,tcheck) scf=(maxcycle=1)
 ----------------------------------------------------------------------
 -----
 title
 -----
 Structure from the checkpoint file:  "ANI1ccx_1858_conf12_mol1.chk"
 Charge =  0 Multiplicity = 1

                         Standard orientation:
 ---------------------------------------------------------------------
 Center     Atomic      Atomic             Coordinates (Angstroms)
 Number     Number       Type             X           Y           Z
 ---------------------------------------------------------------------
      1          1           0       -1.723418    0.971643    0.776880
      2          1           0       -0.467161   -0.974397    0.072972
      3          7           0        1.768342    0.485297   -0.169910
      4          7           0        1.550081   -0.496847    0.192937
      5          8           0       -1.250328    0.695499   -0.011602
      6          8           0       -1.379469   -0.685049   -0.114778
 ---------------------------------------------------------------------

 SCF Done:  E(RHF) =  -260.821047890     A.U. after    2 cycles

 The electronic state is 1-A.
 Alpha  occ. eigenvalues --  -21.11805 -21.11350 -15.88224 -15.87623  -1.96168
 Alpha  occ. eigenvalues --   -1.59218  -1.38810  -0.79759  -0.65098  -0.62844
 Alpha  occ. eigenvalues --   -0.60014  -0.59957  -0.56914  -0.48143  -0.35114
 Alpha  occ. eigenvalues --   -0.31231
 Alpha virt. eigenvalues --    0.05136   0.06925   0.10922   0.13191   0.13327
 Alpha virt. eigenvalues --    0.14481   0.15665   0.17472   0.18406   0.20226
 Alpha virt. eigenvalues --    0.21650   0.23132   0.23532   0.25455   0.27529

 Mulliken charges:
               1
     1  H    0.942157
     2  H    1.202357
     3  N    0.049430
     4  N   -0.084785
     5  O   -0.853663
     6  O   -1.255496
 Sum of Mulliken charges =   0.00000

 Dipole moment (field-independent basis, Debye):
    X=              0.4337    Y=              0.0861    Z=              0.8274  Tot=              0.9381

 Test job not archived.
 1\1\GINC-SE096\SP\RHF\Aug-CC-pVDZ\H2N2O2\OHZDE\08-Apr-2025\0\\#t hf au
 g-cc-pvdz iop(5/13=1,5/36=2,99/5=2) pseudo=read geom=check guess=(read
 ,tcheck) scf=(maxcycle=1)\\title\\0,1\H,0,-1.72342,0.971642,0.77688\H,
 0,-0.467162,-0.974397,0.0729718\N,0,1.76834,0.485298,-0.16991\N,0,1.55
 008,-0.496846,0.192937\O,0,-1.25033,0.695498,-0.0116022\O,0,-1.37947,-
 0.68505,-0.114778\\Version=ES64L-G16RevC.01\State=1-A\HF=-260.8210479\
 RMSD=1.129e-01\Dipole=0.170615,0.0338906,0.3255309\Quadrupole=0.067950
 7,-0.0201113,-0.0478394,-1.3355269,-1.3550054,1.0108922\PG=C01 [X(H2N2

 Normal termination of Gaussian 16 at Tue Apr  8 21:11:19 2025.
