 Gaussian 16, Revision C.01,

 ----------------------------------------------------------------------
 #t hf aug-cc-pvdz symm=none int=(grid=ultrafine) guess=(read,tcheck) s
 table=(opt,rrhf)
 ----------------------------------------------------------------------
 -----
 title
 -----
 Symbolic Z-matrix:
 Charge =  0 Multiplicity = 1

 SCF Done:  E(RHF) =  -316.903775726     A.U. after   15 cycles
 Normal termination of Gaussian 16 at Tue Apr  8 21:46:53 2025.
 Gaussian 16:  ES64L-G16RevC.01  3-Jul-2019

 ----------------------------------------------------------------------
 #t hf aug-cc-pvdz iop(5/13=1,5/36=2,99/5=2) pseudo=read geom=check gue
 ss=(read,tcheck) scf=(maxcycle=1)
 ----------------------------------------------------------------------
 -----
 title
 -----
 Structure from the checkpoint file:  "ANI1ccx_538_conf2_mol1.chk"
 Charge =  0 Multiplicity = 1

                         Standard orientation:
 ---------------------------------------------------------------------
 Center     Atomic      Atomic             Coordinates (Angstroms)
 Number     Number       Type             X           Y           Z
 ---------------------------------------------------------------------
      1          6           0       -0.710978    0.213186    0.009811
      2          6           0        0.729253   -0.261485    0.009616
      3          1           0       -2.641521   -0.399812    0.130665
      4          1           0       -1.467441   -1.635290   -0.067895
      5          1           0       -0.148750    1.853460   -0.388353
      6          1           0        2.683050    0.533634    0.078114
      7          1           0        1.437420    1.551129    0.502041
      8          7           0       -1.668021   -0.738540    0.184052
      9          7           0       -1.078280    1.461350   -0.165319
     10          7           0        1.692150    0.707846    0.116048
     11          8           0        0.925831   -1.453491   -0.164325
 ---------------------------------------------------------------------

 SCF Done:  E(RHF) =  -318.318231990     A.U. after    2 cycles

 The electronic state is 1-A.
 Alpha  occ. eigenvalues --  -21.05696 -15.80872 -15.77446 -15.73367 -11.54073
 Alpha  occ. eigenvalues --  -11.46421  -1.73374  -1.44486  -1.36997  -1.24337
 Alpha  occ. eigenvalues --   -0.95687  -0.80459  -0.77163  -0.71010  -0.61678
 Alpha  occ. eigenvalues --   -0.59075  -0.56060  -0.53759  -0.48699  -0.44077
 Alpha  occ. eigenvalues --   -0.35564  -0.32986  -0.30710
 Alpha virt. eigenvalues --    0.03177   0.05189   0.05883   0.06920   0.07351
 Alpha virt. eigenvalues --    0.10310   0.11089   0.12265   0.12677   0.13338
 Alpha virt. eigenvalues --    0.13987   0.14792   0.15841   0.16788   0.18935

 Mulliken charges:
               1
     1  C    3.461323
     2  C    5.016270
     3  H    0.758303
     4  H    0.618828
     5  H    0.626343
     6  H    0.771584
     7  H    0.724992
     8  N   -3.094328
     9  N   -2.981326
    10  N   -2.821759
    11  O   -3.080228
 Sum of Mulliken charges =   0.00000

 Dipole moment (field-independent basis, Debye):
    X=              1.3942    Y=             -0.3585    Z=              0.3193  Tot=              1.4745

 Test job not archived.
 1\1\GINC-SE044\SP\RHF\Aug-CC-pVDZ\C2H5N3O1\OHZDE\08-Apr-2025\0\\#t hf
 aug-cc-pvdz iop(5/13=1,5/36=2,99/5=2) pseudo=read geom=check guess=(re
 ad,tcheck) scf=(maxcycle=1)\\title\\0,1\C,0,-0.710978,0.213186,0.00981
 048\C,0,0.729254,-0.261484,0.00961588\H,0,-2.64152,-0.399813,0.130665\
 H,0,-1.46744,-1.63529,-0.0678951\H,0,-0.14875,1.85346,-0.388353\H,0,2.
 68305,0.533636,0.0781136\H,0,1.43742,1.55113,0.502041\N,0,-1.66802,-0.
 73854,0.184052\N,0,-1.07828,1.46135,-0.165319\N,0,1.69215,0.707847,0.1
 16048\O,0,0.925832,-1.45349,-0.164325\\Version=ES64L-G16RevC.01\State=

 Normal termination of Gaussian 16 at Tue Apr  8 21:46:56 2025.
