 Gaussian 16, Revision C.01,

 ----------------------------------------------------------------------
 #t hf aug-cc-pvdz symm=none int=(grid=ultrafine) guess=(read,tcheck) s
 table=(opt,rrhf)
 ----------------------------------------------------------------------
 -----
 title
 -----
 Symbolic Z-matrix:
 Charge =  0 Multiplicity = 1

 SCF Done:  E(RHF) =  -434.644629703     A.U. after   14 cycles
 Normal termination of Gaussian 16 at Tue Apr  8 22:12:41 2025.
 Gaussian 16:  ES64L-G16RevC.01  3-Jul-2019

 ----------------------------------------------------------------------
 #t hf aug-cc-pvdz iop(5/13=1,5/36=2,99/5=2) pseudo=read geom=check gue
 ss=(read,tcheck) scf=(maxcycle=1)
 ----------------------------------------------------------------------
 -----
 title
 -----
 Structure from the checkpoint file:  "ANI1ccx_938_conf1_mol1.chk"
 Charge =  0 Multiplicity = 1

                         Standard orientation:
 ---------------------------------------------------------------------
 Center     Atomic      Atomic             Coordinates (Angstroms)
 Number     Number       Type             X           Y           Z
 ---------------------------------------------------------------------
      1          6           0        0.974817    1.564150    0.102310
      2          6           0       -0.507482   -0.302303   -0.834363
      3          6           0       -1.751669   -0.133876   -0.004768
      4          6           0        1.767351   -0.761688   -0.058219
      5          1           0        0.758271    1.799530    1.138650
      6          1           0        2.024731    1.795840   -0.083518
      7          1           0        0.319220    2.181670   -0.537319
      8          1           0       -0.578262    0.152249   -1.791790
      9          1           0       -0.328923   -1.387330   -0.927093
     10          1           0       -0.578468   -0.397466    1.348880
     11          1           0        1.446771   -1.814330   -0.274939
     12          7           0        0.762854    0.141443   -0.204383
     13          8           0       -1.539889   -0.346203    1.271990
     14          8           0       -2.838239    0.084850   -0.472740
     15          8           0        2.965451   -0.428392    0.116753
 ---------------------------------------------------------------------

 SCF Done:  E(RHF) =  -436.536743946     A.U. after    2 cycles

 The electronic state is 1-A.
 Alpha  occ. eigenvalues --  -21.14870 -21.06653 -21.05111 -15.79141 -11.55147
 Alpha  occ. eigenvalues --  -11.50798 -11.46286 -11.42792  -1.86471  -1.70313
 Alpha  occ. eigenvalues --   -1.67781  -1.46197  -1.13040  -1.04937  -0.84469
 Alpha  occ. eigenvalues --   -0.81599  -0.74939  -0.71929  -0.69195  -0.62532
 Alpha  occ. eigenvalues --   -0.59803  -0.57903  -0.54621  -0.52619  -0.51132
 Alpha  occ. eigenvalues --   -0.49615  -0.48232  -0.35615  -0.34247  -0.31716
 Alpha  occ. eigenvalues --   -0.29978
 Alpha virt. eigenvalues --    0.02749   0.04835   0.05214   0.05459   0.05764
 Alpha virt. eigenvalues --    0.06799   0.06923   0.10233   0.10322   0.11090
 Alpha virt. eigenvalues --    0.11648   0.12322   0.12935   0.13584   0.13956

 Mulliken charges:
               1
     1  C   -3.518726
     2  C   -3.819138
     3  C    6.445013
     4  C    2.138066
     5  H    1.411245
     6  H    1.365337
     7  H    1.458117
     8  H    1.328722
     9  H    1.589826
    10  H    1.282541
    11  H    1.547411
    12  N   -1.976245
    13  O   -3.371419
    14  O   -3.261797
    15  O   -2.618954
 Sum of Mulliken charges =  -0.00000

 Dipole moment (field-independent basis, Debye):
    X=              0.5947    Y=              0.5148    Z=             -0.3013  Tot=              0.8423

 Test job not archived.
 1\1\GINC-SE424\SP\RHF\Aug-CC-pVDZ\C4H7N1O3\OHZDE\08-Apr-2025\0\\#t hf
 aug-cc-pvdz iop(5/13=1,5/36=2,99/5=2) pseudo=read geom=check guess=(re
 ad,tcheck) scf=(maxcycle=1)\\title\\0,1\C,0,0.974816,1.56415,0.10231\C
 ,0,-0.507483,-0.302303,-0.834363\C,0,-1.75167,-0.133876,-0.0047683\C,0
 ,1.76735,-0.761688,-0.0582194\H,0,0.75827,1.79953,1.13865\H,0,2.02473,
 1.79584,-0.0835183\H,0,0.319219,2.18167,-0.537319\H,0,-0.578263,0.1522
 49,-1.79179\H,0,-0.328924,-1.38733,-0.927093\H,0,-0.578469,-0.397466,1
 .34888\H,0,1.44677,-1.81433,-0.274939\N,0,0.762853,0.141443,-0.204383\

 Normal termination of Gaussian 16 at Tue Apr  8 22:12:46 2025.
