 Gaussian 16, Revision C.01,

 ----------------------------------------------------------------------
 #t hf aug-cc-pvdz symm=none int=(grid=ultrafine) guess=(read,tcheck) s
 table=(opt,rrhf)
 ----------------------------------------------------------------------
 -----
 title
 -----
 Symbolic Z-matrix:
 Charge =  0 Multiplicity = 1

 SCF Done:  E(RHF) =  -756.514818424     A.U. after   14 cycles
 Normal termination of Gaussian 16 at Tue Apr  8 19:58:26 2025.
 Gaussian 16:  ES64L-G16RevC.01  3-Jul-2019

 ----------------------------------------------------------------------
 #t hf aug-cc-pvdz iop(5/13=1,5/36=2,99/5=2) pseudo=read geom=check gue
 ss=(read,tcheck) scf=(maxcycle=1)
 ----------------------------------------------------------------------
 -----
 title
 -----
 Structure from the checkpoint file:  "ANI1ccx_1435_conf38_mol1.chk"
 Charge =  0 Multiplicity = 1

                         Standard orientation:
 ---------------------------------------------------------------------
 Center     Atomic      Atomic             Coordinates (Angstroms)
 Number     Number       Type             X           Y           Z
 ---------------------------------------------------------------------
      1          6           0        2.086050   -0.706394    0.369111
      2          6           0        0.871739   -0.832560   -0.448657
      3          6           0        2.329520    0.756097    0.769732
      4          6           0        2.562150    1.685840   -0.430685
      5          6           0       -1.526380   -0.571815   -0.540286
      6          6           0       -2.097880    0.918776   -0.618599
      7          6           0       -2.551760   -1.426150    0.277412
      8          1           0       -1.354960    2.752240   -0.282055
      9          1           0       -2.870770   -1.685530    2.100790
     10          1           0       -2.264480   -2.548340    0.163863
     11          1           0       -3.573490   -1.198030   -0.041490
     12          1           0       -1.304930   -0.950814   -1.488080
     13          1           0       -0.312887   -0.352034    1.064140
     14          1           0        2.949650    1.199810   -1.327820
     15          1           0        1.714310    2.303660   -0.799560
     16          1           0        3.269780    2.486520   -0.175398
     17          1           0        0.479070    1.501350    0.827644
     18          1           0        3.131390    0.718958    1.504020
     19          1           0        1.811170   -1.184150    1.323480
     20          1           0        3.336160   -1.283510   -1.164650
     21          1           0        3.140450   -2.421320   -0.071074
     22          7           0        3.153430   -1.472420   -0.241187
     23          7           0       -0.317096   -0.616220    0.130321
     24          8           0        0.992166   -1.180220   -1.585070
     25          8           0        1.108800    1.267830    1.536370
     26          8           0       -3.242750    1.117180   -1.008390
     27          8           0       -2.472190   -0.941564    1.580880
     28          8           0       -1.141700    1.779140   -0.164530
 ---------------------------------------------------------------------

 SCF Done:  E(RHF) =  -759.881052731     A.U. after    2 cycles

 The electronic state is 1-A.
 Alpha  occ. eigenvalues --  -21.14932 -21.08838 -21.07420 -21.05681 -21.01663
 Alpha  occ. eigenvalues --  -15.75446 -15.73343 -11.55616 -11.52329 -11.49006
 Alpha  occ. eigenvalues --  -11.47840 -11.42958 -11.42361 -11.38501  -1.83000
 Alpha  occ. eigenvalues --   -1.74867  -1.73124  -1.68190  -1.67013  -1.43141
 Alpha  occ. eigenvalues --   -1.34838  -1.15004  -1.11316  -1.01733  -0.93782
 Alpha  occ. eigenvalues --   -0.88073  -0.82900  -0.80979  -0.72844  -0.70072
 Alpha  occ. eigenvalues --   -0.68545  -0.65768  -0.64127  -0.63039  -0.60339
 Alpha  occ. eigenvalues --   -0.59667  -0.58357  -0.57479  -0.56957  -0.53853
 Alpha  occ. eigenvalues --   -0.53254  -0.50940  -0.49484  -0.47273  -0.46103
 Alpha  occ. eigenvalues --   -0.45672  -0.43358  -0.39746  -0.36260  -0.35679
 Alpha  occ. eigenvalues --   -0.34753  -0.33525  -0.31032  -0.28423  -0.27610
 Alpha virt. eigenvalues --    0.03191   0.04221   0.05084   0.05254   0.05497
 Alpha virt. eigenvalues --    0.05709   0.05744   0.06728   0.06852   0.07395
 Alpha virt. eigenvalues --    0.07821   0.08926   0.09682   0.10281   0.11140

 Mulliken charges:
               1
     1  C   -1.287745
     2  C    8.143584
     3  C    0.714076
     4  C   -4.475219
     5  C   -4.973806
     6  C    6.875639
     7  C   -1.041192
     8  H    1.072914
     9  H    0.703684
    10  H    1.523078
    11  H    1.505023
    12  H    2.353307
    13  H    1.360319
    14  H    1.354341
    15  H    1.454603
    16  H    1.164817
    17  H    1.376946
    18  H    1.362140
    19  H    1.613602
    20  H    0.629918
    21  H    0.535764
    22  N   -3.055952
    23  N   -2.865461
    24  O   -4.087992
    25  O   -2.976468
    26  O   -3.213157
    27  O   -2.440862
    28  O   -3.325899
 Sum of Mulliken charges =  -0.00000

 Dipole moment (field-independent basis, Debye):
    X=             -0.7420    Y=             -0.0402    Z=              1.3568  Tot=              1.5469

 Test job not archived.
 1\1\GINC-SE177\SP\RHF\Aug-CC-pVDZ\C7H14N2O5\OHZDE\08-Apr-2025\0\\#t hf
  aug-cc-pvdz iop(5/13=1,5/36=2,99/5=2) pseudo=read geom=check guess=(r
 ead,tcheck) scf=(maxcycle=1)\\title\\0,1\C,0,2.08605,-0.706394,0.36911
 1\C,0,0.871739,-0.83256,-0.448657\C,0,2.32952,0.756097,0.769732\C,0,2.
 56215,1.68584,-0.430685\C,0,-1.52638,-0.571815,-0.540286\C,0,-2.09788,
 0.918776,-0.618599\C,0,-2.55176,-1.42615,0.277412\H,0,-1.35496,2.75224
 ,-0.282055\H,0,-2.87077,-1.68553,2.10079\H,0,-2.26448,-2.54834,0.16386
 3\H,0,-3.57349,-1.19803,-0.0414898\H,0,-1.30493,-0.950814,-1.48808\H,0

 Normal termination of Gaussian 16 at Tue Apr  8 19:58:56 2025.
