 Gaussian 16, Revision C.01,

 ----------------------------------------------------------------------
 #t hf aug-cc-pvdz symm=none int=(grid=ultrafine) guess=(read,tcheck) s
 table=(opt,rrhf)
 ----------------------------------------------------------------------
 -----
 title
 -----
 Symbolic Z-matrix:
 Charge =  0 Multiplicity = 1

 SCF Done:  E(RHF) =  -281.820050870     A.U. after   14 cycles
 Normal termination of Gaussian 16 at Tue Apr  8 21:13:22 2025.
 Gaussian 16:  ES64L-G16RevC.01  3-Jul-2019

 ----------------------------------------------------------------------
 #t hf aug-cc-pvdz iop(5/13=1,5/36=2,99/5=2) pseudo=read geom=check gue
 ss=(read,tcheck) scf=(maxcycle=1)
 ----------------------------------------------------------------------
 -----
 title
 -----
 Structure from the checkpoint file:  "ANI1ccx_1889_conf1_mol1.chk"
 Charge =  0 Multiplicity = 1

                         Standard orientation:
 ---------------------------------------------------------------------
 Center     Atomic      Atomic             Coordinates (Angstroms)
 Number     Number       Type             X           Y           Z
 ---------------------------------------------------------------------
      1          1           0       -0.548540    1.067420   -0.046134
      2          1           0       -2.019618   -0.801290    0.729559
      3          1           0        0.512553   -0.970771   -0.237818
      4          1           0        1.633812    0.740953    1.048280
      5          1           0        2.164952    1.035539   -0.423192
      6          7           0        1.342352    0.620890    0.053121
      7          8           0       -1.434078    0.745883   -0.104870
      8          8           0       -1.382948   -0.665817    0.003069
      9          8           0        1.424572   -0.757326   -0.078517
 ---------------------------------------------------------------------

 SCF Done:  E(RHF) =  -282.987579104     A.U. after    2 cycles

 The electronic state is 1-A.
 Alpha  occ. eigenvalues --  -21.12209 -21.10305 -21.08372 -15.78667  -1.94312
 Alpha  occ. eigenvalues --   -1.78603  -1.40001  -1.16098  -0.68111  -0.66170
 Alpha  occ. eigenvalues --   -0.62088  -0.57585  -0.55612  -0.47904  -0.40596
 Alpha  occ. eigenvalues --   -0.33623  -0.32628  -0.28924
 Alpha virt. eigenvalues --    0.03974   0.05170   0.05884   0.07180   0.08192
 Alpha virt. eigenvalues --    0.14160   0.16734   0.17529   0.19291   0.19942
 Alpha virt. eigenvalues --    0.20144   0.21625   0.22632   0.23259   0.24193

 Mulliken charges:
               1
     1  H    1.377265
     2  H    1.019496
     3  H    1.109336
     4  H    0.672535
     5  H    0.746044
     6  N   -0.212404
     7  O   -1.294822
     8  O   -1.128916
     9  O   -2.288534
 Sum of Mulliken charges =  -0.00000

 Dipole moment (field-independent basis, Debye):
    X=              0.8542    Y=              0.3130    Z=              1.0188  Tot=              1.3658

 Test job not archived.
 1\1\GINC-SE249\SP\RHF\Aug-CC-pVDZ\H5N1O3\OHZDE\08-Apr-2025\0\\#t hf au
 g-cc-pvdz iop(5/13=1,5/36=2,99/5=2) pseudo=read geom=check guess=(read
 ,tcheck) scf=(maxcycle=1)\\title\\0,1\H,0,-0.548542,1.06742,-0.0461346
 \H,0,-2.01962,-0.80129,0.729559\H,0,0.512551,-0.970771,-0.237818\H,0,1
 .63381,0.740953,1.04828\H,0,2.16495,1.03554,-0.423192\N,0,1.34235,0.62
 089,0.0531208\O,0,-1.43408,0.745883,-0.10487\O,0,-1.38295,-0.665817,0.
 00306849\O,0,1.42457,-0.757326,-0.0785167\\Version=ES64L-G16RevC.01\St
 ate=1-A\HF=-282.9875791\RMSD=3.571e-02\Dipole=0.3360574,0.123126,0.400

 Normal termination of Gaussian 16 at Tue Apr  8 21:13:24 2025.
