 Gaussian 16, Revision C.01,

 ----------------------------------------------------------------------
 #t hf aug-cc-pvdz symm=none int=(grid=ultrafine) guess=(read,tcheck) s
 table=(opt,rrhf)
 ----------------------------------------------------------------------
 -----
 title
 -----
 Symbolic Z-matrix:
 Charge =  0 Multiplicity = 1

 SCF Done:  E(RHF) =  -461.461248475     A.U. after   16 cycles
 Normal termination of Gaussian 16 at Tue Apr  8 21:37:53 2025.
 Gaussian 16:  ES64L-G16RevC.01  3-Jul-2019

 ----------------------------------------------------------------------
 #t hf aug-cc-pvdz iop(5/13=1,5/36=2,99/5=2) pseudo=read geom=check gue
 ss=(read,tcheck) scf=(maxcycle=1)
 ----------------------------------------------------------------------
 -----
 title
 -----
 Structure from the checkpoint file:  "ANI1ccx_394_conf3_mol1.chk"
 Charge =  0 Multiplicity = 1

                         Standard orientation:
 ---------------------------------------------------------------------
 Center     Atomic      Atomic             Coordinates (Angstroms)
 Number     Number       Type             X           Y           Z
 ---------------------------------------------------------------------
      1          6           0        0.051393    0.667359    0.032061
      2          1           0        2.663490    0.624851    0.634685
      3          1           0        2.361700    0.620569   -0.895267
      4          1           0       -2.631230    0.181316    0.966126
      5          7           0        2.333210    0.027638   -0.080925
      6          7           0        0.993847   -0.268513    0.226482
      7          7           0        0.468378   -1.515711    0.119097
      8          7           0       -0.711561   -1.547431   -0.128476
      9          7           0       -1.067841   -0.089550   -0.285368
     10          8           0       -2.298740    0.423630    0.024551
     11          8           0        0.196921    1.866879   -0.006249
 ---------------------------------------------------------------------

 SCF Done:  E(RHF) =  -463.441932064     A.U. after    2 cycles

 The electronic state is 1-A.
 Alpha  occ. eigenvalues --  -21.14323 -21.05595 -15.86651 -15.86132 -15.83773
 Alpha  occ. eigenvalues --  -15.83180 -15.81643 -11.53499  -1.87296  -1.76094
 Alpha  occ. eigenvalues --   -1.70538  -1.49638  -1.27869  -1.22332  -0.93291
 Alpha  occ. eigenvalues --   -0.86228  -0.76759  -0.75408  -0.68712  -0.67284
 Alpha  occ. eigenvalues --   -0.59250  -0.55115  -0.53188  -0.51993  -0.47992
 Alpha  occ. eigenvalues --   -0.45832  -0.40636  -0.38241  -0.32211  -0.30585
 Alpha virt. eigenvalues --    0.03503   0.04920   0.06093   0.10090   0.11347
 Alpha virt. eigenvalues --    0.11613   0.11898   0.13418   0.13561   0.14115
 Alpha virt. eigenvalues --    0.15470   0.15836   0.16589   0.17793   0.18787

 Mulliken charges:
               1
     1  C    5.409192
     2  H    0.671554
     3  H    0.622263
     4  H    0.659212
     5  N   -1.942406
     6  N   -0.600176
     7  N    0.596519
     8  N   -0.973859
     9  N    1.165297
    10  O   -2.710356
    11  O   -2.897240
 Sum of Mulliken charges =  -0.00000

 Dipole moment (field-independent basis, Debye):
    X=              0.5386    Y=              0.7903    Z=              0.8089  Tot=              1.2526

 Test job not archived.
 1\1\GINC-SE340\SP\RHF\Aug-CC-pVDZ\C1H3N5O2\OHZDE\08-Apr-2025\0\\#t hf
 aug-cc-pvdz iop(5/13=1,5/36=2,99/5=2) pseudo=read geom=check guess=(re
 ad,tcheck) scf=(maxcycle=1)\\title\\0,1\C,0,0.0513936,0.66736,0.032060
 7\H,0,2.66349,0.624853,0.634685\H,0,2.3617,0.620571,-0.895267\H,0,-2.6
 3123,0.181316,0.966126\N,0,2.33321,0.0276399,-0.0809246\N,0,0.993848,-
 0.268512,0.226482\N,0,0.468379,-1.51571,0.119097\N,0,-0.71156,-1.54743
 ,-0.128476\N,0,-1.06784,-0.08955,-0.285368\O,0,-2.29874,0.42363,0.0245
 514\O,0,0.196921,1.86688,-0.00624915\\Version=ES64L-G16RevC.01\State=1

 Normal termination of Gaussian 16 at Tue Apr  8 21:37:57 2025.
