 Gaussian 16, Revision C.01,

 ----------------------------------------------------------------------
 #t hf aug-cc-pvdz symm=none int=(grid=ultrafine) guess=(read,tcheck) s
 table=(opt,rrhf)
 ----------------------------------------------------------------------
 -----
 title
 -----
 Symbolic Z-matrix:
 Charge =  0 Multiplicity = 1

 SCF Done:  E(RHF) =  -485.845424968     A.U. after   14 cycles
 Normal termination of Gaussian 16 at Tue Apr  8 21:58:42 2025.
 Gaussian 16:  ES64L-G16RevC.01  3-Jul-2019

 ----------------------------------------------------------------------
 #t hf aug-cc-pvdz iop(5/13=1,5/36=2,99/5=2) pseudo=read geom=check gue
 ss=(read,tcheck) scf=(maxcycle=1)
 ----------------------------------------------------------------------
 -----
 title
 -----
 Structure from the checkpoint file:  "ANI1ccx_768_conf2_mol2.chk"
 Charge =  0 Multiplicity = 1

                         Standard orientation:
 ---------------------------------------------------------------------
 Center     Atomic      Atomic             Coordinates (Angstroms)
 Number     Number       Type             X           Y           Z
 ---------------------------------------------------------------------
      1          6           0       -1.906320    0.057854    0.014405
      2          6           0        1.431450   -0.856182    0.681243
      3          6           0        2.152010    0.227739   -0.096267
      4          1           0        0.556192    1.235999    0.098789
      5          1           0        1.978530   -1.784031    0.552187
      6          1           0       -0.327181   -1.854911    0.702847
      7          1           0        1.460510   -0.612502    1.752770
      8          1           0       -2.382740    1.777089    0.879731
      9          1           0       -1.588410   -1.404831   -1.317840
     10          1           0       -3.205640   -0.810383   -1.327970
     11          1           0       -3.360470    1.402339   -0.427856
     12          7           0       -2.333920   -0.927170   -0.819137
     13          7           0       -2.829290    1.022469    0.349660
     14          7           0       -0.742838    0.075048    0.572500
     15          7           0        0.050480   -1.044761    0.196883
     16          8           0        1.454740    1.358859   -0.306085
     17          8           0        3.269680    0.090598   -0.519950
 ---------------------------------------------------------------------

 SCF Done:  E(RHF) =  -488.006566688     A.U. after    2 cycles

 The electronic state is 1-A.
 Alpha  occ. eigenvalues --  -21.08294 -21.02653 -15.79435 -15.79022 -15.75875
 Alpha  occ. eigenvalues --  -15.72663 -11.50839 -11.50395 -11.41308  -1.79705
 Alpha  occ. eigenvalues --   -1.62945  -1.56094  -1.42004  -1.30480  -1.18771
 Alpha  occ. eigenvalues --   -1.00479  -0.84634  -0.77825  -0.75534  -0.72719
 Alpha  occ. eigenvalues --   -0.68760  -0.65166  -0.63110  -0.61192  -0.58206
 Alpha  occ. eigenvalues --   -0.54271  -0.51219  -0.48987  -0.47337  -0.44784
 Alpha  occ. eigenvalues --   -0.41264  -0.36435  -0.31131  -0.29938  -0.27190
 Alpha virt. eigenvalues --    0.02519   0.04040   0.04660   0.05976   0.06248
 Alpha virt. eigenvalues --    0.06589   0.07339   0.08422   0.10961   0.11179
 Alpha virt. eigenvalues --    0.12567   0.12957   0.13455   0.13802   0.14269

 Mulliken charges:
               1
     1  C    5.002793
     2  C   -2.882179
     3  C    5.642145
     4  H    1.546616
     5  H    1.431493
     6  H    0.535283
     7  H    1.484887
     8  H    0.593741
     9  H    0.540808
    10  H    0.780448
    11  H    0.540423
    12  N   -2.711630
    13  N   -2.861576
    14  N   -1.980695
    15  N   -1.205299
    16  O   -3.362285
    17  O   -3.094975
 Sum of Mulliken charges =   0.00000

 Dipole moment (field-independent basis, Debye):
    X=             -5.7204    Y=             -0.5561    Z=             -0.7490  Tot=              5.7959

 Test job not archived.
 1\1\GINC-SE049\SP\RHF\Aug-CC-pVDZ\C3H8N4O2\OHZDE\08-Apr-2025\0\\#t hf
 aug-cc-pvdz iop(5/13=1,5/36=2,99/5=2) pseudo=read geom=check guess=(re
 ad,tcheck) scf=(maxcycle=1)\\title\\0,1\C,0,-1.90632,0.0578546,0.01440
 51\C,0,1.43145,-0.856181,0.681243\C,0,2.15201,0.22774,-0.0962672\H,0,0
 .556192,1.236,0.0987895\H,0,1.97853,-1.78403,0.552187\H,0,-0.327181,-1
 .85491,0.702847\H,0,1.46051,-0.612501,1.75277\H,0,-2.38274,1.77709,0.8
 79731\H,0,-1.58841,-1.40483,-1.31784\H,0,-3.20564,-0.810382,-1.32797\H
 ,0,-3.36047,1.40234,-0.427856\N,0,-2.33392,-0.927169,-0.819137\N,0,-2.

 Normal termination of Gaussian 16 at Tue Apr  8 21:58:50 2025.
