 Gaussian 16, Revision C.01,

 ----------------------------------------------------------------------
 #t hf aug-cc-pvdz symm=none int=(grid=ultrafine) guess=(read,tcheck) s
 table=(opt,rrhf)
 ----------------------------------------------------------------------
 -----
 title
 -----
 Symbolic Z-matrix:
 Charge =  0 Multiplicity = 1

 SCF Done:  E(RHF) =  -584.431671608     A.U. after   14 cycles
 Normal termination of Gaussian 16 at Tue Apr  8 22:15:25 2025.
 Gaussian 16:  ES64L-G16RevC.01  3-Jul-2019

 ----------------------------------------------------------------------
 #t hf aug-cc-pvdz iop(5/13=1,5/36=2,99/5=2) pseudo=read geom=check gue
 ss=(read,tcheck) scf=(maxcycle=1)
 ----------------------------------------------------------------------
 -----
 title
 -----
 Structure from the checkpoint file:  "ANI1ccx_940_conf6_mol1.chk"
 Charge =  0 Multiplicity = 1

                         Standard orientation:
 ---------------------------------------------------------------------
 Center     Atomic      Atomic             Coordinates (Angstroms)
 Number     Number       Type             X           Y           Z
 ---------------------------------------------------------------------
      1          6           0       -0.467338    0.212730    0.282561
      2          6           0        0.578576   -0.564524   -0.569339
      3          6           0        2.094540   -0.283926   -0.289571
      4          6           0       -1.912050   -0.124794   -0.212743
      5          1           0       -3.226280   -1.493450   -0.327968
      6          1           0        1.718790    1.602210   -0.131448
      7          1           0        0.345711   -0.472038   -1.633370
      8          1           0        0.503533   -1.637600   -0.321069
      9          1           0       -0.879124    0.260902    2.350330
     10          1           0        0.710342   -0.069839    1.993190
     11          1           0       -0.903470    1.867030   -0.613178
     12          7           0       -0.235879   -0.178991    1.673740
     13          8           0       -2.316470   -1.388660    0.047659
     14          8           0       -0.301496    1.586720    0.083175
     15          8           0        2.468590    0.994618   -0.072266
     16          8           0        2.884250   -1.185000   -0.299279
     17          8           0       -2.532460    0.712171   -0.796554
 ---------------------------------------------------------------------

 SCF Done:  E(RHF) =  -586.907943424     A.U. after    2 cycles

 The electronic state is 1-A.
 Alpha  occ. eigenvalues --  -21.15760 -21.11939 -21.10182 -21.09880 -21.05400
 Alpha  occ. eigenvalues --  -15.76220 -11.57729 -11.53621 -11.52703 -11.42760
 Alpha  occ. eigenvalues --   -1.87102  -1.81968  -1.77086  -1.69797  -1.65832
 Alpha  occ. eigenvalues --   -1.34625  -1.13981  -0.99443  -0.82188  -0.79871
 Alpha  occ. eigenvalues --   -0.73671  -0.70210  -0.68810  -0.65571  -0.63455
 Alpha  occ. eigenvalues --   -0.59886  -0.58438  -0.56201  -0.52420  -0.50520
 Alpha  occ. eigenvalues --   -0.50230  -0.47347  -0.42237  -0.40006  -0.37845
 Alpha  occ. eigenvalues --   -0.35648  -0.34069  -0.33581  -0.29334
 Alpha virt. eigenvalues --    0.03105   0.03924   0.05334   0.06220   0.06873
 Alpha virt. eigenvalues --    0.07280   0.07670   0.09272   0.09644   0.11468
 Alpha virt. eigenvalues --    0.11857   0.12307   0.13289   0.14157   0.14328

 Mulliken charges:
               1
     1  C    5.929736
     2  C   -4.211017
     3  C    5.830823
     4  C    5.577079
     5  H    0.779608
     6  H    1.144956
     7  H    1.414628
     8  H    1.350957
     9  H    0.593344
    10  H    0.621766
    11  H    0.686773
    12  N   -3.522681
    13  O   -3.112949
    14  O   -3.666002
    15  O   -3.202823
    16  O   -3.184075
    17  O   -3.030124
 Sum of Mulliken charges =  -0.00000

 Dipole moment (field-independent basis, Debye):
    X=             -2.7935    Y=              0.7106    Z=              0.5055  Tot=              2.9264

 Test job not archived.
 1\1\GINC-SE083\SP\RHF\Aug-CC-pVDZ\C4H7N1O5\OHZDE\08-Apr-2025\0\\#t hf
 aug-cc-pvdz iop(5/13=1,5/36=2,99/5=2) pseudo=read geom=check guess=(re
 ad,tcheck) scf=(maxcycle=1)\\title\\0,1\C,0,-0.467338,0.21273,0.282561
 \C,0,0.578576,-0.564524,-0.569339\C,0,2.09454,-0.283926,-0.289571\C,0,
 -1.91205,-0.124794,-0.212743\H,0,-3.22628,-1.49345,-0.327968\H,0,1.718
 79,1.60221,-0.131448\H,0,0.345711,-0.472038,-1.63337\H,0,0.503533,-1.6
 376,-0.321069\H,0,-0.879124,0.260902,2.35033\H,0,0.710342,-0.0698391,1
 .99319\H,0,-0.90347,1.86703,-0.613178\N,0,-0.235879,-0.178991,1.67374\

 Normal termination of Gaussian 16 at Tue Apr  8 22:15:33 2025.
