 Gaussian 16, Revision C.01,

 ----------------------------------------------------------------------
 #t hf aug-cc-pvdz symm=none int=(grid=ultrafine) guess=(read,tcheck) s
 table=(opt,rrhf)
 ----------------------------------------------------------------------
 -----
 title
 -----
 Symbolic Z-matrix:
 Charge =  0 Multiplicity = 1

 SCF Done:  E(RHF) =  -792.020133400     A.U. after   13 cycles
 Normal termination of Gaussian 16 at Tue Apr  8 19:36:16 2025.
 Gaussian 16:  ES64L-G16RevC.01  3-Jul-2019

 ----------------------------------------------------------------------
 #t hf aug-cc-pvdz iop(5/13=1,5/36=2,99/5=2) pseudo=read geom=check gue
 ss=(read,tcheck) scf=(maxcycle=1)
 ----------------------------------------------------------------------
 -----
 title
 -----
 Structure from the checkpoint file:  "ANI1ccx_1216_conf11_mol2.chk"
 Charge =  0 Multiplicity = 1

                         Standard orientation:
 ---------------------------------------------------------------------
 Center     Atomic      Atomic             Coordinates (Angstroms)
 Number     Number       Type             X           Y           Z
 ---------------------------------------------------------------------
      1          6           0       -1.559800    1.321510   -0.739921
      2          6           0        1.641300    1.411189    0.257781
      3          6           0        1.299680   -0.612165    1.628300
      4          6           0       -1.961300   -0.358619    0.934418
      5          6           0       -1.337930   -1.109350   -1.347640
      6          6           0        1.934760   -0.761790   -0.755519
      7          1           0        2.732140   -0.308538   -1.389480
      8          1           0        2.208669   -1.774721   -0.430638
      9          1           0       -2.018471   -1.983749   -1.179200
     10          1           0       -1.429830   -0.710410   -2.362250
     11          1           0       -2.338870   -1.376799    1.061320
     12          1           0       -2.760520    0.331220    1.292300
     13          1           0        1.918010   -1.493091    1.763520
     14          1           0        1.471460    1.871090    1.204900
     15          1           0        2.587510    1.748679   -0.190982
     16          1           0       -1.385350    1.483120   -1.813650
     17          1           0       -2.461100    1.870591   -0.438997
     18          1           0        1.499880    0.095716    2.449860
     19          7           0        1.607130    0.028245    0.392600
     20          7           0       -1.715060   -0.077586   -0.425440
     21          8           0       -0.074544   -1.748370   -1.204760
     22          8           0       -0.556298    2.068750   -0.036516
     23          8           0        0.700755    1.961520   -0.693606
     24          8           0        0.017791   -1.155890    1.789240
     25          8           0       -0.929415   -0.116726    1.912970
     26          8           0        0.920677   -0.853332   -1.717500
 ---------------------------------------------------------------------

 SCF Done:  E(RHF) =  -795.470318070     A.U. after    2 cycles

 The electronic state is 1-A.
 Alpha  occ. eigenvalues --  -21.08707 -21.08368 -21.08352 -21.07927 -21.07903
 Alpha  occ. eigenvalues --  -21.07542 -15.73209 -15.72431 -11.45215 -11.45020
 Alpha  occ. eigenvalues --  -11.44689 -11.44213 -11.43653 -11.43387  -1.98384
 Alpha  occ. eigenvalues --   -1.97440  -1.96307  -1.55990  -1.47811  -1.46389
 Alpha  occ. eigenvalues --   -1.41967  -1.32794  -1.02364  -1.02125  -0.97032
 Alpha  occ. eigenvalues --   -0.96755  -0.84317  -0.82722  -0.71894  -0.71473
 Alpha  occ. eigenvalues --   -0.70376  -0.68867  -0.65872  -0.64671  -0.62530
 Alpha  occ. eigenvalues --   -0.62026  -0.60152  -0.58121  -0.57392  -0.56525
 Alpha  occ. eigenvalues --   -0.54437  -0.50432  -0.49294  -0.48374  -0.43851
 Alpha  occ. eigenvalues --   -0.40679  -0.39912  -0.38027  -0.37568  -0.33119
 Alpha  occ. eigenvalues --   -0.32132  -0.30274  -0.27254  -0.26034  -0.24749
 Alpha virt. eigenvalues --    0.04167   0.04260   0.04450   0.05679   0.05766
 Alpha virt. eigenvalues --    0.06030   0.06444   0.06704   0.07163   0.07588
 Alpha virt. eigenvalues --    0.08217   0.08886   0.09966   0.10953   0.11989

 Mulliken charges:
               1
     1  C   -0.338116
     2  C   -0.312799
     3  C    0.128309
     4  C   -0.393853
     5  C   -0.006665
     6  C   -0.490555
     7  H    1.618389
     8  H    1.835273
     9  H    1.600821
    10  H    1.738220
    11  H    1.779955
    12  H    1.526218
    13  H    1.696665
    14  H    1.908384
    15  H    1.636426
    16  H    1.826315
    17  H    1.572466
    18  H    1.719486
    19  N   -4.066633
    20  N   -3.773297
    21  O   -1.910355
    22  O   -1.835945
    23  O   -1.689160
    24  O   -1.996824
    25  O   -1.830913
    26  O   -1.941813
 Sum of Mulliken charges =  -0.00000

 Dipole moment (field-independent basis, Debye):
    X=              0.2864    Y=             -0.2045    Z=             -0.0058  Tot=              0.3520

 Test job not archived.
 1\1\GINC-SE102\SP\RHF\Aug-CC-pVDZ\C6H12N2O6\OHZDE\08-Apr-2025\0\\#t hf
  aug-cc-pvdz iop(5/13=1,5/36=2,99/5=2) pseudo=read geom=check guess=(r
 ead,tcheck) scf=(maxcycle=1)\\title\\0,1\C,0,-1.5598,1.32151,-0.739921
 \C,0,1.6413,1.41119,0.257781\C,0,1.29968,-0.612165,1.6283\C,0,-1.9613,
 -0.358619,0.934418\C,0,-1.33793,-1.10935,-1.34764\C,0,1.93476,-0.76178
 9,-0.755519\H,0,2.73214,-0.308537,-1.38948\H,0,2.20867,-1.77472,-0.430
 638\H,0,-2.01847,-1.98375,-1.1792\H,0,-1.42983,-0.71041,-2.36225\H,0,-
 2.33887,-1.3768,1.06132\H,0,-2.76052,0.331219,1.2923\H,0,1.91801,-1.49

 Normal termination of Gaussian 16 at Tue Apr  8 19:36:45 2025.
