 Gaussian 16, Revision C.01,

 ----------------------------------------------------------------------
 #t hf aug-cc-pvdz symm=none int=(grid=ultrafine) guess=(read,tcheck) s
 table=(opt,rrhf)
 ----------------------------------------------------------------------
 -----
 title
 -----
 Symbolic Z-matrix:
 Charge =  0 Multiplicity = 1

 SCF Done:  E(RHF) =  -464.384339804     A.U. after   15 cycles
 Normal termination of Gaussian 16 at Tue Apr  8 21:42:51 2025.
 Gaussian 16:  ES64L-G16RevC.01  3-Jul-2019

 ----------------------------------------------------------------------
 #t hf aug-cc-pvdz iop(5/13=1,5/36=2,99/5=2) pseudo=read geom=check gue
 ss=(read,tcheck) scf=(maxcycle=1)
 ----------------------------------------------------------------------
 -----
 title
 -----
 Structure from the checkpoint file:  "ANI1ccx_474_conf9_mol1.chk"
 Charge =  0 Multiplicity = 1

                         Standard orientation:
 ---------------------------------------------------------------------
 Center     Atomic      Atomic             Coordinates (Angstroms)
 Number     Number       Type             X           Y           Z
 ---------------------------------------------------------------------
      1          6           0        1.288500   -0.366925    0.120297
      2          6           0       -0.223045    1.416789   -0.006166
      3          1           0        2.879880   -0.011045   -0.931592
      4          7           0        0.801639    0.893572   -0.397748
      5          7           0       -2.074350   -0.661226   -0.419948
      6          7           0       -2.552808   -1.607134   -0.127775
      7          8           0        2.483500   -0.706456   -0.381691
      8          8           0       -1.047603    2.173348    0.297471
      9          8           0        0.752356   -1.049970    0.942357
 ---------------------------------------------------------------------

 SCF Done:  E(RHF) =  -466.281187890     A.U. after    2 cycles

 The electronic state is 1-A.
 Alpha  occ. eigenvalues --  -21.17030 -21.15121 -21.07721 -15.87900 -15.87462
 Alpha  occ. eigenvalues --  -15.80436 -11.61977 -11.57298  -1.86124  -1.81403
 Alpha  occ. eigenvalues --   -1.68858  -1.56936  -1.42249  -0.93596  -0.80038
 Alpha  occ. eigenvalues --   -0.77158  -0.67833  -0.66567  -0.64142  -0.59097
 Alpha  occ. eigenvalues --   -0.58233  -0.58169  -0.56375  -0.55397  -0.49179
 Alpha  occ. eigenvalues --   -0.44564  -0.38902  -0.35317  -0.33206
 Alpha virt. eigenvalues --    0.03673   0.07684   0.09720   0.10079   0.10656
 Alpha virt. eigenvalues --    0.11105   0.11602   0.12081   0.13093   0.13915
 Alpha virt. eigenvalues --    0.14066   0.14576   0.15373   0.16746   0.17235

 Mulliken charges:
               1
     1  C    5.619447
     2  C    3.848968
     3  H    0.950360
     4  N   -2.557403
     5  N   -0.149321
     6  N    0.189367
     7  O   -2.781513
     8  O   -2.550378
     9  O   -2.569527
 Sum of Mulliken charges =   0.00000

 Dipole moment (field-independent basis, Debye):
    X=             -0.2333    Y=              1.3667    Z=             -0.5607  Tot=              1.4956

 Test job not archived.
 1\1\GINC-SE338\SP\RHF\Aug-CC-pVDZ\C2H1N3O3\OHZDE\08-Apr-2025\0\\#t hf
 aug-cc-pvdz iop(5/13=1,5/36=2,99/5=2) pseudo=read geom=check guess=(re
 ad,tcheck) scf=(maxcycle=1)\\title\\0,1\C,0,1.2885,-0.366926,0.120297\
 C,0,-0.223043,1.41679,-0.00616561\H,0,2.87988,-0.0110481,-0.931592\N,0
 ,0.801641,0.893571,-0.397748\N,0,-2.07435,-0.661223,-0.419948\N,0,-2.5
 5281,-1.60713,-0.127775\O,0,2.4835,-0.706459,-0.381691\O,0,-1.0476,2.1
 7335,0.297471\O,0,0.752355,-1.04997,0.942357\\Version=ES64L-G16RevC.01
 \State=1-A\HF=-466.2811879\RMSD=7.568e-02\Dipole=-0.0918021,0.5377148,

 Normal termination of Gaussian 16 at Tue Apr  8 21:42:54 2025.
