 Gaussian 16, Revision C.01,

 ----------------------------------------------------------------------
 #t hf aug-cc-pvdz symm=none int=(grid=ultrafine) guess=(read,tcheck) s
 table=(opt,rrhf)
 ----------------------------------------------------------------------
 -----
 title
 -----
 Symbolic Z-matrix:
 Charge =  0 Multiplicity = 1

 SCF Done:  E(RHF) =  -720.716259406     A.U. after   14 cycles
 Normal termination of Gaussian 16 at Tue Apr  8 20:31:55 2025.
 Gaussian 16:  ES64L-G16RevC.01  3-Jul-2019

 ----------------------------------------------------------------------
 #t hf aug-cc-pvdz iop(5/13=1,5/36=2,99/5=2) pseudo=read geom=check gue
 ss=(read,tcheck) scf=(maxcycle=1)
 ----------------------------------------------------------------------
 -----
 title
 -----
 Structure from the checkpoint file:  "ANI1ccx_1618_conf11_mol2.chk"
 Charge =  0 Multiplicity = 1

                         Standard orientation:
 ---------------------------------------------------------------------
 Center     Atomic      Atomic             Coordinates (Angstroms)
 Number     Number       Type             X           Y           Z
 ---------------------------------------------------------------------
      1          6           0       -2.374670   -0.697255   -0.261168
      2          6           0       -0.891199   -0.776886    0.048974
      3          6           0       -2.972750    0.721984   -0.192860
      4          6           0        1.308300    0.339824   -0.611415
      5          6           0        2.316590   -0.870402   -0.717487
      6          6           0        1.702140    1.286940    0.586757
      7          6           0        0.981332    2.697730    0.396384
      8          6           0        1.446440    0.720541    1.988630
      9          1           0        1.133250   -2.085780    0.267554
     10          1           0        1.964880   -0.220608    2.132880
     11          1           0        0.381758    0.567104    2.148550
     12          1           0        1.881850    1.350130    2.777210
     13          1           0        1.312641    3.383890    1.154710
     14          1           0       -0.106409    2.628200    0.455447
     15          1           0        1.263031    3.143680   -0.565597
     16          1           0        2.756440    1.384340    0.392193
     17          1           0       -0.659446    0.576437   -1.422600
     18          1           0       -3.091160    1.904570   -1.783460
     19          1           0       -2.626000    1.104310    0.773411
     20          1           0       -4.091520    0.640070   -0.203461
     21          1           0       -2.563400   -1.034520   -1.215210
     22          1           0       -2.821070   -2.417480    0.682910
     23          1           0       -2.884300   -1.143400    1.648590
     24          1           0        1.566960    0.889566   -1.500060
     25          7           0       -3.140980   -1.438140    0.698659
     26          7           0       -0.090543   -0.037519   -0.813640
     27          8           0        3.440480   -0.606831   -1.079820
     28          8           0       -0.451026   -1.456210    0.971672
     29          8           0       -2.424460    1.515830   -1.173620
     30          8           0        1.948260   -2.062260   -0.263868
 ---------------------------------------------------------------------

 SCF Done:  E(RHF) =  -723.978322159     A.U. after    2 cycles

 The electronic state is 1-A.
 Alpha  occ. eigenvalues --  -21.10500 -21.09980 -21.05417 -21.03402 -15.77184
 Alpha  occ. eigenvalues --  -15.74278 -11.55267 -11.52493 -11.49184 -11.47919
 Alpha  occ. eigenvalues --  -11.42676 -11.42307 -11.38922 -11.36390  -1.80825
 Alpha  occ. eigenvalues --   -1.77189  -1.73450  -1.64264  -1.41741  -1.36636
 Alpha  occ. eigenvalues --   -1.22403  -1.09282  -1.03540  -1.00795  -0.93645
 Alpha  occ. eigenvalues --   -0.84872  -0.82724  -0.75689  -0.75093  -0.70815
 Alpha  occ. eigenvalues --   -0.68448  -0.67408  -0.63945  -0.62492  -0.60947
 Alpha  occ. eigenvalues --   -0.59252  -0.56903  -0.55612  -0.54787  -0.53722
 Alpha  occ. eigenvalues --   -0.53068  -0.51194  -0.50418  -0.49809  -0.47927
 Alpha  occ. eigenvalues --   -0.46388  -0.44854  -0.43522  -0.42038  -0.38364
 Alpha  occ. eigenvalues --   -0.34580  -0.33782  -0.31918  -0.31031  -0.26969
 Alpha virt. eigenvalues --    0.02928   0.03931   0.04334   0.04508   0.04745
 Alpha virt. eigenvalues --    0.05298   0.05878   0.06225   0.07173   0.07233
 Alpha virt. eigenvalues --    0.07556   0.07965   0.08462   0.09240   0.10181

 Mulliken charges:
               1
     1  C   -2.975050
     2  C    7.603226
     3  C   -0.465893
     4  C   -0.162057
     5  C    5.926834
     6  C   -1.141142
     7  C   -4.828729
     8  C   -5.026457
     9  H    1.171697
    10  H    1.389873
    11  H    1.455110
    12  H    1.171903
    13  H    1.228040
    14  H    1.657006
    15  H    1.261166
    16  H    1.730369
    17  H    0.988902
    18  H    0.774070
    19  H    1.468501
    20  H    1.318466
    21  H    2.010999
    22  H    0.571241
    23  H    0.642785
    24  H    2.105646
    25  N   -2.902492
    26  N   -3.469731
    27  O   -3.374456
    28  O   -3.658145
    29  O   -2.812405
    30  O   -3.659278
 Sum of Mulliken charges =   0.00000

 Dipole moment (field-independent basis, Debye):
    X=             -3.7088    Y=              2.2055    Z=             -0.0816  Tot=              4.3158

 Test job not archived.
 1\1\GINC-SE332\SP\RHF\Aug-CC-pVDZ\C8H16N2O4\OHZDE\08-Apr-2025\0\\#t hf
  aug-cc-pvdz iop(5/13=1,5/36=2,99/5=2) pseudo=read geom=check guess=(r
 ead,tcheck) scf=(maxcycle=1)\\title\\0,1\C,0,-2.37467,-0.697255,-0.261
 168\C,0,-0.891199,-0.776886,0.0489736\C,0,-2.97275,0.721984,-0.19286\C
 ,0,1.3083,0.339824,-0.611415\C,0,2.31659,-0.870402,-0.717487\C,0,1.702
 14,1.28694,0.586757\C,0,0.981331,2.69773,0.396384\C,0,1.44644,0.720541
 ,1.98863\H,0,1.13325,-2.08578,0.267554\H,0,1.96488,-0.220608,2.13288\H
 ,0,0.381758,0.567104,2.14855\H,0,1.88185,1.35013,2.77721\H,0,1.31264,3

 Normal termination of Gaussian 16 at Tue Apr  8 20:32:23 2025.
