 Gaussian 16, Revision C.01,

 ----------------------------------------------------------------------
 #t hf aug-cc-pvdz symm=none int=(grid=ultrafine) guess=(read,tcheck) s
 table=(opt,rrhf)
 ----------------------------------------------------------------------
 -----
 title
 -----
 Symbolic Z-matrix:
 Charge =  0 Multiplicity = 1

 SCF Done:  E(RHF) =  -355.465965229     A.U. after   16 cycles
 Normal termination of Gaussian 16 at Tue Apr  8 21:12:21 2025.
 Gaussian 16:  ES64L-G16RevC.01  3-Jul-2019

 ----------------------------------------------------------------------
 #t hf aug-cc-pvdz iop(5/13=1,5/36=2,99/5=2) pseudo=read geom=check gue
 ss=(read,tcheck) scf=(maxcycle=1)
 ----------------------------------------------------------------------
 -----
 title
 -----
 Structure from the checkpoint file:  "ANI1ccx_1871_conf7_mol1.chk"
 Charge =  0 Multiplicity = 1

                         Standard orientation:
 ---------------------------------------------------------------------
 Center     Atomic      Atomic             Coordinates (Angstroms)
 Number     Number       Type             X           Y           Z
 ---------------------------------------------------------------------
      1          1           0       -3.041238   -0.471047    0.565673
      2          1           0       -2.031118    1.107140   -1.008920
      3          1           0       -0.143124   -0.217909    0.658219
      4          7           0        1.507302   -0.464757   -0.217245
      5          8           0       -2.329688   -0.586057   -0.101681
      6          8           0       -1.614108    0.633071   -0.163016
      7          8           0        0.744691    0.229777    0.742043
      8          8           0        2.532152    0.077598   -0.314127
 ---------------------------------------------------------------------

 SCF Done:  E(RHF) =  -356.912987945     A.U. after    2 cycles

 The electronic state is 1-A.
 Alpha  occ. eigenvalues --  -21.14459 -21.13956 -21.13220 -21.09843 -15.92019
 Alpha  occ. eigenvalues --   -1.96916  -1.95653  -1.67518  -1.40964  -0.93448
 Alpha  occ. eigenvalues --   -0.70965  -0.65623  -0.62152  -0.59509  -0.58503
 Alpha  occ. eigenvalues --   -0.50574  -0.45402  -0.37373  -0.36334  -0.32444
 Alpha  occ. eigenvalues --   -0.28460
 Alpha virt. eigenvalues --    0.03434   0.04555   0.08087   0.12705   0.14139
 Alpha virt. eigenvalues --    0.14251   0.15581   0.17239   0.18936   0.19556
 Alpha virt. eigenvalues --    0.19913   0.20618   0.22152   0.22937   0.24932

 Mulliken charges:
               1
     1  H    0.977679
     2  H    0.966021
     3  H    1.362420
     4  N    2.683275
     5  O   -0.887576
     6  O   -1.160038
     7  O   -2.102320
     8  O   -1.839462
 Sum of Mulliken charges =   0.00000

 Dipole moment (field-independent basis, Debye):
    X=             -2.6666    Y=              0.8846    Z=              0.2538  Tot=              2.8209

 Test job not archived.
 1\1\GINC-SE461\SP\RHF\Aug-CC-pVDZ\H3N1O4\OHZDE\08-Apr-2025\0\\#t hf au
 g-cc-pvdz iop(5/13=1,5/36=2,99/5=2) pseudo=read geom=check guess=(read
 ,tcheck) scf=(maxcycle=1)\\title\\0,1\H,0,-3.04124,-0.471048,0.565673\
 H,0,-2.03112,1.10714,-1.00892\H,0,-0.143126,-0.217909,0.658219\N,0,1.5
 073,-0.464757,-0.217245\O,0,-2.32969,-0.586057,-0.101681\O,0,-1.61411,
 0.633071,-0.163016\O,0,0.744689,0.229777,0.742043\O,0,2.53215,0.077597
 8,-0.314127\\Version=ES64L-G16RevC.01\State=1-A\HF=-356.9129879\RMSD=5
 .023e-02\Dipole=-1.0491116,0.3480246,0.0998461\Quadrupole=1.6883503,-1

 Normal termination of Gaussian 16 at Tue Apr  8 21:12:23 2025.
