 Gaussian 16, Revision C.01,

 ----------------------------------------------------------------------
 #t hf aug-cc-pvdz symm=none int=(grid=ultrafine) guess=(read,tcheck) s
 table=(opt,rrhf)
 ----------------------------------------------------------------------
 -----
 title
 -----
 Symbolic Z-matrix:
 Charge =  0 Multiplicity = 1

 SCF Done:  E(RHF) =  -331.681304752     A.U. after   14 cycles
 Normal termination of Gaussian 16 at Tue Apr  8 21:35:40 2025.
 Gaussian 16:  ES64L-G16RevC.01  3-Jul-2019

 ----------------------------------------------------------------------
 #t hf aug-cc-pvdz iop(5/13=1,5/36=2,99/5=2) pseudo=read geom=check gue
 ss=(read,tcheck) scf=(maxcycle=1)
 ----------------------------------------------------------------------
 -----
 title
 -----
 Structure from the checkpoint file:  "ANI1ccx_378_conf2_mol1.chk"
 Charge =  0 Multiplicity = 1

                         Standard orientation:
 ---------------------------------------------------------------------
 Center     Atomic      Atomic             Coordinates (Angstroms)
 Number     Number       Type             X           Y           Z
 ---------------------------------------------------------------------
      1          6           0        0.795097    0.024737    0.022920
      2          1           0        0.071344   -2.031930    0.091799
      3          1           0        0.131872    2.066540    0.114033
      4          7           0       -0.066619   -1.052080   -0.023368
      5          7           0       -1.394910   -0.639050    0.017169
      6          7           0       -1.426510    0.618362   -0.021531
      7          7           0       -0.119908    1.041450   -0.007432
      8          8           0        2.010230    0.004524   -0.012152
 ---------------------------------------------------------------------

 SCF Done:  E(RHF) =  -333.091447684     A.U. after    2 cycles

 The electronic state is 1-A.
 Alpha  occ. eigenvalues --  -21.04505 -15.85033 -15.84315 -15.82730 -15.82583
 Alpha  occ. eigenvalues --  -11.53768  -1.78956  -1.68829  -1.40318  -1.31170
 Alpha  occ. eigenvalues --   -0.93753  -0.92593  -0.75391  -0.71190  -0.66877
 Alpha  occ. eigenvalues --   -0.56937  -0.50810  -0.50182  -0.47458  -0.45965
 Alpha  occ. eigenvalues --   -0.31234  -0.30081
 Alpha virt. eigenvalues --    0.03493   0.05005   0.10636   0.10867   0.11443
 Alpha virt. eigenvalues --    0.11622   0.13327   0.13863   0.15094   0.16580
 Alpha virt. eigenvalues --    0.17042   0.17380   0.18159   0.19406   0.20589

 Mulliken charges:
               1
     1  C    5.117422
     2  H    0.827545
     3  H    0.807795
     4  N   -1.730054
     5  N   -0.227460
     6  N   -0.217920
     7  N   -1.751542
     8  O   -2.825785
 Sum of Mulliken charges =   0.00000

 Dipole moment (field-independent basis, Debye):
    X=             -0.2733    Y=              0.0477    Z=              0.3347  Tot=              0.4347

 Test job not archived.
 1\1\GINC-SE457\SP\RHF\Aug-CC-pVDZ\C1H2N4O1\OHZDE\08-Apr-2025\0\\#t hf
 aug-cc-pvdz iop(5/13=1,5/36=2,99/5=2) pseudo=read geom=check guess=(re
 ad,tcheck) scf=(maxcycle=1)\\title\\0,1\C,0,0.795097,0.0247365,0.02292
 01\H,0,0.0713441,-2.03193,0.0917989\H,0,0.131872,2.06654,0.114033\N,0,
 -0.0666185,-1.05208,-0.0233684\N,0,-1.39491,-0.63905,0.017169\N,0,-1.4
 2651,0.618362,-0.0215312\N,0,-0.119908,1.04145,-0.00743221\O,0,2.01023
 ,0.00452388,-0.0121516\\Version=ES64L-G16RevC.01\State=1-A\HF=-333.091
 4477\RMSD=8.438e-02\Dipole=-0.1075148,0.0187592,0.1316767\Quadrupole=-

 Normal termination of Gaussian 16 at Tue Apr  8 21:35:43 2025.
