 Gaussian 16, Revision C.01,

 ----------------------------------------------------------------------
 #t hf aug-cc-pvdz symm=none int=(grid=ultrafine) guess=(read,tcheck) s
 table=(opt,rrhf)
 ----------------------------------------------------------------------
 -----
 title
 -----
 Symbolic Z-matrix:
 Charge =  0 Multiplicity = 1

 SCF Done:  E(RHF) =  -541.300383249     A.U. after   14 cycles
 Normal termination of Gaussian 16 at Tue Apr  8 21:47:21 2025.
 Gaussian 16:  ES64L-G16RevC.01  3-Jul-2019

 ----------------------------------------------------------------------
 #t hf aug-cc-pvdz iop(5/13=1,5/36=2,99/5=2) pseudo=read geom=check gue
 ss=(read,tcheck) scf=(maxcycle=1)
 ----------------------------------------------------------------------
 -----
 title
 -----
 Structure from the checkpoint file:  "ANI1ccx_541_conf1_mol2.chk"
 Charge =  0 Multiplicity = 1

                         Standard orientation:
 ---------------------------------------------------------------------
 Center     Atomic      Atomic             Coordinates (Angstroms)
 Number     Number       Type             X           Y           Z
 ---------------------------------------------------------------------
      1          6           0       -0.443193    0.571054   -0.022934
      2          6           0        1.195543   -1.340177   -0.314397
      3          1           0        2.302718    0.929841    0.448605
      4          1           0        0.226526    2.344561   -0.338277
      5          1           0       -3.401310    0.229680    0.274003
      6          1           0       -1.655726   -1.583263    0.303778
      7          1           0        1.045255   -2.405278   -0.186836
      8          7           0        0.644631    1.446331   -0.300425
      9          7           0       -1.628942    1.020897   -0.189361
     10          7           0        0.004983   -0.731619    0.098080
     11          8           0        1.568897    1.519293    0.738651
     12          8           0       -2.528190    0.013208   -0.416899
     13          8           0       -0.831063   -1.583912    0.785509
     14          8           0        2.268322   -0.829848   -0.574179
 ---------------------------------------------------------------------

 SCF Done:  E(RHF) =  -543.596457755     A.U. after    2 cycles

 The electronic state is 1-A.
 Alpha  occ. eigenvalues --  -21.13657 -21.11757 -21.09383 -21.07891 -15.83081
 Alpha  occ. eigenvalues --  -15.79716 -15.78236 -11.53559 -11.50203  -1.87814
 Alpha  occ. eigenvalues --   -1.80369  -1.79203  -1.73061  -1.40606  -1.25169
 Alpha  occ. eigenvalues --   -1.14663  -0.97915  -0.77771  -0.73894  -0.72357
 Alpha  occ. eigenvalues --   -0.66644  -0.65806  -0.59942  -0.59159  -0.58061
 Alpha  occ. eigenvalues --   -0.54803  -0.51958  -0.48847  -0.44688  -0.41378
 Alpha  occ. eigenvalues --   -0.37430  -0.33786  -0.33281  -0.32152  -0.28695
 Alpha virt. eigenvalues --    0.03534   0.04903   0.06149   0.06566   0.07600
 Alpha virt. eigenvalues --    0.09614   0.11004   0.11422   0.11950   0.13032
 Alpha virt. eigenvalues --    0.13587   0.14371   0.15034   0.16266   0.16325

 Mulliken charges:
               1
     1  C    4.325051
     2  C    2.031943
     3  H    0.924723
     4  H    0.704199
     5  H    0.646098
     6  H    0.891637
     7  H    1.743992
     8  N   -0.353510
     9  N   -0.610971
    10  N   -0.153999
    11  O   -2.478827
    12  O   -2.291952
    13  O   -2.720085
    14  O   -2.658298
 Sum of Mulliken charges =  -0.00000

 Dipole moment (field-independent basis, Debye):
    X=             -0.9448    Y=             -1.1375    Z=              0.4611  Tot=              1.5489

 Test job not archived.
 1\1\GINC-SE367\SP\RHF\Aug-CC-pVDZ\C2H5N3O4\OHZDE\08-Apr-2025\0\\#t hf
 aug-cc-pvdz iop(5/13=1,5/36=2,99/5=2) pseudo=read geom=check guess=(re
 ad,tcheck) scf=(maxcycle=1)\\title\\0,1\C,0,-0.443192,0.571055,-0.0229
 341\C,0,1.19554,-1.34018,-0.314397\H,0,2.30272,0.929836,0.448605\H,0,0
 .226531,2.34456,-0.338277\H,0,-3.40131,0.229687,0.274003\H,0,-1.65573,
 -1.58326,0.303778\H,0,1.04525,-2.40528,-0.186836\N,0,0.644634,1.44633,
 -0.300425\N,0,-1.62894,1.0209,-0.189361\N,0,0.0049813,-0.731619,0.0980
 805\O,0,1.5689,1.51929,0.738651\O,0,-2.52819,0.0132133,-0.416899\O,0,-

 Normal termination of Gaussian 16 at Tue Apr  8 21:47:26 2025.
