 Gaussian 16, Revision C.01,

 ----------------------------------------------------------------------
 #t hf aug-cc-pvdz symm=none int=(grid=ultrafine) guess=(read,tcheck) s
 table=(opt,rrhf)
 ----------------------------------------------------------------------
 -----
 title
 -----
 Symbolic Z-matrix:
 Charge =  0 Multiplicity = 1

 SCF Done:  E(RHF) =  -908.368905514     A.U. after   14 cycles
 Normal termination of Gaussian 16 at Tue Apr  8 21:16:29 2025.
 Gaussian 16:  ES64L-G16RevC.01  3-Jul-2019

 ----------------------------------------------------------------------
 #t hf aug-cc-pvdz iop(5/13=1,5/36=2,99/5=2) pseudo=read geom=check gue
 ss=(read,tcheck) scf=(maxcycle=1)
 ----------------------------------------------------------------------
 -----
 title
 -----
 Structure from the checkpoint file:  "ANI1ccx_1761_conf18_mol1.chk"
 Charge =  0 Multiplicity = 1

                         Standard orientation:
 ---------------------------------------------------------------------
 Center     Atomic      Atomic             Coordinates (Angstroms)
 Number     Number       Type             X           Y           Z
 ---------------------------------------------------------------------
      1          6           0       -2.245730   -0.147483    0.674421
      2          6           0        2.895860    0.899068   -0.846957
      3          6           0        2.012640   -0.142017   -1.553449
      4          6           0        1.956470   -1.567941    0.536402
      5          6           0        2.181751    1.998659   -0.090826
      6          6           0       -3.833110   -0.703909   -1.173839
      7          6           0       -3.205810    0.414910   -0.403605
      8          6           0       -1.140520   -1.012700    0.091098
      9          6           0        1.150960   -1.056321   -0.648070
     10          1           0        0.852445   -1.885631   -1.237519
     11          1           0        3.399789   -2.569252    1.006151
     12          1           0        0.746231    3.265069   -0.372202
     13          1           0        3.508480    0.504102   -0.042628
     14          1           0        3.622191    1.408418   -1.569709
     15          1           0        2.676880   -0.808996   -2.085579
     16          1           0        1.408780    0.389932   -2.278459
     17          1           0       -0.022375    0.522061    0.387783
     18          1           0       -4.494710   -0.269343   -1.873909
     19          1           0       -4.369680   -1.404489   -0.466161
     20          1           0       -3.064300   -1.237680   -1.739969
     21          1           0       -4.759670    0.629729    0.712363
     22          1           0       -2.597370    1.093250   -1.020399
     23          1           0       -2.835620   -0.763574    1.329911
     24          1           0       -2.450019    1.665200    1.472531
     25          1           0       -1.425400    0.672096    2.371861
     26          7           0       -1.695120    0.987441    1.442201
     27          7           0       -0.003955   -0.317185   -0.171102
     28          8           0       -1.276801   -2.244890   -0.063956
     29          8           0       -4.205900    1.246351    0.216918
     30          8           0        1.786040   -1.201111    1.645501
     31          8           0        2.702401    2.588389    0.807099
     32          8           0        0.961041    2.309409   -0.643413
     33          8           0        2.916069   -2.447681    0.162507
 ---------------------------------------------------------------------

 SCF Done:  E(RHF) =  -912.383664422     A.U. after    2 cycles

 The electronic state is 1-A.
 Alpha  occ. eigenvalues --  -21.13262 -21.12037 -21.08230 -21.06720 -21.06345
 Alpha  occ. eigenvalues --  -21.02041 -15.75184 -15.74036 -11.55597 -11.54002
 Alpha  occ. eigenvalues --  -11.53242 -11.49222 -11.48485 -11.44499 -11.43493
 Alpha  occ. eigenvalues --  -11.40632 -11.37733  -1.84549  -1.81932  -1.73325
 Alpha  occ. eigenvalues --   -1.68480  -1.67542  -1.66386  -1.42533  -1.34342
 Alpha  occ. eigenvalues --   -1.22101  -1.15036  -1.08788  -1.00011  -0.94604
 Alpha  occ. eigenvalues --   -0.87909  -0.82437  -0.79038  -0.78329  -0.70881
 Alpha  occ. eigenvalues --   -0.68162  -0.67448  -0.66215  -0.65726  -0.63653
 Alpha  occ. eigenvalues --   -0.62542  -0.60617  -0.60308  -0.59397  -0.58544
 Alpha  occ. eigenvalues --   -0.57164  -0.56406  -0.53764  -0.52470  -0.51491
 Alpha  occ. eigenvalues --   -0.49855  -0.49718  -0.48207  -0.47014  -0.46520
 Alpha  occ. eigenvalues --   -0.44854  -0.43981  -0.41230  -0.38252  -0.35758
 Alpha  occ. eigenvalues --   -0.34634  -0.33204  -0.31269  -0.30497  -0.29928
 Alpha  occ. eigenvalues --   -0.27552
 Alpha virt. eigenvalues --    0.03698   0.04026   0.04541   0.04996   0.05258
 Alpha virt. eigenvalues --    0.05504   0.05715   0.05971   0.06576   0.06662
 Alpha virt. eigenvalues --    0.06997   0.07543   0.08361   0.08811   0.09892

 Mulliken charges:
               1
     1  C   -2.602587
     2  C   -4.388031
     3  C   -3.319874
     4  C    8.574525
     5  C    6.870079
     6  C   -4.496303
     7  C    1.899216
     8  C    7.494509
     9  C   -4.056634
    10  H    1.971680
    11  H    0.710662
    12  H    0.778582
    13  H    1.450501
    14  H    1.377042
    15  H    1.372535
    16  H    1.470354
    17  H    1.235215
    18  H    1.061406
    19  H    1.121345
    20  H    1.298201
    21  H    0.706387
    22  H    1.792549
    23  H    1.829138
    24  H    0.738064
    25  H    0.549270
    26  N   -3.014365
    27  N   -1.950707
    28  O   -4.000688
    29  O   -3.338173
    30  O   -3.513241
    31  O   -3.395819
    32  O   -2.955414
    33  O   -3.269426
 Sum of Mulliken charges =  -0.00000

 Dipole moment (field-independent basis, Debye):
    X=             -0.4489    Y=              0.8499    Z=             -1.0920  Tot=              1.4547

 Test job not archived.
 1\1\GINC-SE195\SP\RHF\Aug-CC-pVDZ\C9H16N2O6\OHZDE\08-Apr-2025\0\\#t hf
  aug-cc-pvdz iop(5/13=1,5/36=2,99/5=2) pseudo=read geom=check guess=(r
 ead,tcheck) scf=(maxcycle=1)\\title\\0,1\C,0,-2.24573,-0.147483,0.6744
 2\C,0,2.89586,0.899069,-0.846958\C,0,2.01264,-0.142016,-1.55345\C,0,1.
 95647,-1.56794,0.536401\C,0,2.18175,1.99866,-0.0908264\C,0,-3.83311,-0
 .70391,-1.17384\C,0,-3.20581,0.41491,-0.403606\C,0,-1.14052,-1.0127,0.
 0910973\C,0,1.15096,-1.05632,-0.648071\H,0,0.852445,-1.88563,-1.23752\
 H,0,3.39979,-2.56925,1.00615\H,0,0.74623,3.26507,-0.372203\H,0,3.50848

 Normal termination of Gaussian 16 at Tue Apr  8 21:17:19 2025.
