 Gaussian 16, Revision C.01,

 ----------------------------------------------------------------------
 #t hf aug-cc-pvdz symm=none int=(grid=ultrafine) guess=(read,tcheck) s
 table=(opt,rrhf)
 ----------------------------------------------------------------------
 -----
 title
 -----
 Symbolic Z-matrix:
 Charge =  0 Multiplicity = 1

 SCF Done:  E(RHF) =  -466.549327990     A.U. after   14 cycles
 Normal termination of Gaussian 16 at Tue Apr  8 21:47:16 2025.
 Gaussian 16:  ES64L-G16RevC.01  3-Jul-2019

 ----------------------------------------------------------------------
 #t hf aug-cc-pvdz iop(5/13=1,5/36=2,99/5=2) pseudo=read geom=check gue
 ss=(read,tcheck) scf=(maxcycle=1)
 ----------------------------------------------------------------------
 -----
 title
 -----
 Structure from the checkpoint file:  "ANI1ccx_540_conf26_mol1.chk"
 Charge =  0 Multiplicity = 1

                         Standard orientation:
 ---------------------------------------------------------------------
 Center     Atomic      Atomic             Coordinates (Angstroms)
 Number     Number       Type             X           Y           Z
 ---------------------------------------------------------------------
      1          6           0        1.413562   -0.086337    0.076006
      2          6           0       -0.852817    0.829213    0.064191
      3          1           0        1.930972   -1.732849   -0.996034
      4          1           0        0.368025   -1.804709   -0.284594
      5          1           0        0.833920    1.638561    0.501411
      6          1           0       -2.401218   -0.153583   -0.862386
      7          1           0       -2.246298   -1.851109    1.048230
      8          7           0        1.097392   -1.320679   -0.554597
      9          7           0        0.359165    0.654133    0.764255
     10          7           0       -1.741868   -0.254923   -0.035891
     11          8           0        2.561712    0.356570    0.087328
     12          8           0       -1.089228    1.919811   -0.498762
     13          8           0       -1.454068   -1.539289    0.228411
 ---------------------------------------------------------------------

 SCF Done:  E(RHF) =  -468.572643590     A.U. after    2 cycles

 The electronic state is 1-A.
 Alpha  occ. eigenvalues --  -21.15215 -21.05347 -21.04527 -15.82404 -15.79158
 Alpha  occ. eigenvalues --  -15.79070 -11.53897 -11.53276  -1.84801  -1.73491
 Alpha  occ. eigenvalues --   -1.70842  -1.40120  -1.32853  -1.22971  -0.90081
 Alpha  occ. eigenvalues --   -0.81712  -0.76228  -0.69188  -0.67418  -0.65060
 Alpha  occ. eigenvalues --   -0.60524  -0.57691  -0.53549  -0.50467  -0.49075
 Alpha  occ. eigenvalues --   -0.42143  -0.39975  -0.35773  -0.33540  -0.30983
 Alpha  occ. eigenvalues --   -0.30332
 Alpha virt. eigenvalues --    0.02508   0.04615   0.04958   0.06863   0.07706
 Alpha virt. eigenvalues --    0.10294   0.11049   0.11927   0.12809   0.13194
 Alpha virt. eigenvalues --    0.13857   0.14622   0.15207   0.16228   0.16817

 Mulliken charges:
               1
     1  C    4.967943
     2  C    5.695411
     3  H    0.677604
     4  H    0.957093
     5  H    0.166911
     6  H    0.651018
     7  H    0.642417
     8  N   -2.685644
     9  N   -2.308886
    10  N   -0.321142
    11  O   -2.860729
    12  O   -2.800961
    13  O   -2.781035
 Sum of Mulliken charges =  -0.00000

 Dipole moment (field-independent basis, Debye):
    X=             -2.0394    Y=             -3.2884    Z=             -0.4550  Tot=              3.8961

 Test job not archived.
 1\1\GINC-SE424\SP\RHF\Aug-CC-pVDZ\C2H5N3O3\OHZDE\08-Apr-2025\0\\#t hf
 aug-cc-pvdz iop(5/13=1,5/36=2,99/5=2) pseudo=read geom=check guess=(re
 ad,tcheck) scf=(maxcycle=1)\\title\\0,1\C,0,1.41356,-0.0863375,0.07600
 56\C,0,-0.852819,0.829212,0.0641912\H,0,1.93097,-1.73285,-0.996034\H,0
 ,0.368023,-1.80471,-0.284594\H,0,0.833918,1.63856,0.501411\H,0,-2.4012
 2,-0.153584,-0.862386\H,0,-2.2463,-1.85111,1.04823\N,0,1.09739,-1.3206
 8,-0.554597\N,0,0.359163,0.654132,0.764255\N,0,-1.74187,-0.254924,-0.0
 358911\O,0,2.56171,0.356569,0.0873281\O,0,-1.08923,1.91981,-0.498762\O

 Normal termination of Gaussian 16 at Tue Apr  8 21:47:20 2025.
