 Gaussian 16, Revision C.01,

 ----------------------------------------------------------------------
 #t hf aug-cc-pvdz symm=none int=(grid=ultrafine) guess=(read,tcheck) s
 table=(opt,rrhf)
 ----------------------------------------------------------------------
 -----
 title
 -----
 Symbolic Z-matrix:
 Charge =  0 Multiplicity = 1

 SCF Done:  E(RHF) =  -914.438656245     A.U. after   16 cycles
 Normal termination of Gaussian 16 at Tue Apr  8 21:54:35 2025.
 Gaussian 16:  ES64L-G16RevC.01  3-Jul-2019

 ----------------------------------------------------------------------
 #t hf aug-cc-pvdz iop(5/13=1,5/36=2,99/5=2) pseudo=read geom=check gue
 ss=(read,tcheck) scf=(maxcycle=1)
 ----------------------------------------------------------------------
 -----
 title
 -----
 Structure from the checkpoint file:  "ANI1ccx_365_conf1_mol2.chk"
 Charge =  0 Multiplicity = 1

                         Standard orientation:
 ---------------------------------------------------------------------
 Center     Atomic      Atomic             Coordinates (Angstroms)
 Number     Number       Type             X           Y           Z
 ---------------------------------------------------------------------
      1          6           0       -1.847570   -0.767944    0.633351
      2          6           0        1.444180    3.394270    0.276474
      3          6           0        2.692100    2.815250    0.390294
      4          6           0        2.892280    1.589620   -0.232415
      5          6           0        0.678386    1.634290   -1.129040
      6          6           0        1.861100    0.966443   -0.926974
      7          6           0        2.020610   -0.492638   -1.423860
      8          6           0        0.443427    2.887020   -0.526413
      9          6           0        1.686500   -1.583240   -0.363213
     10          6           0       -5.135530    1.120871    0.012758
     11          6           0       -4.033710    0.471142    0.889308
     12          6           0       -3.929350   -1.702529   -0.508103
     13          6           0       -3.175900   -0.415881   -0.020027
     14          6           0       -0.747986   -1.242850   -0.308951
     15          6           0        2.804400   -1.695910    0.687030
     16          1           0        1.478640   -2.501180   -0.958160
     17          1           0        1.392020   -0.656559   -2.316510
     18          1           0        3.025060   -0.688649   -1.788610
     19          1           0       -0.111692    1.117930   -1.617520
     20          1           0        1.223921    4.298310    0.781362
     21          1           0       -0.465539    3.422450   -0.717609
     22          1           0        3.543600    3.204270    0.868096
     23          1           0        4.522030   -2.300331    0.888648
     24          1           0        0.481682   -0.895743    1.176750
     25          1           0        3.798710    1.020590   -0.155864
     26          1           0       -5.822750    1.687191    0.585976
     27          1           0       -4.072080   -2.345529    0.346515
     28          1           0       -5.699790    0.347816   -0.530612
     29          1           0       -3.353270    1.218141    1.281520
     30          1           0       -4.519310   -0.070680    1.700360
     31          1           0       -4.913760   -1.656659   -1.018980
     32          1           0       -3.257580   -2.127439   -1.180370
     33          1           0       -3.002980    0.128473   -0.960118
     34          1           0       -1.964600   -1.604710    1.382320
     35          1           0       -1.899430    0.670003    2.145160
     36          1           0       -1.353830    1.225340    0.732524
     37          1           0       -4.691850    1.772411   -0.735398
     38          7           0       -1.338100    0.423487    1.360460
     39          7           0        0.452430   -1.352840    0.315429
     40          8           0        2.803360   -1.192970    1.763640
     41          8           0       -0.932402   -1.568070   -1.477650
     42          8           0        3.872150   -2.317390    0.171265
 ---------------------------------------------------------------------

 SCF Done:  E(RHF) =  -918.748399512     A.U. after    2 cycles

 The electronic state is 1-A.
 Alpha  occ. eigenvalues --  -21.13611 -21.06988 -21.02434 -15.75165 -15.73339
 Alpha  occ. eigenvalues --  -11.55637 -11.53905 -11.51698 -11.48730 -11.47195
 Alpha  occ. eigenvalues --  -11.44203 -11.43732 -11.42706 -11.41931 -11.40675
 Alpha  occ. eigenvalues --  -11.40567 -11.39734 -11.37034 -11.36263 -11.35339
 Alpha  occ. eigenvalues --   -1.85280  -1.70613  -1.67616  -1.43419  -1.37256
 Alpha  occ. eigenvalues --   -1.34685  -1.21347  -1.17129  -1.09638  -1.09560
 Alpha  occ. eigenvalues --   -1.07530  -0.99721  -0.95757  -0.92895  -0.87286
 Alpha  occ. eigenvalues --   -0.84329  -0.83652  -0.79904  -0.78262  -0.71531
 Alpha  occ. eigenvalues --   -0.71293  -0.66622  -0.65553  -0.64895  -0.64183
 Alpha  occ. eigenvalues --   -0.62902  -0.62364  -0.60920  -0.59906  -0.58601
 Alpha  occ. eigenvalues --   -0.57959  -0.57109  -0.56558  -0.55190  -0.53229
 Alpha  occ. eigenvalues --   -0.52875  -0.52421  -0.51749  -0.49532  -0.48720
 Alpha  occ. eigenvalues --   -0.47626  -0.47239  -0.45914  -0.44706  -0.44397
 Alpha  occ. eigenvalues --   -0.44048  -0.40981  -0.40375  -0.35720  -0.35639
 Alpha  occ. eigenvalues --   -0.32779  -0.32514  -0.31820  -0.30072  -0.28167
 Alpha virt. eigenvalues --    0.03651   0.04211   0.04493   0.04735   0.04977
 Alpha virt. eigenvalues --    0.05268   0.05697   0.06085   0.06156   0.06493
 Alpha virt. eigenvalues --    0.06686   0.06811   0.07282   0.07770   0.08060

 Mulliken charges:
               1
     1  C   -2.903337
     2  C   -0.437904
     3  C   -2.352797
     4  C   -2.371556
     5  C   -1.895907
     6  C    3.399380
     7  C   -4.824962
     8  C   -3.910168
     9  C   -3.952491
    10  C   -4.710360
    11  C   -4.013061
    12  C   -4.988203
    13  C    1.263844
    14  C    8.550871
    15  C    7.917871
    16  H    1.896434
    17  H    1.271286
    18  H    1.169757
    19  H    2.261488
    20  H    1.519933
    21  H    1.650765
    22  H    1.540917
    23  H    0.907209
    24  H    0.898772
    25  H    1.989918
    26  H    1.093448
    27  H    1.336443
    28  H    1.520579
    29  H    1.826638
    30  H    1.391762
    31  H    1.308138
    32  H    1.378908
    33  H    2.042102
    34  H    2.129279
    35  H    0.631300
    36  H    1.019196
    37  H    1.350256
    38  N   -2.786563
    39  N   -3.003679
    40  O   -3.427175
    41  O   -4.150417
    42  O   -3.537912
 Sum of Mulliken charges =   0.00000

 Dipole moment (field-independent basis, Debye):
    X=              0.5008    Y=              0.8579    Z=              1.1257  Tot=              1.5013

 Test job not archived.
 1\1\GINC-SE080\SP\RHF\Aug-CC-pVDZ\C15H22N2O3\OHZDE\08-Apr-2025\0\\#t h
 f aug-cc-pvdz iop(5/13=1,5/36=2,99/5=2) pseudo=read geom=check guess=(
 read,tcheck) scf=(maxcycle=1)\\title\\0,1\C,0,-1.84757,-0.767944,0.633
 351\C,0,1.44418,3.39427,0.276474\C,0,2.6921,2.81525,0.390294\C,0,2.892
 28,1.58962,-0.232415\C,0,0.678386,1.63429,-1.12904\C,0,1.8611,0.966443
 ,-0.926974\C,0,2.02061,-0.492638,-1.42386\C,0,0.443427,2.88702,-0.5264
 13\C,0,1.6865,-1.58324,-0.363213\C,0,-5.13553,1.12087,0.0127583\C,0,-4
 .03371,0.471141,0.889308\C,0,-3.92935,-1.70253,-0.508103\C,0,-3.1759,-

 Normal termination of Gaussian 16 at Tue Apr  8 21:56:12 2025.
