 Gaussian 16, Revision C.01,

 ----------------------------------------------------------------------
 #t hf aug-cc-pvdz symm=none int=(grid=ultrafine) guess=(read,tcheck) s
 table=(opt,rrhf)
 ----------------------------------------------------------------------
 -----
 title
 -----
 Symbolic Z-matrix:
 Charge =  0 Multiplicity = 1

 SCF Done:  E(RHF) =  -716.199964218     A.U. after   13 cycles
 Normal termination of Gaussian 16 at Tue Apr  8 20:39:10 2025.
 Gaussian 16:  ES64L-G16RevC.01  3-Jul-2019

 ----------------------------------------------------------------------
 #t hf aug-cc-pvdz iop(5/13=1,5/36=2,99/5=2) pseudo=read geom=check gue
 ss=(read,tcheck) scf=(maxcycle=1)
 ----------------------------------------------------------------------
 -----
 title
 -----
 Structure from the checkpoint file:  "ANI1ccx_1645_conf3_mol2.chk"
 Charge =  0 Multiplicity = 1

                         Standard orientation:
 ---------------------------------------------------------------------
 Center     Atomic      Atomic             Coordinates (Angstroms)
 Number     Number       Type             X           Y           Z
 ---------------------------------------------------------------------
      1          6           0        1.537249    1.958311   -0.262208
      2          6           0        3.258410    0.051959   -0.140887
      3          6           0        2.760681   -0.945976    0.982449
      4          6           0        2.192681   -2.232049    0.293275
      5          6           0       -0.133316   -1.990250    0.222062
      6          6           0       -1.207029   -1.946081   -0.848155
      7          6           0       -2.587679   -1.624572   -0.301592
      8          6           0       -3.027960    0.767227    0.275551
      9          1           0       -1.298258   -2.910211   -1.432900
     10          1           0       -0.808961   -1.196470   -1.504450
     11          1           0       -3.311689   -1.451072   -1.102180
     12          1           0       -3.012798   -2.474782    0.232381
     13          1           0       -4.241441    2.217638    0.774768
     14          1           0       -1.506671    1.281339   -1.114850
     15          1           0       -2.809181    2.218958   -1.156170
     16          1           0       -0.193444   -2.860640    0.874072
     17          1           0       -3.084019   -0.708900    1.528380
     18          1           0       -0.298561   -1.134440    0.917414
     19          1           0        2.919382   -2.698388   -0.343082
     20          1           0        1.979472   -2.957819    1.081670
     21          1           0        2.008970   -0.552288    1.677060
     22          1           0        3.627891   -1.177148    1.595390
     23          1           0        2.835810   -0.311444   -1.139240
     24          1           0        4.330230    0.004849   -0.191080
     25          1           0        3.204899    1.868542    0.868738
     26          1           0        0.942060    0.327532   -0.840638
     27          1           0        2.072258    3.943241   -0.225885
     28          1           0        0.471217    3.542830    0.049621
     29          7           0        1.421428    3.270761    0.213321
     30          7           0        0.525088    1.264220   -0.771374
     31          7           0        2.839929    1.473112    0.002606
     32          7           0       -2.562190   -0.523926    0.664861
     33          7           0       -2.479431    1.322239   -0.903251
     34          7           0       -3.899221    1.305728    1.091420
     35          8           0        1.061921   -1.998459   -0.494385
 ---------------------------------------------------------------------

 SCF Done:  E(RHF) =  -719.597188744     A.U. after    2 cycles

 The electronic state is 1-A.
 Alpha  occ. eigenvalues --  -21.04576 -15.77009 -15.75418 -15.73817 -15.71685
 Alpha  occ. eigenvalues --  -15.70980 -15.68204 -11.49043 -11.46758 -11.46238
 Alpha  occ. eigenvalues --  -11.44282 -11.42824 -11.42501 -11.38322 -11.35801
 Alpha  occ. eigenvalues --   -1.77663  -1.48488  -1.45231  -1.31347  -1.29658
 Alpha  occ. eigenvalues --   -1.23527  -1.20893  -1.16072  -1.11314  -0.99103
 Alpha  occ. eigenvalues --   -0.94461  -0.86468  -0.84770  -0.79667  -0.78979
 Alpha  occ. eigenvalues --   -0.72445  -0.69044  -0.68691  -0.66621  -0.65189
 Alpha  occ. eigenvalues --   -0.63549  -0.62972  -0.60624  -0.59765  -0.58502
 Alpha  occ. eigenvalues --   -0.57327  -0.55832  -0.53694  -0.52181  -0.51656
 Alpha  occ. eigenvalues --   -0.49734  -0.49174  -0.47583  -0.46449  -0.46065
 Alpha  occ. eigenvalues --   -0.42850  -0.41977  -0.39041  -0.37386  -0.36521
 Alpha  occ. eigenvalues --   -0.34375  -0.32426  -0.29927  -0.28136
 Alpha virt. eigenvalues --    0.03773   0.04116   0.04572   0.04737   0.05057
 Alpha virt. eigenvalues --    0.05386   0.05491   0.05736   0.06609   0.06834
 Alpha virt. eigenvalues --    0.07264   0.07358   0.07691   0.08268   0.08466

 Mulliken charges:
               1
     1  C    4.732529
     2  C   -2.335871
     3  C   -3.642928
     4  C   -1.880379
     5  C   -0.909425
     6  C   -3.792623
     7  C   -3.140091
     8  C    4.825244
     9  H    1.286251
    10  H    2.111536
    11  H    1.471035
    12  H    1.441209
    13  H    0.634289
    14  H    0.995875
    15  H    0.566460
    16  H    1.661065
    17  H    0.493367
    18  H    2.466326
    19  H    1.550658
    20  H    1.621129
    21  H    1.847781
    22  H    1.317959
    23  H    1.785608
    24  H    1.318908
    25  H    0.626374
    26  H    1.033305
    27  H    0.568611
    28  H    0.630526
    29  N   -2.923550
    30  N   -2.748760
    31  N   -2.588938
    32  N   -1.855769
    33  N   -2.837697
    34  N   -3.082204
    35  O   -3.247811
 Sum of Mulliken charges =   0.00000

 Dipole moment (field-independent basis, Debye):
    X=              4.7926    Y=              0.2557    Z=             -0.7870  Tot=              4.8636

 Test job not archived.
 1\1\GINC-SE340\SP\RHF\Aug-CC-pVDZ\C8H20N6O1\OHZDE\08-Apr-2025\0\\#t hf
  aug-cc-pvdz iop(5/13=1,5/36=2,99/5=2) pseudo=read geom=check guess=(r
 ead,tcheck) scf=(maxcycle=1)\\title\\0,1\C,0,1.53725,1.95831,-0.262208
 \C,0,3.25841,0.0519571,-0.140887\C,0,2.76068,-0.945978,0.982449\C,0,2.
 19268,-2.23205,0.293275\C,0,-0.133317,-1.99025,0.222062\C,0,-1.20703,-
 1.94608,-0.848155\C,0,-2.58768,-1.62457,-0.301592\C,0,-3.02796,0.76722
 9,0.275551\H,0,-1.29826,-2.91021,-1.4329\H,0,-0.808962,-1.19647,-1.504
 45\H,0,-3.31169,-1.45107,-1.10218\H,0,-3.0128,-2.47478,0.232381\H,0,-4

 Normal termination of Gaussian 16 at Tue Apr  8 20:39:49 2025.
