 Gaussian 16, Revision C.01,

 ----------------------------------------------------------------------
 #t hf aug-cc-pvdz symm=none int=(grid=ultrafine) guess=(read,tcheck) s
 table=(opt,rrhf)
 ----------------------------------------------------------------------
 -----
 title
 -----
 Symbolic Z-matrix:
 Charge =  0 Multiplicity = 1

 SCF Done:  E(RHF) =  -869.309850160     A.U. after   15 cycles
 Normal termination of Gaussian 16 at Tue Apr  8 20:30:21 2025.
 Gaussian 16:  ES64L-G16RevC.01  3-Jul-2019

 ----------------------------------------------------------------------
 #t hf aug-cc-pvdz iop(5/13=1,5/36=2,99/5=2) pseudo=read geom=check gue
 ss=(read,tcheck) scf=(maxcycle=1)
 ----------------------------------------------------------------------
 -----
 title
 -----
 Structure from the checkpoint file:  "ANI1ccx_1593_conf7_mol1.chk"
 Charge =  0 Multiplicity = 1

                         Standard orientation:
 ---------------------------------------------------------------------
 Center     Atomic      Atomic             Coordinates (Angstroms)
 Number     Number       Type             X           Y           Z
 ---------------------------------------------------------------------
      1          6           0        1.765229    1.129153    0.333952
      2          6           0        0.573034    1.951751   -0.112712
      3          6           0        2.264230    0.310131   -0.859850
      4          6           0        2.537502   -1.119826   -0.424122
      5          6           0       -0.984786   -0.039493   -0.070955
      6          6           0       -1.916969   -0.383630   -1.283789
      7          6           0       -1.620319   -0.342970    1.266571
      8          6           0       -2.833261    0.623803    1.584931
      9          1           0       -1.979077   -1.997112   -0.382690
     10          1           0       -3.620961    0.715726    0.805736
     11          1           0       -2.453902    1.608917    1.775611
     12          1           0       -3.460290    0.270906    2.486231
     13          1           0       -2.723357   -1.913463    1.692361
     14          1           0       -0.861964   -0.114621    2.062551
     15          1           0       -0.103911   -0.687054   -0.212654
     16          1           0       -1.350702    1.910849   -0.592770
     17          1           0        3.776013   -2.210895    0.510700
     18          1           0        1.565640    0.255865   -1.734169
     19          1           0        3.181389    0.720485   -1.234999
     20          1           0        2.499208    1.848754    0.662832
     21          1           0        2.178251   -0.290446    1.735041
     22          1           0        1.298049    0.966826    2.313341
     23          7           0        1.388410    0.355074    1.515911
     24          7           0       -0.639963    1.354890   -0.178681
     25          8           0        0.723247    3.098361   -0.358885
     26          8           0        1.706633   -2.035107   -0.505413
     27          8           0        3.674682   -1.281875    0.249743
     28          8           0       -2.268620    0.420405   -2.114599
     29          8           0       -1.858028   -1.770882    1.299721
     30          8           0       -2.214348   -1.659402   -1.302049
 ---------------------------------------------------------------------

 SCF Done:  E(RHF) =  -873.117648125     A.U. after    2 cycles

 The electronic state is 1-A.
 Alpha  occ. eigenvalues --  -21.15451 -21.10853 -21.10058 -21.06746 -21.04263
 Alpha  occ. eigenvalues --  -21.02880 -15.75702 -15.75555 -11.56726 -11.53531
 Alpha  occ. eigenvalues --  -11.52922 -11.51705 -11.48682 -11.45059 -11.43092
 Alpha  occ. eigenvalues --  -11.40754  -1.85730  -1.82852  -1.74744  -1.73401
 Alpha  occ. eigenvalues --   -1.66499  -1.65032  -1.42849  -1.37022  -1.17077
 Alpha  occ. eigenvalues --   -1.15600  -1.05027  -0.99714  -0.89662  -0.83004
 Alpha  occ. eigenvalues --   -0.81533  -0.78440  -0.73269  -0.73104  -0.68595
 Alpha  occ. eigenvalues --   -0.66319  -0.66064  -0.63316  -0.61903  -0.61440
 Alpha  occ. eigenvalues --   -0.60912  -0.58424  -0.57453  -0.55806  -0.54765
 Alpha  occ. eigenvalues --   -0.54046  -0.52994  -0.51160  -0.50095  -0.49219
 Alpha  occ. eigenvalues --   -0.47493  -0.46880  -0.45007  -0.42505  -0.38928
 Alpha  occ. eigenvalues --   -0.36193  -0.35072  -0.32060  -0.31686  -0.30644
 Alpha  occ. eigenvalues --   -0.28685  -0.28134
 Alpha virt. eigenvalues --    0.03109   0.03671   0.04115   0.04707   0.04999
 Alpha virt. eigenvalues --    0.05489   0.06143   0.06612   0.07093   0.07939
 Alpha virt. eigenvalues --    0.08357   0.08782   0.09105   0.09546   0.10340

 Mulliken charges:
               1
     1  C   -1.320211
     2  C    6.892284
     3  C   -4.525141
     4  C    7.255913
     5  C   -3.188888
     6  C    6.452764
     7  C    2.074722
     8  C   -4.846602
     9  H    1.392432
    10  H    1.374269
    11  H    1.486013
    12  H    1.116992
    13  H    0.859583
    14  H    1.641673
    15  H    3.305739
    16  H    0.868690
    17  H    0.807504
    18  H    1.502066
    19  H    1.270131
    20  H    1.426863
    21  H    0.527804
    22  H    0.685333
    23  N   -2.489838
    24  N   -3.177307
    25  O   -4.328802
    26  O   -3.385826
    27  O   -3.341977
    28  O   -3.368895
    29  O   -3.501658
    30  O   -3.465630
 Sum of Mulliken charges =   0.00000

 Dipole moment (field-independent basis, Debye):
    X=              1.9660    Y=             -2.1756    Z=              3.8663  Tot=              4.8525

 Test job not archived.
 1\1\GINC-SE028\SP\RHF\Aug-CC-pVDZ\C8H14N2O6\OHZDE\08-Apr-2025\0\\#t hf
  aug-cc-pvdz iop(5/13=1,5/36=2,99/5=2) pseudo=read geom=check guess=(r
 ead,tcheck) scf=(maxcycle=1)\\title\\0,1\C,0,1.76523,1.12915,0.333951\
 C,0,0.573036,1.95175,-0.112713\C,0,2.26423,0.310128,-0.859851\C,0,2.53
 75,-1.11983,-0.424123\C,0,-0.984786,-0.0394926,-0.0709553\C,0,-1.91697
 ,-0.383628,-1.28379\C,0,-1.62032,-0.342968,1.26657\C,0,-2.83326,0.6238
 06,1.58493\H,0,-1.97908,-1.99711,-0.382691\H,0,-3.62096,0.71573,0.8057
 35\H,0,-2.4539,1.60892,1.77561\H,0,-3.46029,0.27091,2.48623\H,0,-2.723

 Normal termination of Gaussian 16 at Tue Apr  8 20:30:59 2025.
