 Gaussian 16, Revision C.01,

 ----------------------------------------------------------------------
 #t hf aug-cc-pvdz symm=none int=(grid=ultrafine) guess=(read,tcheck) s
 table=(opt,rrhf)
 ----------------------------------------------------------------------
 -----
 title
 -----
 Symbolic Z-matrix:
 Charge =  0 Multiplicity = 1

 SCF Done:  E(RHF) =  -334.916975097     A.U. after   14 cycles
 Normal termination of Gaussian 16 at Tue Apr  8 21:54:54 2025.
 Gaussian 16:  ES64L-G16RevC.01  3-Jul-2019

 ----------------------------------------------------------------------
 #t hf aug-cc-pvdz iop(5/13=1,5/36=2,99/5=2) pseudo=read geom=check gue
 ss=(read,tcheck) scf=(maxcycle=1)
 ----------------------------------------------------------------------
 -----
 title
 -----
 Structure from the checkpoint file:  "ANI1ccx_726_conf3_mol2.chk"
 Charge =  0 Multiplicity = 1

                         Standard orientation:
 ---------------------------------------------------------------------
 Center     Atomic      Atomic             Coordinates (Angstroms)
 Number     Number       Type             X           Y           Z
 ---------------------------------------------------------------------
      1          6           0        0.503879   -0.568400    0.045822
      2          6           0       -1.640640   -0.706331   -0.005281
      3          6           0        0.062685    0.697992    0.027427
      4          1           0        2.204150   -1.273450    0.895592
      5          1           0        2.040490   -1.695410   -0.671816
      6          1           0       -2.706190   -1.048763    0.122194
      7          1           0       -1.922302    1.447978   -0.178071
      8          1           0        0.450980    2.557969    0.748820
      9          1           0        1.693608    1.883380   -0.183955
     10          7           0        1.900220   -0.910282   -0.043240
     11          7           0       -0.552883   -1.447591   -0.000867
     12          7           0       -1.316901    0.634014   -0.019086
     13          7           0        0.638668    1.950819   -0.099746
 ---------------------------------------------------------------------

 SCF Done:  E(RHF) =  -336.458151318     A.U. after    2 cycles

 The electronic state is 1-A.
 Alpha  occ. eigenvalues --  -15.78260 -15.75664 -15.73840 -15.71273 -11.45734
 Alpha  occ. eigenvalues --  -11.42126 -11.38190  -1.57049  -1.33502  -1.31744
 Alpha  occ. eigenvalues --   -1.21303  -1.01988  -0.84307  -0.78031  -0.72107
 Alpha  occ. eigenvalues --   -0.66103  -0.63355  -0.57911  -0.57559  -0.54534
 Alpha  occ. eigenvalues --   -0.52916  -0.44699  -0.39362  -0.36736  -0.34600
 Alpha  occ. eigenvalues --   -0.26878
 Alpha virt. eigenvalues --    0.03429   0.04998   0.05456   0.05754   0.07162
 Alpha virt. eigenvalues --    0.07295   0.10654   0.10909   0.11627   0.12689
 Alpha virt. eigenvalues --    0.13495   0.14394   0.14558   0.15712   0.16414

 Mulliken charges:
               1
     1  C    3.900636
     2  C    1.048232
     3  C    3.564748
     4  H    0.451627
     5  H    0.591778
     6  H    1.539163
     7  H    0.826989
     8  H    0.500198
     9  H    0.500600
    10  N   -3.259228
    11  N   -3.314026
    12  N   -3.159459
    13  N   -3.191257
 Sum of Mulliken charges =  -0.00000

 Dipole moment (field-independent basis, Debye):
    X=             -0.8751    Y=              2.3559    Z=              0.8864  Tot=              2.6649

 Test job not archived.
 1\1\GINC-SE097\SP\RHF\Aug-CC-pVDZ\C3H6N4\OHZDE\08-Apr-2025\0\\#t hf au
 g-cc-pvdz iop(5/13=1,5/36=2,99/5=2) pseudo=read geom=check guess=(read
 ,tcheck) scf=(maxcycle=1)\\title\\0,1\C,0,0.503879,-0.568399,0.0458224
 \C,0,-1.64064,-0.706329,-0.00528116\C,0,0.0626863,0.697993,0.0274274\H
 ,0,2.20415,-1.27345,0.895592\H,0,2.04049,-1.69541,-0.671816\H,0,-2.706
 19,-1.04876,0.122194\H,0,-1.9223,1.44798,-0.178071\H,0,0.450982,2.5579
 7,0.74882\H,0,1.69361,1.88338,-0.183955\N,0,1.90022,-0.910282,-0.04324
 \N,0,-0.552883,-1.44759,-0.00086732\N,0,-1.3169,0.634016,-0.0190855\N,

 Normal termination of Gaussian 16 at Tue Apr  8 21:54:58 2025.
