 Gaussian 16, Revision C.01,

 ----------------------------------------------------------------------
 #t hf aug-cc-pvdz symm=none int=(grid=ultrafine) guess=(read,tcheck) s
 table=(opt,rrhf)
 ----------------------------------------------------------------------
 -----
 title
 -----
 Symbolic Z-matrix:
 Charge =  0 Multiplicity = 1

 SCF Done:  E(RHF) =  -456.272402977     A.U. after   11 cycles
 Normal termination of Gaussian 16 at Tue Apr  8 21:10:47 2025.
 Gaussian 16:  ES64L-G16RevC.01  3-Jul-2019

 ----------------------------------------------------------------------
 #t hf aug-cc-pvdz iop(5/13=1,5/36=2,99/5=2) pseudo=read geom=check gue
 ss=(read,tcheck) scf=(maxcycle=1)
 ----------------------------------------------------------------------
 -----
 title
 -----
 Structure from the checkpoint file:  "ANI1ccx_1844_conf92_mol1.chk"
 Charge =  0 Multiplicity = 1

                         Standard orientation:
 ---------------------------------------------------------------------
 Center     Atomic      Atomic             Coordinates (Angstroms)
 Number     Number       Type             X           Y           Z
 ---------------------------------------------------------------------
      1          1           0       -0.731438   -1.927471    1.586140
      2          1           0       -2.257050    0.356439   -0.124842
      3          1           0       -3.309770   -0.700729   -0.793651
      4          1           0        1.414280    1.628179    0.140023
      5          1           0        0.885295    2.119879    1.521410
      6          1           0       -0.618222    2.000859   -0.191847
      7          1           0       -1.532080   -1.636031    0.281150
      8          1           0       -1.927730    2.709749   -0.624530
      9          1           0        2.081910   -2.615081   -0.417746
     10          1           0        0.710932   -1.955341   -0.207032
     11          1           0        2.254030   -0.409836   -0.250869
     12          1           0        3.301550    0.671306   -0.641742
     13          8           0        0.775224    2.255699    0.557845
     14          8           0        1.546610   -1.869601   -0.724355
     15          8           0       -2.765610   -0.506864    0.020058
     16          8           0       -1.516970    1.825689   -0.630125
     17          8           0       -0.753626   -2.172531    0.658697
     18          8           0        2.680410    0.437368    0.083322
 ---------------------------------------------------------------------

 SCF Done:  E(RHF) =  -458.259927069     A.U. after    2 cycles

 The electronic state is 1-A.
 Alpha  occ. eigenvalues --  -21.08468 -21.08219 -21.07866 -21.07422 -21.07348
 Alpha  occ. eigenvalues --  -21.06911  -1.69097  -1.67522  -1.66509  -1.63589
 Alpha  occ. eigenvalues --   -1.63527  -1.62072  -0.64476  -0.63958  -0.63844
 Alpha  occ. eigenvalues --   -0.63544  -0.63256  -0.62988  -0.53514  -0.50417
 Alpha  occ. eigenvalues --   -0.49956  -0.43680  -0.43436  -0.40326  -0.35293
 Alpha  occ. eigenvalues --   -0.35099  -0.34427  -0.34006  -0.33274  -0.33043
 Alpha virt. eigenvalues --    0.03930   0.04788   0.05384   0.05435   0.06171
 Alpha virt. eigenvalues --    0.06916   0.08718   0.09350   0.09802   0.10504
 Alpha virt. eigenvalues --    0.10634   0.11762   0.18580   0.19170   0.19864

 Mulliken charges:
               1
     1  H    0.901749
     2  H    1.616684
     3  H    0.783347
     4  H    1.485873
     5  H    0.890666
     6  H    1.711115
     7  H    1.569632
     8  H    0.826737
     9  H    0.765196
    10  H    1.648397
    11  H    1.593472
    12  H    0.717252
    13  O   -2.624123
    14  O   -2.345307
    15  O   -2.294535
    16  O   -2.425727
    17  O   -2.629942
    18  O   -2.190487
 Sum of Mulliken charges =  -0.00000

 Dipole moment (field-independent basis, Debye):
    X=              0.2980    Y=              0.2682    Z=              0.3743  Tot=              0.5485

 Test job not archived.
 1\1\GINC-SE150\SP\RHF\Aug-CC-pVDZ\H12O6\OHZDE\08-Apr-2025\0\\#t hf aug
 -cc-pvdz iop(5/13=1,5/36=2,99/5=2) pseudo=read geom=check guess=(read,
 tcheck) scf=(maxcycle=1)\\title\\0,1\H,0,-0.731438,-1.92747,1.58614\H,
 0,-2.25705,0.35644,-0.124842\H,0,-3.30977,-0.700728,-0.793651\H,0,1.41
 428,1.62818,0.140023\H,0,0.885295,2.11988,1.52141\H,0,-0.618222,2.0008
 6,-0.191847\H,0,-1.53208,-1.63603,0.28115\H,0,-1.92773,2.70975,-0.6245
 3\H,0,2.08191,-2.61508,-0.417746\H,0,0.710932,-1.95534,-0.207032\H,0,2
 .25403,-0.409835,-0.250869\H,0,3.30155,0.671307,-0.641742\O,0,0.775224

 Normal termination of Gaussian 16 at Tue Apr  8 21:10:52 2025.
