 Gaussian 16, Revision C.01,

 ----------------------------------------------------------------------
 #t hf aug-cc-pvdz symm=none int=(grid=ultrafine) guess=(read,tcheck) s
 table=(opt,rrhf)
 ----------------------------------------------------------------------
 -----
 title
 -----
 Symbolic Z-matrix:
 Charge =  0 Multiplicity = 1

 SCF Done:  E(RHF) =  -456.237787974     A.U. after   11 cycles
 Normal termination of Gaussian 16 at Tue Apr  8 21:08:38 2025.
 Gaussian 16:  ES64L-G16RevC.01  3-Jul-2019

 ----------------------------------------------------------------------
 #t hf aug-cc-pvdz iop(5/13=1,5/36=2,99/5=2) pseudo=read geom=check gue
 ss=(read,tcheck) scf=(maxcycle=1)
 ----------------------------------------------------------------------
 -----
 title
 -----
 Structure from the checkpoint file:  "ANI1ccx_1844_conf305_mol1.chk"
 Charge =  0 Multiplicity = 1

                         Standard orientation:
 ---------------------------------------------------------------------
 Center     Atomic      Atomic             Coordinates (Angstroms)
 Number     Number       Type             X           Y           Z
 ---------------------------------------------------------------------
      1          1           0       -0.662230    2.278013    1.417430
      2          1           0        1.955454    1.049584   -0.338445
      3          1           0        1.835440    2.702344   -0.790846
      4          1           0       -0.111013   -1.858229    0.230336
      5          1           0        0.982875   -2.083673    1.439860
      6          1           0        2.032627   -1.072807    0.307505
      7          1           0        0.025803    2.110970    0.012269
      8          1           0        3.048699   -0.464963   -0.812717
      9          1           0       -3.284347    0.779303   -0.509107
     10          1           0       -1.937166    1.036617    0.203800
     11          1           0       -2.062793   -1.155313   -0.401769
     12          1           0       -1.987629   -2.700273   -0.381920
     13          8           0        0.897864   -2.113103    0.425083
     14          8           0       -2.687258    0.353659    0.132685
     15          8           0        1.374287    1.779216   -0.667763
     16          8           0        2.789629   -0.358387    0.176508
     17          8           0       -0.862601    2.192723    0.496241
     18          8           0       -1.491386   -1.931804   -0.609804
 ---------------------------------------------------------------------

 SCF Done:  E(RHF) =  -458.242339010     A.U. after    2 cycles

 The electronic state is 1-A.
 Alpha  occ. eigenvalues --  -21.08843 -21.08289 -21.07174 -21.07150 -21.06622
 Alpha  occ. eigenvalues --  -21.05708  -1.69450  -1.68240  -1.66012  -1.63631
 Alpha  occ. eigenvalues --   -1.62396  -1.60123  -0.67207  -0.65312  -0.65082
 Alpha  occ. eigenvalues --   -0.64186  -0.63023  -0.60253  -0.51934  -0.50469
 Alpha  occ. eigenvalues --   -0.47974  -0.44104  -0.43289  -0.40946  -0.35332
 Alpha  occ. eigenvalues --   -0.34482  -0.34053  -0.33783  -0.32383  -0.31828
 Alpha virt. eigenvalues --    0.03790   0.04685   0.05326   0.05593   0.06481
 Alpha virt. eigenvalues --    0.06787   0.08734   0.08787   0.09878   0.10741
 Alpha virt. eigenvalues --    0.11270   0.11516   0.18211   0.18880   0.19769

 Mulliken charges:
               1
     1  H    0.855972
     2  H    1.512405
     3  H    0.776056
     4  H    1.684339
     5  H    0.706641
     6  H    1.760969
     7  H    1.734993
     8  H    0.710186
     9  H    0.775029
    10  H    1.743656
    11  H    1.431794
    12  H    0.787262
    13  O   -2.452181
    14  O   -2.353923
    15  O   -2.504657
    16  O   -2.277349
    17  O   -2.575771
    18  O   -2.315424
 Sum of Mulliken charges =  -0.00000

 Dipole moment (field-independent basis, Debye):
    X=             -0.2684    Y=              0.1809    Z=              0.2534  Tot=              0.4111

 Test job not archived.
 1\1\GINC-SE368\SP\RHF\Aug-CC-pVDZ\H12O6\OHZDE\08-Apr-2025\0\\#t hf aug
 -cc-pvdz iop(5/13=1,5/36=2,99/5=2) pseudo=read geom=check guess=(read,
 tcheck) scf=(maxcycle=1)\\title\\0,1\H,0,-0.662238,2.27801,1.41743\H,0
 ,1.95545,1.04959,-0.338445\H,0,1.83543,2.70235,-0.790846\H,0,-0.111007
 ,-1.85823,0.230336\H,0,0.982882,-2.08367,1.43986\H,0,2.03263,-1.0728,0
 .307505\H,0,0.0257947,2.11097,0.0122687\H,0,3.0487,-0.464953,-0.812717
 \H,0,-3.28435,0.779291,-0.509107\H,0,-1.93717,1.03661,0.2038\H,0,-2.06
 279,-1.15532,-0.401769\H,0,-1.98762,-2.70028,-0.38192\O,0,0.897871,-2.

 Normal termination of Gaussian 16 at Tue Apr  8 21:08:42 2025.
