 Gaussian 16, Revision C.01,

 ----------------------------------------------------------------------
 #t hf aug-cc-pvdz symm=none int=(grid=ultrafine) guess=(read,tcheck) s
 table=(opt,rrhf)
 ----------------------------------------------------------------------
 -----
 title
 -----
 Symbolic Z-matrix:
 Charge =  0 Multiplicity = 1

 SCF Done:  E(RHF) =  -559.297247104     A.U. after   16 cycles
 Normal termination of Gaussian 16 at Tue Apr  8 19:22:02 2025.
 Gaussian 16:  ES64L-G16RevC.01  3-Jul-2019

 ----------------------------------------------------------------------
 #t hf aug-cc-pvdz iop(5/13=1,5/36=2,99/5=2) pseudo=read geom=check gue
 ss=(read,tcheck) scf=(maxcycle=1)
 ----------------------------------------------------------------------
 -----
 title
 -----
 Structure from the checkpoint file:  "ANI1ccx_1092_conf6_mol2.chk"
 Charge =  0 Multiplicity = 1

                         Standard orientation:
 ---------------------------------------------------------------------
 Center     Atomic      Atomic             Coordinates (Angstroms)
 Number     Number       Type             X           Y           Z
 ---------------------------------------------------------------------
      1          6           0        1.630660   -0.635709   -0.010103
      2          6           0       -0.552210   -0.833320    0.029334
      3          6           0       -2.731560   -0.445997   -0.018285
      4          6           0       -0.829238    0.519588    0.031070
      5          6           0        0.280126    1.438201   -0.002290
      6          1           0        3.571770   -0.465313   -0.007708
      7          1           0       -1.934436   -2.436723   -0.027644
      8          1           0       -3.793420   -0.607997   -0.035711
      9          1           0        2.337117    1.315655    0.027255
     10          7           0        0.652923   -1.462998    0.021142
     11          7           0       -1.772938   -1.443423    0.001433
     12          7           0       -2.188972    0.749253   -0.015923
     13          7           0        1.512478    0.721623    0.000095
     14          8           0        2.872271   -1.152054   -0.021348
     15          8           0        0.328712    2.650381   -0.001374
 ---------------------------------------------------------------------

 SCF Done:  E(RHF) =  -561.728470019     A.U. after    2 cycles

 The electronic state is 1-A.
 Alpha  occ. eigenvalues --  -21.15397 -21.03436 -15.81636 -15.81537 -15.74960
 Alpha  occ. eigenvalues --  -15.73935 -11.55355 -11.53440 -11.50103 -11.44449
 Alpha  occ. eigenvalues --  -11.40644  -1.82904  -1.72008  -1.59684  -1.46407
 Alpha  occ. eigenvalues --   -1.35542  -1.28326  -1.12255  -0.94934  -0.91982
 Alpha  occ. eigenvalues --   -0.86453  -0.79049  -0.73348  -0.70816  -0.67882
 Alpha  occ. eigenvalues --   -0.65220  -0.60270  -0.58285  -0.56104  -0.52683
 Alpha  occ. eigenvalues --   -0.52356  -0.50222  -0.45262  -0.42659  -0.38418
 Alpha  occ. eigenvalues --   -0.37380  -0.36538  -0.29791  -0.26607
 Alpha virt. eigenvalues --    0.02474   0.04040   0.05396   0.06300   0.08314
 Alpha virt. eigenvalues --    0.09736   0.10081   0.10471   0.10759   0.11503
 Alpha virt. eigenvalues --    0.11969   0.13252   0.13780   0.14174   0.14444

 Mulliken charges:
               1
     1  C    4.976082
     2  C    3.291576
     3  C    0.734664
     4  C    1.184928
     5  C    6.020482
     6  H    0.665279
     7  H    0.913162
     8  H    1.621175
     9  H    0.628717
    10  N   -3.536342
    11  N   -3.632941
    12  N   -3.454284
    13  N   -2.404425
    14  O   -3.150178
    15  O   -3.857896
 Sum of Mulliken charges =  -0.00000

 Dipole moment (field-independent basis, Debye):
    X=              2.0848    Y=             -3.4121    Z=             -0.0621  Tot=              3.9991

 Test job not archived.
 1\1\GINC-SE340\SP\RHF\Aug-CC-pVDZ\C5H4N4O2\OHZDE\08-Apr-2025\0\\#t hf
 aug-cc-pvdz iop(5/13=1,5/36=2,99/5=2) pseudo=read geom=check guess=(re
 ad,tcheck) scf=(maxcycle=1)\\title\\0,1\C,0,1.63066,-0.635713,-0.01010
 35\C,0,-0.552211,-0.83332,0.0293344\C,0,-2.73156,-0.445993,-0.0182846\
 C,0,-0.829236,0.519589,0.0310697\C,0,0.280129,1.4382,-0.00229031\H,0,3
 .57177,-0.46532,-0.00770767\H,0,-1.93444,-2.43672,-0.0276436\H,0,-3.79
 342,-0.607991,-0.0357112\H,0,2.33712,1.31565,0.0272552\N,0,0.652921,-1
 .463,0.0211415\N,0,-1.77294,-1.44342,0.00143335\N,0,-2.18897,0.749256,

 Normal termination of Gaussian 16 at Tue Apr  8 19:22:09 2025.
