 Gaussian 16, Revision C.01,

 ----------------------------------------------------------------------
 #t hf aug-cc-pvdz symm=none int=(grid=ultrafine) guess=(read,tcheck) s
 table=(opt,rrhf)
 ----------------------------------------------------------------------
 -----
 title
 -----
 Symbolic Z-matrix:
 Charge =  0 Multiplicity = 1

 SCF Done:  E(RHF) =  -905.331479313     A.U. after   15 cycles
 Normal termination of Gaussian 16 at Tue Apr  8 22:13:01 2025.
 Gaussian 16:  ES64L-G16RevC.01  3-Jul-2019

 ----------------------------------------------------------------------
 #t hf aug-cc-pvdz iop(5/13=1,5/36=2,99/5=2) pseudo=read geom=check gue
 ss=(read,tcheck) scf=(maxcycle=1)
 ----------------------------------------------------------------------
 -----
 title
 -----
 Structure from the checkpoint file:  "ANI1ccx_56_conf11_mol1.chk"
 Charge =  0 Multiplicity = 1

                         Standard orientation:
 ---------------------------------------------------------------------
 Center     Atomic      Atomic             Coordinates (Angstroms)
 Number     Number       Type             X           Y           Z
 ---------------------------------------------------------------------
      1          6           0        1.454370   -0.580416    0.246716
      2          6           0        0.618668    3.063701    0.669542
      3          6           0       -0.812186    1.862991   -0.431409
      4          6           0       -2.010750    0.941121   -0.612001
      5          6           0       -3.112470   -0.989658    0.402387
      6          6           0       -0.243535    2.645501   -1.322060
      7          6           0        3.352800   -1.144289   -1.209270
      8          6           0        2.834020   -1.223759    0.180837
      9          6           0        0.493010   -1.561169   -0.353306
     10          6           0       -1.767810   -0.332926    0.187124
     11          1           0       -1.375460   -0.156117    1.200580
     12          1           0       -4.232810   -2.302309   -0.319362
     13          1           0        1.159930    4.146271   -1.149390
     14          1           0        1.228060    3.423351    1.503290
     15          1           0       -0.353753    2.830681   -2.389410
     16          1           0       -2.209460    0.721584   -1.691140
     17          1           0       -2.945130    1.386851   -0.218682
     18          1           0       -1.244040   -1.855369   -1.169490
     19          1           0        2.571900   -1.595969   -1.865070
     20          1           0        3.598240   -0.160124   -1.582370
     21          1           0        3.853690   -0.935815    1.859840
     22          1           0        2.751680   -2.307689    0.481203
     23          1           0        1.480080    0.392114   -0.314187
     24          1           0        1.973460    0.091192    2.070840
     25          1           0        0.407632    0.320357    1.617150
     26          1           0        4.306850   -1.667909   -1.300420
     27          7           0        1.122510   -0.386341    1.687550
     28          7           0       -0.866354   -1.322799   -0.390306
     29          7           0       -0.215846    2.064351    0.854608
     30          7           0        0.623273    3.494971   -0.594059
     31          8           0       -4.040240   -0.358570    0.869545
     32          8           0        0.925678   -2.570099   -0.881575
     33          8           0        3.799190   -0.533191    0.962311
     34          8           0       -3.241210   -2.209259   -0.223946
 ---------------------------------------------------------------------

 SCF Done:  E(RHF) =  -909.413357064     A.U. after    2 cycles

 The electronic state is 1-A.
 Alpha  occ. eigenvalues --  -21.13184 -21.06622 -21.05647 -21.01352 -15.81704
 Alpha  occ. eigenvalues --  -15.74824 -15.73257 -15.71589 -11.55667 -11.53326
 Alpha  occ. eigenvalues --  -11.51591 -11.47607 -11.46811 -11.46397 -11.44809
 Alpha  occ. eigenvalues --  -11.41574 -11.40271 -11.34887  -1.82739  -1.72851
 Alpha  occ. eigenvalues --   -1.69169  -1.66540  -1.58175  -1.40277  -1.32691
 Alpha  occ. eigenvalues --   -1.28609  -1.18643  -1.12730  -1.09778  -0.99898
 Alpha  occ. eigenvalues --   -0.97132  -0.87369  -0.85281  -0.81255  -0.81150
 Alpha  occ. eigenvalues --   -0.77076  -0.76072  -0.70153  -0.67852  -0.65537
 Alpha  occ. eigenvalues --   -0.64634  -0.63075  -0.61712  -0.61083  -0.60703
 Alpha  occ. eigenvalues --   -0.58843  -0.58083  -0.56883  -0.54444  -0.53371
 Alpha  occ. eigenvalues --   -0.52602  -0.50337  -0.50021  -0.48613  -0.47173
 Alpha  occ. eigenvalues --   -0.46124  -0.44265  -0.43782  -0.41067  -0.39543
 Alpha  occ. eigenvalues --   -0.37991  -0.36494  -0.35005  -0.34047  -0.32811
 Alpha  occ. eigenvalues --   -0.30981  -0.28386  -0.27115
 Alpha virt. eigenvalues --    0.02821   0.03806   0.04020   0.04819   0.05727
 Alpha virt. eigenvalues --    0.05824   0.06088   0.06413   0.06856   0.07074
 Alpha virt. eigenvalues --    0.07433   0.08111   0.08762   0.09023   0.09670

 Mulliken charges:
               1
     1  C   -1.962447
     2  C    0.425485
     3  C    6.810817
     4  C   -4.946223
     5  C    8.840201
     6  C   -3.327026
     7  C   -4.075446
     8  C    0.886609
     9  C    5.585981
    10  C   -4.324224
    11  H    2.329849
    12  H    0.865754
    13  H    0.900258
    14  H    1.864520
    15  H    1.374539
    16  H    1.581092
    17  H    1.328762
    18  H    0.547738
    19  H    1.374668
    20  H    1.254741
    21  H    0.619628
    22  H    1.946754
    23  H    2.886544
    24  H    0.441944
    25  H    0.926663
    26  H    1.255297
    27  N   -2.714427
    28  N   -2.640703
    29  N   -3.651287
    30  N   -2.990439
    31  O   -3.563748
    32  O   -3.529310
    33  O   -3.150277
    34  O   -3.172286
 Sum of Mulliken charges =  -0.00000

 Dipole moment (field-independent basis, Debye):
    X=              0.3576    Y=              4.6696    Z=             -2.3521  Tot=              5.2408

 Test job not archived.
 1\1\GINC-SE043\SP\RHF\Aug-CC-pVDZ\C10H16N4O4\OHZDE\08-Apr-2025\0\\#t h
 f aug-cc-pvdz iop(5/13=1,5/36=2,99/5=2) pseudo=read geom=check guess=(
 read,tcheck) scf=(maxcycle=1)\\title\\0,1\C,0,1.45437,-0.580417,0.2467
 16\C,0,0.618668,3.0637,0.669542\C,0,-0.812186,1.86299,-0.431409\C,0,-2
 .01075,0.94112,-0.612001\C,0,-3.11247,-0.989659,0.402387\C,0,-0.243535
 ,2.6455,-1.32206\C,0,3.3528,-1.14429,-1.20927\C,0,2.83402,-1.22376,0.1
 80837\C,0,0.49301,-1.56117,-0.353306\C,0,-1.76781,-0.332927,0.187124\H
 ,0,-1.37546,-0.156118,1.20058\H,0,-4.23281,-2.30231,-0.319362\H,0,1.15

 Normal termination of Gaussian 16 at Tue Apr  8 22:13:58 2025.
