 Gaussian 16, Revision C.01,

 ----------------------------------------------------------------------
 #t hf aug-cc-pvdz symm=none int=(grid=ultrafine) guess=(read,tcheck) s
 table=(opt,rrhf)
 ----------------------------------------------------------------------
 -----
 title
 -----
 Symbolic Z-matrix:
 Charge =  0 Multiplicity = 1

 SCF Done:  E(RHF) =  -449.529478385     A.U. after   14 cycles
 Normal termination of Gaussian 16 at Tue Apr  8 21:52:49 2025.
 Gaussian 16:  ES64L-G16RevC.01  3-Jul-2019

 ----------------------------------------------------------------------
 #t hf aug-cc-pvdz iop(5/13=1,5/36=2,99/5=2) pseudo=read geom=check gue
 ss=(read,tcheck) scf=(maxcycle=1)
 ----------------------------------------------------------------------
 -----
 title
 -----
 Structure from the checkpoint file:  "ANI1ccx_686_conf1_mol2.chk"
 Charge =  0 Multiplicity = 1

                         Standard orientation:
 ---------------------------------------------------------------------
 Center     Atomic      Atomic             Coordinates (Angstroms)
 Number     Number       Type             X           Y           Z
 ---------------------------------------------------------------------
      1          6           0        2.158810   -0.615843   -0.020986
      2          6           0        0.184942    0.903316    0.009993
      3          6           0       -2.047090   -0.074762   -0.028345
      4          1           0        3.280600   -0.546816   -0.061386
      5          1           0        2.101499    1.487860   -0.076136
      6          1           0       -0.162435   -1.079530   -0.056872
      7          1           0       -2.373311    0.987270   -0.078495
      8          7           0        1.540449    0.632649   -0.034082
      9          7           0       -0.646713   -0.172775   -0.046124
     10          8           0        1.585880   -1.672240    0.057107
     11          8           0       -0.178989    2.063870    0.058452
     12          8           0       -2.767200   -1.059651    0.018235
 ---------------------------------------------------------------------

 SCF Done:  E(RHF) =  -451.418075914     A.U. after    2 cycles

 The electronic state is 1-A.
 Alpha  occ. eigenvalues --  -21.09740 -21.06627 -21.05673 -15.82857 -15.79846
 Alpha  occ. eigenvalues --  -11.55442 -11.54691 -11.50943  -1.78524  -1.75301
 Alpha  occ. eigenvalues --   -1.71465  -1.45511  -1.37999  -0.99922  -0.90354
 Alpha  occ. eigenvalues --   -0.84399  -0.76974  -0.70455  -0.67153  -0.65974
 Alpha  occ. eigenvalues --   -0.56382  -0.55765  -0.53643  -0.52218  -0.47801
 Alpha  occ. eigenvalues --   -0.37568  -0.36499  -0.35227  -0.32793  -0.30092
 Alpha virt. eigenvalues --    0.02309   0.05009   0.05787   0.08003   0.08273
 Alpha virt. eigenvalues --    0.09930   0.10160   0.10529   0.11410   0.11970
 Alpha virt. eigenvalues --    0.12690   0.13559   0.14094   0.14729   0.16211

 Mulliken charges:
               1
     1  C    2.021983
     2  C    5.111126
     3  C    1.548812
     4  H    1.735656
     5  H    0.582245
     6  H    0.768909
     7  H    1.496687
     8  N   -2.435010
     9  N   -2.501458
    10  O   -2.791783
    11  O   -2.956218
    12  O   -2.580948
 Sum of Mulliken charges =  -0.00000

 Dipole moment (field-independent basis, Debye):
    X=              3.1758    Y=              0.2868    Z=             -0.1974  Tot=              3.1949

 Test job not archived.
 1\1\GINC-SE109\SP\RHF\Aug-CC-pVDZ\C3H4N2O3\OHZDE\08-Apr-2025\0\\#t hf
 aug-cc-pvdz iop(5/13=1,5/36=2,99/5=2) pseudo=read geom=check guess=(re
 ad,tcheck) scf=(maxcycle=1)\\title\\0,1\C,0,2.15881,-0.615843,-0.02098
 63\C,0,0.184943,0.903316,0.00999269\C,0,-2.04709,-0.0747617,-0.0283452
 \H,0,3.2806,-0.546817,-0.0613855\H,0,2.1015,1.48786,-0.0761355\H,0,-0.
 162435,-1.07953,-0.0568715\H,0,-2.37331,0.987271,-0.0784945\N,0,1.5404
 5,0.632649,-0.0340816\N,0,-0.646713,-0.172775,-0.046124\O,0,1.58588,-1
 .67224,0.0571074\O,0,-0.178988,2.06387,0.0584523\O,0,-2.7672,-1.05965,

 Normal termination of Gaussian 16 at Tue Apr  8 21:52:55 2025.
