 Gaussian 16, Revision C.01,

 ----------------------------------------------------------------------
 #t hf aug-cc-pvdz symm=none int=(grid=ultrafine) guess=(read,tcheck) s
 table=(opt,rrhf)
 ----------------------------------------------------------------------
 -----
 title
 -----
 Symbolic Z-matrix:
 Charge =  0 Multiplicity = 1

 SCF Done:  E(RHF) =  -791.986042899     A.U. after   14 cycles
 Normal termination of Gaussian 16 at Tue Apr  8 19:37:03 2025.
 Gaussian 16:  ES64L-G16RevC.01  3-Jul-2019

 ----------------------------------------------------------------------
 #t hf aug-cc-pvdz iop(5/13=1,5/36=2,99/5=2) pseudo=read geom=check gue
 ss=(read,tcheck) scf=(maxcycle=1)
 ----------------------------------------------------------------------
 -----
 title
 -----
 Structure from the checkpoint file:  "ANI1ccx_1216_conf15_mol1.chk"
 Charge =  0 Multiplicity = 1

                         Standard orientation:
 ---------------------------------------------------------------------
 Center     Atomic      Atomic             Coordinates (Angstroms)
 Number     Number       Type             X           Y           Z
 ---------------------------------------------------------------------
      1          6           0       -1.194098    1.415411   -1.037459
      2          6           0        1.598821    1.349259    0.644989
      3          6           0        0.798785   -0.697591    1.811981
      4          6           0       -2.166160   -0.180340    0.461273
      5          6           0       -0.983931   -1.040369   -1.509949
      6          6           0        2.020300   -0.794607   -0.455390
      7          1           0        2.940360   -0.271657   -0.769026
      8          1           0        2.328889   -1.809442   -0.014740
      9          1           0       -1.835581   -1.763768   -1.420059
     10          1           0       -0.790948   -0.640780   -2.490509
     11          1           0       -2.582291   -1.132858    0.350257
     12          1           0       -2.965419    0.578950    0.594438
     13          1           0        1.312289   -1.665831    1.979221
     14          1           0        1.195652    1.729529    1.617401
     15          1           0        2.662192    1.730758    0.535190
     16          1           0       -0.941373    1.628211   -2.034989
     17          1           0       -2.128278    1.942422   -0.968310
     18          1           0        0.764612    0.081543    2.653861
     19          7           0        1.412890   -0.061885    0.658812
     20          7           0       -1.448110    0.041125   -0.747714
     21          8           0        0.109505   -1.789070   -1.156029
     22          8           0       -0.403242    2.114980   -0.135338
     23          8           0        0.995305    1.946659   -0.425597
     24          8           0       -0.487661   -1.240159    1.762991
     25          8           0       -1.443760   -0.123963    1.667831
     26          8           0        1.210369   -0.979990   -1.576739
 ---------------------------------------------------------------------

 SCF Done:  E(RHF) =  -795.438589782     A.U. after    2 cycles

 The electronic state is 1-A.
 Alpha  occ. eigenvalues --  -21.09725 -21.09386 -21.09360 -21.09062 -21.08738
 Alpha  occ. eigenvalues --  -21.08420 -15.71953 -15.71876 -11.45137 -11.44807
 Alpha  occ. eigenvalues --  -11.44723 -11.44085 -11.43788 -11.43215  -2.00063
 Alpha  occ. eigenvalues --   -1.98203  -1.94416  -1.57419  -1.50378  -1.49940
 Alpha  occ. eigenvalues --   -1.40983  -1.33342  -1.02345  -1.01760  -0.97444
 Alpha  occ. eigenvalues --   -0.95374  -0.84660  -0.82564  -0.73350  -0.71522
 Alpha  occ. eigenvalues --   -0.69809  -0.69328  -0.66165  -0.64763  -0.63553
 Alpha  occ. eigenvalues --   -0.62043  -0.61043  -0.58741  -0.57364  -0.56952
 Alpha  occ. eigenvalues --   -0.53499  -0.50532  -0.49413  -0.48839  -0.43406
 Alpha  occ. eigenvalues --   -0.40370  -0.39432  -0.37912  -0.36652  -0.33713
 Alpha  occ. eigenvalues --   -0.32481  -0.31556  -0.28645  -0.26865  -0.26059
 Alpha virt. eigenvalues --    0.04072   0.04314   0.04619   0.05737   0.05800
 Alpha virt. eigenvalues --    0.06056   0.06461   0.06749   0.07321   0.07550
 Alpha virt. eigenvalues --    0.08186   0.08620   0.10226   0.10834   0.12022

 Mulliken charges:
               1
     1  C   -0.032240
     2  C   -0.165473
     3  C    0.180802
     4  C   -0.191790
     5  C    0.496241
     6  C   -0.293309
     7  H    1.627065
     8  H    1.671317
     9  H    1.528145
    10  H    1.818070
    11  H    1.830388
    12  H    1.539743
    13  H    1.630303
    14  H    1.835922
    15  H    1.606044
    16  H    1.867181
    17  H    1.601105
    18  H    1.556408
    19  N   -3.625142
    20  N   -4.264274
    21  O   -2.091072
    22  O   -2.103193
    23  O   -1.877030
    24  O   -1.964469
    25  O   -2.053806
    26  O   -2.126938
 Sum of Mulliken charges =   0.00000

 Dipole moment (field-independent basis, Debye):
    X=              0.0109    Y=             -0.0172    Z=             -0.3990  Tot=              0.3995

 Test job not archived.
 1\1\GINC-SE143\SP\RHF\Aug-CC-pVDZ\C6H12N2O6\OHZDE\08-Apr-2025\0\\#t hf
  aug-cc-pvdz iop(5/13=1,5/36=2,99/5=2) pseudo=read geom=check guess=(r
 ead,tcheck) scf=(maxcycle=1)\\title\\0,1\C,0,-1.1941,1.41541,-1.03746\
 C,0,1.59882,1.34926,0.644988\C,0,0.798785,-0.69759,1.81198\C,0,-2.1661
 6,-0.180342,0.461272\C,0,-0.98393,-1.04037,-1.50995\C,0,2.0203,-0.7946
 05,-0.455391\H,0,2.94036,-0.271655,-0.769027\H,0,2.32889,-1.80944,-0.0
 147408\H,0,-1.83558,-1.76377,-1.42006\H,0,-0.790948,-0.640781,-2.49051
 \H,0,-2.58229,-1.13286,0.350256\H,0,-2.96542,0.578947,0.594437\H,0,1.3

 Normal termination of Gaussian 16 at Tue Apr  8 19:37:30 2025.
