 Gaussian 16, Revision C.01,

 ----------------------------------------------------------------------
 #t hf aug-cc-pvdz symm=none int=(grid=ultrafine) guess=(read,tcheck) s
 table=(opt,rrhf)
 ----------------------------------------------------------------------
 -----
 title
 -----
 Symbolic Z-matrix:
 Charge =  0 Multiplicity = 1

 SCF Done:  E(RHF) =  -411.591761125     A.U. after   15 cycles
 Normal termination of Gaussian 16 at Tue Apr  8 21:45:57 2025.
 Gaussian 16:  ES64L-G16RevC.01  3-Jul-2019

 ----------------------------------------------------------------------
 #t hf aug-cc-pvdz iop(5/13=1,5/36=2,99/5=2) pseudo=read geom=check gue
 ss=(read,tcheck) scf=(maxcycle=1)
 ----------------------------------------------------------------------
 -----
 title
 -----
 Structure from the checkpoint file:  "ANI1ccx_516_conf1_mol1.chk"
 Charge =  0 Multiplicity = 1

                         Standard orientation:
 ---------------------------------------------------------------------
 Center     Atomic      Atomic             Coordinates (Angstroms)
 Number     Number       Type             X           Y           Z
 ---------------------------------------------------------------------
      1          6           0       -0.157452    0.760118   -0.082384
      2          6           0        0.890799   -0.347188   -0.062806
      3          1           0       -2.048840   -1.204889    1.118420
      4          1           0       -1.372890   -1.471529   -0.368953
      5          1           0       -2.150509    1.097511   -0.019351
      6          1           0        2.590190   -0.753414    0.353481
      7          7           0       -2.031660   -0.885103    0.158507
      8          7           0       -1.475509    0.394023    0.178806
      9          8           0        0.188218    1.901800   -0.310918
     10          8           0        1.981040   -0.037151    0.567724
     11          8           0        0.722261   -1.453111   -0.578512
 ---------------------------------------------------------------------

 SCF Done:  E(RHF) =  -413.323809302     A.U. after    2 cycles

 The electronic state is 1-A.
 Alpha  occ. eigenvalues --  -21.16613 -21.08645 -21.06534 -15.79835 -15.78198
 Alpha  occ. eigenvalues --  -11.57088 -11.51929  -1.88787  -1.73159  -1.68556
 Alpha  occ. eigenvalues --   -1.50424  -1.16242  -1.00744  -0.81360  -0.70218
 Alpha  occ. eigenvalues --   -0.68146  -0.66076  -0.65225  -0.59271  -0.55573
 Alpha  occ. eigenvalues --   -0.52830  -0.48350  -0.44309  -0.37507  -0.36502
 Alpha  occ. eigenvalues --   -0.32337  -0.28956
 Alpha virt. eigenvalues --    0.03585   0.05078   0.05906   0.06881   0.10370
 Alpha virt. eigenvalues --    0.10593   0.10810   0.11219   0.12324   0.13119
 Alpha virt. eigenvalues --    0.13844   0.15132   0.17492   0.17823   0.18956

 Mulliken charges:
               1
     1  C    4.014814
     2  C    5.000919
     3  H    0.676867
     4  H    0.758609
     5  H    0.848705
     6  H    0.829291
     7  N   -1.583578
     8  N   -1.858928
     9  O   -2.996630
    10  O   -2.907602
    11  O   -2.782466
 Sum of Mulliken charges =  -0.00000

 Dipole moment (field-independent basis, Debye):
    X=              0.3649    Y=             -1.2242    Z=              1.0706  Tot=              1.6667

 Test job not archived.
 1\1\GINC-SE219\SP\RHF\Aug-CC-pVDZ\C2H4N2O3\OHZDE\08-Apr-2025\0\\#t hf
 aug-cc-pvdz iop(5/13=1,5/36=2,99/5=2) pseudo=read geom=check guess=(re
 ad,tcheck) scf=(maxcycle=1)\\title\\0,1\C,0,-0.157453,0.760118,-0.0823
 84\C,0,0.890799,-0.347187,-0.0628057\H,0,-2.04884,-1.20489,1.11842\H,0
 ,-1.37289,-1.47153,-0.368953\H,0,-2.15051,1.09751,-0.0193513\H,0,2.590
 19,-0.753413,0.353481\N,0,-2.03166,-0.885104,0.158507\N,0,-1.47551,0.3
 94022,0.178806\O,0,0.188217,1.9018,-0.310918\O,0,1.98104,-0.0371501,0.
 567724\O,0,0.722261,-1.45311,-0.578512\\Version=ES64L-G16RevC.01\State

 Normal termination of Gaussian 16 at Tue Apr  8 21:46:02 2025.
