 Gaussian 16, Revision C.01,

 ----------------------------------------------------------------------
 #t hf aug-cc-pvdz symm=none int=(grid=ultrafine) guess=(read,tcheck) s
 table=(opt,rrhf)
 ----------------------------------------------------------------------
 -----
 title
 -----
 Symbolic Z-matrix:
 Charge =  0 Multiplicity = 1

 SCF Done:  E(RHF) =  -557.476627496     A.U. after   16 cycles
 Normal termination of Gaussian 16 at Tue Apr  8 19:35:25 2025.
 Gaussian 16:  ES64L-G16RevC.01  3-Jul-2019

 ----------------------------------------------------------------------
 #t hf aug-cc-pvdz iop(5/13=1,5/36=2,99/5=2) pseudo=read geom=check gue
 ss=(read,tcheck) scf=(maxcycle=1)
 ----------------------------------------------------------------------
 -----
 title
 -----
 Structure from the checkpoint file:  "ANI1ccx_1322_conf6_mol1.chk"
 Charge =  0 Multiplicity = 1

                         Standard orientation:
 ---------------------------------------------------------------------
 Center     Atomic      Atomic             Coordinates (Angstroms)
 Number     Number       Type             X           Y           Z
 ---------------------------------------------------------------------
      1          6           0        1.905341   -0.591048    0.014531
      2          6           0        0.657773    1.314730   -0.028077
      3          6           0       -0.493496    0.399721    0.061008
      4          6           0       -2.782159    0.318049    0.107563
      5          6           0       -2.678149   -1.144109   -0.043575
      6          6           0       -0.349148   -0.984098   -0.012905
      7          1           0       -3.657940   -1.644479   -0.120399
      8          1           0       -3.777619    0.777304    0.167057
      9          1           0       -0.515336    2.977110   -0.025161
     10          1           0        1.273752    3.156249   -0.244232
     11          1           0        3.363830   -2.034652    0.239537
     12          1           0        3.837661   -0.491603    0.531298
     13          7           0        3.196011   -1.078902   -0.052846
     14          7           0        1.866081    0.794820    0.031153
     15          7           0        0.424098    2.612340   -0.153264
     16          7           0       -1.700638    1.074251    0.160087
     17          7           0       -1.528750   -1.734739   -0.171154
     18          7           0        0.873867   -1.470541    0.023256
 ---------------------------------------------------------------------

 SCF Done:  E(RHF) =  -560.003769506     A.U. after    2 cycles

 The electronic state is 1-A.
 Alpha  occ. eigenvalues --  -15.79009 -15.77438 -15.76740 -15.75956 -15.72833
 Alpha  occ. eigenvalues --  -15.71527 -11.53524 -11.51259 -11.49114 -11.47600
 Alpha  occ. eigenvalues --  -11.42022 -11.40909  -1.57263  -1.45815  -1.42608
 Alpha  occ. eigenvalues --   -1.33975  -1.28960  -1.26201  -1.10823  -0.96417
 Alpha  occ. eigenvalues --   -0.93678  -0.88429  -0.77091  -0.76184  -0.71160
 Alpha  occ. eigenvalues --   -0.67676  -0.66085  -0.63499  -0.61477  -0.58177
 Alpha  occ. eigenvalues --   -0.57568  -0.56041  -0.54109  -0.51641  -0.47013
 Alpha  occ. eigenvalues --   -0.43249  -0.42483  -0.40352  -0.37943  -0.35007
 Alpha  occ. eigenvalues --   -0.30774  -0.28319
 Alpha virt. eigenvalues --    0.03267   0.04705   0.05130   0.05276   0.06664
 Alpha virt. eigenvalues --    0.07341   0.07968   0.09308   0.10155   0.11041
 Alpha virt. eigenvalues --    0.11264   0.11829   0.12595   0.12708   0.13132

 Mulliken charges:
               1
     1  C    3.635892
     2  C    5.098533
     3  C    3.851386
     4  C    0.063250
     5  C   -0.194618
     6  C    3.216192
     7  H    1.692979
     8  H    1.696018
     9  H    0.697410
    10  H    0.875693
    11  H    0.704680
    12  H    0.521814
    13  N   -3.063986
    14  N   -3.485200
    15  N   -3.951233
    16  N   -4.290216
    17  N   -3.591834
    18  N   -3.476761
 Sum of Mulliken charges =  -0.00000

 Dipole moment (field-independent basis, Debye):
    X=             -0.5052    Y=              2.9267    Z=              0.8541  Tot=              3.0904

 Test job not archived.
 1\1\GINC-SE335\SP\RHF\Aug-CC-pVDZ\C6H6N6\OHZDE\08-Apr-2025\0\\#t hf au
 g-cc-pvdz iop(5/13=1,5/36=2,99/5=2) pseudo=read geom=check guess=(read
 ,tcheck) scf=(maxcycle=1)\\title\\0,1\C,0,1.90534,-0.591047,0.0145311\
 C,0,0.657771,1.31473,-0.0280771\C,0,-0.493497,0.399721,0.0610083\C,0,-
 2.78216,0.318048,0.107563\C,0,-2.67815,-1.14411,-0.0435753\C,0,-0.3491
 49,-0.984098,-0.0129048\H,0,-3.65794,-1.64448,-0.120399\H,0,-3.77762,0
 .777303,0.167057\H,0,-0.515338,2.97711,-0.0251614\H,0,1.27375,3.15625,
 -0.244232\H,0,3.36383,-2.03465,0.239537\H,0,3.83766,-0.491601,0.531298

 Normal termination of Gaussian 16 at Tue Apr  8 19:35:43 2025.
