 Gaussian 16, Revision C.01,

 ----------------------------------------------------------------------
 #t hf aug-cc-pvdz symm=none int=(grid=ultrafine) guess=(read,tcheck) s
 table=(opt,rrhf)
 ----------------------------------------------------------------------
 -----
 title
 -----
 Symbolic Z-matrix:
 Charge =  0 Multiplicity = 1

 SCF Done:  E(RHF) =  -456.267863521     A.U. after   11 cycles
 Normal termination of Gaussian 16 at Tue Apr  8 21:08:44 2025.
 Gaussian 16:  ES64L-G16RevC.01  3-Jul-2019

 ----------------------------------------------------------------------
 #t hf aug-cc-pvdz iop(5/13=1,5/36=2,99/5=2) pseudo=read geom=check gue
 ss=(read,tcheck) scf=(maxcycle=1)
 ----------------------------------------------------------------------
 -----
 title
 -----
 Structure from the checkpoint file:  "ANI1ccx_1844_conf309_mol1.chk"
 Charge =  0 Multiplicity = 1

                         Standard orientation:
 ---------------------------------------------------------------------
 Center     Atomic      Atomic             Coordinates (Angstroms)
 Number     Number       Type             X           Y           Z
 ---------------------------------------------------------------------
      1          1           0        0.069400   -0.362574    1.019280
      2          1           0        3.195252   -1.161584   -0.655565
      3          1           0        2.925412   -0.672093    0.593951
      4          1           0       -0.847879    1.253321    0.567880
      5          1           0       -0.328139    2.727211    0.647057
      6          1           0        1.765199    1.424474   -0.243471
      7          1           0        0.838778   -1.326287    0.208569
      8          1           0        2.626009    1.580475   -1.458400
      9          1           0       -2.729556   -2.200732   -0.921825
     10          1           0       -1.700197   -1.816660    0.154197
     11          1           0       -2.714030    0.270128   -0.676721
     12          1           0       -3.249692    1.700948   -0.387207
     13          8           0       -0.196237    1.833762    0.950140
     14          8           0       -2.599867   -1.694292   -0.148364
     15          8           0        2.760353   -1.507674    0.133461
     16          8           0        2.545029    1.101795   -0.715920
     17          8           0       -0.053497   -1.074268    0.434372
     18          8           0       -2.437101    1.163599   -0.509658
 ---------------------------------------------------------------------

 SCF Done:  E(RHF) =  -458.200958081     A.U. after    2 cycles

 The electronic state is 1-A.
 Alpha  occ. eigenvalues --  -21.11600 -21.09562 -21.08936 -21.08876 -21.08486
 Alpha  occ. eigenvalues --  -21.07876  -1.69747  -1.68508  -1.67158  -1.66181
 Alpha  occ. eigenvalues --   -1.65705  -1.64178  -0.66742  -0.66397  -0.64754
 Alpha  occ. eigenvalues --   -0.63627  -0.61929  -0.59282  -0.53077  -0.50518
 Alpha  occ. eigenvalues --   -0.48540  -0.45645  -0.43863  -0.40948  -0.37566
 Alpha  occ. eigenvalues --   -0.36319  -0.35527  -0.34055  -0.33887  -0.32953
 Alpha virt. eigenvalues --    0.03530   0.04262   0.05301   0.06038   0.06561
 Alpha virt. eigenvalues --    0.07298   0.08521   0.09111   0.09838   0.10622
 Alpha virt. eigenvalues --    0.11329   0.11626   0.18644   0.19341   0.19881

 Mulliken charges:
               1
     1  H    1.047618
     2  H    0.928710
     3  H    1.083674
     4  H    1.558528
     5  H    0.899247
     6  H    1.275879
     7  H    1.247182
     8  H    0.936658
     9  H    0.891938
    10  H    1.352756
    11  H    1.294249
    12  H    0.845695
    13  O   -2.141017
    14  O   -2.077677
    15  O   -2.094718
    16  O   -2.214854
    17  O   -2.560439
    18  O   -2.273428
 Sum of Mulliken charges =  -0.00000

 Dipole moment (field-independent basis, Debye):
    X=              0.0342    Y=              1.4644    Z=             -1.7083  Tot=              2.2503

 Test job not archived.
 1\1\GINC-SE249\SP\RHF\Aug-CC-pVDZ\H12O6\OHZDE\08-Apr-2025\0\\#t hf aug
 -cc-pvdz iop(5/13=1,5/36=2,99/5=2) pseudo=read geom=check guess=(read,
 tcheck) scf=(maxcycle=1)\\title\\0,1\H,0,0.0693991,-0.362576,1.01928\H
 ,0,3.19525,-1.16159,-0.655565\H,0,2.92541,-0.672099,0.593951\H,0,-0.84
 7878,1.25332,0.56788\H,0,-0.328136,2.72721,0.647057\H,0,1.7652,1.42447
 ,-0.243471\H,0,0.838775,-1.32629,0.208569\H,0,2.62601,1.58047,-1.4584\
 H,0,-2.72956,-2.20073,-0.921825\H,0,-1.7002,-1.81666,0.154197\H,0,-2.7
 1403,0.27013,-0.676721\H,0,-3.24969,1.70095,-0.387207\O,0,-0.196235,1.

 Normal termination of Gaussian 16 at Tue Apr  8 21:08:49 2025.
