 Gaussian 16, Revision C.01,

 ----------------------------------------------------------------------
 #t hf aug-cc-pvdz symm=none int=(grid=ultrafine) guess=(read,tcheck) s
 table=(opt,rrhf)
 ----------------------------------------------------------------------
 -----
 title
 -----
 Symbolic Z-matrix:
 Charge =  0 Multiplicity = 1

 SCF Done:  E(RHF) =  -597.118059740     A.U. after   16 cycles
 Normal termination of Gaussian 16 at Tue Apr  8 19:30:43 2025.
 Gaussian 16:  ES64L-G16RevC.01  3-Jul-2019

 ----------------------------------------------------------------------
 #t hf aug-cc-pvdz iop(5/13=1,5/36=2,99/5=2) pseudo=read geom=check gue
 ss=(read,tcheck) scf=(maxcycle=1)
 ----------------------------------------------------------------------
 -----
 title
 -----
 Structure from the checkpoint file:  "ANI1ccx_1293_conf2_mol1.chk"
 Charge =  0 Multiplicity = 1

                         Standard orientation:
 ---------------------------------------------------------------------
 Center     Atomic      Atomic             Coordinates (Angstroms)
 Number     Number       Type             X           Y           Z
 ---------------------------------------------------------------------
      1          6           0        1.683272   -0.737863    0.103189
      2          6           0       -0.627319   -0.692563   -0.254900
      3          6           0       -2.931889   -0.715877    0.030315
      4          6           0       -1.948891    1.271069    0.152729
      5          6           0       -0.711125    0.705468   -0.103487
      6          6           0        1.768710    0.808596   -0.080951
      7          1           0        3.586512   -0.840360    0.196113
      8          1           0       -3.927888   -1.276933    0.014818
      9          1           0       -1.933712    2.394679    0.317438
     10          1           0        0.508870    2.389282    0.236310
     11          7           0        0.543600   -1.399358   -0.168347
     12          7           0       -1.782638   -1.404110   -0.172642
     13          7           0       -3.108220    0.592828    0.169047
     14          7           0        0.518202    1.353102    0.065241
     15          8           0        2.816452   -1.434566    0.349523
     16          8           0        2.830179    1.372454   -0.236916
 ---------------------------------------------------------------------

 SCF Done:  E(RHF) =  -599.715131897     A.U. after    2 cycles

 The electronic state is 1-A.
 Alpha  occ. eigenvalues --  -21.15734 -21.09054 -15.83391 -15.77628 -15.76626
 Alpha  occ. eigenvalues --  -15.75655 -11.58205 -11.53149 -11.52530 -11.49956
 Alpha  occ. eigenvalues --  -11.45379 -11.44144  -1.81726  -1.74939  -1.56819
 Alpha  occ. eigenvalues --   -1.44684  -1.39258  -1.28386  -1.16030  -0.99365
 Alpha  occ. eigenvalues --   -0.95222  -0.94632  -0.79184  -0.75996  -0.72345
 Alpha  occ. eigenvalues --   -0.69107  -0.66646  -0.65035  -0.60986  -0.58485
 Alpha  occ. eigenvalues --   -0.57292  -0.56083  -0.54306  -0.50563  -0.46706
 Alpha  occ. eigenvalues --   -0.45591  -0.43369  -0.42252  -0.36904  -0.35054
 Alpha  occ. eigenvalues --   -0.32541  -0.30057
 Alpha virt. eigenvalues --    0.02816   0.05029   0.05660   0.05886   0.06467
 Alpha virt. eigenvalues --    0.08012   0.08617   0.09807   0.09964   0.10324
 Alpha virt. eigenvalues --    0.10826   0.10863   0.11270   0.11801   0.12391

 Mulliken charges:
               1
     1  C    3.844558
     2  C    3.277399
     3  C    0.751737
     4  C    0.130409
     5  C    3.469261
     6  C    4.211264
     7  H    0.828520
     8  H    1.651515
     9  H    1.570090
    10  H    0.661438
    11  N   -3.190433
    12  N   -3.615924
    13  N   -3.248888
    14  N   -3.522740
    15  O   -3.377135
    16  O   -3.441071
 Sum of Mulliken charges =  -0.00000

 Dipole moment (field-independent basis, Debye):
    X=              2.1480    Y=              2.6006    Z=              0.6127  Tot=              3.4282

 Test job not archived.
 1\1\GINC-SE364\SP\RHF\Aug-CC-pVDZ\C6H4N4O2\OHZDE\08-Apr-2025\0\\#t hf
 aug-cc-pvdz iop(5/13=1,5/36=2,99/5=2) pseudo=read geom=check guess=(re
 ad,tcheck) scf=(maxcycle=1)\\title\\0,1\C,0,1.68327,-0.737866,0.103189
 \C,0,-0.62732,-0.692564,-0.2549\C,0,-2.93189,-0.715875,0.0303147\C,0,-
 1.94889,1.27107,0.152729\C,0,-0.711125,0.705467,-0.103487\C,0,1.76871,
 0.808593,-0.0809506\H,0,3.58651,-0.840365,0.196113\H,0,-3.92789,-1.276
 93,0.0148183\H,0,-1.93371,2.39468,0.317438\H,0,0.508872,2.38928,0.2363
 1\N,0,0.543598,-1.39936,-0.168347\N,0,-1.78264,-1.40411,-0.172642\N,0,

 Normal termination of Gaussian 16 at Tue Apr  8 19:30:53 2025.
