 Gaussian 16, Revision C.01,

 ----------------------------------------------------------------------
 #t hf aug-cc-pvdz symm=none int=(grid=ultrafine) guess=(read,tcheck) s
 table=(opt,rrhf)
 ----------------------------------------------------------------------
 -----
 title
 -----
 Symbolic Z-matrix:
 Charge =  0 Multiplicity = 1

 SCF Done:  E(RHF) =  -654.477448255     A.U. after   18 cycles
 Normal termination of Gaussian 16 at Tue Apr  8 19:42:27 2025.
 Gaussian 16:  ES64L-G16RevC.01  3-Jul-2019

 ----------------------------------------------------------------------
 #t hf aug-cc-pvdz iop(5/13=1,5/36=2,99/5=2) pseudo=read geom=check gue
 ss=(read,tcheck) scf=(maxcycle=1)
 ----------------------------------------------------------------------
 -----
 title
 -----
 Structure from the checkpoint file:  "ANI1ccx_1371_conf1_mol2.chk"
 Charge =  0 Multiplicity = 1

                         Standard orientation:
 ---------------------------------------------------------------------
 Center     Atomic      Atomic             Coordinates (Angstroms)
 Number     Number       Type             X           Y           Z
 ---------------------------------------------------------------------
      1          6           0       -4.225940   -0.464771   -0.017503
      2          6           0       -2.984311    0.437424    0.039422
      3          6           0       -0.557068    0.087509   -0.002960
      4          6           0        0.917494    1.821570   -0.000445
      5          6           0        1.873959   -0.203702    0.019455
      6          6           0        0.561247   -0.805060   -0.021043
      7          1           0        2.566010   -1.941069    0.019820
      8          1           0        0.309249    3.788140   -0.077592
      9          1           0        2.030558    3.549550   -0.020282
     10          1           0       -1.849650   -1.405091   -0.065879
     11          1           0       -2.934021    1.163309   -0.786974
     12          1           0       -2.980341    1.078429    0.958663
     13          1           0       -5.148301    0.138940   -0.160939
     14          1           0       -4.076710   -1.159441   -0.872943
     15          1           0       -4.283820   -1.078361    0.885972
     16          7           0       -1.787700   -0.409249   -0.006310
     17          7           0       -0.367602    1.402840    0.031254
     18          7           0        1.086868    3.182410   -0.044509
     19          7           0        2.071029    1.087951    0.041355
     20          7           0        0.304928   -2.138180    0.003779
     21          8           0        2.912100   -1.006049   -0.008027
     22          8           0        1.300660   -2.900530   -0.012020
 ---------------------------------------------------------------------

 SCF Done:  E(RHF) =  -657.414933076     A.U. after    2 cycles

 The electronic state is 1-A.
 Alpha  occ. eigenvalues --  -21.10149 -21.07137 -15.85509 -15.79436 -15.78031
 Alpha  occ. eigenvalues --  -15.73339 -15.73096 -11.55493 -11.54512 -11.51723
 Alpha  occ. eigenvalues --  -11.45125 -11.41016 -11.38943  -1.84674  -1.76896
 Alpha  occ. eigenvalues --   -1.55938  -1.46123  -1.32862  -1.29974  -1.23154
 Alpha  occ. eigenvalues --   -1.12678  -0.99704  -0.93628  -0.89439  -0.87519
 Alpha  occ. eigenvalues --   -0.75115  -0.73997  -0.70614  -0.67191  -0.64506
 Alpha  occ. eigenvalues --   -0.63328  -0.63219  -0.59996  -0.57519  -0.55326
 Alpha  occ. eigenvalues --   -0.54463  -0.53608  -0.52517  -0.50683  -0.49829
 Alpha  occ. eigenvalues --   -0.46575  -0.46229  -0.45800  -0.36249  -0.35134
 Alpha  occ. eigenvalues --   -0.33150  -0.28926  -0.25792
 Alpha virt. eigenvalues --    0.03219   0.04029   0.05191   0.05668   0.05944
 Alpha virt. eigenvalues --    0.06143   0.06414   0.07647   0.08455   0.09113
 Alpha virt. eigenvalues --    0.09866   0.10952   0.11272   0.11941   0.12413

 Mulliken charges:
               1
     1  C   -3.637503
     2  C   -2.995713
     3  C    7.234108
     4  C    3.658940
     5  C    4.951159
     6  C    0.875089
     7  H    1.360511
     8  H    0.726462
     9  H    0.751130
    10  H    0.725462
    11  H    1.727813
    12  H    1.628356
    13  H    1.087707
    14  H    1.280400
    15  H    1.315064
    16  N   -4.227986
    17  N   -3.598227
    18  N   -3.178025
    19  N   -3.282810
    20  N    0.038204
    21  O   -3.740939
    22  O   -2.699202
 Sum of Mulliken charges =   0.00000

 Dipole moment (field-independent basis, Debye):
    X=             -2.5155    Y=              2.2528    Z=             -0.1209  Tot=              3.3789

 Test job not archived.
 1\1\GINC-SE132\SP\RHF\Aug-CC-pVDZ\C6H9N5O2\OHZDE\08-Apr-2025\0\\#t hf
 aug-cc-pvdz iop(5/13=1,5/36=2,99/5=2) pseudo=read geom=check guess=(re
 ad,tcheck) scf=(maxcycle=1)\\title\\0,1\C,0,-4.22594,-0.46477,-0.01750
 29\C,0,-2.98431,0.437425,0.0394221\C,0,-0.557067,0.0875098,-0.00295964
 \C,0,0.917495,1.82157,-0.00044482\C,0,1.87396,-0.203702,0.0194546\C,0,
 0.561247,-0.80506,-0.0210433\H,0,2.56601,-1.94107,0.0198196\H,0,0.3092
 51,3.78814,-0.0775917\H,0,2.03056,3.54955,-0.020282\H,0,-1.84965,-1.40
 509,-0.0658788\H,0,-2.93402,1.16331,-0.786974\H,0,-2.98034,1.07843,0.9

 Normal termination of Gaussian 16 at Tue Apr  8 19:42:44 2025.
