 Gaussian 16, Revision C.01,

 ----------------------------------------------------------------------
 #t hf aug-cc-pvdz symm=none int=(grid=ultrafine) guess=(read,tcheck) s
 table=(opt,rrhf)
 ----------------------------------------------------------------------
 -----
 title
 -----
 Symbolic Z-matrix:
 Charge =  0 Multiplicity = 1

 SCF Done:  E(RHF) =  -853.772318205     A.U. after   14 cycles
 Normal termination of Gaussian 16 at Tue Apr  8 22:40:39 2025.
 Gaussian 16:  ES64L-G16RevC.01  3-Jul-2019

 ----------------------------------------------------------------------
 #t hf aug-cc-pvdz iop(5/13=1,5/36=2,99/5=2) pseudo=read geom=check gue
 ss=(read,tcheck) scf=(maxcycle=1)
 ----------------------------------------------------------------------
 -----
 title
 -----
 Structure from the checkpoint file:  "ANI1ccx_97_conf10_mol1.chk"
 Charge =  0 Multiplicity = 1

                         Standard orientation:
 ---------------------------------------------------------------------
 Center     Atomic      Atomic             Coordinates (Angstroms)
 Number     Number       Type             X           Y           Z
 ---------------------------------------------------------------------
      1          6           0        1.220531    1.522570   -1.099660
      2          6           0       -2.246999   -1.559220   -0.266331
      3          6           0       -2.580699    1.024210    0.751905
      4          6           0       -2.230089    0.014196   -0.496178
      5          6           0        3.832321   -0.913719    1.166600
      6          6           0       -3.652099   -1.965350    0.052599
      7          6           0        2.612481   -0.779088   -1.009700
      8          6           0        2.539891    0.804110   -0.800981
      9          6           0        0.102484    0.741715   -0.278822
     10          6           0        3.736961   -1.398019   -0.269959
     11          1           0        2.165051   -1.840340    2.075190
     12          1           0       -1.048709    0.432073    1.703510
     13          1           0       -3.698169   -3.076460    0.193252
     14          1           0       -3.973019   -1.490430    0.991169
     15          1           0       -4.363629   -1.707840   -0.695967
     16          1           0       -0.958142   -2.434780   -1.408750
     17          1           0       -1.560009   -1.871060    0.534025
     18          1           0       -2.989429    0.225338   -1.309990
     19          1           0       -0.918801    0.411535   -2.042290
     20          1           0        1.812521   -0.352075    1.498740
     21          1           0        4.654521   -1.155369   -0.825621
     22          1           0        4.520441   -1.537899    1.698830
     23          1           0        1.497051    3.138610    0.157113
     24          1           0        4.377551    0.093953    1.144220
     25          1           0        0.946712    1.394370   -2.157170
     26          1           0        2.742531    0.957059    0.276076
     27          1           0        0.378059    3.385420   -0.899297
     28          1           0        1.549341   -1.064740   -0.573181
     29          1           0        2.574461   -0.866102   -2.156100
     30          1           0        3.724731   -2.510089   -0.190476
     31          1           0        3.342901    1.290931   -1.335720
     32          7           0        1.322381    2.944770   -0.787358
     33          7           0        2.615301   -0.887138    1.999410
     34          7           0       -0.946024    0.407391   -1.048260
     35          8           0       -1.879119   -2.196270   -1.456010
     36          8           0        0.267804    0.387460    0.879551
     37          8           0       -3.332919    1.937410    0.659406
     38          8           0       -2.021549    0.668187    1.876930
 ---------------------------------------------------------------------

 SCF Done:  E(RHF) =  -857.718664282     A.U. after    2 cycles

 The electronic state is 1-A.
 Alpha  occ. eigenvalues --  -21.09442 -21.08518 -21.07440 -21.05542 -15.80675
 Alpha  occ. eigenvalues --  -15.76493 -15.71235 -11.59105 -11.53427 -11.50190
 Alpha  occ. eigenvalues --  -11.49625 -11.47001 -11.46027 -11.43748 -11.40191
 Alpha  occ. eigenvalues --  -11.38356 -11.37593  -1.83365  -1.77623  -1.75321
 Alpha  occ. eigenvalues --   -1.65460  -1.45697  -1.37737  -1.32327  -1.19927
 Alpha  occ. eigenvalues --   -1.17143  -1.09113  -1.04693  -0.96893  -0.90987
 Alpha  occ. eigenvalues --   -0.87935  -0.86440  -0.81386  -0.77458  -0.75630
 Alpha  occ. eigenvalues --   -0.70759  -0.70443  -0.68061  -0.67529  -0.65927
 Alpha  occ. eigenvalues --   -0.64085  -0.62263  -0.60574  -0.58539  -0.57941
 Alpha  occ. eigenvalues --   -0.56655  -0.56293  -0.55149  -0.53922  -0.53113
 Alpha  occ. eigenvalues --   -0.52287  -0.51155  -0.49898  -0.48860  -0.47732
 Alpha  occ. eigenvalues --   -0.47447  -0.44895  -0.44391  -0.43216  -0.42132
 Alpha  occ. eigenvalues --   -0.39932  -0.36797  -0.35641  -0.33661  -0.32576
 Alpha  occ. eigenvalues --   -0.30102  -0.27843
 Alpha virt. eigenvalues --    0.03322   0.03697   0.03850   0.04372   0.04690
 Alpha virt. eigenvalues --    0.04857   0.05566   0.05637   0.05901   0.06276
 Alpha virt. eigenvalues --    0.06808   0.07279   0.07448   0.08259   0.08466

 Mulliken charges:
               1
     1  C   -3.258989
     2  C    1.396912
     3  C    6.842396
     4  C   -1.587121
     5  C   -2.086008
     6  C   -4.701154
     7  C   -3.706141
     8  C   -1.325895
     9  C    8.196442
    10  C   -2.911151
    11  H    0.497313
    12  H    1.774711
    13  H    1.132946
    14  H    1.344555
    15  H    1.291914
    16  H    0.707837
    17  H    1.937255
    18  H    1.729088
    19  H    0.841098
    20  H    1.207674
    21  H    1.342526
    22  H    1.212984
    23  H    0.639407
    24  H    1.312040
    25  H    2.054165
    26  H    2.104459
    27  H    0.581878
    28  H    1.999518
    29  H    1.275642
    30  H    1.272298
    31  H    1.251344
    32  N   -3.067607
    33  N   -2.430493
    34  N   -3.369925
    35  O   -3.377043
    36  O   -4.835789
    37  O   -3.619457
    38  O   -3.669631
 Sum of Mulliken charges =   0.00000

 Dipole moment (field-independent basis, Debye):
    X=              1.2368    Y=             -1.7782    Z=             -2.8998  Tot=              3.6195

 Test job not archived.
 1\1\GINC-SE036\SP\RHF\Aug-CC-pVDZ\C10H21N3O4\OHZDE\08-Apr-2025\0\\#t h
 f aug-cc-pvdz iop(5/13=1,5/36=2,99/5=2) pseudo=read geom=check guess=(
 read,tcheck) scf=(maxcycle=1)\\title\\0,1\C,0,1.22053,1.52257,-1.09966
 \C,0,-2.247,-1.55922,-0.266331\C,0,-2.5807,1.02421,0.751905\C,0,-2.230
 09,0.0141962,-0.496178\C,0,3.83232,-0.91372,1.1666\C,0,-3.6521,-1.9653
 5,0.0525991\C,0,2.61248,-0.779088,-1.0097\C,0,2.53989,0.80411,-0.80098
 1\C,0,0.102483,0.741715,-0.278822\C,0,3.73696,-1.39802,-0.269959\H,0,2
 .16505,-1.84034,2.07519\H,0,-1.04871,0.432073,1.70351\H,0,-3.69817,-3.

 Normal termination of Gaussian 16 at Tue Apr  8 22:41:47 2025.
