 Gaussian 16, Revision C.01,

 ----------------------------------------------------------------------
 #t hf aug-cc-pvdz symm=none int=(grid=ultrafine) guess=(read,tcheck) s
 table=(opt,rrhf)
 ----------------------------------------------------------------------
 -----
 title
 -----
 Symbolic Z-matrix:
 Charge =  0 Multiplicity = 1

 SCF Done:  E(RHF) =  -258.516090560     A.U. after   86 cycles
 Normal termination of Gaussian 16 at Tue Apr  8 21:16:22 2025.
 Gaussian 16:  ES64L-G16RevC.01  3-Jul-2019

 ----------------------------------------------------------------------
 #t hf aug-cc-pvdz iop(5/13=1,5/36=2,99/5=2) pseudo=read geom=check gue
 ss=(read,tcheck) scf=(maxcycle=1)
 ----------------------------------------------------------------------
 -----
 title
 -----
 Structure from the checkpoint file:  "ANI1ccx_1907_conf5_mol1.chk"
 Charge =  0 Multiplicity = 1

                         Standard orientation:
 ---------------------------------------------------------------------
 Center     Atomic      Atomic             Coordinates (Angstroms)
 Number     Number       Type             X           Y           Z
 ---------------------------------------------------------------------
      1          7           0        1.883087   -0.514182    0.089649
      2          7           0        2.323447    0.484430   -0.077628
      3          8           0       -1.915573    0.609470    0.056251
      4          8           0       -1.765143   -0.583437   -0.066769
 ---------------------------------------------------------------------

 SCF Done:  E(RHF) =  -259.527266879     A.U. after    2 cycles

 The electronic state is 1-A.
 Alpha  occ. eigenvalues --  -21.23285 -21.22639 -15.87399 -15.87248  -2.11517
 Alpha  occ. eigenvalues --   -1.56148  -1.21811  -0.78918  -0.62065  -0.58021
 Alpha  occ. eigenvalues --   -0.57451  -0.57400  -0.55806  -0.54261  -0.27505
 Alpha virt. eigenvalues --    0.09892   0.10764   0.12760   0.13812   0.14396
 Alpha virt. eigenvalues --    0.15154   0.16037   0.16729   0.19629   0.20358
 Alpha virt. eigenvalues --    0.20880   0.23228   0.28575   0.29389   0.30711

 Mulliken charges:
               1
     1  N    0.044276
     2  N   -0.059647
     3  O   -0.028935
     4  O    0.044305
 Sum of Mulliken charges =   0.00000

 Dipole moment (field-independent basis, Debye):
    X=             -0.0544    Y=             -0.0218    Z=             -0.0072  Tot=              0.0591

 Test job not archived.
 1\1\GINC-SE252\SP\RHF\Aug-CC-pVDZ\N2O2\OHZDE\08-Apr-2025\0\\#t hf aug-
 cc-pvdz iop(5/13=1,5/36=2,99/5=2) pseudo=read geom=check guess=(read,t
 check) scf=(maxcycle=1)\\title\\0,1\N,0,1.88309,-0.514182,0.0896492\N,
 0,2.32345,0.48443,-0.0776284\O,0,-1.91557,0.60947,0.056251\O,0,-1.7651
 4,-0.583437,-0.0667692\\Version=ES64L-G16RevC.01\State=1-A\HF=-259.527
 2669\RMSD=1.323e-01\Dipole=-0.0214204,-0.0085579,-0.0028259\Quadrupole
 =-0.8559862,-0.1948776,1.0508639,-0.3708683,0.3817923,0.0526282\PG=C01
  [X(N2O2)]\\@

 Normal termination of Gaussian 16 at Tue Apr  8 21:16:23 2025.
