 Gaussian 16, Revision C.01,

 ----------------------------------------------------------------------
 #t hf aug-cc-pvdz symm=none int=(grid=ultrafine) guess=(read,tcheck) s
 table=(opt,rrhf)
 ----------------------------------------------------------------------
 -----
 title
 -----
 Symbolic Z-matrix:
 Charge =  0 Multiplicity = 1

 SCF Done:  E(RHF) =  -480.043276967     A.U. after   16 cycles
 Normal termination of Gaussian 16 at Tue Apr  8 21:41:39 2025.
 Gaussian 16:  ES64L-G16RevC.01  3-Jul-2019

 ----------------------------------------------------------------------
 #t hf aug-cc-pvdz iop(5/13=1,5/36=2,99/5=2) pseudo=read geom=check gue
 ss=(read,tcheck) scf=(maxcycle=1)
 ----------------------------------------------------------------------
 -----
 title
 -----
 Structure from the checkpoint file:  "ANI1ccx_456_conf10_mol1.chk"
 Charge =  0 Multiplicity = 1

                         Standard orientation:
 ---------------------------------------------------------------------
 Center     Atomic      Atomic             Coordinates (Angstroms)
 Number     Number       Type             X           Y           Z
 ---------------------------------------------------------------------
      1          6           0        0.062354   -0.031760   -0.057592
      2          7           0       -1.424450    0.014444   -0.004025
      3          7           0        0.745007   -1.101840   -0.057313
      4          7           0        2.022941   -0.658527    0.005924
      5          7           0        2.215450    0.525825    0.092180
      6          8           0       -1.953561    1.109468    0.007319
      7          8           0       -2.024249   -1.079202    0.050285
      8          8           0        0.816964    1.061140   -0.046580
 ---------------------------------------------------------------------

 SCF Done:  E(RHF) =  -482.035138501     A.U. after    2 cycles

 The electronic state is 1-A.
 Alpha  occ. eigenvalues --  -21.19524 -21.16487 -21.14714 -16.06699 -15.92516
 Alpha  occ. eigenvalues --  -15.88410 -15.84195 -11.58768  -2.05147  -1.97957
 Alpha  occ. eigenvalues --   -1.73919  -1.61235  -1.42593  -1.15516  -0.95282
 Alpha  occ. eigenvalues --   -0.85203  -0.78397  -0.77020  -0.69611  -0.68042
 Alpha  occ. eigenvalues --   -0.65925  -0.57857  -0.50192  -0.48500  -0.44656
 Alpha  occ. eigenvalues --   -0.43987  -0.41184  -0.35918  -0.35394
 Alpha virt. eigenvalues --    0.04968   0.06915   0.09408   0.10072   0.10663
 Alpha virt. eigenvalues --    0.11703   0.12679   0.13114   0.14083   0.15017
 Alpha virt. eigenvalues --    0.16537   0.17262   0.17807   0.18858   0.19846

 Mulliken charges:
               1
     1  C    4.933169
     2  N    3.685142
     3  N   -1.937690
     4  N    1.158381
     5  N   -0.089310
     6  O   -2.770313
     7  O   -2.609671
     8  O   -2.369707
 Sum of Mulliken charges =  -0.00000

 Dipole moment (field-independent basis, Debye):
    X=             -0.3491    Y=              1.4725    Z=             -0.0880  Tot=              1.5159

 Test job not archived.
 1\1\GINC-SE016\SP\RHF\Aug-CC-pVDZ\C1N4O3\OHZDE\08-Apr-2025\0\\#t hf au
 g-cc-pvdz iop(5/13=1,5/36=2,99/5=2) pseudo=read geom=check guess=(read
 ,tcheck) scf=(maxcycle=1)\\title\\0,1\C,0,0.0623532,-0.0317591,-0.0575
 921\N,0,-1.42445,0.0144454,-0.0040253\N,0,0.745006,-1.10184,-0.0573133
 \N,0,2.02294,-0.658528,0.00592441\N,0,2.21545,0.525824,0.0921797\O,0,-
 1.95356,1.10947,0.00731898\O,0,-2.02425,-1.0792,0.0502849\O,0,0.816965
 ,1.06114,-0.0465796\\Version=ES64L-G16RevC.01\State=1-A\HF=-482.035138
 5\RMSD=9.566e-02\Dipole=-0.1373631,0.5793359,-0.0346373\Quadrupole=-1.

 Normal termination of Gaussian 16 at Tue Apr  8 21:42:03 2025.
