 Gaussian 16, Revision C.01,

 ----------------------------------------------------------------------
 #t hf aug-cc-pvdz symm=none int=(grid=ultrafine) guess=(read,tcheck) s
 table=(opt,rrhf)
 ----------------------------------------------------------------------
 -----
 title
 -----
 Symbolic Z-matrix:
 Charge =  0 Multiplicity = 1

 SCF Done:  E(RHF) =  -598.849603276     A.U. after   15 cycles

 1\1\GINC-SE340\Stability\RHF\Aug-CC-pVDZ\C7H12N6\OHZDE\08-Apr-2025\0\\
 #t hf aug-cc-pvdz symm=none int=(grid=ultrafine) guess=(read,tcheck) s
 table=(opt,rrhf)\\title\\0,1\C,0,-3.74147,-1.24649,-0.146392\C,0,-1.73
 633,0.101912,0.0967246\C,0,-0.0265956,1.56349,0.0463738\C,0,0.891903,0
 .517411,-0.100195\C,0,3.09258,-0.439287,-0.355029\C,0,2.54227,-1.60683
 ,0.470427\C,0,0.346948,-0.753731,-0.0414907\H,0,0.652826,-2.66694,0.16
 5775\H,0,3.16906,-2.49668,0.258347\H,0,2.53805,-1.31357,1.52134\H,0,3.
 05915,-0.783319,-1.3801\H,0,4.11777,-0.32195,-0.0956948\H,0,2.58726,1.

 Normal termination of Gaussian 16 at Tue Apr  8 19:46:43 2025.
 Gaussian 16:  ES64L-G16RevC.01  3-Jul-2019

 ----------------------------------------------------------------------
 #t hf aug-cc-pvdz iop(5/13=1,5/36=2,99/5=2) pseudo=read geom=check gue
 ss=(read,tcheck) scf=(maxcycle=1)
 ----------------------------------------------------------------------
 -----
 title
 -----
 Structure from the checkpoint file:  "ANI1ccx_1410_conf5_mol2.chk"
 Charge =  0 Multiplicity = 1

                         Standard orientation:
 ---------------------------------------------------------------------
 Center     Atomic      Atomic             Coordinates (Angstroms)
 Number     Number       Type             X           Y           Z
 ---------------------------------------------------------------------
      1          6           0       -3.741470   -1.246491   -0.146392
      2          6           0       -1.736330    0.101912    0.096724
      3          6           0       -0.026596    1.563490    0.046374
      4          6           0        0.891903    0.517411   -0.100195
      5          6           0        3.092580   -0.439286   -0.355029
      6          6           0        2.542270   -1.606829    0.470427
      7          6           0        0.346948   -0.753731   -0.041491
      8          1           0        0.652827   -2.666940    0.165775
      9          1           0        3.169061   -2.496679    0.258347
     10          1           0        2.538050   -1.313569    1.521340
     11          1           0        3.059150   -0.783318   -1.380100
     12          1           0        4.117770   -0.321949   -0.095695
     13          1           0        2.587260    1.472731   -0.737790
     14          1           0        1.258200    2.917950    0.686544
     15          1           0       -0.287067    3.508740    0.267087
     16          1           0       -3.624430    0.844353   -0.142532
     17          1           0       -4.814270   -1.076361    0.054705
     18          1           0       -3.541049   -1.871790   -1.065750
     19          1           0       -3.405909   -1.874530    0.670727
     20          7           0       -3.103240    0.008104   -0.024250
     21          7           0       -1.320440    1.385840    0.091052
     22          7           0        0.491167    2.856800    0.046893
     23          7           0        2.300820    0.727204   -0.113257
     24          7           0        1.195920   -1.856440   -0.070826
     25          7           0       -0.982147   -1.001150    0.066794
 ---------------------------------------------------------------------

 SCF Done:  E(RHF) =  -601.662091355     A.U. after    2 cycles

 The electronic state is 1-A.
 Alpha  occ. eigenvalues --  -15.75611 -15.73765 -15.73652 -15.72982 -15.70469
 Alpha  occ. eigenvalues --  -15.69995 -11.51826 -11.49913 -11.46854 -11.44788
 Alpha  occ. eigenvalues --  -11.38495 -11.38194 -11.37766  -1.56711  -1.45915
 Alpha  occ. eigenvalues --   -1.40715  -1.35335  -1.28856  -1.24609  -1.12721
 Alpha  occ. eigenvalues --   -1.02495  -0.97853  -0.92394  -0.86031  -0.81211
 Alpha  occ. eigenvalues --   -0.74725  -0.69362  -0.67460  -0.66684  -0.65180
 Alpha  occ. eigenvalues --   -0.62797  -0.61437  -0.57878  -0.57398  -0.55881
 Alpha  occ. eigenvalues --   -0.55071  -0.54426  -0.51596  -0.50097  -0.47285
 Alpha  occ. eigenvalues --   -0.46462  -0.45559  -0.41145  -0.38888  -0.34163
 Alpha  occ. eigenvalues --   -0.32635  -0.31615  -0.22964
 Alpha virt. eigenvalues --    0.03795   0.05028   0.05137   0.05543   0.06006
 Alpha virt. eigenvalues --    0.06230   0.06297   0.06611   0.07056   0.07381
 Alpha virt. eigenvalues --    0.08011   0.08758   0.11106   0.11333   0.11702

 Mulliken charges:
               1
     1  C   -3.603574
     2  C    4.236577
     3  C    5.056828
     4  C    2.238886
     5  C   -2.617674
     6  C   -3.187121
     7  C    5.633507
     8  H    0.799057
     9  H    1.400215
    10  H    1.554125
    11  H    1.587874
    12  H    1.499429
    13  H    0.526288
    14  H    0.530478
    15  H    0.713493
    16  H    0.689657
    17  H    1.413811
    18  H    1.344711
    19  H    1.323160
    20  N   -2.946162
    21  N   -3.603206
    22  N   -3.817090
    23  N   -3.391553
    24  N   -3.507978
    25  N   -3.873737
 Sum of Mulliken charges =   0.00000

 Dipole moment (field-independent basis, Debye):
    X=              1.3487    Y=              0.0189    Z=              0.5511  Tot=              1.4571

 Test job not archived.
 1\1\GINC-SE340\SP\RHF\Aug-CC-pVDZ\C7H12N6\OHZDE\08-Apr-2025\0\\#t hf a
 ug-cc-pvdz iop(5/13=1,5/36=2,99/5=2) pseudo=read geom=check guess=(rea
 d,tcheck) scf=(maxcycle=1)\\title\\0,1\C,0,-3.74147,-1.24649,-0.146392
 \C,0,-1.73633,0.101912,0.0967246\C,0,-0.0265956,1.56349,0.0463738\C,0,
 0.891903,0.517411,-0.100195\C,0,3.09258,-0.439287,-0.355029\C,0,2.5422
 7,-1.60683,0.470427\C,0,0.346948,-0.753731,-0.0414907\H,0,0.652826,-2.
 66694,0.165775\H,0,3.16906,-2.49668,0.258347\H,0,2.53805,-1.31357,1.52
 134\H,0,3.05915,-0.783319,-1.3801\H,0,4.11777,-0.32195,-0.0956948\H,0,

 Normal termination of Gaussian 16 at Tue Apr  8 19:47:01 2025.
