 Gaussian 16, Revision C.01,

 ----------------------------------------------------------------------
 #t hf aug-cc-pvdz symm=none int=(grid=ultrafine) guess=(read,tcheck) s
 table=(opt,rrhf)
 ----------------------------------------------------------------------
 -----
 title
 -----
 Symbolic Z-matrix:
 Charge =  0 Multiplicity = 1

 SCF Done:  E(RHF) =  -1018.15745913     A.U. after   15 cycles
 Normal termination of Gaussian 16 at Tue Apr  8 21:00:56 2025.
 Gaussian 16:  ES64L-G16RevC.01  3-Jul-2019

 ----------------------------------------------------------------------
 #t hf aug-cc-pvdz iop(5/13=1,5/36=2,99/5=2) pseudo=read geom=check gue
 ss=(read,tcheck) scf=(maxcycle=1)
 ----------------------------------------------------------------------
 -----
 title
 -----
 Structure from the checkpoint file:  "ANI1ccx_171_conf1_mol2.chk"
 Charge =  0 Multiplicity = 1

                         Standard orientation:
 ---------------------------------------------------------------------
 Center     Atomic      Atomic             Coordinates (Angstroms)
 Number     Number       Type             X           Y           Z
 ---------------------------------------------------------------------
      1          6           0        0.927535   -1.278589    1.255139
      2          6           0       -2.464819   -1.678171   -0.948365
      3          6           0       -2.511500    0.854132   -0.851094
      4          6           0       -1.259851    2.594609    0.519438
      5          6           0       -1.145001    1.415139   -0.511802
      6          6           0       -2.512130   -0.391545   -1.752031
      7          6           0        4.223781   -0.654030   -0.221668
      8          6           0        2.866011   -0.578329   -0.311411
      9          6           0        1.886971   -1.640709    0.111881
     10          6           0       -0.308443   -0.351971    0.886484
     11          6           0        3.621919    1.357922   -0.888914
     12          1           0       -0.738121    1.880020   -1.402261
     13          1           0       -2.362802    3.969469    0.997055
     14          1           0       -3.450308   -2.702942    0.274824
     15          1           0       -1.610150   -0.395884   -2.386271
     16          1           0       -3.383360   -0.461315   -2.420021
     17          1           0       -3.125981    1.666808   -1.269461
     18          1           0       -3.089480    0.541859    0.063254
     19          1           0        0.795764    0.713000   -0.413996
     20          1           0        3.719249    2.387372   -1.252381
     21          1           0        4.831831   -1.538487   -0.100400
     22          1           0        1.386701   -1.977199   -0.788828
     23          1           0        2.469552   -2.518479    0.386243
     24          1           0        1.489321   -0.688413    1.978209
     25          1           0       -0.196846   -2.955140    1.194099
     26          1           0       -0.127907   -2.231440    2.636269
     27          1           0        5.649740    0.826835   -0.781973
     28          7           0        0.447951   -2.511990    1.877359
     29          7           0        2.506310    0.674961   -0.718340
     30          7           0        4.684940    0.599399   -0.556696
     31          7           0       -0.119085    0.478473   -0.120636
     32          8           0       -3.607309   -1.964852   -0.323787
     33          8           0       -1.395040   -0.436905    1.503289
     34          8           0       -0.385479    3.023250    1.232339
     35          8           0       -1.495608   -2.394511   -0.847613
     36          8           0       -2.472172    3.136429    0.459249
 ---------------------------------------------------------------------

 SCF Done:  E(RHF) =  -1022.69628594     A.U. after    2 cycles

 The electronic state is 1-A.
 Alpha  occ. eigenvalues --  -21.12138 -21.11392 -21.04895 -21.03703 -20.99894
 Alpha  occ. eigenvalues --  -15.81563 -15.73838 -15.72774 -15.70930 -11.53553
 Alpha  occ. eigenvalues --  -11.52970 -11.51649 -11.47481 -11.47292 -11.45929
 Alpha  occ. eigenvalues --  -11.45125 -11.43753 -11.41452 -11.39016 -11.37712
 Alpha  occ. eigenvalues --   -1.83711  -1.82418  -1.67871  -1.64814  -1.64403
 Alpha  occ. eigenvalues --   -1.58555  -1.41283  -1.33348  -1.28674  -1.20748
 Alpha  occ. eigenvalues --   -1.14935  -1.07925  -1.03973  -0.93725  -0.90577
 Alpha  occ. eigenvalues --   -0.87066  -0.82453  -0.79578  -0.78921  -0.76002
 Alpha  occ. eigenvalues --   -0.75069  -0.71387  -0.66659  -0.64433  -0.63485
 Alpha  occ. eigenvalues --   -0.63240  -0.62281  -0.60516  -0.60329  -0.58913
 Alpha  occ. eigenvalues --   -0.58599  -0.57323  -0.56050  -0.55018  -0.53629
 Alpha  occ. eigenvalues --   -0.52792  -0.51926  -0.51077  -0.48562  -0.47253
 Alpha  occ. eigenvalues --   -0.46999  -0.46865  -0.44252  -0.43524  -0.42035
 Alpha  occ. eigenvalues --   -0.39510  -0.38156  -0.34749  -0.33442  -0.32647
 Alpha  occ. eigenvalues --   -0.31446  -0.30166  -0.28642  -0.28395  -0.26353
 Alpha virt. eigenvalues --    0.02907   0.04215   0.04502   0.04851   0.05183
 Alpha virt. eigenvalues --    0.05669   0.05897   0.06323   0.06808   0.07335
 Alpha virt. eigenvalues --    0.07671   0.08121   0.08612   0.08895   0.09252

 Mulliken charges:
               1
     1  C   -0.530418
     2  C    7.499350
     3  C   -2.034770
     4  C    7.846429
     5  C   -4.590285
     6  C   -4.670353
     7  C   -2.302109
     8  C    5.176087
     9  C   -3.798901
    10  C    5.910031
    11  C    0.685616
    12  H    2.385037
    13  H    0.856181
    14  H    0.872945
    15  H    1.396225
    16  H    1.315772
    17  H    1.412247
    18  H    1.644325
    19  H    1.714611
    20  H    1.690706
    21  H    1.293273
    22  H    1.330643
    23  H    1.515816
    24  H    2.151362
    25  H    0.592747
    26  H    0.633514
    27  H    0.869187
    28  N   -3.339752
    29  N   -3.394363
    30  N   -3.353501
    31  N   -2.777821
    32  O   -3.542791
    33  O   -3.938635
    34  O   -3.441137
    35  O   -3.766689
    36  O   -3.310579
 Sum of Mulliken charges =   0.00000

 Dipole moment (field-independent basis, Debye):
    X=              3.3170    Y=              1.9097    Z=             -2.4951  Tot=              4.5689

 Test job not archived.
 1\1\GINC-SE163\SP\RHF\Aug-CC-pVDZ\C11H16N4O5\OHZDE\08-Apr-2025\0\\#t h
 f aug-cc-pvdz iop(5/13=1,5/36=2,99/5=2) pseudo=read geom=check guess=(
 read,tcheck) scf=(maxcycle=1)\\title\\0,1\C,0,0.927534,-1.27859,1.2551
 4\C,0,-2.46482,-1.67817,-0.948364\C,0,-2.5115,0.854133,-0.851093\C,0,-
 1.25985,2.59461,0.519439\C,0,-1.145,1.41514,-0.511801\C,0,-2.51213,-0.
 391544,-1.75203\C,0,4.22378,-0.654032,-0.221667\C,0,2.86601,-0.578331,
 -0.31141\C,0,1.88697,-1.64071,0.111882\C,0,-0.308443,-0.351971,0.88648
 5\C,0,3.62192,1.35792,-0.888913\H,0,-0.73812,1.88002,-1.40226\H,0,-2.3

 Normal termination of Gaussian 16 at Tue Apr  8 21:02:08 2025.
