 Gaussian 16, Revision C.01,

 ----------------------------------------------------------------------
 #t hf aug-cc-pvdz symm=none int=(grid=ultrafine) guess=(read,tcheck) s
 table=(opt,rrhf)
 ----------------------------------------------------------------------
 -----
 title
 -----
 Symbolic Z-matrix:
 Charge =  0 Multiplicity = 1

 SCF Done:  E(RHF) =  -471.591344420     A.U. after   13 cycles
 Normal termination of Gaussian 16 at Tue Apr  8 21:56:16 2025.
 Gaussian 16:  ES64L-G16RevC.01  3-Jul-2019

 ----------------------------------------------------------------------
 #t hf aug-cc-pvdz iop(5/13=1,5/36=2,99/5=2) pseudo=read geom=check gue
 ss=(read,tcheck) scf=(maxcycle=1)
 ----------------------------------------------------------------------
 -----
 title
 -----
 Structure from the checkpoint file:  "ANI1ccx_745_conf1_mol1.chk"
 Charge =  0 Multiplicity = 1

                         Standard orientation:
 ---------------------------------------------------------------------
 Center     Atomic      Atomic             Coordinates (Angstroms)
 Number     Number       Type             X           Y           Z
 ---------------------------------------------------------------------
      1          6           0        2.182070   -0.539420   -0.349336
      2          6           0        1.129110   -0.959173    0.684320
      3          6           0       -0.677051    0.401153    0.242291
      4          1           0        1.604441    1.207210   -0.032339
      5          1           0        2.122910   -1.231021   -1.192950
      6          1           0        3.160460   -0.707552    0.088848
      7          1           0        1.258230   -0.358378    1.598670
      8          1           0        1.201530   -2.018190    1.028530
      9          1           0       -2.454159    1.345441    0.042417
     10          1           0       -2.638090   -0.993567   -1.183640
     11          7           0       -1.943019    0.504550   -0.291675
     12          8           0        2.160191    0.831020   -0.725215
     13          8           0       -0.197500   -0.836003    0.122571
     14          8           0       -0.095860    1.380740    0.672649
     15          8           0       -2.674200   -0.649653   -0.291438
 ---------------------------------------------------------------------

 SCF Done:  E(RHF) =  -473.599088474     A.U. after    2 cycles

 The electronic state is 1-A.
 Alpha  occ. eigenvalues --  -21.12636 -21.11392 -21.05302 -21.05232 -15.80922
 Alpha  occ. eigenvalues --  -11.54053 -11.47273 -11.40588  -1.89654  -1.80953
 Alpha  occ. eigenvalues --   -1.69590  -1.69345  -1.25508  -1.10112  -0.91315
 Alpha  occ. eigenvalues --   -0.80885  -0.72501  -0.69543  -0.67775  -0.63802
 Alpha  occ. eigenvalues --   -0.60564  -0.58624  -0.55925  -0.52194  -0.49833
 Alpha  occ. eigenvalues --   -0.44090  -0.43202  -0.39082  -0.35604  -0.34020
 Alpha  occ. eigenvalues --   -0.31002  -0.29202
 Alpha virt. eigenvalues --    0.03703   0.04705   0.05261   0.05837   0.05999
 Alpha virt. eigenvalues --    0.06336   0.08506   0.10513   0.11063   0.12787
 Alpha virt. eigenvalues --    0.13567   0.14000   0.14825   0.15152   0.15767

 Mulliken charges:
               1
     1  C   -1.080106
     2  C   -1.804947
     3  C    6.411885
     4  H    1.125335
     5  H    1.515906
     6  H    1.174162
     7  H    1.323737
     8  H    1.427218
     9  H    0.584390
    10  H    0.739612
    11  N   -0.685395
    12  O   -2.600812
    13  O   -3.062993
    14  O   -2.728070
    15  O   -2.339923
 Sum of Mulliken charges =  -0.00000

 Dipole moment (field-independent basis, Debye):
    X=             -1.4822    Y=             -1.7732    Z=              0.0906  Tot=              2.3129

 Test job not archived.
 1\1\GINC-SE049\SP\RHF\Aug-CC-pVDZ\C3H7N1O4\OHZDE\08-Apr-2025\0\\#t hf
 aug-cc-pvdz iop(5/13=1,5/36=2,99/5=2) pseudo=read geom=check guess=(re
 ad,tcheck) scf=(maxcycle=1)\\title\\0,1\C,0,2.18207,-0.539419,-0.34933
 6\C,0,1.12911,-0.959173,0.68432\C,0,-0.677052,0.401152,0.242291\H,0,1.
 60444,1.20721,-0.0323389\H,0,2.12291,-1.23102,-1.19295\H,0,3.16046,-0.
 707551,0.0888482\H,0,1.25823,-0.358378,1.59867\H,0,1.20153,-2.01819,1.
 02853\H,0,-2.45416,1.34544,0.0424166\H,0,-2.63809,-0.993568,-1.18364\N
 ,0,-1.94302,0.504549,-0.291675\O,0,2.16019,0.831021,-0.725215\O,0,-0.1

 Normal termination of Gaussian 16 at Tue Apr  8 21:56:21 2025.
