 Gaussian 16, Revision C.01,

 ----------------------------------------------------------------------
 #t hf aug-cc-pvdz symm=none int=(grid=ultrafine) guess=(read,tcheck) s
 table=(opt,rrhf)
 ----------------------------------------------------------------------
 -----
 title
 -----
 Symbolic Z-matrix:
 Charge =  0 Multiplicity = 1

 SCF Done:  E(RHF) =  -598.343639547     A.U. after   15 cycles
 Normal termination of Gaussian 16 at Tue Apr  8 19:32:08 2025.
 Gaussian 16:  ES64L-G16RevC.01  3-Jul-2019

 ----------------------------------------------------------------------
 #t hf aug-cc-pvdz iop(5/13=1,5/36=2,99/5=2) pseudo=read geom=check gue
 ss=(read,tcheck) scf=(maxcycle=1)
 ----------------------------------------------------------------------
 -----
 title
 -----
 Structure from the checkpoint file:  "ANI1ccx_1320_conf5_mol1.chk"
 Charge =  0 Multiplicity = 1

                         Standard orientation:
 ---------------------------------------------------------------------
 Center     Atomic      Atomic             Coordinates (Angstroms)
 Number     Number       Type             X           Y           Z
 ---------------------------------------------------------------------
      1          6           0       -1.618291   -2.161260    0.041842
      2          6           0        0.364022   -0.796935   -0.052616
      3          6           0        2.482869   -1.281262   -0.020199
      4          6           0        1.040800    0.400197   -0.032024
      5          6           0        0.345853    1.658759    0.023518
      6          6           0       -1.728770    0.303423   -0.026846
      7          1           0       -1.584029    2.368400   -0.043952
      8          1           0        3.099520    0.754397   -0.147125
      9          1           0        3.466279   -1.778093   -0.072427
     10          1           0       -2.682951   -1.958419    0.155557
     11          1           0       -1.392451   -2.771630    0.934838
     12          1           0       -1.408431   -2.755590   -0.882735
     13          7           0       -1.004630   -0.869793    0.064308
     14          7           0        1.293299   -1.829591    0.042707
     15          7           0        2.367490    0.099253   -0.041587
     16          7           0       -1.012079    1.524390    0.041268
     17          8           0        0.917196    2.741319    0.064139
     18          8           0       -2.957870    0.375380   -0.100774
 ---------------------------------------------------------------------

 SCF Done:  E(RHF) =  -600.975663651     A.U. after    2 cycles

 The electronic state is 1-A.
 Alpha  occ. eigenvalues --  -21.04146 -21.03971 -15.82925 -15.80471 -15.80333
 Alpha  occ. eigenvalues --  -15.75598 -11.55147 -11.54250 -11.51862 -11.47513
 Alpha  occ. eigenvalues --  -11.42761 -11.41611  -1.74701  -1.71765  -1.60610
 Alpha  occ. eigenvalues --   -1.48214  -1.39543  -1.29682  -1.14710  -1.04773
 Alpha  occ. eigenvalues --   -0.95820  -0.90194  -0.85936  -0.79450  -0.74889
 Alpha  occ. eigenvalues --   -0.69909  -0.68384  -0.63468  -0.62239  -0.60773
 Alpha  occ. eigenvalues --   -0.59351  -0.59029  -0.54677  -0.52553  -0.51042
 Alpha  occ. eigenvalues --   -0.48957  -0.43351  -0.42113  -0.38888  -0.33491
 Alpha  occ. eigenvalues --   -0.32639  -0.29346  -0.27292
 Alpha virt. eigenvalues --    0.02794   0.04519   0.05499   0.06284   0.06650
 Alpha virt. eigenvalues --    0.07438   0.07944   0.08858   0.09745   0.10555
 Alpha virt. eigenvalues --    0.10831   0.11254   0.12099   0.12467   0.13128

 Mulliken charges:
               1
     1  C   -3.936987
     2  C    4.764698
     3  C    0.438381
     4  C    1.478766
     5  C    6.434337
     6  C    4.556885
     7  H    0.656015
     8  H    0.811293
     9  H    1.607790
    10  H    1.310242
    11  H    1.418346
    12  H    1.437394
    13  N   -3.814399
    14  N   -3.503704
    15  N   -3.701206
    16  N   -2.813466
    17  O   -3.901427
    18  O   -3.242959
 Sum of Mulliken charges =   0.00000

 Dipole moment (field-independent basis, Debye):
    X=              2.7129    Y=             -1.0918    Z=             -0.2170  Tot=              2.9324

 Test job not archived.
 1\1\GINC-SE340\SP\RHF\Aug-CC-pVDZ\C6H6N4O2\OHZDE\08-Apr-2025\0\\#t hf
 aug-cc-pvdz iop(5/13=1,5/36=2,99/5=2) pseudo=read geom=check guess=(re
 ad,tcheck) scf=(maxcycle=1)\\title\\0,1\C,0,-1.61829,-2.16126,0.041842
 2\C,0,0.364022,-0.796934,-0.0526156\C,0,2.48287,-1.28126,-0.0201988\C,
 0,1.0408,0.400198,-0.0320241\C,0,0.345852,1.65876,0.0235183\C,0,-1.728
 77,0.303423,-0.0268462\H,0,-1.58403,2.3684,-0.0439523\H,0,3.09952,0.75
 4399,-0.147125\H,0,3.46628,-1.77809,-0.0724273\H,0,-2.68295,-1.95842,0
 .155557\H,0,-1.39245,-2.77163,0.934838\H,0,-1.40843,-2.75559,-0.882735

 Normal termination of Gaussian 16 at Tue Apr  8 19:32:23 2025.
