 Gaussian 16, Revision C.01,

 ----------------------------------------------------------------------
 #t hf aug-cc-pvdz symm=none int=(grid=ultrafine) guess=(read,tcheck) s
 table=(opt,rrhf)
 ----------------------------------------------------------------------
 -----
 title
 -----
 Symbolic Z-matrix:
 Charge =  0 Multiplicity = 1

 SCF Done:  E(RHF) =  -943.030614313     A.U. after   15 cycles
 Normal termination of Gaussian 16 at Tue Apr  8 20:20:31 2025.
 Gaussian 16:  ES64L-G16RevC.01  3-Jul-2019

 ----------------------------------------------------------------------
 #t hf aug-cc-pvdz iop(5/13=1,5/36=2,99/5=2) pseudo=read geom=check gue
 ss=(read,tcheck) scf=(maxcycle=1)
 ----------------------------------------------------------------------
 -----
 title
 -----
 Structure from the checkpoint file:  "ANI1ccx_1569_conf31_mol1.chk"
 Charge =  0 Multiplicity = 1

                         Standard orientation:
 ---------------------------------------------------------------------
 Center     Atomic      Atomic             Coordinates (Angstroms)
 Number     Number       Type             X           Y           Z
 ---------------------------------------------------------------------
      1          6           0        2.054759    1.319519   -0.405872
      2          6           0        0.675693    0.716638   -0.265723
      3          6           0        3.119049    0.403414    0.414392
      4          6           0        3.541729   -0.922014   -0.241191
      5          6           0       -1.577501    0.705932    0.463801
      6          6           0       -1.086701   -0.683309    0.920734
      7          6           0       -2.468961    0.633719   -0.798259
      8          6           0       -3.783171    0.028129   -0.416914
      9          1           0       -1.618611   -2.458611    1.033490
     10          1           0       -5.146501   -1.208700   -1.014000
     11          1           0       -2.023761    0.145333   -1.664250
     12          1           0       -2.692841    1.705689   -1.071190
     13          1           0       -2.094531    1.181149    1.235820
     14          1           0       -0.124954    2.335449    0.731046
     15          1           0        2.967149    0.305518    1.449420
     16          1           0        4.010209    0.988975    0.386912
     17          1           0        2.244379    1.239939   -1.523700
     18          1           0        1.948980    3.436839   -0.682751
     19          1           0        2.919330    2.939219    0.575548
     20          1           0        4.391109   -2.396281   -0.218833
     21          7           0        2.100590    2.730269    0.082985
     22          7           0       -0.344099    1.487959    0.180451
     23          8           0       -4.209321   -0.998444   -1.197560
     24          8           0        0.499740   -0.453501   -0.639166
     25          8           0        3.407829   -1.149351   -1.453440
     26          8           0        4.165239   -1.742751    0.514165
     27          8           0       -0.395864   -0.656437    1.890360
     28          8           0       -4.324631    0.407301    0.623856
     29          8           0       -1.633591   -1.776101    0.373365
 ---------------------------------------------------------------------

 SCF Done:  E(RHF) =  -947.099599053     A.U. after    2 cycles

 The electronic state is 1-A.
 Alpha  occ. eigenvalues --  -21.13714 -21.12911 -21.11671 -21.05097 -21.03392
 Alpha  occ. eigenvalues --  -21.02959 -21.02119 -15.77020 -15.76200 -11.54925
 Alpha  occ. eigenvalues --  -11.54497 -11.53939 -11.53428 -11.47673 -11.46687
 Alpha  occ. eigenvalues --  -11.42599 -11.41379  -1.86222  -1.83074  -1.81311
 Alpha  occ. eigenvalues --   -1.71738  -1.66022  -1.65210  -1.63062  -1.41400
 Alpha  occ. eigenvalues --   -1.34734  -1.17437  -1.13842  -1.02673  -0.96792
 Alpha  occ. eigenvalues --   -0.84429  -0.81080  -0.79909  -0.76597  -0.73100
 Alpha  occ. eigenvalues --   -0.68148  -0.66168  -0.65130  -0.64679  -0.63932
 Alpha  occ. eigenvalues --   -0.63221  -0.62011  -0.59629  -0.59467  -0.58563
 Alpha  occ. eigenvalues --   -0.56362  -0.53663  -0.52705  -0.52200  -0.50813
 Alpha  occ. eigenvalues --   -0.49449  -0.47581  -0.45891  -0.44736  -0.44188
 Alpha  occ. eigenvalues --   -0.41028  -0.38233  -0.34945  -0.33802  -0.32930
 Alpha  occ. eigenvalues --   -0.30886  -0.30440  -0.30093  -0.28527  -0.27343
 Alpha virt. eigenvalues --    0.03057   0.04158   0.04576   0.05144   0.05379
 Alpha virt. eigenvalues --    0.05723   0.06198   0.06356   0.06997   0.07852
 Alpha virt. eigenvalues --    0.08408   0.08856   0.10620   0.10955   0.11217

 Mulliken charges:
               1
     1  C   -0.122648
     2  C    6.041169
     3  C   -4.490618
     4  C    6.180154
     5  C   -1.744645
     6  C    7.444830
     7  C   -4.859890
     8  C    6.635467
     9  H    0.698634
    10  H    0.908283
    11  H    1.541564
    12  H    1.602402
    13  H    2.453391
    14  H    0.729562
    15  H    1.549032
    16  H    1.598162
    17  H    1.563325
    18  H    0.538642
    19  H    0.691382
    20  H    0.701088
    21  N   -3.373492
    22  N   -2.818001
    23  O   -3.240993
    24  O   -3.759407
    25  O   -2.847237
    26  O   -3.251596
    27  O   -3.851115
    28  O   -3.147376
    29  O   -3.370067
 Sum of Mulliken charges =   0.00000

 Dipole moment (field-independent basis, Debye):
    X=              1.2323    Y=              1.2840    Z=             -0.4813  Tot=              1.8436

 Test job not archived.
 1\1\GINC-SE220\SP\RHF\Aug-CC-pVDZ\C8H12N2O7\OHZDE\08-Apr-2025\0\\#t hf
  aug-cc-pvdz iop(5/13=1,5/36=2,99/5=2) pseudo=read geom=check guess=(r
 ead,tcheck) scf=(maxcycle=1)\\title\\0,1\C,0,2.05476,1.31952,-0.405872
 \C,0,0.675694,0.716639,-0.265723\C,0,3.11905,0.403415,0.414392\C,0,3.5
 4173,-0.922013,-0.241191\C,0,-1.5775,0.705933,0.463801\C,0,-1.0867,-0.
 683308,0.920734\C,0,-2.46896,0.63372,-0.798259\C,0,-3.78317,0.0281291,
 -0.416914\H,0,-1.61861,-2.45861,1.03349\H,0,-5.1465,-1.2087,-1.014\H,0
 ,-2.02376,0.145334,-1.66425\H,0,-2.69284,1.70569,-1.07119\H,0,-2.09453

 Normal termination of Gaussian 16 at Tue Apr  8 20:21:09 2025.
