 Gaussian 16, Revision C.01,

 ----------------------------------------------------------------------
 #t hf aug-cc-pvdz symm=none int=(grid=ultrafine) guess=(read,tcheck) s
 table=(opt,rrhf)
 ----------------------------------------------------------------------
 -----
 title
 -----
 Symbolic Z-matrix:
 Charge =  0 Multiplicity = 1

 SCF Done:  E(RHF) =  -339.587230005     A.U. after   14 cycles
 Normal termination of Gaussian 16 at Tue Apr  8 21:38:42 2025.
 Gaussian 16:  ES64L-G16RevC.01  3-Jul-2019

 ----------------------------------------------------------------------
 #t hf aug-cc-pvdz iop(5/13=1,5/36=2,99/5=2) pseudo=read geom=check gue
 ss=(read,tcheck) scf=(maxcycle=1)
 ----------------------------------------------------------------------
 -----
 title
 -----
 Structure from the checkpoint file:  "ANI1ccx_409_conf5_mol1.chk"
 Charge =  0 Multiplicity = 1

                         Standard orientation:
 ---------------------------------------------------------------------
 Center     Atomic      Atomic             Coordinates (Angstroms)
 Number     Number       Type             X           Y           Z
 ---------------------------------------------------------------------
      1          6           0        1.304859    0.020212    0.295807
      2          1           0       -2.227400   -1.343780   -0.063279
      3          1           0       -1.520361    0.800743    0.665140
      4          1           0        2.330840   -1.602569    0.124106
      5          1           0        0.801461   -0.557529    1.109000
      6          8           0       -2.675000   -0.491964    0.025188
      7          8           0       -1.569281    0.383320   -0.200841
      8          8           0        2.298030   -0.705254   -0.229690
      9          8           0        1.044539    1.136631   -0.045883
 ---------------------------------------------------------------------

 SCF Done:  E(RHF) =  -340.966683622     A.U. after    2 cycles

 The electronic state is 1-A.
 Alpha  occ. eigenvalues --  -21.14308 -21.12150 -21.11754 -21.06821 -11.52357
 Alpha  occ. eigenvalues --   -1.93656  -1.83545  -1.66916  -1.39825  -0.87670
 Alpha  occ. eigenvalues --   -0.74414  -0.62240  -0.61432  -0.55586  -0.54688
 Alpha  occ. eigenvalues --   -0.48222  -0.47135  -0.37047  -0.33897  -0.32429
 Alpha  occ. eigenvalues --   -0.30632
 Alpha virt. eigenvalues --    0.02418   0.04760   0.05420   0.07235   0.10709
 Alpha virt. eigenvalues --    0.12542   0.13228   0.14409   0.15664   0.18232
 Alpha virt. eigenvalues --    0.19128   0.20292   0.21251   0.21756   0.22317

 Mulliken charges:
               1
     1  C    2.455419
     2  H    0.925069
     3  H    0.921825
     4  H    0.976732
     5  H    1.473951
     6  O   -1.017280
     7  O   -0.786427
     8  O   -2.458703
     9  O   -2.490586
 Sum of Mulliken charges =  -0.00000

 Dipole moment (field-independent basis, Debye):
    X=              0.8606    Y=             -2.1820    Z=              1.2160  Tot=              2.6420

 Test job not archived.
 1\1\GINC-SE402\SP\RHF\Aug-CC-pVDZ\C1H4O4\OHZDE\08-Apr-2025\0\\#t hf au
 g-cc-pvdz iop(5/13=1,5/36=2,99/5=2) pseudo=read geom=check guess=(read
 ,tcheck) scf=(maxcycle=1)\\title\\0,1\C,0,1.30486,0.0202109,0.295807\H
 ,0,-2.2274,-1.34378,-0.0632789\H,0,-1.52036,0.800743,0.66514\H,0,2.330
 84,-1.60257,0.124106\H,0,0.801461,-0.55753,1.109\O,0,-2.675,-0.491964,
 0.025188\O,0,-1.56928,0.38332,-0.200841\O,0,2.29803,-0.705255,-0.22969
 \O,0,1.04454,1.13663,-0.0458833\\Version=ES64L-G16RevC.01\State=1-A\HF
 =-340.9666836\RMSD=4.056e-02\Dipole=0.3385818,-0.8584567,0.4784257\Qua

 Normal termination of Gaussian 16 at Tue Apr  8 21:38:44 2025.
