 Gaussian 16, Revision C.01,

 ----------------------------------------------------------------------
 #t hf aug-cc-pvdz symm=none int=(grid=ultrafine) guess=(read,tcheck) s
 table=(opt,rrhf)
 ----------------------------------------------------------------------
 -----
 title
 -----
 Symbolic Z-matrix:
 Charge =  0 Multiplicity = 1

 SCF Done:  E(RHF) =  -752.425459576     A.U. after   15 cycles
 Normal termination of Gaussian 16 at Tue Apr  8 20:14:05 2025.
 Gaussian 16:  ES64L-G16RevC.01  3-Jul-2019

 ----------------------------------------------------------------------
 #t hf aug-cc-pvdz iop(5/13=1,5/36=2,99/5=2) pseudo=read geom=check gue
 ss=(read,tcheck) scf=(maxcycle=1)
 ----------------------------------------------------------------------
 -----
 title
 -----
 Structure from the checkpoint file:  "ANI1ccx_1572_conf15_mol2.chk"
 Charge =  0 Multiplicity = 1

                         Standard orientation:
 ---------------------------------------------------------------------
 Center     Atomic      Atomic             Coordinates (Angstroms)
 Number     Number       Type             X           Y           Z
 ---------------------------------------------------------------------
      1          6           0        3.881750   -1.043370    0.252296
      2          6           0        2.384050   -1.038170   -0.112687
      3          6           0        0.374337    0.180242   -0.385213
      4          6           0        0.023188    1.603719   -0.524037
      5          6           0       -0.555351   -0.421672    0.727007
      6          6           0       -2.011830   -0.394792    0.403367
      7          6           0       -2.536770   -1.172321   -0.585624
      8          6           0       -4.116610   -0.144189    0.580103
      9          1           0        0.444706    3.254499    0.135308
     10          1           0       -4.588750   -1.368461   -1.116840
     11          1           0       -5.109590    0.212821    0.869926
     12          1           0       -2.054540   -1.774211   -1.346130
     13          1           0       -0.433894    0.210337    1.624480
     14          1           0       -0.188669   -1.445691    0.939916
     15          1           0        0.158111   -0.426683   -1.258100
     16          1           0        2.141240    0.932636    0.425773
     17          1           0        3.994720   -1.538750    1.260480
     18          1           0        4.326480   -1.648160   -0.564478
     19          1           0        4.388690    0.714117   -0.559414
     20          1           0        5.271500    0.380171    0.771591
     21          7           0        4.307860    0.334224    0.371062
     22          7           0        1.749810    0.133205    0.032229
     23          7           0       -2.995190    0.180409    1.192040
     24          7           0       -3.926250   -0.983990   -0.509042
     25          8           0        1.756080   -2.012101   -0.562183
     26          8           0       -0.973821    2.067789   -1.001700
     27          8           0        0.847717    2.373529    0.199155
 ---------------------------------------------------------------------

 SCF Done:  E(RHF) =  -755.788018473     A.U. after    2 cycles

 The electronic state is 1-A.
 Alpha  occ. eigenvalues --  -21.12523 -21.04935 -21.01236 -15.79264 -15.75796
 Alpha  occ. eigenvalues --  -15.75568 -15.71525 -11.54000 -11.51291 -11.47511
 Alpha  occ. eigenvalues --  -11.44887 -11.42602 -11.42101 -11.41878 -11.37117
 Alpha  occ. eigenvalues --   -1.85433  -1.69681  -1.65741  -1.54164  -1.42455
 Alpha  occ. eigenvalues --   -1.34889  -1.26559  -1.17099  -1.07445  -1.00602
 Alpha  occ. eigenvalues --   -0.95921  -0.85270  -0.82545  -0.80245  -0.76729
 Alpha  occ. eigenvalues --   -0.73852  -0.71099  -0.67901  -0.64679  -0.62045
 Alpha  occ. eigenvalues --   -0.61130  -0.60508  -0.58855  -0.57510  -0.56000
 Alpha  occ. eigenvalues --   -0.55457  -0.54951  -0.52217  -0.50677  -0.48225
 Alpha  occ. eigenvalues --   -0.47527  -0.44768  -0.43598  -0.39129  -0.38402
 Alpha  occ. eigenvalues --   -0.36106  -0.34053  -0.31125  -0.30608  -0.28123
 Alpha  occ. eigenvalues --   -0.26607
 Alpha virt. eigenvalues --    0.03238   0.04379   0.04813   0.05025   0.05227
 Alpha virt. eigenvalues --    0.06068   0.06193   0.06554   0.07509   0.07875
 Alpha virt. eigenvalues --    0.08694   0.09497   0.10292   0.10925   0.11277

 Mulliken charges:
               1
     1  C   -3.042607
     2  C    5.559861
     3  C   -4.091183
     4  C    8.604704
     5  C   -3.276737
     6  C    5.214640
     7  C   -2.296656
     8  C    0.776646
     9  H    1.028620
    10  H    0.882876
    11  H    1.709573
    12  H    1.346104
    13  H    1.250446
    14  H    1.634820
    15  H    2.393687
    16  H    0.886468
    17  H    1.417327
    18  H    1.329404
    19  H    0.637790
    20  H    0.663914
    21  N   -2.396555
    22  N   -2.129233
    23  N   -3.931874
    24  N   -3.276175
    25  O   -3.592093
    26  O   -3.759023
    27  O   -3.544744
 Sum of Mulliken charges =  -0.00000

 Dipole moment (field-independent basis, Debye):
    X=              0.9182    Y=              0.0789    Z=             -1.3535  Tot=              1.6374

 Test job not archived.
 1\1\GINC-SE232\SP\RHF\Aug-CC-pVDZ\C8H12N4O3\OHZDE\08-Apr-2025\0\\#t hf
  aug-cc-pvdz iop(5/13=1,5/36=2,99/5=2) pseudo=read geom=check guess=(r
 ead,tcheck) scf=(maxcycle=1)\\title\\0,1\C,0,3.88175,-1.04337,0.252296
 \C,0,2.38405,-1.03817,-0.112687\C,0,0.374337,0.180243,-0.385213\C,0,0.
 0231878,1.60372,-0.524037\C,0,-0.555351,-0.421671,0.727007\C,0,-2.0118
 3,-0.394791,0.403367\C,0,-2.53677,-1.17232,-0.585624\C,0,-4.11661,-0.1
 44188,0.580103\H,0,0.444706,3.2545,0.135308\H,0,-4.58875,-1.36846,-1.1
 1684\H,0,-5.10959,0.212822,0.869926\H,0,-2.05454,-1.77421,-1.34613\H,0

 Normal termination of Gaussian 16 at Tue Apr  8 20:14:33 2025.
