 Gaussian 16, Revision C.01,

 ----------------------------------------------------------------------
 #t hf aug-cc-pvdz symm=none int=(grid=ultrafine) guess=(read,tcheck) s
 table=(opt,rrhf)
 ----------------------------------------------------------------------
 -----
 title
 -----
 Symbolic Z-matrix:
 Charge =  0 Multiplicity = 1

 SCF Done:  E(RHF) =  -334.535933693     A.U. after   14 cycles
 Normal termination of Gaussian 16 at Tue Apr  8 21:12:20 2025.
 Gaussian 16:  ES64L-G16RevC.01  3-Jul-2019

 ----------------------------------------------------------------------
 #t hf aug-cc-pvdz iop(5/13=1,5/36=2,99/5=2) pseudo=read geom=check gue
 ss=(read,tcheck) scf=(maxcycle=1)
 ----------------------------------------------------------------------
 -----
 title
 -----
 Structure from the checkpoint file:  "ANI1ccx_1859_conf3_mol1.chk"
 Charge =  0 Multiplicity = 1

                         Standard orientation:
 ---------------------------------------------------------------------
 Center     Atomic      Atomic             Coordinates (Angstroms)
 Number     Number       Type             X           Y           Z
 ---------------------------------------------------------------------
      1          1           0       -2.031660   -0.846722    0.846112
      2          1           0       -1.457091    1.319600   -0.810361
      3          7           0        2.171589    0.366579    0.180264
      4          7           0        1.950550   -0.636694   -0.178430
      5          8           0       -1.657790   -0.946646   -0.034111
      6          8           0       -0.530167   -0.108983    0.000642
      7          8           0       -0.982821    1.232870    0.027395
 ---------------------------------------------------------------------

 SCF Done:  E(RHF) =  -335.886412241     A.U. after    2 cycles

 The electronic state is 1-A.
 Alpha  occ. eigenvalues --  -21.15570 -21.14356 -21.14082 -15.85275 -15.85093
 Alpha  occ. eigenvalues --   -2.08299  -1.70318  -1.55362  -1.28904  -0.77085
 Alpha  occ. eigenvalues --   -0.69796  -0.59984  -0.57650  -0.56816  -0.56708
 Alpha  occ. eigenvalues --   -0.55606  -0.53870  -0.36831  -0.35311  -0.30498
 Alpha virt. eigenvalues --    0.04818   0.05979   0.11547   0.13970   0.14408
 Alpha virt. eigenvalues --    0.14574   0.15459   0.16906   0.17344   0.18048
 Alpha virt. eigenvalues --    0.20159   0.20632   0.21521   0.23042   0.26558

 Mulliken charges:
               1
     1  H    0.906986
     2  H    0.931314
     3  N   -0.040178
     4  N    0.020021
     5  O   -1.154410
     6  O    0.557809
     7  O   -1.221541
 Sum of Mulliken charges =  -0.00000

 Dipole moment (field-independent basis, Debye):
    X=             -1.2057    Y=              0.1854    Z=              0.0550  Tot=              1.2211

 Test job not archived.
 1\1\GINC-SE009\SP\RHF\Aug-CC-pVDZ\H2N2O3\OHZDE\08-Apr-2025\0\\#t hf au
 g-cc-pvdz iop(5/13=1,5/36=2,99/5=2) pseudo=read geom=check guess=(read
 ,tcheck) scf=(maxcycle=1)\\title\\0,1\H,0,-2.03166,-0.846722,0.846112\
 H,0,-1.45709,1.3196,-0.810361\N,0,2.17159,0.366578,0.180264\N,0,1.9505
 5,-0.636695,-0.17843\O,0,-1.65779,-0.946646,-0.0341111\O,0,-0.530166,-
 0.108983,0.00064213\O,0,-0.98282,1.23287,0.0273953\\Version=ES64L-G16R
 evC.01\State=1-A\HF=-335.8864122\RMSD=8.867e-02\Dipole=-0.4743526,0.07
 29375,0.0216571\Quadrupole=0.6723052,-1.3962427,0.7239376,-0.5726018,-

 Normal termination of Gaussian 16 at Tue Apr  8 21:12:22 2025.
