 Gaussian 16, Revision C.01,

 ----------------------------------------------------------------------
 #t hf aug-cc-pvdz symm=none int=(grid=ultrafine) guess=(read,tcheck) s
 table=(opt,rrhf)
 ----------------------------------------------------------------------
 -----
 title
 -----
 Symbolic Z-matrix:
 Charge =  0 Multiplicity = 1

 SCF Done:  E(RHF) =  -981.473070943     A.U. after   14 cycles
 Normal termination of Gaussian 16 at Tue Apr  8 22:19:51 2025.
 Gaussian 16:  ES64L-G16RevC.01  3-Jul-2019

 ----------------------------------------------------------------------
 #t hf aug-cc-pvdz iop(5/13=1,5/36=2,99/5=2) pseudo=read geom=check gue
 ss=(read,tcheck) scf=(maxcycle=1)
 ----------------------------------------------------------------------
 -----
 title
 -----
 Structure from the checkpoint file:  "ANI1ccx_69_conf1_mol1.chk"
 Charge =  0 Multiplicity = 1

                         Standard orientation:
 ---------------------------------------------------------------------
 Center     Atomic      Atomic             Coordinates (Angstroms)
 Number     Number       Type             X           Y           Z
 ---------------------------------------------------------------------
      1          6           0        1.969810    0.158364    0.972403
      2          6           0       -2.809200   -1.302909    0.114843
      3          6           0       -1.996840   -0.707594   -1.064240
      4          6           0       -2.334050    1.707391   -0.172333
      5          6           0       -1.328790    0.667636   -0.774821
      6          6           0       -4.271980   -1.013319    0.066014
      7          6           0        3.876650   -1.172020   -0.225534
      8          6           0        3.033840   -0.957771    1.037740
      9          6           0        0.934417   -0.058966   -0.201940
     10          6           0        4.940430   -0.067025   -0.322362
     11          1           0       -1.003980    1.014630   -1.748170
     12          1           0       -3.881290    1.007371   -1.048410
     13          1           0       -6.027290   -1.540239    0.935546
     14          1           0       -4.654530   -2.373869    1.554890
     15          1           0       -2.770350   -2.404069   -0.036759
     16          1           0       -2.305320   -1.117749    1.032510
     17          1           0       -1.183680   -1.364140   -1.380860
     18          1           0       -2.611570   -0.651560   -1.961570
     19          1           0       -0.305308    0.991299    1.020820
     20          1           0        6.358590    0.654726   -1.574620
     21          1           0        5.355610   -0.543465   -2.350840
     22          1           0        3.252310   -1.093860   -1.144490
     23          1           0        4.369470   -2.183480   -0.185848
     24          1           0        3.691420   -0.720665    1.811910
     25          1           0        2.567830   -1.879640    1.367590
     26          1           0        2.503340    1.069500    0.708695
     27          1           0        1.857460    0.946014    2.856530
     28          1           0        1.264390   -0.524158    2.732590
     29          7           0       -5.046310   -1.599579    1.037570
     30          7           0       -0.212348    0.516197    0.133129
     31          7           0        1.269700    0.388000    2.251270
     32          7           0        5.597670   -0.014169   -1.550480
     33          8           0       -4.730750   -0.335042   -0.831758
     34          8           0        1.179890   -0.562762   -1.316530
     35          8           0        5.236370    0.678599    0.617506
     36          8           0       -1.911050    2.373380    0.763402
     37          8           0       -3.502440    1.865511   -0.766190
 ---------------------------------------------------------------------

 SCF Done:  E(RHF) =  -985.874674252     A.U. after    2 cycles

 The electronic state is 1-A.
 Alpha  occ. eigenvalues --  -21.09673 -21.06006 -21.04077 -21.02465 -21.01786
 Alpha  occ. eigenvalues --  -15.80814 -15.77372 -15.75185 -15.74793 -11.55843
 Alpha  occ. eigenvalues --  -11.53248 -11.51599 -11.51094 -11.48582 -11.45939
 Alpha  occ. eigenvalues --  -11.44117 -11.42489 -11.40078 -11.38048  -1.81647
 Alpha  occ. eigenvalues --   -1.75808  -1.69896  -1.68578  -1.64933  -1.42598
 Alpha  occ. eigenvalues --   -1.38045  -1.35067  -1.33150  -1.21145  -1.17096
 Alpha  occ. eigenvalues --   -1.08320  -1.01137  -0.94837  -0.90564  -0.82827
 Alpha  occ. eigenvalues --   -0.80084  -0.78219  -0.77737  -0.74827  -0.72576
 Alpha  occ. eigenvalues --   -0.70551  -0.69559  -0.68464  -0.66646  -0.64147
 Alpha  occ. eigenvalues --   -0.63003  -0.62958  -0.60239  -0.58468  -0.56257
 Alpha  occ. eigenvalues --   -0.55568  -0.54186  -0.53674  -0.52171  -0.51416
 Alpha  occ. eigenvalues --   -0.51085  -0.49899  -0.48970  -0.48301  -0.47030
 Alpha  occ. eigenvalues --   -0.45964  -0.45282  -0.43806  -0.42136  -0.37634
 Alpha  occ. eigenvalues --   -0.36995  -0.32659  -0.32337  -0.31751  -0.30149
 Alpha  occ. eigenvalues --   -0.29160  -0.28833  -0.26752
 Alpha virt. eigenvalues --    0.02403   0.03752   0.03964   0.04253   0.04651
 Alpha virt. eigenvalues --    0.05134   0.05609   0.06152   0.06590   0.06837
 Alpha virt. eigenvalues --    0.07315   0.07484   0.08127   0.08524   0.08742

 Mulliken charges:
               1
     1  C   -0.659736
     2  C   -3.716359
     3  C   -2.415711
     4  C    6.475279
     5  C   -2.966244
     6  C    5.240707
     7  C   -4.376355
     8  C   -2.486207
     9  C    5.796909
    10  C    5.583893
    11  H    1.992061
    12  H    1.581866
    13  H    0.784256
    14  H    0.777482
    15  H    1.439521
    16  H    1.896174
    17  H    1.620350
    18  H    1.344392
    19  H    0.998858
    20  H    0.732564
    21  H    0.846074
    22  H    1.832338
    23  H    1.432418
    24  H    1.571266
    25  H    1.214062
    26  H    1.966485
    27  H    0.585432
    28  H    0.626766
    29  N   -3.368572
    30  N   -2.813859
    31  N   -2.982681
    32  N   -3.441093
    33  O   -3.441614
    34  O   -3.650269
    35  O   -3.211304
    36  O   -3.185521
    37  O   -3.623629
 Sum of Mulliken charges =   0.00000

 Dipole moment (field-independent basis, Debye):
    X=             -1.3416    Y=             -4.2734    Z=              0.7243  Tot=              4.5372

 Test job not archived.
 1\1\GINC-SE398\SP\RHF\Aug-CC-pVDZ\C10H18N4O5\OHZDE\08-Apr-2025\0\\#t h
 f aug-cc-pvdz iop(5/13=1,5/36=2,99/5=2) pseudo=read geom=check guess=(
 read,tcheck) scf=(maxcycle=1)\\title\\0,1\C,0,1.96981,0.158364,0.97240
 3\C,0,-2.8092,-1.30291,0.114843\C,0,-1.99684,-0.707594,-1.06424\C,0,-2
 .33405,1.70739,-0.172333\C,0,-1.32879,0.667636,-0.774821\C,0,-4.27198,
 -1.01332,0.0660137\C,0,3.87665,-1.17202,-0.225534\C,0,3.03384,-0.95777
 1,1.03774\C,0,0.934417,-0.0589658,-0.20194\C,0,4.94043,-0.0670249,-0.3
 22362\H,0,-1.00398,1.01463,-1.74817\H,0,-3.88129,1.00737,-1.04841\H,0,

 Normal termination of Gaussian 16 at Tue Apr  8 22:20:49 2025.
