 Gaussian 16, Revision C.01,

 ----------------------------------------------------------------------
 #t hf aug-cc-pvdz symm=none int=(grid=ultrafine) guess=(read,tcheck) s
 table=(opt,rrhf)
 ----------------------------------------------------------------------
 -----
 title
 -----
 Symbolic Z-matrix:
 Charge =  0 Multiplicity = 1

 SCF Done:  E(RHF) =  -809.798122285     A.U. after   14 cycles
 Normal termination of Gaussian 16 at Tue Apr  8 20:48:22 2025.
 Gaussian 16:  ES64L-G16RevC.01  3-Jul-2019

 ----------------------------------------------------------------------
 #t hf aug-cc-pvdz iop(5/13=1,5/36=2,99/5=2) pseudo=read geom=check gue
 ss=(read,tcheck) scf=(maxcycle=1)
 ----------------------------------------------------------------------
 -----
 title
 -----
 Structure from the checkpoint file:  "ANI1ccx_1634_conf8_mol1.chk"
 Charge =  0 Multiplicity = 1

                         Standard orientation:
 ---------------------------------------------------------------------
 Center     Atomic      Atomic             Coordinates (Angstroms)
 Number     Number       Type             X           Y           Z
 ---------------------------------------------------------------------
      1          6           0        3.406571   -0.010314    0.505799
      2          6           0        2.187931    0.764172    0.019084
      3          6           0        0.531862   -1.125170    0.461784
      4          6           0        0.137231   -1.807020   -0.884400
      5          6           0       -0.427902   -1.272550    1.619340
      6          6           0       -1.449949   -0.185952    1.913030
      7          6           0       -2.762699   -0.303213    1.168130
      8          6           0       -2.210478    1.258462   -0.645645
      9          1           0       -1.306031   -2.673989   -1.749710
     10          1           0       -3.965957    2.267313   -0.062433
     11          1           0       -2.665257    3.237632   -0.603147
     12          1           0       -1.094637    2.306301   -1.707040
     13          1           0       -2.290620   -0.782000   -0.786593
     14          1           0       -3.101150   -1.341077    1.198970
     15          1           0       -3.526709    0.341652    1.609460
     16          1           0       -1.719729   -0.314382    2.960060
     17          1           0       -0.996310    0.812600    1.783430
     18          1           0        0.217700   -1.373650    2.509840
     19          1           0       -0.912299   -2.255169    1.504250
     20          1           0        1.468220   -1.609921    0.748092
     21          1           0        0.207702    0.842164   -0.313428
     22          1           0        3.230021   -0.403516    1.506800
     23          1           0        3.504810   -0.935676   -0.096447
     24          1           0        4.653232    1.161397   -0.527763
     25          1           0        4.397622    1.548057    1.011770
     26          7           0        4.610271    0.756723    0.408736
     27          7           0        0.903566    0.272442    0.171918
     28          7           0       -2.655169    0.002050   -0.249517
     29          7           0       -1.205898    1.340501   -1.415950
     30          7           0       -2.955457    2.380172   -0.165604
     31          8           0        2.328822    1.879148   -0.420599
     32          8           0        0.844579   -1.927071   -1.832190
     33          8           0       -1.105551   -2.202259   -0.894205
 ---------------------------------------------------------------------

 SCF Done:  E(RHF) =  -813.489945540     A.U. after    2 cycles

 The electronic state is 1-A.
 Alpha  occ. eigenvalues --  -21.13909 -21.05544 -21.00837 -15.77574 -15.73372
 Alpha  occ. eigenvalues --  -15.72958 -15.71916 -15.71074 -11.55084 -11.50272
 Alpha  occ. eigenvalues --  -11.50159 -11.49134 -11.46787 -11.43652 -11.39991
 Alpha  occ. eigenvalues --  -11.38162  -1.86868  -1.70331  -1.66914  -1.49568
 Alpha  occ. eigenvalues --   -1.39256  -1.33287  -1.32571  -1.25148  -1.19252
 Alpha  occ. eigenvalues --   -1.08185  -0.99981  -0.96696  -0.87863  -0.82677
 Alpha  occ. eigenvalues --   -0.81657  -0.78207  -0.71010  -0.69608  -0.67928
 Alpha  occ. eigenvalues --   -0.67280  -0.66845  -0.66028  -0.63635  -0.62521
 Alpha  occ. eigenvalues --   -0.59698  -0.58826  -0.58218  -0.56263  -0.54806
 Alpha  occ. eigenvalues --   -0.52977  -0.52759  -0.50709  -0.50196  -0.48891
 Alpha  occ. eigenvalues --   -0.46898  -0.46134  -0.45801  -0.44025  -0.40185
 Alpha  occ. eigenvalues --   -0.36864  -0.35398  -0.34798  -0.32072  -0.31484
 Alpha  occ. eigenvalues --   -0.28147  -0.27476
 Alpha virt. eigenvalues --    0.03481   0.03936   0.04341   0.04426   0.04870
 Alpha virt. eigenvalues --    0.05298   0.05676   0.06333   0.06535   0.07227
 Alpha virt. eigenvalues --    0.07312   0.07841   0.08557   0.08773   0.09343

 Mulliken charges:
               1
     1  C   -2.634606
     2  C    6.001794
     3  C   -2.914336
     4  C    7.639353
     5  C   -2.351036
     6  C   -3.902966
     7  C   -2.998540
     8  C    5.805581
     9  H    1.000637
    10  H    0.683409
    11  H    0.578457
    12  H    0.703713
    13  H    1.116166
    14  H    1.391125
    15  H    1.509853
    16  H    1.310736
    17  H    1.770223
    18  H    1.144684
    19  H    1.515882
    20  H    1.946286
    21  H    1.153490
    22  H    1.566245
    23  H    1.498965
    24  H    0.583928
    25  H    0.524781
    26  N   -2.797965
    27  N   -2.302160
    28  N   -2.258449
    29  N   -3.235023
    30  N   -3.141465
    31  O   -3.602647
    32  O   -3.772535
    33  O   -3.533579
 Sum of Mulliken charges =  -0.00000

 Dipole moment (field-independent basis, Debye):
    X=             -5.4135    Y=             -0.3771    Z=              1.5040  Tot=              5.6312

 Test job not archived.
 1\1\GINC-SE116\SP\RHF\Aug-CC-pVDZ\C8H17N5O3\OHZDE\08-Apr-2025\0\\#t hf
  aug-cc-pvdz iop(5/13=1,5/36=2,99/5=2) pseudo=read geom=check guess=(r
 ead,tcheck) scf=(maxcycle=1)\\title\\0,1\C,0,3.40657,-0.0103117,0.5057
 99\C,0,2.18793,0.764174,0.0190835\C,0,0.531862,-1.12517,0.461784\C,0,0
 .137232,-1.80702,-0.8844\C,0,-0.427902,-1.27255,1.61934\C,0,-1.44995,-
 0.185953,1.91303\C,0,-2.7627,-0.303215,1.16813\C,0,-2.21048,1.25846,-0
 .645645\H,0,-1.30603,-2.67399,-1.74971\H,0,-3.96596,2.26731,-0.0624331
 \H,0,-2.66526,3.23763,-0.603147\H,0,-1.09464,2.3063,-1.70704\H,0,-2.29

 Normal termination of Gaussian 16 at Tue Apr  8 20:49:10 2025.
