 Gaussian 16, Revision C.01,

 ----------------------------------------------------------------------
 #t hf aug-cc-pvdz symm=none int=(grid=ultrafine) guess=(read,tcheck) s
 table=(opt,rrhf)
 ----------------------------------------------------------------------
 -----
 title
 -----
 Symbolic Z-matrix:
 Charge =  0 Multiplicity = 1

 SCF Done:  E(RHF) =  -414.350788666     A.U. after   15 cycles
 Normal termination of Gaussian 16 at Tue Apr  8 21:38:45 2025.
 Gaussian 16:  ES64L-G16RevC.01  3-Jul-2019

 ----------------------------------------------------------------------
 #t hf aug-cc-pvdz iop(5/13=1,5/36=2,99/5=2) pseudo=read geom=check gue
 ss=(read,tcheck) scf=(maxcycle=1)
 ----------------------------------------------------------------------
 -----
 title
 -----
 Structure from the checkpoint file:  "ANI1ccx_410_conf11_mol1.chk"
 Charge =  0 Multiplicity = 1

                         Standard orientation:
 ---------------------------------------------------------------------
 Center     Atomic      Atomic             Coordinates (Angstroms)
 Number     Number       Type             X           Y           Z
 ---------------------------------------------------------------------
      1          6           0       -1.574729   -0.003840   -0.217948
      2          1           0        2.179160    1.130631    0.584317
      3          1           0        2.110492   -1.214979    0.980900
      4          1           0       -1.206020    1.800939    0.255237
      5          1           0       -0.757609    0.097952   -0.950947
      6          8           0        2.439550    0.670908   -0.236974
      7          8           0        1.359921   -0.153392   -0.542808
      8          8           0        1.249891   -0.911263    0.666900
      9          8           0       -1.916030    1.163699    0.403240
     10          8           0       -2.243039   -0.993889   -0.235585
 ---------------------------------------------------------------------

 SCF Done:  E(RHF) =  -416.012067577     A.U. after    2 cycles

 The electronic state is 1-A.
 Alpha  occ. eigenvalues --  -21.18687 -21.16006 -21.15126 -21.13095 -21.05605
 Alpha  occ. eigenvalues --  -11.50569  -2.11382  -1.81024  -1.70509  -1.65694
 Alpha  occ. eigenvalues --   -1.32150  -0.85610  -0.72760  -0.71051  -0.61675
 Alpha  occ. eigenvalues --   -0.58904  -0.55774  -0.53608  -0.52807  -0.47743
 Alpha  occ. eigenvalues --   -0.40844  -0.37569  -0.33998  -0.31211  -0.28951
 Alpha virt. eigenvalues --    0.02965   0.04804   0.05394   0.06464   0.11495
 Alpha virt. eigenvalues --    0.12855   0.13440   0.14219   0.14604   0.15612
 Alpha virt. eigenvalues --    0.17225   0.18454   0.20039   0.20651   0.21306

 Mulliken charges:
               1
     1  C    2.372737
     2  H    0.846605
     3  H    1.057244
     4  H    0.963935
     5  H    1.566221
     6  O   -0.976152
     7  O    0.478295
     8  O   -1.367161
     9  O   -2.427048
    10  O   -2.514677
 Sum of Mulliken charges =   0.00000

 Dipole moment (field-independent basis, Debye):
    X=              2.6225    Y=              1.6344    Z=              0.5845  Tot=              3.1449

 Test job not archived.
 1\1\GINC-SE334\SP\RHF\Aug-CC-pVDZ\C1H4O5\OHZDE\08-Apr-2025\0\\#t hf au
 g-cc-pvdz iop(5/13=1,5/36=2,99/5=2) pseudo=read geom=check guess=(read
 ,tcheck) scf=(maxcycle=1)\\title\\0,1\C,0,-1.57473,-0.0038392,-0.21794
 8\H,0,2.17916,1.13063,0.584317\H,0,2.11049,-1.21498,0.9809\H,0,-1.2060
 2,1.80094,0.255237\H,0,-0.75761,0.0979527,-0.950947\O,0,2.43955,0.6709
 07,-0.236974\O,0,1.35992,-0.153393,-0.542808\O,0,1.24989,-0.911264,0.6
 669\O,0,-1.91603,1.1637,0.40324\O,0,-2.24304,-0.993888,-0.235585\\Vers
 ion=ES64L-G16RevC.01\State=1-A\HF=-416.0120676\RMSD=4.480e-02\Dipole=1

 Normal termination of Gaussian 16 at Tue Apr  8 21:38:47 2025.
