 Gaussian 16, Revision C.01,

 ----------------------------------------------------------------------
 #t hf aug-cc-pvdz symm=none int=(grid=ultrafine) guess=(read,tcheck) s
 table=(opt,rrhf)
 ----------------------------------------------------------------------
 -----
 title
 -----
 Symbolic Z-matrix:
 Charge =  0 Multiplicity = 1

 SCF Done:  E(RHF) =  -872.528505232     A.U. after   14 cycles
 Normal termination of Gaussian 16 at Tue Apr  8 22:14:33 2025.
 Gaussian 16:  ES64L-G16RevC.01  3-Jul-2019

 ----------------------------------------------------------------------
 #t hf aug-cc-pvdz iop(5/13=1,5/36=2,99/5=2) pseudo=read geom=check gue
 ss=(read,tcheck) scf=(maxcycle=1)
 ----------------------------------------------------------------------
 -----
 title
 -----
 Structure from the checkpoint file:  "ANI1ccx_68_conf3_mol1.chk"
 Charge =  0 Multiplicity = 1

                         Standard orientation:
 ---------------------------------------------------------------------
 Center     Atomic      Atomic             Coordinates (Angstroms)
 Number     Number       Type             X           Y           Z
 ---------------------------------------------------------------------
      1          6           0       -0.862938    2.010280    0.529723
      2          6           0        4.093641    0.950054    0.014600
      3          6           0        3.233170   -0.364877    0.172142
      4          6           0        1.165740   -1.521581   -0.554620
      5          6           0        1.859900   -0.239710   -0.380360
      6          6           0        3.242550   -0.861547    1.595330
      7          6           0       -2.530189    0.291438   -0.187597
      8          6           0       -1.741909    0.810880    0.978152
      9          6           0        0.245881    1.577259   -0.371589
     10          6           0       -3.167500   -1.042029    0.025723
     11          1           0        3.750320   -1.138443   -0.416979
     12          1           0       -0.352298   -2.624750   -0.357752
     13          1           0        4.293280   -1.013403    1.946770
     14          1           0        2.817030   -0.136624    2.286630
     15          1           0        2.636439   -1.744592    1.696930
     16          1           0        3.667081    1.764787    0.646755
     17          1           0        4.116771    1.313697   -1.036030
     18          1           0        5.107111    0.817009    0.382915
     19          1           0        1.977280    0.071331   -1.430550
     20          1           0       -4.713791   -1.887638    0.501512
     21          1           0       -3.375039    1.004682   -0.415326
     22          1           0       -1.926199    0.242760   -1.104690
     23          1           0       -2.480939    1.185841    1.716920
     24          1           0       -1.167180    0.002087    1.393320
     25          1           0       -0.395379    2.438090    1.437490
     26          1           0       -2.416778    3.457601    0.263908
     27          1           0       -1.616228    2.981921   -1.156700
     28          1           0        0.937964    0.611011    1.282840
     29          7           0       -1.519118    3.106200   -0.161918
     30          7           0        1.112991    0.752807    0.293923
     31          8           0        1.703999   -2.401981   -1.186950
     32          8           0        0.241929    1.760479   -1.572180
     33          8           0       -2.640181   -2.125259   -0.166619
     34          8           0       -4.461410   -0.968556    0.447730
     35          8           0       -0.000166   -1.767110    0.041642
 ---------------------------------------------------------------------

 SCF Done:  E(RHF) =  -876.441438081     A.U. after    2 cycles

 The electronic state is 1-A.
 Alpha  occ. eigenvalues --  -21.13546 -21.11485 -21.06071 -21.04202 -21.03813
 Alpha  occ. eigenvalues --  -15.76656 -15.73334 -11.56122 -11.55329 -11.53639
 Alpha  occ. eigenvalues --  -11.49019 -11.48673 -11.45790 -11.42627 -11.40337
 Alpha  occ. eigenvalues --  -11.39755 -11.37109  -1.84007  -1.83536  -1.72941
 Alpha  occ. eigenvalues --   -1.65831  -1.64246  -1.44999  -1.35893  -1.24035
 Alpha  occ. eigenvalues --   -1.20586  -1.08972  -1.02755  -1.01102  -0.93271
 Alpha  occ. eigenvalues --   -0.86717  -0.81475  -0.80017  -0.79618  -0.72566
 Alpha  occ. eigenvalues --   -0.68997  -0.67519  -0.66347  -0.64261  -0.63729
 Alpha  occ. eigenvalues --   -0.62069  -0.60473  -0.60119  -0.59239  -0.57289
 Alpha  occ. eigenvalues --   -0.56389  -0.55311  -0.54649  -0.53455  -0.52916
 Alpha  occ. eigenvalues --   -0.51883  -0.49965  -0.48928  -0.47234  -0.46332
 Alpha  occ. eigenvalues --   -0.45891  -0.45357  -0.43442  -0.43201  -0.35553
 Alpha  occ. eigenvalues --   -0.34826  -0.33997  -0.33524  -0.30482  -0.30078
 Alpha  occ. eigenvalues --   -0.27353
 Alpha virt. eigenvalues --    0.03622   0.04014   0.04209   0.04603   0.04945
 Alpha virt. eigenvalues --    0.05547   0.05771   0.06358   0.06762   0.06960
 Alpha virt. eigenvalues --    0.07147   0.07605   0.07950   0.08290   0.08788

 Mulliken charges:
               1
     1  C   -0.832824
     2  C   -4.629664
     3  C   -1.286015
     4  C    8.440875
     5  C   -3.695948
     6  C   -4.873510
     7  C   -4.633595
     8  C   -3.848950
     9  C    7.188470
    10  C    7.138549
    11  H    1.807478
    12  H    0.862723
    13  H    1.222982
    14  H    1.514144
    15  H    1.335211
    16  H    1.462432
    17  H    1.294517
    18  H    1.184766
    19  H    1.883543
    20  H    0.874476
    21  H    1.319883
    22  H    1.848717
    23  H    1.322239
    24  H    2.286724
    25  H    1.819042
    26  H    0.619810
    27  H    0.585267
    28  H    0.746026
    29  N   -3.403516
    30  N   -1.921754
    31  O   -3.712148
    32  O   -3.858042
    33  O   -3.413342
    34  O   -3.260488
    35  O   -3.388078
 Sum of Mulliken charges =  -0.00000

 Dipole moment (field-independent basis, Debye):
    X=             -1.5445    Y=              0.3657    Z=              2.4456  Tot=              2.9155

 Test job not archived.
 1\1\GINC-SE247\SP\RHF\Aug-CC-pVDZ\C10H18N2O5\OHZDE\08-Apr-2025\0\\#t h
 f aug-cc-pvdz iop(5/13=1,5/36=2,99/5=2) pseudo=read geom=check guess=(
 read,tcheck) scf=(maxcycle=1)\\title\\0,1\C,0,-0.86294,2.01028,0.52972
 3\C,0,4.09364,0.950057,0.0146001\C,0,3.23317,-0.364875,0.172142\C,0,1.
 16574,-1.52158,-0.55462\C,0,1.8599,-0.239709,-0.38036\C,0,3.24255,-0.8
 61545,1.59533\C,0,-2.53019,0.291437,-0.187597\C,0,-1.74191,0.810879,0.
 978152\C,0,0.24588,1.57726,-0.371589\C,0,-3.1675,-1.04203,0.0257229\H,
 0,3.75032,-1.13844,-0.416979\H,0,-0.352297,-2.62475,-0.357752\H,0,4.29

 Normal termination of Gaussian 16 at Tue Apr  8 22:15:29 2025.
