 Gaussian 16, Revision C.01,

 ----------------------------------------------------------------------
 #t hf aug-cc-pvdz symm=none int=(grid=ultrafine) guess=(read,tcheck) s
 table=(opt,rrhf)
 ----------------------------------------------------------------------
 -----
 title
 -----
 Symbolic Z-matrix:
 Charge =  0 Multiplicity = 1

 SCF Done:  E(RHF) =  -509.541782453     A.U. after   14 cycles
 Normal termination of Gaussian 16 at Tue Apr  8 22:14:00 2025.
 Gaussian 16:  ES64L-G16RevC.01  3-Jul-2019

 ----------------------------------------------------------------------
 #t hf aug-cc-pvdz iop(5/13=1,5/36=2,99/5=2) pseudo=read geom=check gue
 ss=(read,tcheck) scf=(maxcycle=1)
 ----------------------------------------------------------------------
 -----
 title
 -----
 Structure from the checkpoint file:  "ANI1ccx_939_conf24_mol1.chk"
 Charge =  0 Multiplicity = 1

                         Standard orientation:
 ---------------------------------------------------------------------
 Center     Atomic      Atomic             Coordinates (Angstroms)
 Number     Number       Type             X           Y           Z
 ---------------------------------------------------------------------
      1          6           0       -0.790633    0.674891   -0.657505
      2          6           0       -1.259521   -0.654364   -0.078229
      3          6           0        0.760731    0.857968   -0.862910
      4          6           0        1.641809    0.072065    0.116589
      5          1           0       -1.933711    2.396900   -0.354139
      6          1           0       -1.722541    1.348400    0.900052
      7          1           0       -1.232101    0.705843   -1.648260
      8          1           0        1.097049    0.557124   -1.844220
      9          1           0        0.931789    1.876771   -0.641122
     10          1           0        1.837779   -0.417409    1.956830
     11          1           0       -1.090360   -2.583160   -0.349324
     12          7           0       -1.241521    1.780460    0.137100
     13          8           0       -2.134141   -0.693564    0.808099
     14          8           0        2.635369   -0.515085   -0.310561
     15          8           0        1.283619    0.182067    1.402300
     16          8           0       -0.698795   -1.729800   -0.660740
 ---------------------------------------------------------------------

 SCF Done:  E(RHF) =  -511.729877861     A.U. after    2 cycles

 The electronic state is 1-A.
 Alpha  occ. eigenvalues --  -21.14692 -21.13453 -21.06599 -21.04939 -15.73485
 Alpha  occ. eigenvalues --  -11.55625 -11.53285 -11.47576 -11.40879  -1.83504
 Alpha  occ. eigenvalues --   -1.82426  -1.66381  -1.64981  -1.37037  -1.13400
 Alpha  occ. eigenvalues --   -0.99691  -0.83923  -0.77984  -0.71372  -0.68709
 Alpha  occ. eigenvalues --   -0.63818  -0.61190  -0.60586  -0.58187  -0.56075
 Alpha  occ. eigenvalues --   -0.52843  -0.51135  -0.50081  -0.45502  -0.44044
 Alpha  occ. eigenvalues --   -0.36823  -0.35887  -0.33503  -0.31633  -0.28941
 Alpha virt. eigenvalues --    0.03324   0.04282   0.05243   0.05925   0.06437
 Alpha virt. eigenvalues --    0.06544   0.07997   0.09879   0.10569   0.11671
 Alpha virt. eigenvalues --    0.12459   0.13071   0.13536   0.14533   0.14654

 Mulliken charges:
               1
     1  C   -1.449336
     2  C    6.309453
     3  C   -3.607992
     4  C    6.104574
     5  H    0.468403
     6  H    0.672743
     7  H    1.760321
     8  H    1.255877
     9  H    1.619243
    10  H    0.865116
    11  H    0.869519
    12  N   -2.536861
    13  O   -3.036685
    14  O   -3.067535
    15  O   -3.048142
    16  O   -3.178697
 Sum of Mulliken charges =   0.00000

 Dipole moment (field-independent basis, Debye):
    X=             -1.4310    Y=             -0.2959    Z=             -0.3718  Tot=              1.5079

 Test job not archived.
 1\1\GINC-SE094\SP\RHF\Aug-CC-pVDZ\C4H7N1O4\OHZDE\08-Apr-2025\0\\#t hf
 aug-cc-pvdz iop(5/13=1,5/36=2,99/5=2) pseudo=read geom=check guess=(re
 ad,tcheck) scf=(maxcycle=1)\\title\\0,1\C,0,-0.790632,0.674891,-0.6575
 05\C,0,-1.25952,-0.654364,-0.0782296\C,0,0.760732,0.857967,-0.86291\C,
 0,1.64181,0.0720646,0.116589\H,0,-1.93371,2.3969,-0.354139\H,0,-1.7225
 4,1.3484,0.900052\H,0,-1.2321,0.705843,-1.64826\H,0,1.09705,0.557123,-
 1.84422\H,0,0.93179,1.87677,-0.641122\H,0,1.83778,-0.41741,1.95683\H,0
 ,-1.09036,-2.58316,-0.349324\N,0,-1.24152,1.78046,0.1371\O,0,-2.13414,

 Normal termination of Gaussian 16 at Tue Apr  8 22:14:07 2025.
