 Gaussian 16, Revision C.01,

 ----------------------------------------------------------------------
 #t hf aug-cc-pvdz symm=none int=(grid=ultrafine) guess=(read,tcheck) s
 table=(opt,rrhf)
 ----------------------------------------------------------------------
 -----
 title
 -----
 Symbolic Z-matrix:
 Charge =  0 Multiplicity = 1

 SCF Done:  E(RHF) =  -557.491308612     A.U. after   16 cycles
 Normal termination of Gaussian 16 at Tue Apr  8 19:35:27 2025.
 Gaussian 16:  ES64L-G16RevC.01  3-Jul-2019

 ----------------------------------------------------------------------
 #t hf aug-cc-pvdz iop(5/13=1,5/36=2,99/5=2) pseudo=read geom=check gue
 ss=(read,tcheck) scf=(maxcycle=1)
 ----------------------------------------------------------------------
 -----
 title
 -----
 Structure from the checkpoint file:  "ANI1ccx_1322_conf8_mol2.chk"
 Charge =  0 Multiplicity = 1

                         Standard orientation:
 ---------------------------------------------------------------------
 Center     Atomic      Atomic             Coordinates (Angstroms)
 Number     Number       Type             X           Y           Z
 ---------------------------------------------------------------------
      1          6           0       -1.903160   -0.541272    0.041283
      2          6           0       -0.624053    1.310800   -0.029692
      3          6           0        0.511994    0.459495    0.073462
      4          6           0        2.788610    0.209538   -0.039070
      5          6           0        2.599361   -1.169089   -0.078597
      6          6           0        0.344624   -0.956530    0.058420
      7          1           0        3.481731   -1.803948   -0.055748
      8          1           0        3.770150    0.729096   -0.014442
      9          1           0        0.581211    2.909761    0.171132
     10          1           0       -1.160641    3.213560    0.276526
     11          1           0       -3.215619   -2.085381   -0.125209
     12          1           0       -3.973790   -0.483859   -0.189826
     13          7           0       -3.146119   -1.094061    0.036236
     14          7           0       -1.836860    0.817011   -0.126974
     15          7           0       -0.359851    2.663890   -0.034327
     16          7           0        1.726590    1.045611    0.043937
     17          7           0        1.415701   -1.777769    0.004540
     18          7           0       -0.911931   -1.419950    0.045549
 ---------------------------------------------------------------------

 SCF Done:  E(RHF) =  -560.017995827     A.U. after    2 cycles

 The electronic state is 1-A.
 Alpha  occ. eigenvalues --  -15.78214 -15.78061 -15.76803 -15.75484 -15.73529
 Alpha  occ. eigenvalues --  -15.70558 -11.53777 -11.51217 -11.48989 -11.47798
 Alpha  occ. eigenvalues --  -11.41559 -11.41022  -1.58386  -1.46937  -1.42233
 Alpha  occ. eigenvalues --   -1.34191  -1.28070  -1.26943  -1.11843  -0.97966
 Alpha  occ. eigenvalues --   -0.93835  -0.88345  -0.77130  -0.76446  -0.70816
 Alpha  occ. eigenvalues --   -0.68282  -0.66768  -0.63902  -0.61678  -0.58672
 Alpha  occ. eigenvalues --   -0.57733  -0.54780  -0.54582  -0.51741  -0.47396
 Alpha  occ. eigenvalues --   -0.43949  -0.42213  -0.39808  -0.38662  -0.35075
 Alpha  occ. eigenvalues --   -0.31555  -0.28209
 Alpha virt. eigenvalues --    0.03328   0.04832   0.05174   0.05345   0.06591
 Alpha virt. eigenvalues --    0.07013   0.07527   0.09193   0.10248   0.11068
 Alpha virt. eigenvalues --    0.11228   0.11698   0.12679   0.12816   0.13020

 Mulliken charges:
               1
     1  C    3.767000
     2  C    4.606160
     3  C    4.384858
     4  C   -0.153504
     5  C    0.075954
     6  C    3.073209
     7  H    1.713712
     8  H    1.575588
     9  H    0.675252
    10  H    0.699140
    11  H    0.694679
    12  H    0.676207
    13  N   -3.096418
    14  N   -3.362555
    15  N   -3.549604
    16  N   -4.490071
    17  N   -3.776916
    18  N   -3.512691
 Sum of Mulliken charges =  -0.00000

 Dipole moment (field-independent basis, Debye):
    X=             -0.1375    Y=              2.3453    Z=              0.2045  Tot=              2.3582

 Test job not archived.
 1\1\GINC-SE455\SP\RHF\Aug-CC-pVDZ\C6H6N6\OHZDE\08-Apr-2025\0\\#t hf au
 g-cc-pvdz iop(5/13=1,5/36=2,99/5=2) pseudo=read geom=check guess=(read
 ,tcheck) scf=(maxcycle=1)\\title\\0,1\C,0,-1.90316,-0.541272,0.0412826
 \C,0,-0.624053,1.3108,-0.029692\C,0,0.511994,0.459494,0.0734622\C,0,2.
 78861,0.209536,-0.0390697\C,0,2.59936,-1.16909,-0.0785968\C,0,0.344623
 ,-0.956531,0.0584201\H,0,3.48173,-1.80395,-0.0557477\H,0,3.77015,0.729
 094,-0.014442\H,0,0.581212,2.90976,0.171132\H,0,-1.16064,3.21356,0.276
 526\H,0,-3.21562,-2.08538,-0.125209\H,0,-3.97379,-0.483858,-0.189826\N

 Normal termination of Gaussian 16 at Tue Apr  8 19:35:44 2025.
