 Gaussian 16, Revision C.01,

 ----------------------------------------------------------------------
 #t hf aug-cc-pvdz symm=none int=(grid=ultrafine) guess=(read,tcheck) s
 table=(opt,rrhf)
 ----------------------------------------------------------------------
 -----
 title
 -----
 Symbolic Z-matrix:
 Charge =  0 Multiplicity = 1

 SCF Done:  E(RHF) =  -373.432458463     A.U. after   16 cycles
 Normal termination of Gaussian 16 at Tue Apr  8 21:50:40 2025.
 Gaussian 16:  ES64L-G16RevC.01  3-Jul-2019

 ----------------------------------------------------------------------
 #t hf aug-cc-pvdz iop(5/13=1,5/36=2,99/5=2) pseudo=read geom=check gue
 ss=(read,tcheck) scf=(maxcycle=1)
 ----------------------------------------------------------------------
 -----
 title
 -----
 Structure from the checkpoint file:  "ANI1ccx_655_conf12_mol2.chk"
 Charge =  0 Multiplicity = 1

                         Standard orientation:
 ---------------------------------------------------------------------
 Center     Atomic      Atomic             Coordinates (Angstroms)
 Number     Number       Type             X           Y           Z
 ---------------------------------------------------------------------
      1          6           0        1.475690    0.386294    0.080919
      2          6           0       -0.793911   -0.649517    0.019558
      3          6           0       -1.313519    0.760801    0.023652
      4          1           0        0.911928    1.333309    0.249580
      5          1           0        1.012979   -1.629031    0.167336
      6          7           0        0.609390   -0.697818    0.082877
      7          7           0       -1.692199    1.853720   -0.039081
      8          8           0        2.660260    0.268697   -0.115430
      9          8           0       -1.479611   -1.616330   -0.068103
 ---------------------------------------------------------------------

 SCF Done:  E(RHF) =  -375.000390560     A.U. after    2 cycles

 The electronic state is 1-A.
 Alpha  occ. eigenvalues --  -21.12316 -21.09210 -15.83845 -15.83083 -11.61195
 Alpha  occ. eigenvalues --  -11.53768 -11.48951  -1.80019  -1.75320  -1.44696
 Alpha  occ. eigenvalues --   -1.35118  -1.02059  -0.94866  -0.79137  -0.68671
 Alpha  occ. eigenvalues --   -0.64705  -0.62903  -0.57979  -0.55157  -0.53431
 Alpha  occ. eigenvalues --   -0.50597  -0.47425  -0.39069  -0.36583  -0.33434
 Alpha virt. eigenvalues --    0.03714   0.05509   0.07929   0.08506   0.09508
 Alpha virt. eigenvalues --    0.09897   0.10066   0.10455   0.11782   0.12499
 Alpha virt. eigenvalues --    0.13426   0.14055   0.14734   0.15088   0.16068

 Mulliken charges:
               1
     1  C    1.940173
     2  C    4.838661
     3  C    1.341629
     4  H    1.646794
     5  H    0.629558
     6  N   -2.492651
     7  N   -2.175223
     8  O   -2.670039
     9  O   -3.058902
 Sum of Mulliken charges =  -0.00000

 Dipole moment (field-independent basis, Debye):
    X=              0.7092    Y=             -1.7867    Z=              0.3601  Tot=              1.9558

 Test job not archived.
 1\1\GINC-SE232\SP\RHF\Aug-CC-pVDZ\C3H2N2O2\OHZDE\08-Apr-2025\0\\#t hf
 aug-cc-pvdz iop(5/13=1,5/36=2,99/5=2) pseudo=read geom=check guess=(re
 ad,tcheck) scf=(maxcycle=1)\\title\\0,1\C,0,1.47569,0.386295,0.0809187
 \C,0,-0.793911,-0.649517,0.0195585\C,0,-1.31352,0.760801,0.0236516\H,0
 ,0.911927,1.33331,0.24958\H,0,1.01298,-1.62903,0.167336\N,0,0.60939,-0
 .697817,0.0828772\N,0,-1.6922,1.85372,-0.0390811\O,0,2.66026,0.268699,
 -0.11543\O,0,-1.47961,-1.61633,-0.0681026\\Version=ES64L-G16RevC.01\St
 ate=1-A\HF=-375.0003906\RMSD=1.735e-01\Dipole=0.2790353,-0.7029583,0.1

 Normal termination of Gaussian 16 at Tue Apr  8 21:50:45 2025.
