 Gaussian 16, Revision C.01,

 ----------------------------------------------------------------------
 #t hf aug-cc-pvdz symm=none int=(grid=ultrafine) guess=(read,tcheck) s
 table=(opt,rrhf)
 ----------------------------------------------------------------------
 -----
 title
 -----
 Symbolic Z-matrix:
 Charge =  0 Multiplicity = 1

 SCF Done:  E(RHF) =  -699.111737665     A.U. after   14 cycles
 Normal termination of Gaussian 16 at Tue Apr  8 20:00:51 2025.
 Gaussian 16:  ES64L-G16RevC.01  3-Jul-2019

 ----------------------------------------------------------------------
 #t hf aug-cc-pvdz iop(5/13=1,5/36=2,99/5=2) pseudo=read geom=check gue
 ss=(read,tcheck) scf=(maxcycle=1)
 ----------------------------------------------------------------------
 -----
 title
 -----
 Structure from the checkpoint file:  "ANI1ccx_1533_conf5_mol1.chk"
 Charge =  0 Multiplicity = 1

                         Standard orientation:
 ---------------------------------------------------------------------
 Center     Atomic      Atomic             Coordinates (Angstroms)
 Number     Number       Type             X           Y           Z
 ---------------------------------------------------------------------
      1          6           0        4.192681    0.719000    0.546640
      2          6           0        3.506781   -0.538298    0.077247
      3          6           0        1.202741   -0.196754   -0.135432
      4          6           0       -1.913149   -1.079141    0.047700
      5          6           0       -3.240529   -0.585397    0.644406
      6          6           0       -3.133010    0.950510    0.217558
      7          6           0       -1.590260    1.206699   -0.234662
      8          1           0       -3.385510    1.837288    0.980409
      9          1           0       -3.776690    1.276708   -0.541771
     10          1           0       -3.285619   -0.742658    1.767350
     11          1           0       -4.154259   -0.972866    0.247046
     12          1           0        4.170661   -1.146839   -0.613988
     13          1           0        5.066231    0.349730    1.231390
     14          1           0        4.583530    1.206362   -0.402328
     15          1           0        3.553680    1.436291    0.979137
     16          1           0        3.238621   -1.064909    0.959667
     17          7           0       -1.061479   -0.083208   -0.354738
     18          8           0       -1.541958   -2.226441   -0.045135
     19          8           0        2.330441   -0.457905   -0.719394
     20          8           0        1.029051    0.136778    1.024480
     21          8           0        0.159398   -0.305477   -1.013040
     22          8           0       -1.068410    2.295999   -0.384974
 ---------------------------------------------------------------------

 SCF Done:  E(RHF) =  -702.136886477     A.U. after    2 cycles

 The electronic state is 1-A.
 Alpha  occ. eigenvalues --  -21.16521 -21.12444 -21.07069 -21.05870 -21.05768
 Alpha  occ. eigenvalues --  -15.83832 -11.56672 -11.55846 -11.53524 -11.47748
 Alpha  occ. eigenvalues --  -11.46331 -11.42407 -11.38951  -1.97108  -1.82739
 Alpha  occ. eigenvalues --   -1.72825  -1.71889  -1.67895  -1.40203  -1.17871
 Alpha  occ. eigenvalues --   -1.14820  -1.00343  -0.94097  -0.88724  -0.83664
 Alpha  occ. eigenvalues --   -0.74534  -0.73545  -0.68070  -0.66482  -0.63885
 Alpha  occ. eigenvalues --   -0.62627  -0.62155  -0.60590  -0.57715  -0.55839
 Alpha  occ. eigenvalues --   -0.55166  -0.52632  -0.51925  -0.51572  -0.49551
 Alpha  occ. eigenvalues --   -0.49166  -0.44048  -0.42392  -0.38639  -0.34241
 Alpha  occ. eigenvalues --   -0.32938  -0.32433  -0.31757  -0.29337
 Alpha virt. eigenvalues --    0.02887   0.04604   0.04959   0.04982   0.05659
 Alpha virt. eigenvalues --    0.06219   0.06424   0.07171   0.07318   0.08908
 Alpha virt. eigenvalues --    0.10075   0.10622   0.10735   0.11391   0.12517

 Mulliken charges:
               1
     1  C   -3.606082
     2  C   -1.929271
     3  C    6.618552
     4  C    4.581486
     5  C   -3.306186
     6  C   -2.981704
     7  C    4.382784
     8  H    1.231134
     9  H    1.397609
    10  H    1.299346
    11  H    1.408208
    12  H    1.327629
    13  H    1.066280
    14  H    1.243528
    15  H    1.326999
    16  H    1.660301
    17  N    0.277829
    18  O   -3.402310
    19  O   -3.350057
    20  O   -2.573176
    21  O   -3.330239
    22  O   -3.342659
 Sum of Mulliken charges =   0.00000

 Dipole moment (field-independent basis, Debye):
    X=              0.2708    Y=             -0.0806    Z=              0.2276  Tot=              0.3628

 Test job not archived.
 1\1\GINC-SE038\SP\RHF\Aug-CC-pVDZ\C7H9N1O5\OHZDE\08-Apr-2025\0\\#t hf
 aug-cc-pvdz iop(5/13=1,5/36=2,99/5=2) pseudo=read geom=check guess=(re
 ad,tcheck) scf=(maxcycle=1)\\title\\0,1\C,0,4.19268,0.718999,0.54664\C
 ,0,3.50678,-0.538299,0.0772471\C,0,1.20274,-0.196754,-0.135432\C,0,-1.
 91315,-1.07914,0.0477003\C,0,-3.24053,-0.585395,0.644406\C,0,-3.13301,
 0.950512,0.217558\C,0,-1.59026,1.2067,-0.234662\H,0,-3.38551,1.83729,0
 .980409\H,0,-3.77669,1.27671,-0.541771\H,0,-3.28562,-0.742656,1.76735\
 H,0,-4.15426,-0.972864,0.247046\H,0,4.17066,-1.14684,-0.613988\H,0,5.0

 Normal termination of Gaussian 16 at Tue Apr  8 20:01:08 2025.
