 Gaussian 16, Revision C.01,

 ----------------------------------------------------------------------
 #t hf aug-cc-pvdz symm=none int=(grid=ultrafine) guess=(read,tcheck) s
 table=(opt,rrhf)
 ----------------------------------------------------------------------
 -----
 title
 -----
 Symbolic Z-matrix:
 Charge =  0 Multiplicity = 1

 SCF Done:  E(RHF) =  -489.704085901     A.U. after   14 cycles
 Normal termination of Gaussian 16 at Tue Apr  8 22:16:12 2025.
 Gaussian 16:  ES64L-G16RevC.01  3-Jul-2019

 ----------------------------------------------------------------------
 #t hf aug-cc-pvdz iop(5/13=1,5/36=2,99/5=2) pseudo=read geom=check gue
 ss=(read,tcheck) scf=(maxcycle=1)
 ----------------------------------------------------------------------
 -----
 title
 -----
 Structure from the checkpoint file:  "ANI1ccx_957_conf18_mol1.chk"
 Charge =  0 Multiplicity = 1

                         Standard orientation:
 ---------------------------------------------------------------------
 Center     Atomic      Atomic             Coordinates (Angstroms)
 Number     Number       Type             X           Y           Z
 ---------------------------------------------------------------------
      1          6           0       -0.790733    0.603993   -0.712517
      2          6           0       -1.451490   -0.448471    0.096438
      3          6           0        0.626800    0.197567   -1.187440
      4          6           0        1.587680   -0.357199   -0.125952
      5          1           0       -0.953927    0.607401    1.630280
      6          1           0        2.504420    0.333897    1.523230
      7          1           0        1.635450    1.489881    0.693430
      8          1           0        1.051440    1.087581   -1.629660
      9          1           0       -1.286390    0.766152   -1.642090
     10          1           0        0.001972    2.447320   -0.059692
     11          1           0       -1.665820    2.369840   -0.196623
     12          1           0        0.525728   -0.544527   -1.998260
     13          7           0       -0.815893    1.822940    0.023261
     14          7           0        2.185170    0.669559    0.630690
     15          8           0        1.785000   -1.496829    0.042657
     16          8           0       -1.822630   -1.480740   -0.362439
     17          8           0       -1.366290   -0.269979    1.404600
 ---------------------------------------------------------------------

 SCF Done:  E(RHF) =  -491.851313287     A.U. after    2 cycles

 The electronic state is 1-A.
 Alpha  occ. eigenvalues --  -21.10800 -21.05218 -21.04076 -15.78364 -15.77623
 Alpha  occ. eigenvalues --  -11.52945 -11.52188 -11.48377 -11.42178  -1.83164
 Alpha  occ. eigenvalues --   -1.74352  -1.65203  -1.41223  -1.35031  -1.14933
 Alpha  occ. eigenvalues --   -0.99950  -0.83274  -0.77751  -0.73875  -0.71968
 Alpha  occ. eigenvalues --   -0.70266  -0.65968  -0.63796  -0.59345  -0.55244
 Alpha  occ. eigenvalues --   -0.53668  -0.51357  -0.50494  -0.47546  -0.44814
 Alpha  occ. eigenvalues --   -0.40154  -0.36561  -0.33003  -0.29785  -0.28624
 Alpha virt. eigenvalues --    0.02512   0.03952   0.04047   0.04557   0.05641
 Alpha virt. eigenvalues --    0.06792   0.07605   0.07840   0.10058   0.10851
 Alpha virt. eigenvalues --    0.11519   0.12744   0.13300   0.13348   0.14013

 Mulliken charges:
               1
     1  C   -1.389312
     2  C    7.191079
     3  C   -3.415028
     4  C    5.976726
     5  H    1.044681
     6  H    0.620675
     7  H    0.735660
     8  H    1.366138
     9  H    1.499476
    10  H    0.583165
    11  H    0.558292
    12  H    1.149867
    13  N   -2.437364
    14  N   -3.173615
    15  O   -3.527513
    16  O   -3.430559
    17  O   -3.352369
 Sum of Mulliken charges =  -0.00000

 Dipole moment (field-independent basis, Debye):
    X=              0.2758    Y=              4.5689    Z=             -0.1024  Tot=              4.5783

 Test job not archived.
 1\1\GINC-SE059\SP\RHF\Aug-CC-pVDZ\C4H8N2O3\OHZDE\08-Apr-2025\0\\#t hf
 aug-cc-pvdz iop(5/13=1,5/36=2,99/5=2) pseudo=read geom=check guess=(re
 ad,tcheck) scf=(maxcycle=1)\\title\\0,1\C,0,-0.790733,0.603993,-0.7125
 17\C,0,-1.45149,-0.448471,0.0964382\C,0,0.6268,0.197567,-1.18744\C,0,1
 .58768,-0.3572,-0.125952\H,0,-0.953927,0.607401,1.63028\H,0,2.50442,0.
 333896,1.52323\H,0,1.63545,1.48988,0.69343\H,0,1.05144,1.08758,-1.6296
 6\H,0,-1.28639,0.766152,-1.64209\H,0,0.001972,2.44732,-0.0596923\H,0,-
 1.66582,2.36984,-0.196623\H,0,0.525728,-0.544527,-1.99826\N,0,-0.81589

 Normal termination of Gaussian 16 at Tue Apr  8 22:16:20 2025.
