 Gaussian 16, Revision C.01,

 ----------------------------------------------------------------------
 #t hf aug-cc-pvdz symm=none int=(grid=ultrafine) guess=(read,tcheck) s
 table=(opt,rrhf)
 ----------------------------------------------------------------------
 -----
 title
 -----
 Symbolic Z-matrix:
 Charge =  0 Multiplicity = 1

 SCF Done:  E(RHF) =  -386.364134115     A.U. after   17 cycles
 Normal termination of Gaussian 16 at Tue Apr  8 21:50:43 2025.
 Gaussian 16:  ES64L-G16RevC.01  3-Jul-2019

 ----------------------------------------------------------------------
 #t hf aug-cc-pvdz iop(5/13=1,5/36=2,99/5=2) pseudo=read geom=check gue
 ss=(read,tcheck) scf=(maxcycle=1)
 ----------------------------------------------------------------------
 -----
 title
 -----
 Structure from the checkpoint file:  "ANI1ccx_651_conf1_mol2.chk"
 Charge =  0 Multiplicity = 1

                         Standard orientation:
 ---------------------------------------------------------------------
 Center     Atomic      Atomic             Coordinates (Angstroms)
 Number     Number       Type             X           Y           Z
 ---------------------------------------------------------------------
      1          6           0       -1.971001    0.092499   -0.026714
      2          6           0       -0.499322   -0.006955    0.108215
      3          6           0        1.434069    1.064150   -0.035344
      4          1           0        2.068699    1.988920   -0.090278
      5          7           0       -3.147281    0.002659   -0.087688
      6          7           0        0.137199    1.133550    0.101362
      7          7           0        2.121699   -0.083691   -0.093144
      8          7           0        1.409819   -1.155470   -0.018466
      9          7           0        0.071254   -1.166630    0.071270
 ---------------------------------------------------------------------

 SCF Done:  E(RHF) =  -388.040562778     A.U. after    2 cycles

 The electronic state is 1-A.
 Alpha  occ. eigenvalues --  -15.87499 -15.83552 -15.83111 -15.81968 -15.81592
 Alpha  occ. eigenvalues --  -11.56441 -11.51445 -11.47406  -1.72203  -1.46861
 Alpha  occ. eigenvalues --   -1.41681  -1.32134  -1.07497  -1.05512  -0.85196
 Alpha  occ. eigenvalues --   -0.76768  -0.70712  -0.69263  -0.63212  -0.55774
 Alpha  occ. eigenvalues --   -0.53507  -0.52457  -0.48369  -0.47369  -0.44510
 Alpha  occ. eigenvalues --   -0.43894  -0.38830
 Alpha virt. eigenvalues --    0.02812   0.04471   0.05142   0.06841   0.08774
 Alpha virt. eigenvalues --    0.09321   0.09703   0.11361   0.12011   0.12903
 Alpha virt. eigenvalues --    0.13094   0.13453   0.13906   0.15139   0.16501

 Mulliken charges:
               1
     1  C    1.236703
     2  C    4.172440
     3  C    1.739054
     4  H    1.744438
     5  N   -2.215384
     6  N   -2.928340
     7  N   -1.542060
     8  N    0.107678
     9  N   -2.314528
 Sum of Mulliken charges =   0.00000

 Dipole moment (field-independent basis, Debye):
    X=              2.2224    Y=              2.0424    Z=              0.1499  Tot=              3.0220

 Test job not archived.
 1\1\GINC-SE187\SP\RHF\Aug-CC-pVDZ\C3H1N5\OHZDE\08-Apr-2025\0\\#t hf au
 g-cc-pvdz iop(5/13=1,5/36=2,99/5=2) pseudo=read geom=check guess=(read
 ,tcheck) scf=(maxcycle=1)\\title\\0,1\C,0,-1.971,0.0924991,-0.0267141\
 C,0,-0.499321,-0.00695431,0.108215\C,0,1.43407,1.06415,-0.0353441\H,0,
 2.0687,1.98892,-0.0902781\N,0,-3.14728,0.00265914,-0.0876885\N,0,0.137
 2,1.13355,0.101362\N,0,2.1217,-0.0836904,-0.0931441\N,0,1.40982,-1.155
 47,-0.0184662\N,0,0.0712555,-1.16663,0.0712701\\Version=ES64L-G16RevC.
 01\State=1-A\HF=-388.0405628\RMSD=3.685e-01\Dipole=0.8743448,0.8035335

 Normal termination of Gaussian 16 at Tue Apr  8 21:50:47 2025.
