 Gaussian 16, Revision C.01,

 ----------------------------------------------------------------------
 #t hf aug-cc-pvdz symm=none int=(grid=ultrafine) guess=(read,tcheck) s
 table=(opt,rrhf)
 ----------------------------------------------------------------------
 -----
 title
 -----
 Symbolic Z-matrix:
 Charge =  0 Multiplicity = 1

 SCF Done:  E(RHF) =  -465.441696044     A.U. after   14 cycles
 Normal termination of Gaussian 16 at Tue Apr  8 21:44:57 2025.
 Gaussian 16:  ES64L-G16RevC.01  3-Jul-2019

 ----------------------------------------------------------------------
 #t hf aug-cc-pvdz iop(5/13=1,5/36=2,99/5=2) pseudo=read geom=check gue
 ss=(read,tcheck) scf=(maxcycle=1)
 ----------------------------------------------------------------------
 -----
 title
 -----
 Structure from the checkpoint file:  "ANI1ccx_503_conf1_mol1.chk"
 Charge =  0 Multiplicity = 1

                         Standard orientation:
 ---------------------------------------------------------------------
 Center     Atomic      Atomic             Coordinates (Angstroms)
 Number     Number       Type             X           Y           Z
 ---------------------------------------------------------------------
      1          6           0        1.408810    0.022505   -0.044752
      2          6           0       -0.743408    0.773557    0.116304
      3          1           0       -2.333070   -1.627958    0.204655
      4          1           0        0.876808   -1.841670    0.568336
      5          1           0        0.843202    2.075900   -0.324013
      6          7           0       -0.754157   -0.656998    0.388092
      7          7           0        0.537026   -1.064139    0.076838
      8          7           0        0.576056    1.121541   -0.124595
      9          8           0       -1.680150   -1.320008   -0.397457
     10          8           0        2.616050   -0.098637   -0.060219
     11          8           0       -1.672379    1.520462    0.050097
 ---------------------------------------------------------------------

 SCF Done:  E(RHF) =  -467.385211870     A.U. after    2 cycles

 The electronic state is 1-A.
 Alpha  occ. eigenvalues --  -21.14175 -21.07979 -21.06339 -15.84042 -15.82632
 Alpha  occ. eigenvalues --  -15.80880 -11.55900 -11.54079  -1.87945  -1.75948
 Alpha  occ. eigenvalues --   -1.74412  -1.55931  -1.37989  -1.16450  -0.93195
 Alpha  occ. eigenvalues --   -0.87597  -0.75538  -0.73364  -0.66851  -0.63637
 Alpha  occ. eigenvalues --   -0.61213  -0.56953  -0.53720  -0.52398  -0.46009
 Alpha  occ. eigenvalues --   -0.40623  -0.35547  -0.34849  -0.31553  -0.30883
 Alpha virt. eigenvalues --    0.03395   0.05310   0.05600   0.09364   0.10112
 Alpha virt. eigenvalues --    0.10711   0.12013   0.12129   0.12679   0.13326
 Alpha virt. eigenvalues --    0.14575   0.14892   0.16200   0.17270   0.18221

 Mulliken charges:
               1
     1  C    4.836668
     2  C    4.866660
     3  H    0.700066
     4  H    0.759198
     5  H    0.714341
     6  N    0.380648
     7  N   -1.660489
     8  N   -2.204433
     9  O   -2.383633
    10  O   -2.969312
    11  O   -3.039713
 Sum of Mulliken charges =  -0.00000

 Dipole moment (field-independent basis, Debye):
    X=             -0.7785    Y=             -0.7639    Z=              0.5939  Tot=              1.2420

 Test job not archived.
 1\1\GINC-SE250\SP\RHF\Aug-CC-pVDZ\C2H3N3O3\OHZDE\08-Apr-2025\0\\#t hf
 aug-cc-pvdz iop(5/13=1,5/36=2,99/5=2) pseudo=read geom=check guess=(re
 ad,tcheck) scf=(maxcycle=1)\\title\\0,1\C,0,1.40881,0.022505,-0.044751
 8\C,0,-0.743409,0.773556,0.116304\H,0,-2.33307,-1.62796,0.204655\H,0,0
 .876808,-1.84167,0.568336\H,0,0.843201,2.0759,-0.324013\N,0,-0.754157,
 -0.656999,0.388092\N,0,0.537026,-1.06414,0.0768379\N,0,0.576055,1.1215
 4,-0.124595\O,0,-1.68015,-1.32001,-0.397457\O,0,2.61605,-0.098637,-0.0
 60219\O,0,-1.67238,1.52046,0.0500973\\Version=ES64L-G16RevC.01\State=1

 Normal termination of Gaussian 16 at Tue Apr  8 21:45:02 2025.
