 Gaussian 16, Revision C.01,

 ----------------------------------------------------------------------
 #t hf aug-cc-pvdz symm=none int=(grid=ultrafine) guess=(read,tcheck) s
 table=(opt,rrhf)
 ----------------------------------------------------------------------
 -----
 title
 -----
 Symbolic Z-matrix:
 Charge =  0 Multiplicity = 1

 SCF Done:  E(RHF) =  -431.399213514     A.U. after   15 cycles
 Normal termination of Gaussian 16 at Tue Apr  8 21:44:52 2025.
 Gaussian 16:  ES64L-G16RevC.01  3-Jul-2019

 ----------------------------------------------------------------------
 #t hf aug-cc-pvdz iop(5/13=1,5/36=2,99/5=2) pseudo=read geom=check gue
 ss=(read,tcheck) scf=(maxcycle=1)
 ----------------------------------------------------------------------
 -----
 title
 -----
 Structure from the checkpoint file:  "ANI1ccx_499_conf2_mol1.chk"
 Charge =  0 Multiplicity = 1

                         Standard orientation:
 ---------------------------------------------------------------------
 Center     Atomic      Atomic             Coordinates (Angstroms)
 Number     Number       Type             X           Y           Z
 ---------------------------------------------------------------------
      1          6           0        0.039373    0.720994   -0.034645
      2          6           0       -0.765865   -0.586368    0.020068
      3          1           0        1.563930   -1.259931   -0.131814
      4          1           0        1.990032    1.454729    0.069050
      5          1           0       -2.264179    0.596235    0.027366
      6          7           0        1.359361    0.622250    0.117396
      7          8           0        2.147440   -0.501021   -0.050004
      8          8           0       -0.634378    1.765930   -0.053617
      9          8           0       -2.034800   -0.331517    0.018714
     10          8           0       -0.284057   -1.677710   -0.002457
 ---------------------------------------------------------------------

 SCF Done:  E(RHF) =  -433.164177047     A.U. after    2 cycles

 The electronic state is 1-A.
 Alpha  occ. eigenvalues --  -21.15070 -21.13620 -21.09449 -21.07000 -15.84635
 Alpha  occ. eigenvalues --  -11.57748 -11.52998  -1.89410  -1.83282  -1.73161
 Alpha  occ. eigenvalues --   -1.70007  -1.29277  -1.00554  -0.84412  -0.76065
 Alpha  occ. eigenvalues --   -0.66872  -0.65488  -0.60423  -0.58619  -0.57163
 Alpha  occ. eigenvalues --   -0.50484  -0.46968  -0.44754  -0.39531  -0.37024
 Alpha  occ. eigenvalues --   -0.29591  -0.28586
 Alpha virt. eigenvalues --    0.03886   0.05440   0.06940   0.09595   0.09869
 Alpha virt. eigenvalues --    0.10505   0.10887   0.11450   0.11583   0.13971
 Alpha virt. eigenvalues --    0.15151   0.16964   0.17408   0.18162   0.19321

 Mulliken charges:
               1
     1  C    4.145156
     2  C    5.248415
     3  H    0.948620
     4  H    0.827148
     5  H    1.070363
     6  N   -0.626099
     7  O   -2.553579
     8  O   -3.045954
     9  O   -3.049392
    10  O   -2.964679
 Sum of Mulliken charges =  -0.00000

 Dipole moment (field-independent basis, Debye):
    X=              0.9380    Y=              0.5503    Z=             -0.1360  Tot=              1.0960

 Test job not archived.
 1\1\GINC-SE095\SP\RHF\Aug-CC-pVDZ\C2H3N1O4\OHZDE\08-Apr-2025\0\\#t hf
 aug-cc-pvdz iop(5/13=1,5/36=2,99/5=2) pseudo=read geom=check guess=(re
 ad,tcheck) scf=(maxcycle=1)\\title\\0,1\C,0,0.0393715,0.720994,-0.0346
 451\C,0,-0.765865,-0.586368,0.0200684\H,0,1.56393,-1.25993,-0.131814\H
 ,0,1.99003,1.45473,0.0690505\H,0,-2.26418,0.596234,0.0273659\N,0,1.359
 36,0.622251,0.117396\O,0,2.14744,-0.50102,-0.0500039\O,0,-0.63438,1.76
 593,-0.0536173\O,0,-2.0348,-0.331518,0.0187139\O,0,-0.284057,-1.67771,
 -0.00245667\\Version=ES64L-G16RevC.01\State=1-A\HF=-433.164177\RMSD=1.

 Normal termination of Gaussian 16 at Tue Apr  8 21:44:55 2025.
