 Gaussian 16, Revision C.01,

 ----------------------------------------------------------------------
 #t hf aug-cc-pvdz symm=none int=(grid=ultrafine) guess=(read,tcheck) s
 table=(opt,rrhf)
 ----------------------------------------------------------------------
 -----
 title
 -----
 Symbolic Z-matrix:
 Charge =  0 Multiplicity = 1

 SCF Done:  E(RHF) =  -700.072104731     A.U. after   16 cycles
 Normal termination of Gaussian 16 at Tue Apr  8 21:06:55 2025.
 Gaussian 16:  ES64L-G16RevC.01  3-Jul-2019

 ----------------------------------------------------------------------
 #t hf aug-cc-pvdz iop(5/13=1,5/36=2,99/5=2) pseudo=read geom=check gue
 ss=(read,tcheck) scf=(maxcycle=1)
 ----------------------------------------------------------------------
 -----
 title
 -----
 Structure from the checkpoint file:  "ANI1ccx_1838_conf2_mol1.chk"
 Charge =  0 Multiplicity = 1

                         Standard orientation:
 ---------------------------------------------------------------------
 Center     Atomic      Atomic             Coordinates (Angstroms)
 Number     Number       Type             X           Y           Z
 ---------------------------------------------------------------------
      1          6           0       -3.315199   -0.105815   -0.329306
      2          6           0       -2.611749   -0.866715    0.797341
      3          6           0       -0.283213    0.053065    0.476198
      4          6           0        1.124241   -0.206694    0.108499
      5          6           0        1.683381   -1.496710    0.103121
      6          6           0        3.043341   -1.644850   -0.136810
      7          6           0        3.859021   -0.554597   -0.399757
      8          6           0        3.330731    0.710683   -0.383891
      9          6           0        1.951001    0.891448   -0.057189
     10          1           0        0.630138    2.125510    0.331819
     11          1           0        3.866911    1.609240   -0.599209
     12          1           0        4.923621   -0.662653   -0.693562
     13          1           0        3.493941   -2.671970   -0.073536
     14          1           0       -2.687379   -0.461470    1.798730
     15          1           0       -0.978563   -1.666540   -0.265395
     16          1           0       -2.936619   -1.925710    0.749031
     17          1           0       -2.173879    1.240110    0.144753
     18          1           0        1.057041   -2.336520    0.440434
     19          7           0       -1.155699   -0.957919    0.455062
     20          8           0       -0.656400    1.223600    0.814199
     21          8           0       -3.007309    1.165020   -0.390875
     22          8           0       -4.066149   -0.672323   -1.128370
     23          8           0        1.505531    2.130770   -0.055922
 ---------------------------------------------------------------------

 SCF Done:  E(RHF) =  -703.151294316     A.U. after    2 cycles

 The electronic state is 1-A.
 Alpha  occ. eigenvalues --  -21.10947 -21.10061 -21.06813 -21.04767 -15.81113
 Alpha  occ. eigenvalues --  -11.57451 -11.55065 -11.53592 -11.49513 -11.46136
 Alpha  occ. eigenvalues --  -11.45865 -11.44174 -11.42982 -11.39441  -1.83404
 Alpha  occ. eigenvalues --   -1.80661  -1.73687  -1.64514  -1.44730  -1.34327
 Alpha  occ. eigenvalues --   -1.16497  -1.09546  -1.08461  -0.93811  -0.88147
 Alpha  occ. eigenvalues --   -0.85356  -0.80178  -0.76180  -0.73114  -0.70892
 Alpha  occ. eigenvalues --   -0.67721  -0.64938  -0.64067  -0.61289  -0.60366
 Alpha  occ. eigenvalues --   -0.58557  -0.55021  -0.54081  -0.52557  -0.50683
 Alpha  occ. eigenvalues --   -0.50299  -0.49285  -0.46752  -0.45461  -0.43531
 Alpha  occ. eigenvalues --   -0.37448  -0.35844  -0.32642  -0.31431  -0.29506
 Alpha  occ. eigenvalues --   -0.28250
 Alpha virt. eigenvalues --    0.02660   0.04208   0.04253   0.05335   0.05712
 Alpha virt. eigenvalues --    0.05847   0.06386   0.07439   0.08185   0.08691
 Alpha virt. eigenvalues --    0.08786   0.10489   0.10805   0.11104   0.11154

 Mulliken charges:
               1
     1  C    5.858667
     2  C   -3.396459
     3  C    3.200769
     4  C    2.075415
     5  C    0.081742
     6  C   -1.103832
     7  C   -1.010330
     8  C   -4.204209
     9  C    3.733123
    10  H    1.189574
    11  H    1.632157
    12  H    1.482280
    13  H    1.422184
    14  H    1.619838
    15  H    0.708621
    16  H    1.531130
    17  H    1.656697
    18  H    1.820170
    19  N   -3.486017
    20  O   -3.846072
    21  O   -3.342052
    22  O   -3.127844
    23  O   -4.495552
 Sum of Mulliken charges =   0.00000

 Dipole moment (field-independent basis, Debye):
    X=              2.7394    Y=             -1.1634    Z=              1.4063  Tot=              3.2917

 Test job not archived.
 1\1\GINC-SE458\SP\RHF\Aug-CC-pVDZ\C9H9N1O4\OHZDE\08-Apr-2025\0\\#t hf
 aug-cc-pvdz iop(5/13=1,5/36=2,99/5=2) pseudo=read geom=check guess=(re
 ad,tcheck) scf=(maxcycle=1)\\title\\0,1\C,0,-3.3152,-0.105815,-0.32930
 6\C,0,-2.61175,-0.866715,0.797341\C,0,-0.283214,0.0530644,0.476198\C,0
 ,1.12424,-0.206694,0.108499\C,0,1.68338,-1.49671,0.103121\C,0,3.04334,
 -1.64485,-0.13681\C,0,3.85902,-0.554597,-0.399757\C,0,3.33073,0.710683
 ,-0.383891\C,0,1.951,0.891448,-0.0571886\H,0,0.630137,2.12551,0.331819
 \H,0,3.86691,1.60924,-0.599209\H,0,4.92362,-0.662653,-0.693562\H,0,3.4

 Normal termination of Gaussian 16 at Tue Apr  8 21:07:13 2025.
