 Gaussian 16, Revision C.01,

 ----------------------------------------------------------------------
 #t hf aug-cc-pvdz symm=none int=(grid=ultrafine) guess=(read,tcheck) s
 table=(opt,rrhf)
 ----------------------------------------------------------------------
 -----
 title
 -----
 Symbolic Z-matrix:
 Charge =  0 Multiplicity = 1

 SCF Done:  E(RHF) =  -908.379440737     A.U. after   14 cycles
 Normal termination of Gaussian 16 at Tue Apr  8 21:11:32 2025.
 Gaussian 16:  ES64L-G16RevC.01  3-Jul-2019

 ----------------------------------------------------------------------
 #t hf aug-cc-pvdz iop(5/13=1,5/36=2,99/5=2) pseudo=read geom=check gue
 ss=(read,tcheck) scf=(maxcycle=1)
 ----------------------------------------------------------------------
 -----
 title
 -----
 Structure from the checkpoint file:  "ANI1ccx_1761_conf6_mol1.chk"
 Charge =  0 Multiplicity = 1

                         Standard orientation:
 ---------------------------------------------------------------------
 Center     Atomic      Atomic             Coordinates (Angstroms)
 Number     Number       Type             X           Y           Z
 ---------------------------------------------------------------------
      1          6           0        2.241960   -0.088017   -0.683709
      2          6           0       -2.946981    0.885947    0.894531
      3          6           0       -2.071090   -0.147621    1.601519
      4          6           0       -1.872679   -1.531011   -0.552528
      5          6           0       -2.208122    1.950488    0.083025
      6          6           0        3.976140   -0.706224    1.075419
      7          6           0        3.198409    0.387196    0.377457
      8          6           0        1.129440   -0.996044   -0.121644
      9          6           0       -1.166040   -1.002001    0.711023
     10          1           0       -0.914405   -1.962801    1.206759
     11          1           0       -3.136439   -2.684042   -1.130981
     12          1           0       -0.601610    2.920139    0.029378
     13          1           0       -3.673181    0.401477    0.201939
     14          1           0       -3.570351    1.401808    1.669239
     15          1           0       -2.760370   -0.829138    2.149849
     16          1           0       -1.399121    0.304084    2.355299
     17          1           0        0.052427    0.534760   -0.030141
     18          1           0        4.738000   -0.306948    1.749999
     19          1           0        4.537300   -1.305567    0.323143
     20          1           0        3.319531   -1.407948    1.598979
     21          1           0        4.842549    0.812927   -0.616027
     22          1           0        2.670889    0.975388    1.141259
     23          1           0        2.791350   -0.720962   -1.414111
     24          1           0        2.285878    1.721041   -1.648611
     25          1           0        1.084279    0.714841   -2.183191
     26          7           0        1.564349    1.055131   -1.343761
     27          7           0        0.029061   -0.376781    0.331641
     28          8           0        1.247631   -2.242709   -0.005355
     29          8           0        4.134029    1.325263   -0.176990
     30          8           0       -1.746640   -1.181871   -1.667201
     31          8           0       -2.677962    2.596158   -0.821423
     32          8           0       -1.004212    2.231959    0.585771
     33          8           0       -2.841199   -2.458022   -0.243371
 ---------------------------------------------------------------------

 SCF Done:  E(RHF) =  -912.384175920     A.U. after    2 cycles

 The electronic state is 1-A.
 Alpha  occ. eigenvalues --  -21.13130 -21.12085 -21.07812 -21.06955 -21.05761
 Alpha  occ. eigenvalues --  -21.01986 -15.76188 -15.75092 -11.55601 -11.54049
 Alpha  occ. eigenvalues --  -11.53515 -11.50319 -11.49836 -11.45213 -11.44359
 Alpha  occ. eigenvalues --  -11.41500 -11.38254  -1.84856  -1.84335  -1.73079
 Alpha  occ. eigenvalues --   -1.68599  -1.66565  -1.65860  -1.44398  -1.35033
 Alpha  occ. eigenvalues --   -1.22757  -1.14912  -1.08992  -1.00715  -0.94936
 Alpha  occ. eigenvalues --   -0.88444  -0.83443  -0.80398  -0.78360  -0.71274
 Alpha  occ. eigenvalues --   -0.67854  -0.67419  -0.66126  -0.65899  -0.63561
 Alpha  occ. eigenvalues --   -0.63005  -0.60800  -0.60480  -0.59405  -0.59052
 Alpha  occ. eigenvalues --   -0.57649  -0.56638  -0.54276  -0.53026  -0.52025
 Alpha  occ. eigenvalues --   -0.51276  -0.49674  -0.48868  -0.47483  -0.46606
 Alpha  occ. eigenvalues --   -0.45408  -0.44108  -0.40919  -0.39124  -0.35187
 Alpha  occ. eigenvalues --   -0.34103  -0.33743  -0.31815  -0.30090  -0.29668
 Alpha  occ. eigenvalues --   -0.27857
 Alpha virt. eigenvalues --    0.03595   0.04259   0.04636   0.04741   0.05188
 Alpha virt. eigenvalues --    0.05362   0.05838   0.05990   0.06358   0.06635
 Alpha virt. eigenvalues --    0.06850   0.07563   0.08391   0.09253   0.09734

 Mulliken charges:
               1
     1  C   -2.344755
     2  C   -4.197649
     3  C   -3.472587
     4  C    8.011342
     5  C    6.677015
     6  C   -4.343730
     7  C    1.482593
     8  C    7.074412
     9  C   -2.482009
    10  H    1.922119
    11  H    0.725973
    12  H    0.993339
    13  H    1.383529
    14  H    1.346609
    15  H    1.272112
    16  H    1.440959
    17  H    1.654014
    18  H    1.147827
    19  H    1.095831
    20  H    1.370227
    21  H    0.737593
    22  H    1.781648
    23  H    1.702925
    24  H    0.717501
    25  H    0.583800
    26  N   -2.953082
    27  N   -2.706963
    28  O   -4.016942
    29  O   -3.299187
    30  O   -3.413485
    31  O   -3.376194
    32  O   -3.336657
    33  O   -3.178127
 Sum of Mulliken charges =  -0.00000

 Dipole moment (field-independent basis, Debye):
    X=              0.5628    Y=              0.9875    Z=              1.1617  Tot=              1.6253

 Test job not archived.
 1\1\GINC-SE367\SP\RHF\Aug-CC-pVDZ\C9H16N2O6\OHZDE\08-Apr-2025\0\\#t hf
  aug-cc-pvdz iop(5/13=1,5/36=2,99/5=2) pseudo=read geom=check guess=(r
 ead,tcheck) scf=(maxcycle=1)\\title\\0,1\C,0,2.24196,-0.0880187,-0.683
 708\C,0,-2.94698,0.885949,0.894532\C,0,-2.07109,-0.14762,1.60152\C,0,-
 1.87268,-1.53101,-0.552527\C,0,-2.20812,1.95049,0.083026\C,0,3.97614,-
 0.706226,1.07542\C,0,3.19841,0.387194,0.377458\C,0,1.12944,-0.996045,-
 0.121643\C,0,-1.16604,-1.002,0.711024\H,0,-0.914406,-1.9628,1.20676\H,
 0,-3.13644,-2.68404,-1.13098\H,0,-0.601608,2.92014,0.029379\H,0,-3.673

 Normal termination of Gaussian 16 at Tue Apr  8 21:12:12 2025.
