 Gaussian 16, Revision C.01,

 ----------------------------------------------------------------------
 #t hf aug-cc-pvdz symm=none int=(grid=ultrafine) guess=(read,tcheck) s
 table=(opt,rrhf)
 ----------------------------------------------------------------------
 -----
 title
 -----
 Symbolic Z-matrix:
 Charge =  0 Multiplicity = 1

 SCF Done:  E(RHF) =  -435.817623708     A.U. after   14 cycles
 Normal termination of Gaussian 16 at Tue Apr  8 22:16:54 2025.
 Gaussian 16:  ES64L-G16RevC.01  3-Jul-2019

 ----------------------------------------------------------------------
 #t hf aug-cc-pvdz iop(5/13=1,5/36=2,99/5=2) pseudo=read geom=check gue
 ss=(read,tcheck) scf=(maxcycle=1)
 ----------------------------------------------------------------------
 -----
 title
 -----
 Structure from the checkpoint file:  "ANI1ccx_976_conf4_mol2.chk"
 Charge =  0 Multiplicity = 1

                         Standard orientation:
 ---------------------------------------------------------------------
 Center     Atomic      Atomic             Coordinates (Angstroms)
 Number     Number       Type             X           Y           Z
 ---------------------------------------------------------------------
      1          6           0        0.085556   -0.663637   -0.085673
      2          6           0        1.387120    0.038758   -0.307364
      3          6           0       -1.074080    0.274131   -0.477744
      4          6           0       -2.374270   -0.469078   -0.642996
      5          1           0        0.548733    1.511740    0.536096
      6          1           0       -3.162630    0.203025   -0.956932
      7          1           0       -2.624410   -1.021788    0.264969
      8          1           0       -2.309040   -1.193928   -1.483290
      9          1           0       -1.676849    0.988225    1.202070
     10          1           0       -0.850018    0.768062   -1.423590
     11          1           0        0.064619   -1.496339   -0.837900
     12          1           0        0.668424   -1.959950    1.442330
     13          1           0        0.131411   -0.596398    2.002630
     14          7           0       -0.022065   -1.266229    1.265030
     15          8           0        2.333020   -0.527392   -0.760141
     16          8           0       -1.138729    1.319231    0.470840
     17          8           0        1.457991    1.280650    0.224436
 ---------------------------------------------------------------------

 SCF Done:  E(RHF) =  -437.746219221     A.U. after    2 cycles

 The electronic state is 1-A.
 Alpha  occ. eigenvalues --  -21.10921 -21.09507 -21.04127 -15.76338 -11.52302
 Alpha  occ. eigenvalues --  -11.49519 -11.44607 -11.39467  -1.82254  -1.76234
 Alpha  occ. eigenvalues --   -1.64949  -1.36037  -1.16687  -1.04269  -0.88231
 Alpha  occ. eigenvalues --   -0.79284  -0.73336  -0.71011  -0.64094  -0.61855
 Alpha  occ. eigenvalues --   -0.60925  -0.56958  -0.55396  -0.52556  -0.50775
 Alpha  occ. eigenvalues --   -0.48493  -0.47925  -0.42196  -0.39512  -0.34829
 Alpha  occ. eigenvalues --   -0.32746  -0.26974
 Alpha virt. eigenvalues --    0.03384   0.04306   0.04761   0.05226   0.05503
 Alpha virt. eigenvalues --    0.05916   0.06641   0.07663   0.08869   0.10748
 Alpha virt. eigenvalues --    0.12217   0.12687   0.13466   0.13889   0.14265

 Mulliken charges:
               1
     1  C   -1.503503
     2  C    6.813501
     3  C    1.636533
     4  C   -4.154027
     5  H    1.367763
     6  H    1.087681
     7  H    1.300671
     8  H    1.135358
     9  H    0.720331
    10  H    1.730116
    11  H    1.606805
    12  H    0.658229
    13  H    0.525245
    14  N   -2.820802
    15  O   -3.472345
    16  O   -3.352024
    17  O   -3.279532
 Sum of Mulliken charges =   0.00000

 Dipole moment (field-independent basis, Debye):
    X=             -2.7675    Y=              0.2018    Z=              1.1008  Tot=              2.9853

 Test job not archived.
 1\1\GINC-SE343\SP\RHF\Aug-CC-pVDZ\C4H9N1O3\OHZDE\08-Apr-2025\0\\#t hf
 aug-cc-pvdz iop(5/13=1,5/36=2,99/5=2) pseudo=read geom=check guess=(re
 ad,tcheck) scf=(maxcycle=1)\\title\\0,1\C,0,0.0855564,-0.663638,-0.085
 6724\C,0,1.38712,0.0387583,-0.307364\C,0,-1.07408,0.27413,-0.477744\C,
 0,-2.37427,-0.46908,-0.642996\H,0,0.548732,1.51174,0.536096\H,0,-3.162
 63,0.203023,-0.956932\H,0,-2.62441,-1.02179,0.264969\H,0,-2.30904,-1.1
 9393,-1.48329\H,0,-1.67685,0.988223,1.20207\H,0,-0.850019,0.768061,-1.
 42359\H,0,0.0646195,-1.49634,-0.8379\H,0,0.668425,-1.95995,1.44233\H,0

 Normal termination of Gaussian 16 at Tue Apr  8 22:17:01 2025.
