 Gaussian 16, Revision C.01,

 ----------------------------------------------------------------------
 #t hf aug-cc-pvdz symm=none int=(grid=ultrafine) guess=(read,tcheck) s
 table=(opt,rrhf)
 ----------------------------------------------------------------------
 -----
 title
 -----
 Symbolic Z-matrix:
 Charge =  0 Multiplicity = 1

 SCF Done:  E(RHF) =  -535.512666029     A.U. after   16 cycles
 Normal termination of Gaussian 16 at Tue Apr  8 22:11:22 2025.
 Gaussian 16:  ES64L-G16RevC.01  3-Jul-2019

 ----------------------------------------------------------------------
 #t hf aug-cc-pvdz iop(5/13=1,5/36=2,99/5=2) pseudo=read geom=check gue
 ss=(read,tcheck) scf=(maxcycle=1)
 ----------------------------------------------------------------------
 -----
 title
 -----
 Structure from the checkpoint file:  "ANI1ccx_911_conf7_mol1.chk"
 Charge =  0 Multiplicity = 1

                         Standard orientation:
 ---------------------------------------------------------------------
 Center     Atomic      Atomic             Coordinates (Angstroms)
 Number     Number       Type             X           Y           Z
 ---------------------------------------------------------------------
      1          6           0        1.633459   -0.578474   -0.007510
      2          6           0        0.411267    1.345059    0.030963
      3          6           0       -0.875251    0.495509   -0.129548
      4          6           0       -2.219059    0.503721   -0.128576
      5          1           0        2.804527   -2.117264   -0.206424
      6          1           0        3.667839   -0.675123    0.268730
      7          1           0        1.154894    3.117788    0.063060
      8          1           0       -0.594726    3.153140    0.053229
      9          1           0       -2.863228    1.419093   -0.138323
     10          7           0        2.860799   -1.109614   -0.091696
     11          7           0        1.595831    0.760529    0.128250
     12          7           0        0.291145    2.692019    0.002355
     13          7           0       -2.714821   -0.741650    0.100805
     14          7           0       -1.745622   -1.561229    0.094888
     15          7           0       -0.586996   -0.839902   -0.048068
     16          7           0        0.603693   -1.413371    0.008859
 ---------------------------------------------------------------------

 SCF Done:  E(RHF) =  -537.947001003     A.U. after    2 cycles

 The electronic state is 1-A.
 Alpha  occ. eigenvalues --  -15.83778 -15.82756 -15.78660 -15.77886 -15.76232
 Alpha  occ. eigenvalues --  -15.75111 -15.74135 -11.56631 -11.49845 -11.47250
 Alpha  occ. eigenvalues --  -11.42513  -1.73226  -1.55518  -1.46101  -1.39698
 Alpha  occ. eigenvalues --   -1.29514  -1.20692  -1.15481  -0.96211  -0.91414
 Alpha  occ. eigenvalues --   -0.85243  -0.80000  -0.73246  -0.72003  -0.69481
 Alpha  occ. eigenvalues --   -0.67589  -0.63590  -0.60180  -0.59353  -0.58044
 Alpha  occ. eigenvalues --   -0.53762  -0.48696  -0.45559  -0.44254  -0.38770
 Alpha  occ. eigenvalues --   -0.37774  -0.37075  -0.35420  -0.26828
 Alpha virt. eigenvalues --    0.02678   0.04291   0.04608   0.05952   0.06705
 Alpha virt. eigenvalues --    0.08887   0.09623   0.10838   0.11144   0.11993
 Alpha virt. eigenvalues --    0.12135   0.12796   0.13262   0.13518   0.14170

 Mulliken charges:
               1
     1  C    4.386200
     2  C    3.794912
     3  C    3.130471
     4  C   -0.855557
     5  H    0.655787
     6  H    0.666197
     7  H    0.748423
     8  H    0.697258
     9  H    1.287401
    10  N   -3.036210
    11  N   -3.434251
    12  N   -3.449216
    13  N   -1.901051
    14  N   -0.337862
    15  N   -0.197735
    16  N   -2.154769
 Sum of Mulliken charges =  -0.00000

 Dipole moment (field-independent basis, Debye):
    X=              3.9761    Y=              4.9033    Z=              0.2213  Tot=              6.3167

 Test job not archived.
 1\1\GINC-SE365\SP\RHF\Aug-CC-pVDZ\C4H5N7\OHZDE\08-Apr-2025\0\\#t hf au
 g-cc-pvdz iop(5/13=1,5/36=2,99/5=2) pseudo=read geom=check guess=(read
 ,tcheck) scf=(maxcycle=1)\\title\\0,1\C,0,1.63346,-0.578471,-0.0075101
 8\C,0,0.411265,1.34506,0.0309628\C,0,-0.875252,0.495509,-0.129548\C,0,
 -2.21906,0.503719,-0.128576\H,0,2.80453,-2.11726,-0.206424\H,0,3.66784
 ,-0.675118,0.26873\H,0,1.15489,3.11779,0.0630603\H,0,-0.59473,3.15314,
 0.0532294\H,0,-2.86323,1.41909,-0.138323\N,0,2.8608,-1.10961,-0.091695
 7\N,0,1.59583,0.760531,0.12825\N,0,0.291142,2.69202,0.00235536\N,0,-2.

 Normal termination of Gaussian 16 at Tue Apr  8 22:11:29 2025.
