 Gaussian 16, Revision C.01,

 ----------------------------------------------------------------------
 #t hf aug-cc-pvdz symm=none int=(grid=ultrafine) guess=(read,tcheck) s
 table=(opt,rrhf)
 ----------------------------------------------------------------------
 -----
 title
 -----
 Symbolic Z-matrix:
 Charge =  0 Multiplicity = 1

 SCF Done:  E(RHF) =  -294.648944745     A.U. after   15 cycles
 Normal termination of Gaussian 16 at Tue Apr  8 21:43:45 2025.
 Gaussian 16:  ES64L-G16RevC.01  3-Jul-2019

 ----------------------------------------------------------------------
 #t hf aug-cc-pvdz iop(5/13=1,5/36=2,99/5=2) pseudo=read geom=check gue
 ss=(read,tcheck) scf=(maxcycle=1)
 ----------------------------------------------------------------------
 -----
 title
 -----
 Structure from the checkpoint file:  "ANI1ccx_486_conf3_mol2.chk"
 Charge =  0 Multiplicity = 1

                         Standard orientation:
 ---------------------------------------------------------------------
 Center     Atomic      Atomic             Coordinates (Angstroms)
 Number     Number       Type             X           Y           Z
 ---------------------------------------------------------------------
      1          6           0       -1.169240    0.514764   -0.018115
      2          6           0        1.027683    0.739546    0.025670
      3          1           0       -2.209524    0.883152    0.029364
      4          1           0        1.909124    1.368368    0.007018
      5          7           0       -0.143252    1.349872   -0.020961
      6          7           0        1.210561   -0.585600    0.008727
      7          7           0        0.134352   -1.339512   -0.039596
      8          7           0       -1.037413   -0.821528    0.040157
 ---------------------------------------------------------------------

 SCF Done:  E(RHF) =  -295.945251659     A.U. after    2 cycles

 The electronic state is 1-A.
 Alpha  occ. eigenvalues --  -15.84737 -15.79839 -15.79676 -15.79397 -11.49108
 Alpha  occ. eigenvalues --  -11.47570  -1.68714  -1.42471  -1.36454  -1.03005
 Alpha  occ. eigenvalues --   -0.99703  -0.78138  -0.72319  -0.65911  -0.61720
 Alpha  occ. eigenvalues --   -0.60103  -0.50837  -0.46793  -0.43689  -0.40164
 Alpha  occ. eigenvalues --   -0.35735
 Alpha virt. eigenvalues --    0.03240   0.04980   0.07426   0.07917   0.09915
 Alpha virt. eigenvalues --    0.10070   0.10164   0.10215   0.14048   0.14441
 Alpha virt. eigenvalues --    0.15088   0.15771   0.16281   0.18046   0.18983

 Mulliken charges:
               1
     1  C    1.269332
     2  C    1.309042
     3  H    1.602389
     4  H    1.624013
     5  N   -2.542212
     6  N   -1.745228
     7  N    0.098602
     8  N   -1.615938
 Sum of Mulliken charges =  -0.00000

 Dipole moment (field-independent basis, Debye):
    X=             -0.3237    Y=              2.2914    Z=              0.0650  Tot=              2.3151

 Test job not archived.
 1\1\GINC-SE424\SP\RHF\Aug-CC-pVDZ\C2H2N4\OHZDE\08-Apr-2025\0\\#t hf au
 g-cc-pvdz iop(5/13=1,5/36=2,99/5=2) pseudo=read geom=check guess=(read
 ,tcheck) scf=(maxcycle=1)\\title\\0,1\C,0,-1.16925,0.514745,-0.0181145
 \C,0,1.02767,0.739563,0.02567\H,0,-2.20954,0.883116,0.0293641\H,0,1.90
 91,1.3684,0.00701843\N,0,-0.143275,1.34987,-0.0209614\N,0,1.21057,-0.5
 8558,0.00872692\N,0,0.134373,-1.33951,-0.039596\N,0,-1.0374,-0.821545,
 0.0401569\\Version=ES64L-G16RevC.01\State=1-A\HF=-295.9452517\RMSD=9.8
 17e-02\Dipole=-0.1273652,0.9015104,0.0255729\Quadrupole=2.0381075,-3.5

 Normal termination of Gaussian 16 at Tue Apr  8 21:43:48 2025.
