 Gaussian 16, Revision C.01,

 ----------------------------------------------------------------------
 #t hf aug-cc-pvdz symm=none int=(grid=ultrafine) guess=(read,tcheck) s
 table=(opt,rrhf)
 ----------------------------------------------------------------------
 -----
 title
 -----
 Symbolic Z-matrix:
 Charge =  0 Multiplicity = 1

 SCF Done:  E(RHF) =  -428.539338012     A.U. after   15 cycles
 Normal termination of Gaussian 16 at Tue Apr  8 21:52:02 2025.
 Gaussian 16:  ES64L-G16RevC.01  3-Jul-2019

 ----------------------------------------------------------------------
 #t hf aug-cc-pvdz iop(5/13=1,5/36=2,99/5=2) pseudo=read geom=check gue
 ss=(read,tcheck) scf=(maxcycle=1)
 ----------------------------------------------------------------------
 -----
 title
 -----
 Structure from the checkpoint file:  "ANI1ccx_676_conf3_mol2.chk"
 Charge =  0 Multiplicity = 1

                         Standard orientation:
 ---------------------------------------------------------------------
 Center     Atomic      Atomic             Coordinates (Angstroms)
 Number     Number       Type             X           Y           Z
 ---------------------------------------------------------------------
      1          6           0        2.536499   -0.711801   -0.445133
      2          6           0        1.251410   -0.344778    0.179073
      3          6           0       -0.195512    1.505530   -0.032575
      4          1           0        2.444649   -0.729028   -1.502130
      5          1           0        3.313391    0.025511   -0.266579
      6          1           0        2.910887   -1.669215   -0.090888
      7          7           0        0.811238    0.908379   -0.349564
      8          7           0       -2.063381   -0.727831   -0.410722
      9          7           0       -2.604883   -1.645965   -0.154301
     10          8           0       -1.052545    2.232112    0.226130
     11          8           0        0.649528   -0.989994    1.030560
 ---------------------------------------------------------------------

 SCF Done:  E(RHF) =  -430.353463229     A.U. after    2 cycles

 The electronic state is 1-A.
 Alpha  occ. eigenvalues --  -21.15732 -21.07381 -15.87143 -15.86857 -15.78239
 Alpha  occ. eigenvalues --  -11.61534 -11.54605 -11.40372  -1.80599  -1.73210
 Alpha  occ. eigenvalues --   -1.56456  -1.41488  -1.14151  -0.89854  -0.79127
 Alpha  occ. eigenvalues --   -0.68763  -0.66216  -0.65409  -0.63323  -0.59719
 Alpha  occ. eigenvalues --   -0.57721  -0.57677  -0.57535  -0.55528  -0.53297
 Alpha  occ. eigenvalues --   -0.46581  -0.41555  -0.34733  -0.31496
 Alpha virt. eigenvalues --    0.03348   0.05931   0.06006   0.07501   0.09882
 Alpha virt. eigenvalues --    0.10247   0.10807   0.11425   0.12532   0.12710
 Alpha virt. eigenvalues --    0.13428   0.13891   0.14279   0.14818   0.15626

 Mulliken charges:
               1
     1  C   -4.189970
     2  C    4.648712
     3  C    4.099542
     4  H    1.304658
     5  H    1.290966
     6  H    1.277845
     7  N   -2.828321
     8  N   -0.197666
     9  N    0.224075
    10  O   -2.670508
    11  O   -2.959331
 Sum of Mulliken charges =  -0.00000

 Dipole moment (field-independent basis, Debye):
    X=              0.0650    Y=              0.3983    Z=             -0.2736  Tot=              0.4876

 Test job not archived.
 1\1\GINC-SE073\SP\RHF\Aug-CC-pVDZ\C3H3N3O2\OHZDE\08-Apr-2025\0\\#t hf
 aug-cc-pvdz iop(5/13=1,5/36=2,99/5=2) pseudo=read geom=check guess=(re
 ad,tcheck) scf=(maxcycle=1)\\title\\0,1\C,0,2.5365,-0.711796,-0.445133
 \C,0,1.25141,-0.344776,0.179073\C,0,-0.195515,1.50553,-0.0325754\H,0,2
 .44465,-0.729023,-1.50213\H,0,3.31339,0.0255167,-0.266579\H,0,2.91089,
 -1.66921,-0.0908879\N,0,0.811236,0.90838,-0.349564\N,0,-2.06338,-0.727
 835,-0.410722\N,0,-2.60488,-1.64597,-0.154301\O,0,-1.05255,2.23211,0.2
 2613\O,0,0.649529,-0.989993,1.03056\\Version=ES64L-G16RevC.01\State=1-

 Normal termination of Gaussian 16 at Tue Apr  8 21:52:06 2025.
