 Gaussian 16, Revision C.01,

 ----------------------------------------------------------------------
 #t hf aug-cc-pvdz symm=none int=(grid=ultrafine) guess=(read,tcheck) s
 table=(opt,rrhf)
 ----------------------------------------------------------------------
 -----
 title
 -----
 Symbolic Z-matrix:
 Charge =  0 Multiplicity = 1

 SCF Done:  E(RHF) =  -259.150926971     A.U. after   13 cycles
 Normal termination of Gaussian 16 at Tue Apr  8 21:40:45 2025.
 Gaussian 16:  ES64L-G16RevC.01  3-Jul-2019

 ----------------------------------------------------------------------
 #t hf aug-cc-pvdz iop(5/13=1,5/36=2,99/5=2) pseudo=read geom=check gue
 ss=(read,tcheck) scf=(maxcycle=1)
 ----------------------------------------------------------------------
 -----
 title
 -----
 Structure from the checkpoint file:  "ANI1ccx_430_conf52_mol1.chk"
 Charge =  0 Multiplicity = 1

                         Standard orientation:
 ---------------------------------------------------------------------
 Center     Atomic      Atomic             Coordinates (Angstroms)
 Number     Number       Type             X           Y           Z
 ---------------------------------------------------------------------
      1          6           0        0.480626    0.112757   -0.064074
      2          1           0       -1.945200    0.436908    0.950843
      3          1           0       -2.192980    0.371366   -0.738085
      4          1           0       -0.617718   -1.658761   -0.218971
      5          1           0        1.705260   -1.614731    0.177075
      6          1           0        2.540630   -0.052952    0.147977
      7          1           0       -0.345152    1.870029   -0.177539
      8          7           0       -1.911200   -0.166095    0.091391
      9          7           0       -0.640191   -0.637912   -0.088578
     10          7           0        1.667970   -0.605932    0.031163
     11          7           0        0.593622    1.405879    0.000759
 ---------------------------------------------------------------------

 SCF Done:  E(RHF) =  -260.351670554     A.U. after    2 cycles

 The electronic state is 1-A.
 Alpha  occ. eigenvalues --  -15.77800 -15.77207 -15.75517 -15.68432 -11.47389
 Alpha  occ. eigenvalues --   -1.54814  -1.37303  -1.20814  -1.12047  -0.82686
 Alpha  occ. eigenvalues --   -0.72948  -0.69741  -0.67942  -0.60775  -0.54289
 Alpha  occ. eigenvalues --   -0.53652  -0.41137  -0.37990  -0.35522  -0.30327
 Alpha virt. eigenvalues --    0.03632   0.04668   0.05502   0.06416   0.07265
 Alpha virt. eigenvalues --    0.07505   0.12006   0.12955   0.14367   0.15387
 Alpha virt. eigenvalues --    0.16766   0.17100   0.17513   0.18651   0.19122

 Mulliken charges:
               1
     1  C    4.791377
     2  H    0.645739
     3  H    0.599139
     4  H    0.851598
     5  H    0.621319
     6  H    0.621530
     7  H    0.503305
     8  N   -1.794396
     9  N   -1.455177
    10  N   -2.670908
    11  N   -2.713527
 Sum of Mulliken charges =  -0.00000

 Dipole moment (field-independent basis, Debye):
    X=             -0.7936    Y=             -2.6264    Z=             -0.0056  Tot=              2.7437

 Test job not archived.
 1\1\GINC-SE090\SP\RHF\Aug-CC-pVDZ\C1H6N4\OHZDE\08-Apr-2025\0\\#t hf au
 g-cc-pvdz iop(5/13=1,5/36=2,99/5=2) pseudo=read geom=check guess=(read
 ,tcheck) scf=(maxcycle=1)\\title\\0,1\C,0,0.480626,0.112758,-0.0640741
 \H,0,-1.9452,0.436909,0.950843\H,0,-2.19298,0.371367,-0.738085\H,0,-0.
 617718,-1.65876,-0.218971\H,0,1.70526,-1.61473,0.177075\H,0,2.54063,-0
 .0529513,0.147977\H,0,-0.345152,1.87003,-0.177539\N,0,-1.9112,-0.16609
 4,0.0913907\N,0,-0.640191,-0.637911,-0.0885778\N,0,1.66797,-0.605931,0
 .0311633\N,0,0.593622,1.40588,0.00075873\\Version=ES64L-G16RevC.01\Sta

 Normal termination of Gaussian 16 at Tue Apr  8 21:40:48 2025.
