 Gaussian 16, Revision C.01,

 ----------------------------------------------------------------------
 #t hf aug-cc-pvdz symm=none int=(grid=ultrafine) guess=(read,tcheck) s
 table=(opt,rrhf)
 ----------------------------------------------------------------------
 -----
 title
 -----
 Symbolic Z-matrix:
 Charge =  0 Multiplicity = 1

 SCF Done:  E(RHF) =  -353.171654707     A.U. after   13 cycles
 Normal termination of Gaussian 16 at Tue Apr  8 21:49:20 2025.
 Gaussian 16:  ES64L-G16RevC.01  3-Jul-2019

 ----------------------------------------------------------------------
 #t hf aug-cc-pvdz iop(5/13=1,5/36=2,99/5=2) pseudo=read geom=check gue
 ss=(read,tcheck) scf=(maxcycle=1)
 ----------------------------------------------------------------------
 -----
 title
 -----
 Structure from the checkpoint file:  "ANI1ccx_602_conf1_mol2.chk"
 Charge =  0 Multiplicity = 1

                         Standard orientation:
 ---------------------------------------------------------------------
 Center     Atomic      Atomic             Coordinates (Angstroms)
 Number     Number       Type             X           Y           Z
 ---------------------------------------------------------------------
      1          6           0       -2.602181    0.120100    0.153163
      2          6           0       -0.198620   -0.200490   -0.092210
      3          1           0       -3.482341   -0.202402   -0.412301
      4          1           0       -2.428951    1.119140   -0.245228
      5          1           0       -2.802791    0.228807    1.290340
      6          1           0       -1.494991   -1.639459    0.287032
      7          1           0        0.677647   -1.993409   -0.653588
      8          1           0        2.386989   -0.880154    1.141350
      9          1           0        2.498169   -0.142755   -0.352998
     10          1           0        1.352059    2.128381    0.832852
     11          1           0        1.099979    2.455341   -0.727506
     12          7           0       -1.473461   -0.729477   -0.152433
     13          7           0        0.822048   -1.147399   -0.117410
     14          7           0        2.178719   -0.986605    0.142002
     15          7           0       -0.047818    1.094191   -0.031941
     16          7           0        1.234659    1.684841   -0.058170
 ---------------------------------------------------------------------

 SCF Done:  E(RHF) =  -354.839308144     A.U. after    2 cycles

 The electronic state is 1-A.
 Alpha  occ. eigenvalues --  -15.75685 -15.74787 -15.74689 -15.73979 -15.68814
 Alpha  occ. eigenvalues --  -11.46573 -11.38588  -1.53708  -1.41727  -1.37731
 Alpha  occ. eigenvalues --   -1.15679  -1.07127  -0.96764  -0.77911  -0.72235
 Alpha  occ. eigenvalues --   -0.67450  -0.65269  -0.63051  -0.60787  -0.56429
 Alpha  occ. eigenvalues --   -0.56183  -0.50481  -0.50248  -0.47690  -0.39797
 Alpha  occ. eigenvalues --   -0.33958  -0.30576  -0.27105
 Alpha virt. eigenvalues --    0.04014   0.05071   0.05526   0.05908   0.06240
 Alpha virt. eigenvalues --    0.06886   0.07223   0.07478   0.09046   0.11006
 Alpha virt. eigenvalues --    0.13358   0.14012   0.14393   0.14988   0.16050

 Mulliken charges:
               1
     1  C   -3.457171
     2  C    5.014270
     3  H    1.340796
     4  H    1.359965
     5  H    1.271462
     6  H    0.640863
     7  H    0.820313
     8  H    0.719588
     9  H    0.716854
    10  H    0.711384
    11  H    0.670905
    12  N   -2.714757
    13  N   -1.310714
    14  N   -2.258750
    15  N   -1.589908
    16  N   -1.935101
 Sum of Mulliken charges =   0.00000

 Dipole moment (field-independent basis, Debye):
    X=             -0.3820    Y=             -0.5572    Z=              0.7576  Tot=              1.0151

 Test job not archived.
 1\1\GINC-SE393\SP\RHF\Aug-CC-pVDZ\C2H9N5\OHZDE\08-Apr-2025\0\\#t hf au
 g-cc-pvdz iop(5/13=1,5/36=2,99/5=2) pseudo=read geom=check guess=(read
 ,tcheck) scf=(maxcycle=1)\\title\\0,1\C,0,-2.60218,0.1201,0.153163\C,0
 ,-0.198619,-0.200491,-0.0922103\H,0,-3.48234,-0.202402,-0.412301\H,0,-
 2.42895,1.11914,-0.245228\H,0,-2.80279,0.228807,1.29034\H,0,-1.49499,-
 1.63946,0.287032\H,0,0.677648,-1.99341,-0.653588\H,0,2.38699,-0.880155
 ,1.14135\H,0,2.49817,-0.142756,-0.352998\H,0,1.35206,2.12838,0.832852\
 H,0,1.09998,2.45534,-0.727506\N,0,-1.47346,-0.729478,-0.152433\N,0,0.8

 Normal termination of Gaussian 16 at Tue Apr  8 21:49:25 2025.
