 Gaussian 16, Revision C.01,

 ----------------------------------------------------------------------
 #t hf aug-cc-pvdz symm=none int=(grid=ultrafine) guess=(read,tcheck) s
 table=(opt,rrhf)
 ----------------------------------------------------------------------
 -----
 title
 -----
 Symbolic Z-matrix:
 Charge =  0 Multiplicity = 1

 SCF Done:  E(RHF) =  -646.689720244     A.U. after   15 cycles
 Normal termination of Gaussian 16 at Tue Apr  8 21:55:49 2025.
 Gaussian 16:  ES64L-G16RevC.01  3-Jul-2019

 ----------------------------------------------------------------------
 #t hf aug-cc-pvdz iop(5/13=1,5/36=2,99/5=2) pseudo=read geom=check gue
 ss=(read,tcheck) scf=(maxcycle=1)
 ----------------------------------------------------------------------
 -----
 title
 -----
 Structure from the checkpoint file:  "ANI1ccx_51_conf1_mol2.chk"
 Charge =  0 Multiplicity = 1

                         Standard orientation:
 ---------------------------------------------------------------------
 Center     Atomic      Atomic             Coordinates (Angstroms)
 Number     Number       Type             X           Y           Z
 ---------------------------------------------------------------------
      1          6           0       -3.114920    0.014443   -0.039669
      2          6           0        0.882880   -1.057710   -0.932606
      3          6           0        1.959450   -1.656901    0.888256
      4          6           0        2.989120    0.074175   -0.575449
      5          6           0        2.814230    1.503019   -0.002834
      6          6           0        0.673081   -2.182250    0.800029
      7          6           0        0.332889    1.547030    0.687187
      8          6           0       -1.042880    1.459020   -0.023844
      9          6           0       -2.040930    0.644059    0.818140
     10          6           0        1.417351    2.100099   -0.238814
     11          1           0        3.079810    1.585189    1.077220
     12          1           0        0.768987   -0.549408   -1.882860
     13          1           0        0.127934   -2.818680    1.493840
     14          1           0        2.798920   -1.822031    1.590450
     15          1           0        4.002820   -0.223830   -0.250268
     16          1           0        2.989110    0.164995   -1.685110
     17          1           0        3.547421    2.137369   -0.506869
     18          1           0        1.418491    3.215289   -0.189721
     19          1           0       -0.881795    1.013600   -0.972955
     20          1           0        0.613552    0.483833    0.978951
     21          1           0        0.261198    2.145960    1.616450
     22          1           0       -1.441189    2.447350   -0.211031
     23          1           0       -1.423280   -0.116078    1.327020
     24          1           0       -2.525650    1.336290    1.543890
     25          1           0       -1.900870   -1.403470   -0.462044
     26          1           0        1.103550    1.777600   -1.294420
     27          7           0        2.042060   -0.922275   -0.220534
     28          7           0       -0.005773   -1.813320   -0.329260
     29          8           0       -2.804850   -1.122870   -0.666227
     30          8           0       -4.196980    0.511030   -0.159569
 ---------------------------------------------------------------------

 SCF Done:  E(RHF) =  -649.724459158     A.U. after    2 cycles

 The electronic state is 1-A.
 Alpha  occ. eigenvalues --  -21.08407 -21.01675 -15.80875 -15.74952 -11.50834
 Alpha  occ. eigenvalues --  -11.49503 -11.48276 -11.46125 -11.45373 -11.44039
 Alpha  occ. eigenvalues --  -11.41437 -11.40196 -11.39355 -11.36813  -1.79877
 Alpha  occ. eigenvalues --   -1.62579  -1.61846  -1.36023  -1.27098  -1.17996
 Alpha  occ. eigenvalues --   -1.11195  -1.06745  -0.97817  -0.90005  -0.85010
 Alpha  occ. eigenvalues --   -0.83815  -0.81515  -0.77158  -0.74093  -0.70064
 Alpha  occ. eigenvalues --   -0.66489  -0.65298  -0.64675  -0.61381  -0.60987
 Alpha  occ. eigenvalues --   -0.58750  -0.57339  -0.55811  -0.54462  -0.53482
 Alpha  occ. eigenvalues --   -0.51277  -0.50538  -0.49486  -0.47165  -0.46355
 Alpha  occ. eigenvalues --   -0.45258  -0.44360  -0.42197  -0.38895  -0.37679
 Alpha  occ. eigenvalues --   -0.32330  -0.30579  -0.26605
 Alpha virt. eigenvalues --    0.03117   0.03894   0.04068   0.04316   0.04383
 Alpha virt. eigenvalues --    0.04865   0.05663   0.06110   0.06506   0.06702
 Alpha virt. eigenvalues --    0.07301   0.08281   0.08698   0.09156   0.09526

 Mulliken charges:
               1
     1  C    6.410817
     2  C    1.137217
     3  C   -0.774311
     4  C   -2.687525
     5  C   -3.028083
     6  C   -0.110332
     7  C   -3.268016
     8  C   -3.082221
     9  C   -4.432443
    10  C   -2.813579
    11  H    1.427763
    12  H    1.882739
    13  H    1.511515
    14  H    1.327934
    15  H    1.394173
    16  H    1.532162
    17  H    1.258775
    18  H    1.269398
    19  H    2.400535
    20  H    3.020510
    21  H    1.311409
    22  H    1.300321
    23  H    2.013047
    24  H    1.114419
    25  H    1.594165
    26  H    1.495807
    27  N   -2.509161
    28  N   -3.345993
    29  O   -3.802864
    30  O   -3.548178
 Sum of Mulliken charges =  -0.00000

 Dipole moment (field-independent basis, Debye):
    X=              7.4070    Y=              1.0597    Z=              0.5921  Tot=              7.5058

 Test job not archived.
 1\1\GINC-SE454\SP\RHF\Aug-CC-pVDZ\C10H16N2O2\OHZDE\08-Apr-2025\0\\#t h
 f aug-cc-pvdz iop(5/13=1,5/36=2,99/5=2) pseudo=read geom=check guess=(
 read,tcheck) scf=(maxcycle=1)\\title\\0,1\C,0,-3.11492,0.0144428,-0.03
 96694\C,0,0.88288,-1.05771,-0.932606\C,0,1.95945,-1.6569,0.888256\C,0,
 2.98912,0.0741761,-0.575449\C,0,2.81423,1.50302,-0.00283383\C,0,0.6730
 81,-2.18225,0.800029\C,0,0.332889,1.54703,0.687187\C,0,-1.04288,1.4590
 2,-0.0238436\C,0,-2.04093,0.644059,0.81814\C,0,1.41735,2.1001,-0.23881
 4\H,0,3.07981,1.58519,1.07722\H,0,0.768987,-0.549408,-1.88286\H,0,0.12

 Normal termination of Gaussian 16 at Tue Apr  8 21:56:23 2025.
