 Gaussian 16, Revision C.01,

 ----------------------------------------------------------------------
 #t hf aug-cc-pvdz symm=none int=(grid=ultrafine) guess=(read,tcheck) s
 table=(opt,rrhf)
 ----------------------------------------------------------------------
 -----
 title
 -----
 Symbolic Z-matrix:
 Charge =  0 Multiplicity = 1

 SCF Done:  E(RHF) =  -435.806206755     A.U. after   14 cycles
 Normal termination of Gaussian 16 at Tue Apr  8 22:17:01 2025.
 Gaussian 16:  ES64L-G16RevC.01  3-Jul-2019

 ----------------------------------------------------------------------
 #t hf aug-cc-pvdz iop(5/13=1,5/36=2,99/5=2) pseudo=read geom=check gue
 ss=(read,tcheck) scf=(maxcycle=1)
 ----------------------------------------------------------------------
 -----
 title
 -----
 Structure from the checkpoint file:  "ANI1ccx_976_conf5_mol1.chk"
 Charge =  0 Multiplicity = 1

                         Standard orientation:
 ---------------------------------------------------------------------
 Center     Atomic      Atomic             Coordinates (Angstroms)
 Number     Number       Type             X           Y           Z
 ---------------------------------------------------------------------
      1          6           0        0.047142   -0.681554   -0.167965
      2          6           0        1.410141    0.054289   -0.245566
      3          6           0       -1.107309    0.291022   -0.471948
      4          6           0       -2.395389   -0.367509   -0.618790
      5          1           0        0.554970    1.585090    0.505985
      6          1           0       -3.122509    0.454755   -0.661625
      7          1           0       -2.526289   -1.049241    0.235424
      8          1           0       -2.366749   -0.919880   -1.537700
      9          1           0       -1.712729    0.839351    1.266510
     10          1           0       -1.005869    0.867060   -1.340210
     11          1           0        0.067054   -1.444120   -1.004870
     12          1           0        0.557018   -2.186920    1.025210
     13          1           0        0.305359   -0.847354    1.829880
     14          7           0       -0.075466   -1.434700    1.068120
     15          8           0        2.434591   -0.453616   -0.636564
     16          8           0       -1.151289    1.251740    0.566217
     17          8           0        1.473011    1.322710    0.224116
 ---------------------------------------------------------------------

 SCF Done:  E(RHF) =  -437.746272123     A.U. after    2 cycles

 The electronic state is 1-A.
 Alpha  occ. eigenvalues --  -21.10013 -21.09704 -21.03874 -15.76774 -11.52445
 Alpha  occ. eigenvalues --  -11.49245 -11.45676 -11.39087  -1.81699  -1.75931
 Alpha  occ. eigenvalues --   -1.63415  -1.37848  -1.17960  -1.03404  -0.87709
 Alpha  occ. eigenvalues --   -0.79665  -0.73806  -0.71460  -0.64159  -0.62748
 Alpha  occ. eigenvalues --   -0.60729  -0.56968  -0.54799  -0.51919  -0.51023
 Alpha  occ. eigenvalues --   -0.48507  -0.47866  -0.42332  -0.39929  -0.34721
 Alpha  occ. eigenvalues --   -0.32100  -0.27281
 Alpha virt. eigenvalues --    0.03518   0.04410   0.04931   0.05064   0.05399
 Alpha virt. eigenvalues --    0.05794   0.06719   0.07546   0.08642   0.10896
 Alpha virt. eigenvalues --    0.12270   0.12651   0.13335   0.13906   0.14195

 Mulliken charges:
               1
     1  C   -1.674838
     2  C    6.483994
     3  C    2.171455
     4  C   -4.015883
     5  H    1.288396
     6  H    0.950596
     7  H    1.218608
     8  H    1.071832
     9  H    0.716637
    10  H    1.728237
    11  H    1.661250
    12  H    0.602590
    13  H    0.559747
    14  N   -2.779912
    15  O   -3.403516
    16  O   -3.332324
    17  O   -3.246871
 Sum of Mulliken charges =  -0.00000

 Dipole moment (field-independent basis, Debye):
    X=             -2.6374    Y=              0.0151    Z=              0.6129  Tot=              2.7077

 Test job not archived.
 1\1\GINC-SE393\SP\RHF\Aug-CC-pVDZ\C4H9N1O3\OHZDE\08-Apr-2025\0\\#t hf
 aug-cc-pvdz iop(5/13=1,5/36=2,99/5=2) pseudo=read geom=check guess=(re
 ad,tcheck) scf=(maxcycle=1)\\title\\0,1\C,0,0.0471404,-0.681554,-0.167
 965\C,0,1.41014,0.0542885,-0.245566\C,0,-1.10731,0.291022,-0.471948\C,
 0,-2.39539,-0.367508,-0.61879\H,0,0.55497,1.58509,0.505985\H,0,-3.1225
 1,0.454756,-0.661625\H,0,-2.52629,-1.04924,0.235424\H,0,-2.36675,-0.91
 9879,-1.5377\H,0,-1.71273,0.839352,1.26651\H,0,-1.00587,0.86706,-1.340
 21\H,0,0.0670525,-1.44412,-1.00487\H,0,0.557016,-2.18692,1.02521\H,0,0

 Normal termination of Gaussian 16 at Tue Apr  8 22:17:08 2025.
