 Gaussian 16, Revision C.01,

 ----------------------------------------------------------------------
 #t hf aug-cc-pvdz symm=none int=(grid=ultrafine) guess=(read,tcheck) s
 table=(opt,rrhf)
 ----------------------------------------------------------------------
 -----
 title
 -----
 Symbolic Z-matrix:
 Charge =  0 Multiplicity = 1

 SCF Done:  E(RHF) =  -700.889968203     A.U. after   14 cycles
 Normal termination of Gaussian 16 at Tue Apr  8 20:36:43 2025.
 Gaussian 16:  ES64L-G16RevC.01  3-Jul-2019

 ----------------------------------------------------------------------
 #t hf aug-cc-pvdz iop(5/13=1,5/36=2,99/5=2) pseudo=read geom=check gue
 ss=(read,tcheck) scf=(maxcycle=1)
 ----------------------------------------------------------------------
 -----
 title
 -----
 Structure from the checkpoint file:  "ANI1ccx_1633_conf1_mol1.chk"
 Charge =  0 Multiplicity = 1

                         Standard orientation:
 ---------------------------------------------------------------------
 Center     Atomic      Atomic             Coordinates (Angstroms)
 Number     Number       Type             X           Y           Z
 ---------------------------------------------------------------------
      1          6           0        0.388622    0.832218    0.591115
      2          6           0       -0.969786    0.958510   -0.089449
      3          6           0        1.479721    0.921456   -0.486526
      4          6           0        2.925491    1.193820   -0.011570
      5          6           0        3.651401    0.076355    0.771085
      6          6           0        3.729491   -1.295070    0.084972
      7          6           0       -2.763719   -0.190438   -1.137080
      8          6           0       -3.748999   -0.643160   -0.082503
      9          1           0       -3.768269   -1.174439    1.672390
     10          1           0       -3.046499    0.830981   -1.403300
     11          1           0       -2.830869   -0.733946   -2.059820
     12          1           0       -1.030139   -1.074040   -0.314703
     13          1           0        4.594351   -2.128480   -1.564240
     14          1           0        4.011741   -0.664744   -1.814220
     15          1           0        4.126561   -2.014640    0.757134
     16          1           0        2.708221   -1.604400   -0.179547
     17          1           0        3.263141    0.002877    1.796890
     18          1           0        3.495721    1.486260   -0.868849
     19          1           0        2.882661    2.022340    0.679069
     20          1           0        1.474521    0.125311   -1.227280
     21          1           0        1.240331    1.782420   -1.107770
     22          1           0        0.444363    1.740610    1.230570
     23          1           0        1.334501   -0.448748    1.847390
     24          1           0       -0.357418   -0.611773    1.943980
     25          1           0        4.681871    0.406142    0.975099
     26          7           0        0.451371   -0.403739    1.348960
     27          7           0        4.550211   -1.203830   -1.123050
     28          7           0       -1.404379   -0.171407   -0.676690
     29          8           0       -4.922149   -0.769336   -0.324037
     30          8           0       -1.525629    2.029510   -0.157769
     31          8           0       -3.122039   -0.836554    1.100860
 ---------------------------------------------------------------------

 SCF Done:  E(RHF) =  -704.100825308     A.U. after    2 cycles

 The electronic state is 1-A.
 Alpha  occ. eigenvalues --  -21.15127 -21.06707 -21.02673 -15.76052 -15.74248
 Alpha  occ. eigenvalues --  -15.73029 -11.54336 -11.52040 -11.46822 -11.44001
 Alpha  occ. eigenvalues --  -11.42871 -11.42192 -11.39150 -11.36219  -1.85049
 Alpha  occ. eigenvalues --   -1.71923  -1.67836  -1.42407  -1.36020  -1.33628
 Alpha  occ. eigenvalues --   -1.19693  -1.10297  -1.06669  -0.97924  -0.90000
 Alpha  occ. eigenvalues --   -0.84099  -0.81177  -0.79693  -0.73076  -0.68007
 Alpha  occ. eigenvalues --   -0.67311  -0.66092  -0.64757  -0.63414  -0.62409
 Alpha  occ. eigenvalues --   -0.59983  -0.59459  -0.56605  -0.56185  -0.54946
 Alpha  occ. eigenvalues --   -0.52883  -0.51588  -0.50981  -0.49332  -0.47945
 Alpha  occ. eigenvalues --   -0.46966  -0.45114  -0.42875  -0.42744  -0.36604
 Alpha  occ. eigenvalues --   -0.35742  -0.35330  -0.34470  -0.29074  -0.28265
 Alpha virt. eigenvalues --    0.03587   0.03997   0.04346   0.04628   0.04990
 Alpha virt. eigenvalues --    0.05549   0.05970   0.06049   0.06550   0.07237
 Alpha virt. eigenvalues --    0.07529   0.07779   0.08100   0.08746   0.09442

 Mulliken charges:
               1
     1  C   -2.846605
     2  C    8.123574
     3  C   -2.166586
     4  C   -2.952784
     5  C   -2.933463
     6  C   -2.558723
     7  C   -3.408645
     8  C    6.070436
     9  H    1.090810
    10  H    1.344682
    11  H    1.393150
    12  H    0.801748
    13  H    0.546561
    14  H    0.621083
    15  H    1.397617
    16  H    1.853348
    17  H    1.669457
    18  H    1.307579
    19  H    1.270185
    20  H    1.801067
    21  H    1.419499
    22  H    1.802937
    23  H    0.898830
    24  H    0.680971
    25  H    1.307552
    26  N   -3.022986
    27  N   -2.309266
    28  N   -2.776188
    29  O   -3.227247
    30  O   -4.094276
    31  O   -3.104317
 Sum of Mulliken charges =   0.00000

 Dipole moment (field-independent basis, Debye):
    X=              1.1053    Y=             -2.2082    Z=              1.2074  Tot=              2.7488

 Test job not archived.
 1\1\GINC-SE338\SP\RHF\Aug-CC-pVDZ\C8H17N3O3\OHZDE\08-Apr-2025\0\\#t hf
  aug-cc-pvdz iop(5/13=1,5/36=2,99/5=2) pseudo=read geom=check guess=(r
 ead,tcheck) scf=(maxcycle=1)\\title\\0,1\C,0,0.388621,0.832218,0.59111
 5\C,0,-0.969787,0.95851,-0.0894489\C,0,1.47972,0.921456,-0.486526\C,0,
 2.92549,1.19382,-0.0115695\C,0,3.6514,0.0763555,0.771085\C,0,3.72949,-
 1.29507,0.0849726\C,0,-2.76372,-0.190439,-1.13708\C,0,-3.749,-0.643161
 ,-0.0825024\H,0,-3.76827,-1.17444,1.67239\H,0,-3.0465,0.83098,-1.4033\
 H,0,-2.83087,-0.733947,-2.05982\H,0,-1.03014,-1.07404,-0.314703\H,0,4.

 Normal termination of Gaussian 16 at Tue Apr  8 20:37:11 2025.
