 Gaussian 16, Revision C.01,

 ----------------------------------------------------------------------
 #t hf aug-cc-pvdz symm=none int=(grid=ultrafine) guess=(read,tcheck) s
 table=(opt,rrhf)
 ----------------------------------------------------------------------
 -----
 title
 -----
 Symbolic Z-matrix:
 Charge =  0 Multiplicity = 1

 SCF Done:  E(RHF) =  -794.460267833     A.U. after   15 cycles
 Normal termination of Gaussian 16 at Tue Apr  8 20:25:07 2025.
 Gaussian 16:  ES64L-G16RevC.01  3-Jul-2019

 ----------------------------------------------------------------------
 #t hf aug-cc-pvdz iop(5/13=1,5/36=2,99/5=2) pseudo=read geom=check gue
 ss=(read,tcheck) scf=(maxcycle=1)
 ----------------------------------------------------------------------
 -----
 title
 -----
 Structure from the checkpoint file:  "ANI1ccx_1592_conf1_mol1.chk"
 Charge =  0 Multiplicity = 1

                         Standard orientation:
 ---------------------------------------------------------------------
 Center     Atomic      Atomic             Coordinates (Angstroms)
 Number     Number       Type             X           Y           Z
 ---------------------------------------------------------------------
      1          6           0        0.443992    1.386450   -0.295717
      2          6           0       -0.961838    1.761900    0.012270
      3          6           0        1.284841    1.194830    0.916462
      4          6           0        2.663391    0.463080    0.612151
      5          6           0        2.554490   -0.947896    0.064265
      6          6           0       -1.546980   -0.647589    0.648118
      7          6           0       -1.818990   -1.303400   -0.673675
      8          6           0       -2.464980   -1.246140    1.711050
      9          1           0        0.008332   -1.929730   -0.679891
     10          1           0       -3.495580   -0.964157    1.473270
     11          1           0       -2.251900   -0.798976    2.687570
     12          1           0       -2.412010   -2.352890    1.810440
     13          1           0       -0.519905   -0.880700    0.920329
     14          1           0       -2.738059    1.079880    0.709076
     15          1           0        3.546410   -2.454171   -0.217707
     16          1           0        3.168081    1.105579   -0.088065
     17          1           0        3.226601    0.445754    1.548920
     18          1           0        1.556131    2.154480    1.390080
     19          1           0        0.678910    0.670948    1.693870
     20          1           0        0.329010    0.437331   -0.802184
     21          1           0        0.429930    2.446830   -2.016300
     22          1           0        1.000081    3.256080   -0.747124
     23          7           0        1.071591    2.349050   -1.222770
     24          7           0       -1.746819    0.743877    0.568930
     25          8           0       -1.413169    2.886750   -0.094492
     26          8           0        1.529080   -1.521950   -0.022100
     27          8           0        3.747760   -1.530991   -0.088106
     28          8           0       -2.860940   -1.188320   -1.312860
     29          8           0       -0.843105   -2.124760   -1.116810
 ---------------------------------------------------------------------

 SCF Done:  E(RHF) =  -797.965272600     A.U. after    2 cycles

 The electronic state is 1-A.
 Alpha  occ. eigenvalues --  -21.16322 -21.10243 -21.09781 -21.03899 -21.03877
 Alpha  occ. eigenvalues --  -15.76067 -15.74394 -11.58455 -11.54273 -11.53595
 Alpha  occ. eigenvalues --  -11.48807 -11.47020 -11.45409 -11.41723 -11.40717
 Alpha  occ. eigenvalues --   -1.88939  -1.80938  -1.72191  -1.71758  -1.63426
 Alpha  occ. eigenvalues --   -1.43217  -1.36540  -1.20143  -1.15124  -1.06833
 Alpha  occ. eigenvalues --   -0.97119  -0.94882  -0.82545  -0.81284  -0.79064
 Alpha  occ. eigenvalues --   -0.72274  -0.71703  -0.69788  -0.67368  -0.66559
 Alpha  occ. eigenvalues --   -0.65418  -0.63330  -0.59573  -0.58670  -0.56975
 Alpha  occ. eigenvalues --   -0.55993  -0.54289  -0.54230  -0.52742  -0.50526
 Alpha  occ. eigenvalues --   -0.50487  -0.50239  -0.47903  -0.47167  -0.46619
 Alpha  occ. eigenvalues --   -0.42441  -0.38944  -0.37968  -0.34994  -0.33020
 Alpha  occ. eigenvalues --   -0.32089  -0.29657  -0.27765
 Alpha virt. eigenvalues --    0.03124   0.03612   0.04098   0.05010   0.05089
 Alpha virt. eigenvalues --    0.05853   0.06310   0.06806   0.07223   0.07484
 Alpha virt. eigenvalues --    0.07774   0.08866   0.08947   0.09634   0.10571

 Mulliken charges:
               1
     1  C   -1.071894
     2  C    6.008251
     3  C   -3.295780
     4  C   -3.752133
     5  C    6.188307
     6  C   -2.046250
     7  C    7.083477
     8  C   -5.317620
     9  H    1.917981
    10  H    1.344872
    11  H    1.191555
    12  H    1.179755
    13  H    3.039309
    14  H    0.571748
    15  H    0.906683
    16  H    1.580242
    17  H    1.323342
    18  H    1.297244
    19  H    1.849065
    20  H    2.542799
    21  H    0.528238
    22  H    0.480798
    23  N   -2.923357
    24  N   -2.760688
    25  O   -3.913162
    26  O   -3.455274
    27  O   -3.441596
    28  O   -3.458062
    29  O   -3.597850
 Sum of Mulliken charges =   0.00000

 Dipole moment (field-independent basis, Debye):
    X=              3.7627    Y=             -0.9512    Z=              2.6006  Tot=              4.6719

 Test job not archived.
 1\1\GINC-SE095\SP\RHF\Aug-CC-pVDZ\C8H14N2O5\OHZDE\08-Apr-2025\0\\#t hf
  aug-cc-pvdz iop(5/13=1,5/36=2,99/5=2) pseudo=read geom=check guess=(r
 ead,tcheck) scf=(maxcycle=1)\\title\\0,1\C,0,0.443991,1.38645,-0.29571
 7\C,0,-0.961839,1.7619,0.0122701\C,0,1.28484,1.19483,0.916462\C,0,2.66
 339,0.463081,0.612151\C,0,2.55449,-0.947895,0.0642647\C,0,-1.54698,-0.
 647589,0.648118\C,0,-1.81899,-1.3034,-0.673675\C,0,-2.46498,-1.24614,1
 .71105\H,0,0.00833231,-1.92973,-0.679891\H,0,-3.49558,-0.964157,1.4732
 7\H,0,-2.2519,-0.798976,2.68757\H,0,-2.41201,-2.35289,1.81044\H,0,-0.5

 Normal termination of Gaussian 16 at Tue Apr  8 20:25:41 2025.
