 Gaussian 16, Revision C.01,

 ----------------------------------------------------------------------
 #t hf aug-cc-pvdz symm=none int=(grid=ultrafine) guess=(read,tcheck) s
 table=(opt,rrhf)
 ----------------------------------------------------------------------
 -----
 title
 -----
 Symbolic Z-matrix:
 Charge =  0 Multiplicity = 1

 SCF Done:  E(RHF) =  -276.585661493     A.U. after   15 cycles
 Normal termination of Gaussian 16 at Tue Apr  8 21:29:28 2025.
 Gaussian 16:  ES64L-G16RevC.01  3-Jul-2019

 ----------------------------------------------------------------------
 #t hf aug-cc-pvdz iop(5/13=1,5/36=2,99/5=2) pseudo=read geom=check gue
 ss=(read,tcheck) scf=(maxcycle=1)
 ----------------------------------------------------------------------
 -----
 title
 -----
 Structure from the checkpoint file:  "ANI1ccx_370_conf35_mol1.chk"
 Charge =  0 Multiplicity = 1

                         Standard orientation:
 ---------------------------------------------------------------------
 Center     Atomic      Atomic             Coordinates (Angstroms)
 Number     Number       Type             X           Y           Z
 ---------------------------------------------------------------------
      1          6           0        0.995364    0.346826    0.023436
      2          1           0        2.051691    0.645874    0.017360
      3          7           0       -0.023449    1.180219   -0.004546
      4          7           0       -1.101729    0.371289   -0.017586
      5          7           0       -0.750191   -0.857147    0.031903
      6          8           0        0.637964   -0.948421   -0.028297
 ---------------------------------------------------------------------

 SCF Done:  E(RHF) =  -277.751229162     A.U. after    2 cycles

 The electronic state is 1-A.
 Alpha  occ. eigenvalues --  -21.19323 -15.85692 -15.84206 -15.79872 -11.50658
 Alpha  occ. eigenvalues --   -1.98321  -1.56550  -1.32598  -0.93569  -0.89119
 Alpha  occ. eigenvalues --   -0.76127  -0.69719  -0.59158  -0.50167  -0.45262
 Alpha  occ. eigenvalues --   -0.43942  -0.43146  -0.42148
 Alpha virt. eigenvalues --    0.03145   0.08989   0.09173   0.09935   0.13165
 Alpha virt. eigenvalues --    0.13577   0.14070   0.14546   0.16177   0.17077
 Alpha virt. eigenvalues --    0.18807   0.19913   0.20285   0.22585   0.24893

 Mulliken charges:
               1
     1  C    1.378582
     2  H    1.602092
     3  N   -1.740561
     4  N    0.732329
     5  N    0.492551
     6  O   -2.464994
 Sum of Mulliken charges =  -0.00000

 Dipole moment (field-independent basis, Debye):
    X=              3.1063    Y=             -0.7945    Z=             -0.0220  Tot=              3.2063

 Test job not archived.
 1\1\GINC-SE404\SP\RHF\Aug-CC-pVDZ\C1H1N3O1\OHZDE\08-Apr-2025\0\\#t hf
 aug-cc-pvdz iop(5/13=1,5/36=2,99/5=2) pseudo=read geom=check guess=(re
 ad,tcheck) scf=(maxcycle=1)\\title\\0,1\C,0,0.995363,0.34683,0.0234361
 \H,0,2.05169,0.645881,0.0173602\N,0,-0.0234517,1.18022,-0.004546\N,0,-
 1.10173,0.371287,-0.0175857\N,0,-0.750188,-0.857148,0.0319029\O,0,0.63
 7967,-0.948418,-0.0282969\\Version=ES64L-G16RevC.01\State=1-A\HF=-277.
 7512292\RMSD=9.561e-02\Dipole=1.2220969,-0.3125701,-0.0086738\Quadrupo
 le=1.6252921,-2.2921029,0.6668108,0.3167402,0.0328253,0.0623723\PG=C01

 Normal termination of Gaussian 16 at Tue Apr  8 21:29:30 2025.
