 Gaussian 16, Revision C.01,

 ----------------------------------------------------------------------
 #t hf aug-cc-pvdz symm=none int=(grid=ultrafine) guess=(read,tcheck) s
 table=(opt,rrhf)
 ----------------------------------------------------------------------
 -----
 title
 -----
 Symbolic Z-matrix:
 Charge =  0 Multiplicity = 1

 SCF Done:  E(RHF) =  -602.973242081     A.U. after   14 cycles
 Normal termination of Gaussian 16 at Tue Apr  8 19:33:25 2025.
 Gaussian 16:  ES64L-G16RevC.01  3-Jul-2019

 ----------------------------------------------------------------------
 #t hf aug-cc-pvdz iop(5/13=1,5/36=2,99/5=2) pseudo=read geom=check gue
 ss=(read,tcheck) scf=(maxcycle=1)
 ----------------------------------------------------------------------
 -----
 title
 -----
 Structure from the checkpoint file:  "ANI1ccx_1250_conf2_mol2.chk"
 Charge =  0 Multiplicity = 1

                         Standard orientation:
 ---------------------------------------------------------------------
 Center     Atomic      Atomic             Coordinates (Angstroms)
 Number     Number       Type             X           Y           Z
 ---------------------------------------------------------------------
      1          6           0        1.671930   -0.114404    0.759231
      2          6           0        1.741051    1.371110    0.319377
      3          6           0        0.435671    2.145631    0.092902
      4          6           0       -0.476171    1.655622   -1.038580
      5          6           0       -2.030820   -0.072566   -0.023603
      6          6           0        1.434159   -1.033460   -0.418883
      7          1           0        0.714429   -1.912459    0.944038
      8          1           0       -3.312570    0.239926    1.258610
      9          1           0       -1.664882   -1.919057   -0.809040
     10          1           0       -2.851462   -1.906747    0.457167
     11          1           0       -0.833844   -0.252419   -1.718520
     12          1           0        0.013826    1.633981   -1.992550
     13          1           0       -1.325988    2.351012   -1.089870
     14          1           0        0.697944    3.231621   -0.092889
     15          1           0       -0.181041    2.106841    0.998521
     16          1           0        2.328231    1.920289    1.099670
     17          1           0        2.309451    1.339099   -0.594675
     18          1           0        2.672989   -0.427170    1.070420
     19          1           0        1.059729   -0.324450    2.769650
     20          1           0       -0.202557   -0.048487    1.667470
     21          7           0        0.698157   -0.507901    1.800700
     22          7           0       -1.046280    0.320758   -0.907327
     23          7           0       -2.374651   -1.397687   -0.315571
     24          7           0       -2.465670    0.671133    0.900657
     25          8           0        0.777703   -2.116299   -0.005466
     26          8           0        1.752289   -0.802162   -1.552020
 ---------------------------------------------------------------------

 SCF Done:  E(RHF) =  -605.750376397     A.U. after    2 cycles

 The electronic state is 1-A.
 Alpha  occ. eigenvalues --  -21.09334 -21.03865 -15.76148 -15.75821 -15.74017
 Alpha  occ. eigenvalues --  -15.69987 -11.53603 -11.48681 -11.46409 -11.45116
 Alpha  occ. eigenvalues --  -11.41550 -11.37070  -1.82489  -1.65988  -1.49793
 Alpha  occ. eigenvalues --   -1.37113  -1.31565  -1.24272  -1.17793  -1.06109
 Alpha  occ. eigenvalues --   -0.96597  -0.86810  -0.79348  -0.75836  -0.73454
 Alpha  occ. eigenvalues --   -0.71734  -0.68796  -0.67294  -0.63663  -0.62157
 Alpha  occ. eigenvalues --   -0.61105  -0.58608  -0.57416  -0.56264  -0.53092
 Alpha  occ. eigenvalues --   -0.51068  -0.49808  -0.49267  -0.46528  -0.45071
 Alpha  occ. eigenvalues --   -0.42589  -0.40223  -0.37212  -0.35311  -0.32586
 Alpha  occ. eigenvalues --   -0.31235  -0.28075
 Alpha virt. eigenvalues --    0.03522   0.04233   0.04576   0.04979   0.05345
 Alpha virt. eigenvalues --    0.05931   0.06484   0.06906   0.07405   0.07904
 Alpha virt. eigenvalues --    0.08175   0.08427   0.09261   0.09992   0.11128

 Mulliken charges:
               1
     1  C   -0.833307
     2  C   -2.604215
     3  C   -2.955510
     4  C   -2.987974
     5  C    6.033983
     6  C    6.899076
     7  H    1.424455
     8  H    0.646313
     9  H    0.836771
    10  H    0.547148
    11  H    0.620053
    12  H    1.539196
    13  H    1.344719
    14  H    1.236619
    15  H    1.684422
    16  H    1.156699
    17  H    1.392372
    18  H    1.617635
    19  H    0.536030
    20  H    0.856061
    21  N   -3.273871
    22  N   -1.715268
    23  N   -3.414707
    24  N   -3.574545
    25  O   -3.385939
    26  O   -3.626214
 Sum of Mulliken charges =  -0.00000

 Dipole moment (field-independent basis, Debye):
    X=              0.0065    Y=             -0.8303    Z=              1.2229  Tot=              1.4781

 Test job not archived.
 1\1\GINC-SE150\SP\RHF\Aug-CC-pVDZ\C6H14N4O2\OHZDE\08-Apr-2025\0\\#t hf
  aug-cc-pvdz iop(5/13=1,5/36=2,99/5=2) pseudo=read geom=check guess=(r
 ead,tcheck) scf=(maxcycle=1)\\title\\0,1\C,0,1.67193,-0.114404,0.75923
 1\C,0,1.74105,1.37111,0.319377\C,0,0.43567,2.14563,0.0929023\C,0,-0.47
 6172,1.65562,-1.03858\C,0,-2.03082,-0.0725684,-0.0236033\C,0,1.43416,-
 1.03346,-0.418883\H,0,0.714431,-1.91246,0.944038\H,0,-3.31257,0.239922
 ,1.25861\H,0,-1.66488,-1.91906,-0.80904\H,0,-2.85146,-1.90675,0.457167
 \H,0,-0.833843,-0.252421,-1.71852\H,0,0.0138249,1.63398,-1.99255\H,0,-

 Normal termination of Gaussian 16 at Tue Apr  8 19:33:56 2025.
