 Gaussian 16, Revision C.01,

 ----------------------------------------------------------------------
 #t hf aug-cc-pvdz symm=none int=(grid=ultrafine) guess=(read,tcheck) s
 table=(opt,rrhf)
 ----------------------------------------------------------------------
 -----
 title
 -----
 Symbolic Z-matrix:
 Charge =  0 Multiplicity = 1

 SCF Done:  E(RHF) =  -485.198254445     A.U. after   15 cycles
 Normal termination of Gaussian 16 at Tue Apr  8 21:43:57 2025.
 Gaussian 16:  ES64L-G16RevC.01  3-Jul-2019

 ----------------------------------------------------------------------
 #t hf aug-cc-pvdz iop(5/13=1,5/36=2,99/5=2) pseudo=read geom=check gue
 ss=(read,tcheck) scf=(maxcycle=1)
 ----------------------------------------------------------------------
 -----
 title
 -----
 Structure from the checkpoint file:  "ANI1ccx_484_conf8_mol1.chk"
 Charge =  0 Multiplicity = 1

                         Standard orientation:
 ---------------------------------------------------------------------
 Center     Atomic      Atomic             Coordinates (Angstroms)
 Number     Number       Type             X           Y           Z
 ---------------------------------------------------------------------
      1          6           0        1.395380    0.078241   -0.034763
      2          6           0       -0.735864    0.737923   -0.077687
      3          1           0       -1.772819   -0.784280    1.165820
      4          1           0       -2.549878   -1.435212   -0.203241
      5          7           0       -1.720368   -1.340002    0.298451
      6          7           0       -0.598892   -0.588626   -0.402221
      7          8           0        0.571567   -1.080959   -0.186010
      8          8           0        2.606661   -0.130218    0.162586
      9          8           0        0.610046    1.170151    0.104211
     10          8           0       -1.713221    1.393888   -0.025974
 ---------------------------------------------------------------------

 SCF Done:  E(RHF) =  -487.191811608     A.U. after    2 cycles

 The electronic state is 1-A.
 Alpha  occ. eigenvalues --  -21.19931 -21.17729 -21.12138 -21.10417 -15.85832
 Alpha  occ. eigenvalues --  -15.82374 -11.61337 -11.59249  -2.06605  -1.86052
 Alpha  occ. eigenvalues --   -1.77597  -1.70931  -1.42889  -1.18468  -0.92531
 Alpha  occ. eigenvalues --   -0.88897  -0.78865  -0.71065  -0.69073  -0.63670
 Alpha  occ. eigenvalues --   -0.60955  -0.56738  -0.55814  -0.53238  -0.49547
 Alpha  occ. eigenvalues --   -0.43397  -0.38936  -0.38443  -0.33939  -0.30338
 Alpha virt. eigenvalues --    0.03502   0.05092   0.07455   0.09709   0.10115
 Alpha virt. eigenvalues --    0.10458   0.11251   0.11836   0.11987   0.13022
 Alpha virt. eigenvalues --    0.14120   0.15854   0.16184   0.17549   0.18102

 Mulliken charges:
               1
     1  C    5.243830
     2  C    5.624742
     3  H    0.567053
     4  H    0.775847
     5  N   -1.513153
     6  N    1.002041
     7  O   -3.115228
     8  O   -2.780980
     9  O   -2.783500
    10  O   -3.020652
 Sum of Mulliken charges =   0.00000

 Dipole moment (field-independent basis, Debye):
    X=             -2.5496    Y=             -0.4996    Z=              0.2674  Tot=              2.6118

 Test job not archived.
 1\1\GINC-SE220\SP\RHF\Aug-CC-pVDZ\C2H2N2O4\OHZDE\08-Apr-2025\0\\#t hf
 aug-cc-pvdz iop(5/13=1,5/36=2,99/5=2) pseudo=read geom=check guess=(re
 ad,tcheck) scf=(maxcycle=1)\\title\\0,1\C,0,1.39538,0.0782394,-0.03476
 27\C,0,-0.735864,0.737923,-0.0776869\H,0,-1.77282,-0.784278,1.16582\H,
 0,-2.54988,-1.43521,-0.203241\N,0,-1.72037,-1.34,0.298451\N,0,-0.59889
 3,-0.588626,-0.402221\O,0,0.571565,-1.08096,-0.18601\O,0,2.60666,-0.13
 0221,0.162586\O,0,0.610047,1.17015,0.104211\O,0,-1.71322,1.39389,-0.02
 59739\\Version=ES64L-G16RevC.01\State=1-A\HF=-487.1918116\RMSD=6.375e-

 Normal termination of Gaussian 16 at Tue Apr  8 21:44:01 2025.
