 Gaussian 16, Revision C.01,

 ----------------------------------------------------------------------
 #t hf aug-cc-pvdz symm=none int=(grid=ultrafine) guess=(read,tcheck) s
 table=(opt,rrhf)
 ----------------------------------------------------------------------
 -----
 title
 -----
 Symbolic Z-matrix:
 Charge =  0 Multiplicity = 1

 SCF Done:  E(RHF) =  -456.232094658     A.U. after   11 cycles
 Normal termination of Gaussian 16 at Tue Apr  8 21:09:49 2025.
 Gaussian 16:  ES64L-G16RevC.01  3-Jul-2019

 ----------------------------------------------------------------------
 #t hf aug-cc-pvdz iop(5/13=1,5/36=2,99/5=2) pseudo=read geom=check gue
 ss=(read,tcheck) scf=(maxcycle=1)
 ----------------------------------------------------------------------
 -----
 title
 -----
 Structure from the checkpoint file:  "ANI1ccx_1844_conf483_mol1.chk"
 Charge =  0 Multiplicity = 1

                         Standard orientation:
 ---------------------------------------------------------------------
 Center     Atomic      Atomic             Coordinates (Angstroms)
 Number     Number       Type             X           Y           Z
 ---------------------------------------------------------------------
      1          1           0        1.118399   -0.804996   -0.815906
      2          1           0       -3.351421    0.280488   -0.538253
      3          1           0       -2.137571   -0.650472    0.305550
      4          1           0        2.555469    0.650683   -0.092838
      5          1           0       -0.812703   -0.831891    1.843421
      6          1           0       -0.270513   -1.311510    0.522363
      7          1           0        2.606069   -0.539223    0.692974
      8          1           0        0.558718    1.499580    0.543825
      9          1           0       -1.298601    1.213770   -0.608568
     10          1           0        0.057120    0.978916   -1.432519
     11          1           0        0.687367   -2.031710   -1.632159
     12          1           0        1.211019    1.476380    2.134651
     13          8           0        2.628499   -0.293090   -0.193893
     14          8           0        0.394503   -1.113050   -1.376779
     15          8           0       -0.512024    1.695610   -0.968885
     16          8           0        0.876232    1.005590    1.376331
     17          8           0       -1.059791   -1.456300    1.142551
     18          8           0       -2.442841    0.169988   -0.094641
 ---------------------------------------------------------------------

 SCF Done:  E(RHF) =  -458.198895411     A.U. after    2 cycles

 The electronic state is 1-A.
 Alpha  occ. eigenvalues --  -21.12494 -21.08804 -21.08636 -21.08573 -21.05647
 Alpha  occ. eigenvalues --  -21.04594  -1.71739  -1.68561  -1.66391  -1.65331
 Alpha  occ. eigenvalues --   -1.63603  -1.59939  -0.67326  -0.66698  -0.65231
 Alpha  occ. eigenvalues --   -0.65134  -0.61841  -0.61100  -0.53545  -0.49757
 Alpha  occ. eigenvalues --   -0.48902  -0.45711  -0.43559  -0.37717  -0.37374
 Alpha  occ. eigenvalues --   -0.35173  -0.34783  -0.34261  -0.32833  -0.31803
 Alpha virt. eigenvalues --    0.03303   0.04830   0.05363   0.05864   0.06133
 Alpha virt. eigenvalues --    0.06938   0.08527   0.08610   0.09078   0.10225
 Alpha virt. eigenvalues --    0.10976   0.12258   0.16738   0.19306   0.20196

 Mulliken charges:
               1
     1  H    1.963980
     2  H    0.935262
     3  H    1.566254
     4  H    1.041312
     5  H    0.885872
     6  H    1.340394
     7  H    0.968636
     8  H    1.312057
     9  H    1.765651
    10  H    0.861762
    11  H    0.614556
    12  H    0.980884
    13  O   -2.325455
    14  O   -2.081251
    15  O   -2.517318
    16  O   -2.121438
    17  O   -2.775071
    18  O   -2.416086
 Sum of Mulliken charges =  -0.00000

 Dipole moment (field-independent basis, Debye):
    X=              0.7316    Y=             -0.5372    Z=              1.2740  Tot=              1.5642

 Test job not archived.
 1\1\GINC-SE096\SP\RHF\Aug-CC-pVDZ\H12O6\OHZDE\08-Apr-2025\0\\#t hf aug
 -cc-pvdz iop(5/13=1,5/36=2,99/5=2) pseudo=read geom=check guess=(read,
 tcheck) scf=(maxcycle=1)\\title\\0,1\H,0,1.1184,-0.804996,-0.815907\H,
 0,-3.35142,0.280488,-0.538254\H,0,-2.13757,-0.650472,0.305549\H,0,2.55
 547,0.650683,-0.092839\H,0,-0.812702,-0.831891,1.84342\H,0,-0.270512,-
 1.31151,0.522362\H,0,2.60607,-0.539223,0.692973\H,0,0.558719,1.49958,0
 .543824\H,0,-1.2986,1.21377,-0.608569\H,0,0.0571205,0.978916,-1.43252\
 H,0,0.687368,-2.03171,-1.63216\H,0,1.21102,1.47638,2.13465\O,0,2.6285,

 Normal termination of Gaussian 16 at Tue Apr  8 21:09:55 2025.
