 Gaussian 16, Revision C.01,

 ----------------------------------------------------------------------
 #t hf aug-cc-pvdz symm=none int=(grid=ultrafine) guess=(read,tcheck) s
 table=(opt,rrhf)
 ----------------------------------------------------------------------
 -----
 title
 -----
 Symbolic Z-matrix:
 Charge =  0 Multiplicity = 1

 SCF Done:  E(RHF) =  -301.522341384     A.U. after   15 cycles
 Normal termination of Gaussian 16 at Tue Apr  8 21:44:32 2025.
 Gaussian 16:  ES64L-G16RevC.01  3-Jul-2019

 ----------------------------------------------------------------------
 #t hf aug-cc-pvdz iop(5/13=1,5/36=2,99/5=2) pseudo=read geom=check gue
 ss=(read,tcheck) scf=(maxcycle=1)
 ----------------------------------------------------------------------
 -----
 title
 -----
 Structure from the checkpoint file:  "ANI1ccx_493_conf22_mol2.chk"
 Charge =  0 Multiplicity = 1

                         Standard orientation:
 ---------------------------------------------------------------------
 Center     Atomic      Atomic             Coordinates (Angstroms)
 Number     Number       Type             X           Y           Z
 ---------------------------------------------------------------------
      1          6           0        0.543169   -0.119283   -0.011222
      2          6           0       -0.921534   -0.642462    0.104611
      3          1           0       -0.183828    1.618081   -0.087826
      4          1           0       -1.021971   -1.764779    0.265423
      5          8           0        0.694739    1.249990    0.067477
      6          8           0        1.537710   -0.791265   -0.067538
      7          8           0       -1.797950    0.130921   -0.092181
 ---------------------------------------------------------------------

 SCF Done:  E(RHF) =  -302.753431670     A.U. after    2 cycles

 The electronic state is 1-A.
 Alpha  occ. eigenvalues --  -21.13682 -21.13644 -21.09030 -11.55767 -11.52236
 Alpha  occ. eigenvalues --   -1.84575  -1.77188  -1.67247  -1.00920  -0.80958
 Alpha  occ. eigenvalues --   -0.73224  -0.61685  -0.59366  -0.53978  -0.50666
 Alpha  occ. eigenvalues --   -0.47458  -0.40498  -0.35536  -0.30474
 Alpha virt. eigenvalues --    0.03466   0.05961   0.07912   0.09594   0.10251
 Alpha virt. eigenvalues --    0.11446   0.11782   0.11973   0.12249   0.15091
 Alpha virt. eigenvalues --    0.18469   0.18890   0.21406   0.22243   0.23581

 Mulliken charges:
               1
     1  C    4.805055
     2  C    0.653942
     3  H    1.047052
     4  H    1.559787
     5  O   -2.737972
     6  O   -2.856002
     7  O   -2.471863
 Sum of Mulliken charges =  -0.00000

 Dipole moment (field-independent basis, Debye):
    X=             -1.4593    Y=              0.3225    Z=              0.1129  Tot=              1.4988

 Test job not archived.
 1\1\GINC-SE029\SP\RHF\Aug-CC-pVDZ\C2H2O3\OHZDE\08-Apr-2025\0\\#t hf au
 g-cc-pvdz iop(5/13=1,5/36=2,99/5=2) pseudo=read geom=check guess=(read
 ,tcheck) scf=(maxcycle=1)\\title\\0,1\C,0,0.543169,-0.119283,-0.011221
 6\C,0,-0.921534,-0.642463,0.104611\H,0,-0.183829,1.61808,-0.0878258\H,
 0,-1.02197,-1.76478,0.265423\O,0,0.694738,1.24999,0.0674772\O,0,1.5377
 1,-0.791265,-0.067538\O,0,-1.79795,0.130919,-0.0921812\\Version=ES64L-
 G16RevC.01\State=1-A\HF=-302.7534317\RMSD=1.148e-01\Dipole=-0.5741364,
 0.1268995,0.04441\Quadrupole=-2.3256925,1.3980171,0.9276754,0.5955632,

 Normal termination of Gaussian 16 at Tue Apr  8 21:44:34 2025.
