 Gaussian 16, Revision C.01,

 ----------------------------------------------------------------------
 #t hf aug-cc-pvdz symm=none int=(grid=ultrafine) guess=(read,tcheck) s
 table=(opt,rrhf)
 ----------------------------------------------------------------------
 -----
 title
 -----
 Symbolic Z-matrix:
 Charge =  0 Multiplicity = 1

 SCF Done:  E(RHF) =  -537.773889688     A.U. after   16 cycles
 Normal termination of Gaussian 16 at Tue Apr  8 22:19:27 2025.
 Gaussian 16:  ES64L-G16RevC.01  3-Jul-2019

 ----------------------------------------------------------------------
 #t hf aug-cc-pvdz iop(5/13=1,5/36=2,99/5=2) pseudo=read geom=check gue
 ss=(read,tcheck) scf=(maxcycle=1)
 ----------------------------------------------------------------------
 -----
 title
 -----
 Structure from the checkpoint file:  "ANI1ccx_988_conf14_mol1.chk"
 Charge =  0 Multiplicity = 1

                         Standard orientation:
 ---------------------------------------------------------------------
 Center     Atomic      Atomic             Coordinates (Angstroms)
 Number     Number       Type             X           Y           Z
 ---------------------------------------------------------------------
      1          6           0       -2.175110   -0.493722   -0.080997
      2          6           0       -0.793313    1.707650   -0.683506
      3          6           0        0.616849    1.725191   -0.017515
      4          6           0        1.387230    0.458164    0.118690
      5          1           0        0.017067   -1.046650   -0.677302
      6          1           0        0.754096    2.191281    0.885885
      7          1           0        1.063719    2.308921   -0.882483
      8          1           0       -1.298012    2.642690   -0.764574
      9          1           0       -0.730891    1.034450   -1.590810
     10          1           0       -2.204759   -2.269231   -0.740915
     11          1           0       -3.255979   -1.590381    1.291060
     12          1           0       -3.443760    0.094257    1.541630
     13          1           0       -1.583891    1.030850    1.178140
     14          7           0        2.204180   -1.522369   -0.225819
     15          7           0       -2.899310   -0.721012    1.084290
     16          7           0       -1.775590   -1.302741   -0.998811
     17          7           0       -1.883621    0.965182    0.056739
     18          7           0        2.608709    0.533886    0.594851
     19          7           0        3.050850   -0.716981    0.387314
     20          7           0        1.047420   -0.775949   -0.364370
 ---------------------------------------------------------------------

 SCF Done:  E(RHF) =  -540.261404915     A.U. after    2 cycles

 The electronic state is 1-A.
 Alpha  occ. eigenvalues --  -15.80310 -15.79921 -15.78875 -15.77382 -15.76486
 Alpha  occ. eigenvalues --  -15.75408 -15.74520 -11.52820 -11.49467 -11.46288
 Alpha  occ. eigenvalues --  -11.40902  -1.70224  -1.49912  -1.35696  -1.33049
 Alpha  occ. eigenvalues --   -1.27904  -1.26843  -1.11876  -0.96556  -0.87705
 Alpha  occ. eigenvalues --   -0.82315  -0.81544  -0.73540  -0.71275  -0.68805
 Alpha  occ. eigenvalues --   -0.67652  -0.64806  -0.62519  -0.60582  -0.58022
 Alpha  occ. eigenvalues --   -0.53080  -0.51171  -0.49293  -0.46896  -0.43325
 Alpha  occ. eigenvalues --   -0.40901  -0.39746  -0.38916  -0.37779  -0.36105
 Alpha  occ. eigenvalues --   -0.34440
 Alpha virt. eigenvalues --    0.02397   0.03874   0.04356   0.05125   0.05733
 Alpha virt. eigenvalues --    0.06353   0.06904   0.07557   0.08733   0.09647
 Alpha virt. eigenvalues --    0.10667   0.11567   0.12577   0.12831   0.13256

 Mulliken charges:
               1
     1  C    4.400619
     2  C   -2.384626
     3  C   -2.316630
     4  C    3.669501
     5  H    1.226360
     6  H    1.369501
     7  H    1.164224
     8  H    1.386859
     9  H    1.769318
    10  H    0.583402
    11  H    0.661992
    12  H    0.688978
    13  H    0.458547
    14  N   -0.362056
    15  N   -2.820081
    16  N   -2.793135
    17  N   -1.955121
    18  N   -2.122500
    19  N   -0.240296
    20  N   -2.384857
 Sum of Mulliken charges =  -0.00000

 Dipole moment (field-independent basis, Debye):
    X=             -7.5104    Y=              1.6453    Z=              1.0479  Tot=              7.7596

 Test job not archived.
 1\1\GINC-SE071\SP\RHF\Aug-CC-pVDZ\C4H9N7\OHZDE\08-Apr-2025\0\\#t hf au
 g-cc-pvdz iop(5/13=1,5/36=2,99/5=2) pseudo=read geom=check guess=(read
 ,tcheck) scf=(maxcycle=1)\\title\\0,1\C,0,-2.17511,-0.493721,-0.080996
 3\C,0,-0.793312,1.70765,-0.683506\C,0,0.61685,1.72519,-0.0175141\C,0,1
 .38723,0.458163,0.11869\H,0,0.0170666,-1.04665,-0.677302\H,0,0.754097,
 2.19128,0.885885\H,0,1.06372,2.30892,-0.882483\H,0,-1.29801,2.64269,-0
 .764574\H,0,-0.73089,1.03445,-1.59081\H,0,-2.20476,-2.26923,-0.740915\
 H,0,-3.25598,-1.59038,1.29106\H,0,-3.44376,0.0942584,1.54163\H,0,-1.58

 Normal termination of Gaussian 16 at Tue Apr  8 22:19:39 2025.
