 Gaussian 16, Revision C.01,

 ----------------------------------------------------------------------
 #t hf aug-cc-pvdz symm=none int=(grid=ultrafine) guess=(read,tcheck) s
 table=(opt,rrhf)
 ----------------------------------------------------------------------
 -----
 title
 -----
 Symbolic Z-matrix:
 Charge =  0 Multiplicity = 1

 SCF Done:  E(RHF) =  -759.723380539     A.U. after   14 cycles
 Normal termination of Gaussian 16 at Tue Apr  8 21:12:02 2025.
 Gaussian 16:  ES64L-G16RevC.01  3-Jul-2019

 ----------------------------------------------------------------------
 #t hf aug-cc-pvdz iop(5/13=1,5/36=2,99/5=2) pseudo=read geom=check gue
 ss=(read,tcheck) scf=(maxcycle=1)
 ----------------------------------------------------------------------
 -----
 title
 -----
 Structure from the checkpoint file:  "ANI1ccx_1777_conf5_mol1.chk"
 Charge =  0 Multiplicity = 1

                         Standard orientation:
 ---------------------------------------------------------------------
 Center     Atomic      Atomic             Coordinates (Angstroms)
 Number     Number       Type             X           Y           Z
 ---------------------------------------------------------------------
      1          6           0       -2.698650    0.276384    0.195120
      2          6           0        3.336780   -0.280744   -0.934861
      3          6           0        2.178640    1.817439   -1.139010
      4          6           0        1.980740    0.329328   -1.112140
      5          6           0        3.297990   -1.773541   -0.784627
      6          6           0        0.990258   -0.144298   -0.019005
      7          6           0       -3.638090   -0.737527   -0.394855
      8          6           0       -1.300050   -0.381540    0.101971
      9          6           0        1.457770    0.276826    1.301310
     10          1           0        2.846500    2.034889   -1.992860
     11          1           0        2.982440   -0.089618    2.461100
     12          1           0        2.647950   -2.147451    0.025915
     13          1           0        4.371200   -2.076161   -0.570475
     14          1           0        3.059170   -2.249911   -1.735580
     15          1           0        3.829240    0.118826   -0.053538
     16          1           0        4.063110   -0.062234   -1.810210
     17          1           0        1.207360    2.317399   -1.335530
     18          1           0        2.726870    2.251589   -0.276107
     19          1           0        0.908708   -1.273351   -0.104368
     20          1           0       -0.400212    1.389579    0.188187
     21          1           0       -5.636630   -1.088721   -0.398444
     22          1           0       -3.619490   -0.625575   -1.494990
     23          1           0       -3.286580   -1.721951   -0.097470
     24          1           0       -2.992440    0.314325    1.307020
     25          1           0       -2.448890    1.468559   -1.386360
     26          1           0       -3.801760    1.821119   -0.507285
     27          1           0        1.480470    0.029148   -2.074490
     28          7           0       -2.780330    1.539329   -0.428144
     29          7           0       -0.297809    0.431775   -0.261134
     30          8           0        1.067770    1.120799    2.046370
     31          8           0       -1.164670   -1.580601    0.280396
     32          8           0       -5.036070   -0.447345    0.018045
     33          8           0        2.630180   -0.405625    1.579820
 ---------------------------------------------------------------------

 SCF Done:  E(RHF) =  -763.189142371     A.U. after    2 cycles

 The electronic state is 1-A.
 Alpha  occ. eigenvalues --  -21.10777 -21.07231 -21.06661 -21.03451 -15.76428
 Alpha  occ. eigenvalues --  -15.74110 -11.56082 -11.53299 -11.49566 -11.47112
 Alpha  occ. eigenvalues --  -11.44124 -11.41526 -11.40338 -11.38426 -11.35774
 Alpha  occ. eigenvalues --   -1.83490  -1.73562  -1.67804  -1.66614  -1.44487
 Alpha  occ. eigenvalues --   -1.36289  -1.26662  -1.10880  -1.07658  -1.05618
 Alpha  occ. eigenvalues --   -0.91377  -0.90595  -0.85404  -0.80280  -0.78250
 Alpha  occ. eigenvalues --   -0.71722  -0.67587  -0.66586  -0.66045  -0.65115
 Alpha  occ. eigenvalues --   -0.61106  -0.60886  -0.59306  -0.58614  -0.57657
 Alpha  occ. eigenvalues --   -0.56186  -0.54612  -0.54143  -0.52127  -0.51252
 Alpha  occ. eigenvalues --   -0.50122  -0.49552  -0.47754  -0.46982  -0.43610
 Alpha  occ. eigenvalues --   -0.42427  -0.40956  -0.40359  -0.36009  -0.34168
 Alpha  occ. eigenvalues --   -0.33765  -0.32616  -0.31127  -0.28734
 Alpha virt. eigenvalues --    0.03876   0.04556   0.04648   0.04758   0.04973
 Alpha virt. eigenvalues --    0.05522   0.05661   0.06082   0.06692   0.07059
 Alpha virt. eigenvalues --    0.07183   0.07587   0.07976   0.08444   0.08872

 Mulliken charges:
               1
     1  C   -3.827476
     2  C   -2.751625
     3  C   -4.958660
     4  C   -1.630868
     5  C   -4.698403
     6  C   -0.550344
     7  C   -0.683566
     8  C    7.766273
     9  C    8.170310
    10  H    1.075591
    11  H    0.964623
    12  H    1.711772
    13  H    0.886570
    14  H    1.190464
    15  H    1.921564
    16  H    1.210494
    17  H    1.228773
    18  H    1.341947
    19  H    2.135631
    20  H    0.743337
    21  H    0.847108
    22  H    1.424571
    23  H    1.396518
    24  H    1.675102
    25  H    0.431687
    26  H    0.617806
    27  H    1.783635
    28  N   -2.590821
    29  N   -3.099768
    30  O   -3.683416
    31  O   -3.880716
    32  O   -2.686949
    33  O   -3.481164
 Sum of Mulliken charges =  -0.00000

 Dipole moment (field-independent basis, Debye):
    X=              0.7658    Y=              0.1140    Z=             -1.0974  Tot=              1.3430

 Test job not archived.
 1\1\GINC-SE221\SP\RHF\Aug-CC-pVDZ\C9H18N2O4\OHZDE\08-Apr-2025\0\\#t hf
  aug-cc-pvdz iop(5/13=1,5/36=2,99/5=2) pseudo=read geom=check guess=(r
 ead,tcheck) scf=(maxcycle=1)\\title\\0,1\C,0,-2.69865,0.276385,0.19512
 \C,0,3.33678,-0.280743,-0.934861\C,0,2.17864,1.81744,-1.13901\C,0,1.98
 074,0.329329,-1.11214\C,0,3.29799,-1.77354,-0.784627\C,0,0.990258,-0.1
 44297,-0.0190042\C,0,-3.63809,-0.737526,-0.394855\C,0,-1.30005,-0.3815
 39,0.101971\C,0,1.45777,0.276827,1.30131\H,0,2.8465,2.03489,-1.99286\H
 ,0,2.98244,-0.0896177,2.4611\H,0,2.64795,-2.14745,0.0259159\H,0,4.3712

 Normal termination of Gaussian 16 at Tue Apr  8 21:12:43 2025.
