 Gaussian 16, Revision C.01,

 ----------------------------------------------------------------------
 #t hf aug-cc-pvdz symm=none int=(grid=ultrafine) guess=(read,tcheck) s
 table=(opt,rrhf)
 ----------------------------------------------------------------------
 -----
 title
 -----
 Symbolic Z-matrix:
 Charge =  0 Multiplicity = 1

 SCF Done:  E(RHF) =  -1018.12656340     A.U. after   15 cycles
 Normal termination of Gaussian 16 at Tue Apr  8 20:57:38 2025.
 Gaussian 16:  ES64L-G16RevC.01  3-Jul-2019

 ----------------------------------------------------------------------
 #t hf aug-cc-pvdz iop(5/13=1,5/36=2,99/5=2) pseudo=read geom=check gue
 ss=(read,tcheck) scf=(maxcycle=1)
 ----------------------------------------------------------------------
 -----
 title
 -----
 Structure from the checkpoint file:  "ANI1ccx_171_conf12_mol1.chk"
 Charge =  0 Multiplicity = 1

                         Standard orientation:
 ---------------------------------------------------------------------
 Center     Atomic      Atomic             Coordinates (Angstroms)
 Number     Number       Type             X           Y           Z
 ---------------------------------------------------------------------
      1          6           0       -1.738918    1.667291   -0.137979
      2          6           0        3.337401   -0.757906   -0.957567
      3          6           0        1.411341   -1.329980    0.640444
      4          6           0        1.256891    0.718312    1.921110
      5          6           0        0.623185   -0.061095    0.788219
      6          6           0        2.970111   -1.184851    0.413718
      7          6           0       -3.633679   -1.251679    0.543846
      8          6           0       -2.742709   -0.614077   -0.276288
      9          6           0       -2.805439    0.778399   -0.758363
     10          6           0       -0.418952    1.521610   -0.919300
     11          6           0       -2.182000   -2.693769   -0.252254
     12          1           0       -0.422016   -0.218342    1.144730
     13          1           0        1.700032    2.269720    2.684930
     14          1           0        3.737761   -1.424171   -2.713220
     15          1           0        3.408181   -0.484042    1.197210
     16          1           0        3.414740   -2.201561    0.511978
     17          1           0        1.048200   -2.011150   -0.173112
     18          1           0        1.325921   -1.759260    1.649450
     19          1           0        1.273241    0.680338   -1.169710
     20          1           0       -1.613660   -3.649879   -0.324749
     21          1           0       -4.424889   -0.871204    1.178140
     22          1           0       -2.784329    0.852255   -1.857080
     23          1           0       -3.738168    1.350682   -0.427600
     24          1           0       -1.595738    1.373121    0.906973
     25          1           0       -2.183308    3.252411   -1.269750
     26          1           0       -1.541908    3.672351    0.168356
     27          1           0       -3.691030   -3.234059    1.103620
     28          7           0       -2.228678    3.042611   -0.300391
     29          7           0       -1.910789   -1.556579   -0.813345
     30          7           0       -3.253010   -2.594709    0.535121
     31          7           0        0.511952    0.672447   -0.435033
     32          8           0        3.487371   -1.762821   -1.837910
     33          8           0       -0.174918    2.276360   -1.853260
     34          8           0        1.568521    0.164394    2.952750
     35          8           0        3.398281    0.412596   -1.241390
     36          8           0        1.444152    1.997330    1.786300
 ---------------------------------------------------------------------

 SCF Done:  E(RHF) =  -1022.65366573     A.U. after    2 cycles

 The electronic state is 1-A.
 Alpha  occ. eigenvalues --  -21.14047 -21.13678 -21.05580 -21.05089 -21.00716
 Alpha  occ. eigenvalues --  -15.81332 -15.74287 -15.71945 -15.71848 -11.56314
 Alpha  occ. eigenvalues --  -11.54544 -11.52375 -11.50745 -11.48346 -11.46366
 Alpha  occ. eigenvalues --  -11.45665 -11.44192 -11.41876 -11.41223 -11.37834
 Alpha  occ. eigenvalues --   -1.86866  -1.83855  -1.69518  -1.66844  -1.66142
 Alpha  occ. eigenvalues --   -1.58544  -1.41468  -1.34725  -1.28526  -1.21476
 Alpha  occ. eigenvalues --   -1.14999  -1.08856  -1.04994  -0.94716  -0.93639
 Alpha  occ. eigenvalues --   -0.86588  -0.83063  -0.79990  -0.78920  -0.77368
 Alpha  occ. eigenvalues --   -0.75383  -0.70804  -0.69711  -0.65910  -0.65069
 Alpha  occ. eigenvalues --   -0.63374  -0.63273  -0.61845  -0.60653  -0.60182
 Alpha  occ. eigenvalues --   -0.59136  -0.57709  -0.56723  -0.56575  -0.55675
 Alpha  occ. eigenvalues --   -0.53678  -0.52507  -0.52024  -0.50214  -0.48566
 Alpha  occ. eigenvalues --   -0.47116  -0.46016  -0.45470  -0.44587  -0.44219
 Alpha  occ. eigenvalues --   -0.38600  -0.37329  -0.35674  -0.34548  -0.33792
 Alpha  occ. eigenvalues --   -0.33121  -0.31371  -0.30073  -0.27262  -0.27037
 Alpha virt. eigenvalues --    0.03101   0.03903   0.04038   0.04902   0.05377
 Alpha virt. eigenvalues --    0.05566   0.06250   0.06300   0.06700   0.06977
 Alpha virt. eigenvalues --    0.07578   0.08018   0.08342   0.09003   0.09518

 Mulliken charges:
               1
     1  C   -0.281376
     2  C    7.593400
     3  C   -2.988972
     4  C    8.378702
     5  C   -4.126452
     6  C   -5.082391
     7  C   -2.792892
     8  C    6.365825
     9  C   -4.924309
    10  C    7.233222
    11  C    0.978657
    12  H    2.901492
    13  H    0.713245
    14  H    0.948634
    15  H    1.548300
    16  H    1.398990
    17  H    1.535276
    18  H    1.395967
    19  H    0.621187
    20  H    1.789543
    21  H    1.267284
    22  H    1.197691
    23  H    1.386102
    24  H    2.111539
    25  H    0.650991
    26  H    0.542156
    27  H    0.945690
    28  N   -3.170432
    29  N   -3.825751
    30  N   -3.217145
    31  N   -3.005860
    32  O   -3.460075
    33  O   -4.203001
    34  O   -3.532404
    35  O   -3.479962
    36  O   -3.412870
 Sum of Mulliken charges =  -0.00000

 Dipole moment (field-independent basis, Debye):
    X=             -0.8194    Y=             -4.2233    Z=              2.1347  Tot=              4.8026

 Test job not archived.
 1\1\GINC-SE030\SP\RHF\Aug-CC-pVDZ\C11H16N4O5\OHZDE\08-Apr-2025\0\\#t h
 f aug-cc-pvdz iop(5/13=1,5/36=2,99/5=2) pseudo=read geom=check guess=(
 read,tcheck) scf=(maxcycle=1)\\title\\0,1\C,0,-1.73892,1.66729,-0.1379
 79\C,0,3.3374,-0.757905,-0.957567\C,0,1.41134,-1.32998,0.640444\C,0,1.
 25689,0.718312,1.92111\C,0,0.623184,-0.0610951,0.788219\C,0,2.97011,-1
 .18485,0.413718\C,0,-3.63368,-1.25168,0.543846\C,0,-2.74271,-0.614078,
 -0.276288\C,0,-2.80544,0.778398,-0.758363\C,0,-0.418954,1.52161,-0.919
 3\C,0,-2.182,-2.69377,-0.252254\H,0,-0.422017,-0.218342,1.14473\H,0,1.

 Normal termination of Gaussian 16 at Tue Apr  8 20:58:49 2025.
