 Gaussian 16, Revision C.01,

 ----------------------------------------------------------------------
 #t hf aug-cc-pvdz symm=none int=(grid=ultrafine) guess=(read,tcheck) s
 table=(opt,rrhf)
 ----------------------------------------------------------------------
 -----
 title
 -----
 Symbolic Z-matrix:
 Charge =  0 Multiplicity = 1

 SCF Done:  E(RHF) =  -600.299705997     A.U. after   17 cycles
 Normal termination of Gaussian 16 at Tue Apr  8 20:35:53 2025.
 Gaussian 16:  ES64L-G16RevC.01  3-Jul-2019

 ----------------------------------------------------------------------
 #t hf aug-cc-pvdz iop(5/13=1,5/36=2,99/5=2) pseudo=read geom=check gue
 ss=(read,tcheck) scf=(maxcycle=1)
 ----------------------------------------------------------------------
 -----
 title
 -----
 Structure from the checkpoint file:  "ANI1ccx_1685_conf1_mol1.chk"
 Charge =  0 Multiplicity = 1

                         Standard orientation:
 ---------------------------------------------------------------------
 Center     Atomic      Atomic             Coordinates (Angstroms)
 Number     Number       Type             X           Y           Z
 ---------------------------------------------------------------------
      1          6           0       -1.616959   -0.113108    0.009706
      2          6           0        0.725304   -0.652359    0.088424
      3          6           0        1.807143   -1.570159    0.086784
      4          6           0        3.116162   -1.200698    0.046159
      5          6           0        3.397271    0.206655   -0.075310
      6          6           0        2.393940    1.143242   -0.018675
      7          6           0        1.068960    0.721386    0.016973
      8          6           0       -1.311940    1.338918    0.054474
      9          1           0        0.214700    2.633589   -0.146618
     10          1           0        2.550569    2.264622   -0.155762
     11          1           0        4.399300    0.569759   -0.201657
     12          1           0        3.902853   -1.921747    0.019604
     13          1           0       -0.944335   -1.899262   -0.535895
     14          1           0       -2.483137   -2.223023    0.642253
     15          1           0       -4.008887   -2.035555   -0.077300
     16          1           0        1.595294   -2.642999    0.148961
     17          7           0        0.009078    1.630999   -0.109060
     18          7           0       -3.028687   -1.799194   -0.124006
     19          7           0       -2.880819   -0.444862   -0.078079
     20          7           0       -0.612650   -1.056381    0.023467
     21          8           0       -2.139261    2.212177    0.133618
 ---------------------------------------------------------------------

 SCF Done:  E(RHF) =  -603.030375733     A.U. after    2 cycles

 The electronic state is 1-A.
 Alpha  occ. eigenvalues --  -21.03264 -15.78868 -15.78705 -15.77416 -15.75772
 Alpha  occ. eigenvalues --  -11.55189 -11.53925 -11.48087 -11.46896 -11.45136
 Alpha  occ. eigenvalues --  -11.43530 -11.43006 -11.39028  -1.72531  -1.56180
 Alpha  occ. eigenvalues --   -1.47854  -1.37317  -1.29843  -1.16329  -1.10694
 Alpha  occ. eigenvalues --   -1.06883  -0.95619  -0.89570  -0.88675  -0.76254
 Alpha  occ. eigenvalues --   -0.74542  -0.71804  -0.69861  -0.68968  -0.64127
 Alpha  occ. eigenvalues --   -0.62035  -0.60067  -0.58453  -0.55872  -0.55034
 Alpha  occ. eigenvalues --   -0.52644  -0.51574  -0.49417  -0.47174  -0.45529
 Alpha  occ. eigenvalues --   -0.41163  -0.39177  -0.34575  -0.29720  -0.28761
 Alpha  occ. eigenvalues --   -0.25337
 Alpha virt. eigenvalues --    0.02939   0.04459   0.04788   0.05471   0.05633
 Alpha virt. eigenvalues --    0.06482   0.07475   0.08493   0.09160   0.09782
 Alpha virt. eigenvalues --    0.11113   0.11263   0.11559   0.11885   0.12229

 Mulliken charges:
               1
     1  C    2.171382
     2  C    2.384630
     3  C    1.830248
     4  C   -2.803486
     5  C   -1.250450
     6  C   -3.040158
     7  C    2.448935
     8  C    6.306282
     9  H    0.721371
    10  H    1.536802
    11  H    1.462803
    12  H    1.507248
    13  H    0.490334
    14  H    0.564683
    15  H    0.828602
    16  H    1.641822
    17  N   -4.336261
    18  N   -1.757372
    19  N   -2.213953
    20  N   -4.359019
    21  O   -4.134441
 Sum of Mulliken charges =  -0.00000

 Dipole moment (field-independent basis, Debye):
    X=              2.3920    Y=             -2.1118    Z=              0.0056  Tot=              3.1908

 Test job not archived.
 1\1\GINC-SE402\SP\RHF\Aug-CC-pVDZ\C8H8N4O1\OHZDE\08-Apr-2025\0\\#t hf
 aug-cc-pvdz iop(5/13=1,5/36=2,99/5=2) pseudo=read geom=check guess=(re
 ad,tcheck) scf=(maxcycle=1)\\title\\0,1\C,0,-1.61696,-0.113106,0.00970
 586\C,0,0.725302,-0.652359,0.0884242\C,0,1.80714,-1.57016,0.0867835\C,
 0,3.11616,-1.2007,0.0461586\C,0,3.39727,0.206652,-0.0753096\C,0,2.3939
 4,1.14324,-0.0186749\C,0,1.06896,0.721386,0.0169734\C,0,-1.31194,1.338
 92,0.054474\H,0,0.214702,2.63359,-0.146618\H,0,2.55057,2.26462,-0.1557
 62\H,0,4.3993,0.569755,-0.201657\H,0,3.90285,-1.92175,0.0196039\H,0,-0

 Normal termination of Gaussian 16 at Tue Apr  8 20:36:09 2025.
