 Gaussian 16, Revision C.01,

 ----------------------------------------------------------------------
 #t hf aug-cc-pvdz symm=none int=(grid=ultrafine) guess=(read,tcheck) s
 table=(opt,rrhf)
 ----------------------------------------------------------------------
 -----
 title
 -----
 Symbolic Z-matrix:
 Charge =  0 Multiplicity = 1

 SCF Done:  E(RHF) =  -1021.05223130     A.U. after   15 cycles
 Normal termination of Gaussian 16 at Tue Apr  8 22:07:37 2025.
 Gaussian 16:  ES64L-G16RevC.01  3-Jul-2019

 ----------------------------------------------------------------------
 #t hf aug-cc-pvdz iop(5/13=1,5/36=2,99/5=2) pseudo=read geom=check gue
 ss=(read,tcheck) scf=(maxcycle=1)
 ----------------------------------------------------------------------
 -----
 title
 -----
 Structure from the checkpoint file:  "ANI1ccx_54_conf22_mol1.chk"
 Charge =  0 Multiplicity = 1

                         Standard orientation:
 ---------------------------------------------------------------------
 Center     Atomic      Atomic             Coordinates (Angstroms)
 Number     Number       Type             X           Y           Z
 ---------------------------------------------------------------------
      1          6           0       -1.300471   -0.017484    0.767554
      2          6           0        2.820940    2.047370   -0.021872
      3          6           0        2.779439   -0.309457    0.883349
      4          6           0        1.852369   -1.920180   -0.962771
      5          6           0        1.519599   -0.754647    0.102367
      6          6           0        2.621000    1.153730    1.172939
      7          6           0       -2.611321    0.390229   -1.303911
      8          6           0       -1.676991   -0.599327   -0.644908
      9          6           0       -0.587986   -1.124049    1.448989
     10          6           0       -3.957891    0.702753   -0.524941
     11          1           0        0.969466    0.071683   -0.252163
     12          1           0        1.279629   -2.111970   -2.733791
     13          1           0        2.069290    3.734950   -0.736812
     14          1           0        3.461340    1.383450    1.862009
     15          1           0        1.667710    1.342110    1.526129
     16          1           0        3.599599   -0.455321    0.210265
     17          1           0        2.976079   -0.848570    1.714969
     18          1           0        0.895392   -2.125229    1.634249
     19          1           0       -5.518711   -0.254184    0.139898
     20          1           0       -2.920561   -0.057981   -2.239791
     21          1           0       -2.101070    1.308211   -1.603621
     22          1           0       -2.012151   -1.573409   -0.576933
     23          1           0       -0.815470   -0.459867   -1.286671
     24          1           0       -2.215531    0.073900    1.377669
     25          1           0       -0.150889    1.580551    0.057786
     26          1           0       -1.556530    1.967171    0.839510
     27          7           0       -0.716096    1.299621    0.802913
     28          7           0        0.544883   -1.589479    0.850462
     29          8           0       -1.079521   -1.788009    2.421149
     30          8           0       -4.327990    1.763251   -0.146884
     31          8           0       -4.748561   -0.464638   -0.386482
     32          8           0        2.448869   -2.934320   -0.855048
     33          8           0        3.490700    1.758280   -1.040951
     34          8           0        2.031930    3.143700    0.032588
     35          8           0        1.286919   -1.348280   -2.150261
 ---------------------------------------------------------------------

 SCF Done:  E(RHF) =  -1025.55139000     A.U. after    2 cycles

 The electronic state is 1-A.
 Alpha  occ. eigenvalues --  -21.14711 -21.13035 -21.12251 -21.09619 -21.08017
 Alpha  occ. eigenvalues --  -21.06695 -21.03057 -15.77119 -15.76481 -11.57722
 Alpha  occ. eigenvalues --  -11.55712 -11.55087 -11.54284 -11.53331 -11.48727
 Alpha  occ. eigenvalues --  -11.46559 -11.45784 -11.41880 -11.40630  -1.83645
 Alpha  occ. eigenvalues --   -1.82018  -1.81599  -1.69084  -1.68783  -1.66904
 Alpha  occ. eigenvalues --   -1.65598  -1.44024  -1.37636  -1.25258  -1.21175
 Alpha  occ. eigenvalues --   -1.09213  -1.05184  -0.96965  -0.93446  -0.83690
 Alpha  occ. eigenvalues --   -0.81619  -0.80944  -0.80187  -0.71413  -0.70161
 Alpha  occ. eigenvalues --   -0.69569  -0.67054  -0.66664  -0.64828  -0.64022
 Alpha  occ. eigenvalues --   -0.62268  -0.61610  -0.60772  -0.60387  -0.59239
 Alpha  occ. eigenvalues --   -0.58134  -0.56814  -0.54819  -0.53692  -0.53072
 Alpha  occ. eigenvalues --   -0.52648  -0.51870  -0.50616  -0.48870  -0.48175
 Alpha  occ. eigenvalues --   -0.46069  -0.45689  -0.45206  -0.44559  -0.37942
 Alpha  occ. eigenvalues --   -0.36677  -0.35505  -0.35228  -0.33490  -0.31357
 Alpha  occ. eigenvalues --   -0.30646  -0.29900  -0.27902
 Alpha virt. eigenvalues --    0.03097   0.03678   0.04490   0.04922   0.05162
 Alpha virt. eigenvalues --    0.05743   0.06057   0.06494   0.06870   0.07060
 Alpha virt. eigenvalues --    0.07575   0.08294   0.08398   0.08906   0.09963

 Mulliken charges:
               1
     1  C   -0.848404
     2  C    6.757716
     3  C   -3.359253
     4  C    7.260805
     5  C   -3.475414
     6  C   -5.590052
     7  C   -4.157294
     8  C   -3.376023
     9  C    6.321516
    10  C    6.344438
    11  H    3.546384
    12  H    0.923301
    13  H    0.970029
    14  H    1.512623
    15  H    1.850661
    16  H    1.513544
    17  H    1.315403
    18  H    0.530057
    19  H    0.958844
    20  H    1.328446
    21  H    1.514136
    22  H    1.855776
    23  H    1.607534
    24  H    1.927010
    25  H    0.861263
    26  H    0.476952
    27  N   -3.026619
    28  N   -2.575897
    29  O   -3.726287
    30  O   -3.326099
    31  O   -3.103400
    32  O   -3.553876
    33  O   -3.046283
    34  O   -3.387185
    35  O   -2.824353
 Sum of Mulliken charges =   0.00000

 Dipole moment (field-independent basis, Debye):
    X=              0.1987    Y=              1.7624    Z=             -1.8197  Tot=              2.5410

 Test job not archived.
 1\1\GINC-SE029\SP\RHF\Aug-CC-pVDZ\C10H16N2O7\OHZDE\08-Apr-2025\0\\#t h
 f aug-cc-pvdz iop(5/13=1,5/36=2,99/5=2) pseudo=read geom=check guess=(
 read,tcheck) scf=(maxcycle=1)\\title\\0,1\C,0,-1.30047,-0.0174851,0.76
 7555\C,0,2.82094,2.04737,-0.0218715\C,0,2.77944,-0.309457,0.88335\C,0,
 1.85237,-1.92018,-0.96277\C,0,1.5196,-0.754647,0.102368\C,0,2.621,1.15
 373,1.17294\C,0,-2.61132,0.390228,-1.30391\C,0,-1.67699,-0.599328,-0.6
 44907\C,0,-0.587985,-1.12405,1.44899\C,0,-3.95789,0.702752,-0.52494\H,
 0,0.969467,0.0716824,-0.252162\H,0,1.27963,-2.11197,-2.73379\H,0,2.069

 Normal termination of Gaussian 16 at Tue Apr  8 22:08:39 2025.
