 Gaussian 16, Revision C.01,

 ----------------------------------------------------------------------
 #t hf aug-cc-pvdz symm=none int=(grid=ultrafine) guess=(read,tcheck) s
 table=(opt,rrhf)
 ----------------------------------------------------------------------
 -----
 title
 -----
 Symbolic Z-matrix:
 Charge =  0 Multiplicity = 1

 SCF Done:  E(RHF) =  -489.711502908     A.U. after   14 cycles
 Normal termination of Gaussian 16 at Tue Apr  8 22:15:43 2025.
 Gaussian 16:  ES64L-G16RevC.01  3-Jul-2019

 ----------------------------------------------------------------------
 #t hf aug-cc-pvdz iop(5/13=1,5/36=2,99/5=2) pseudo=read geom=check gue
 ss=(read,tcheck) scf=(maxcycle=1)
 ----------------------------------------------------------------------
 -----
 title
 -----
 Structure from the checkpoint file:  "ANI1ccx_957_conf12_mol2.chk"
 Charge =  0 Multiplicity = 1

                         Standard orientation:
 ---------------------------------------------------------------------
 Center     Atomic      Atomic             Coordinates (Angstroms)
 Number     Number       Type             X           Y           Z
 ---------------------------------------------------------------------
      1          6           0       -0.496017    0.186551   -0.294547
      2          6           0       -1.888640   -0.219065    0.084478
      3          6           0        0.623856   -0.528612    0.575399
      4          6           0        2.077750   -0.320492    0.072220
      5          1           0       -3.443720   -0.970416   -0.720171
      6          1           0        1.614810    1.623839   -0.342799
      7          1           0        0.428464   -0.086024    1.563619
      8          1           0        0.552196   -1.683231    0.563426
      9          1           0        3.312690    1.114319   -0.587514
     10          1           0       -0.965204    2.119819   -0.859060
     11          1           0       -0.524993    2.013009    0.677532
     12          1           0       -0.369920   -0.129658   -1.305041
     13          7           0       -0.318926    1.645799   -0.250146
     14          7           0        2.423840    0.928755   -0.159807
     15          8           0        2.834530   -1.290181    0.024489
     16          8           0       -2.538300    0.191427    1.003929
     17          8           0       -2.451280   -0.992974   -0.871623
 ---------------------------------------------------------------------

 SCF Done:  E(RHF) =  -491.861931396     A.U. after    2 cycles

 The electronic state is 1-A.
 Alpha  occ. eigenvalues --  -21.13229 -21.07248 -21.01341 -15.77460 -15.76363
 Alpha  occ. eigenvalues --  -11.55483 -11.50195 -11.47650 -11.41314  -1.84638
 Alpha  occ. eigenvalues --   -1.68919  -1.66763  -1.39626  -1.33514  -1.13408
 Alpha  occ. eigenvalues --   -0.99874  -0.81226  -0.79772  -0.72735  -0.71051
 Alpha  occ. eigenvalues --   -0.64757  -0.64174  -0.62339  -0.60321  -0.56200
 Alpha  occ. eigenvalues --   -0.53686  -0.51244  -0.48461  -0.48312  -0.45595
 Alpha  occ. eigenvalues --   -0.40254  -0.35180  -0.31478  -0.31320  -0.27474
 Alpha virt. eigenvalues --    0.03233   0.04388   0.05029   0.05309   0.05970
 Alpha virt. eigenvalues --    0.06969   0.07526   0.08138   0.10136   0.10962
 Alpha virt. eigenvalues --    0.11519   0.12029   0.13769   0.13963   0.14489

 Mulliken charges:
               1
     1  C   -1.627404
     2  C    6.806740
     3  C   -3.614384
     4  C    5.714068
     5  H    0.769837
     6  H    0.785632
     7  H    1.402770
     8  H    1.183901
     9  H    0.782492
    10  H    0.620418
    11  H    0.600200
    12  H    1.861512
    13  N   -2.552383
    14  N   -3.202447
    15  O   -3.327396
    16  O   -3.209906
    17  O   -2.993649
 Sum of Mulliken charges =  -0.00000

 Dipole moment (field-independent basis, Debye):
    X=             -2.2023    Y=              2.4609    Z=             -1.5047  Tot=              3.6291

 Test job not archived.
 1\1\GINC-SE116\SP\RHF\Aug-CC-pVDZ\C4H8N2O3\OHZDE\08-Apr-2025\0\\#t hf
 aug-cc-pvdz iop(5/13=1,5/36=2,99/5=2) pseudo=read geom=check guess=(re
 ad,tcheck) scf=(maxcycle=1)\\title\\0,1\C,0,-0.496017,0.186552,-0.2945
 46\C,0,-1.88864,-0.219064,0.0844785\C,0,0.623856,-0.528611,0.5754\C,0,
 2.07775,-0.320491,0.0722205\H,0,-3.44372,-0.970416,-0.72017\H,0,1.6148
 1,1.62384,-0.342798\H,0,0.428464,-0.0860236,1.56362\H,0,0.552196,-1.68
 323,0.563427\H,0,3.31269,1.11432,-0.587513\H,0,-0.965204,2.11982,-0.85
 9059\H,0,-0.524993,2.01301,0.677533\H,0,-0.36992,-0.129657,-1.30504\N,

 Normal termination of Gaussian 16 at Tue Apr  8 22:15:52 2025.
