 Gaussian 16, Revision C.01,

 ----------------------------------------------------------------------
 #t hf aug-cc-pvdz symm=none int=(grid=ultrafine) guess=(read,tcheck) s
 table=(opt,rrhf)
 ----------------------------------------------------------------------
 -----
 title
 -----
 Symbolic Z-matrix:
 Charge =  0 Multiplicity = 1

 SCF Done:  E(RHF) =  -380.232174300     A.U. after   11 cycles
 Normal termination of Gaussian 16 at Tue Apr  8 21:04:28 2025.
 Gaussian 16:  ES64L-G16RevC.01  3-Jul-2019

 ----------------------------------------------------------------------
 #t hf aug-cc-pvdz iop(5/13=1,5/36=2,99/5=2) pseudo=read geom=check gue
 ss=(read,tcheck) scf=(maxcycle=1)
 ----------------------------------------------------------------------
 -----
 title
 -----
 Structure from the checkpoint file:  "ANI1ccx_1843_conf14_mol1.chk"
 Charge =  0 Multiplicity = 1

                         Standard orientation:
 ---------------------------------------------------------------------
 Center     Atomic      Atomic             Coordinates (Angstroms)
 Number     Number       Type             X           Y           Z
 ---------------------------------------------------------------------
      1          1           0       -0.825563    0.513120    1.518650
      2          1           0       -1.961611   -0.144387    0.766041
      3          1           0        1.094289    1.169440    0.147646
      4          1           0        0.358664    2.580030    0.245460
      5          1           0       -0.294334   -1.435400    0.561759
      6          1           0       -0.212691   -1.428440   -0.928522
      7          1           0       -1.853791    0.490713   -2.155000
      8          1           0       -0.859203    0.841873   -1.042810
      9          1           0        1.729699   -0.760921   -0.194535
     10          1           0        2.851769   -0.087122    0.646837
     11          8           0       -1.373001   -0.294756    1.513510
     12          8           0        0.202200    1.616640    0.217397
     13          8           0        0.305869   -1.714850   -0.162475
     14          8           0       -1.499531    0.147865   -1.338700
     15          8           0        2.361059    0.027739   -0.175424
 ---------------------------------------------------------------------

 SCF Done:  E(RHF) =  -381.872118843     A.U. after    2 cycles

 The electronic state is 1-A.
 Alpha  occ. eigenvalues --  -21.10000 -21.09649 -21.08293 -21.07786 -21.06852
 Alpha  occ. eigenvalues --   -1.69387  -1.66871  -1.66746  -1.65509  -1.63183
 Alpha  occ. eigenvalues --   -0.66664  -0.65567  -0.63529  -0.62495  -0.61169
 Alpha  occ. eigenvalues --   -0.52545  -0.50251  -0.48236  -0.46581  -0.41710
 Alpha  occ. eigenvalues --   -0.37041  -0.36229  -0.35302  -0.33819  -0.31803
 Alpha virt. eigenvalues --    0.03277   0.04462   0.05150   0.07153   0.07509
 Alpha virt. eigenvalues --    0.07727   0.08291   0.08977   0.09444   0.11024
 Alpha virt. eigenvalues --    0.17146   0.19662   0.20586   0.21579   0.21701

 Mulliken charges:
               1
     1  H    1.274833
     2  H    1.051597
     3  H    1.590775
     4  H    0.968085
     5  H    1.400470
     6  H    1.169773
     7  H    0.949291
     8  H    1.491722
     9  H    1.375350
    10  H    0.807035
    11  O   -2.219263
    12  O   -2.849503
    13  O   -2.793046
    14  O   -2.139464
    15  O   -2.077655
 Sum of Mulliken charges =  -0.00000

 Dipole moment (field-independent basis, Debye):
    X=              0.0907    Y=              1.9452    Z=             -0.5858  Tot=              2.0335

 Test job not archived.
 1\1\GINC-SE043\SP\RHF\Aug-CC-pVDZ\H10O5\OHZDE\08-Apr-2025\0\\#t hf aug
 -cc-pvdz iop(5/13=1,5/36=2,99/5=2) pseudo=read geom=check guess=(read,
 tcheck) scf=(maxcycle=1)\\title\\0,1\H,0,-0.825562,0.51312,1.51865\H,0
 ,-1.96161,-0.144387,0.766041\H,0,1.09429,1.16944,0.147646\H,0,0.358665
 ,2.58003,0.24546\H,0,-0.294333,-1.4354,0.561759\H,0,-0.21269,-1.42844,
 -0.928522\H,0,-1.85379,0.490713,-2.155\H,0,-0.859202,0.841873,-1.04281
 \H,0,1.7297,-0.760921,-0.194535\H,0,2.85177,-0.087122,0.646837\O,0,-1.
 373,-0.294756,1.51351\O,0,0.202201,1.61664,0.217397\O,0,0.30587,-1.714

 Normal termination of Gaussian 16 at Tue Apr  8 21:04:32 2025.
