 Gaussian 16, Revision C.01,

 ----------------------------------------------------------------------
 #t hf aug-cc-pvdz symm=none int=(grid=ultrafine) guess=(read,tcheck) s
 table=(opt,rrhf)
 ----------------------------------------------------------------------
 -----
 title
 -----
 Symbolic Z-matrix:
 Charge =  0 Multiplicity = 1

 SCF Done:  E(RHF) =  -538.492421866     A.U. after   15 cycles
 Normal termination of Gaussian 16 at Tue Apr  8 21:54:51 2025.
 Gaussian 16:  ES64L-G16RevC.01  3-Jul-2019

 ----------------------------------------------------------------------
 #t hf aug-cc-pvdz iop(5/13=1,5/36=2,99/5=2) pseudo=read geom=check gue
 ss=(read,tcheck) scf=(maxcycle=1)
 ----------------------------------------------------------------------
 -----
 title
 -----
 Structure from the checkpoint file:  "ANI1ccx_716_conf6_mol1.chk"
 Charge =  0 Multiplicity = 1

                         Standard orientation:
 ---------------------------------------------------------------------
 Center     Atomic      Atomic             Coordinates (Angstroms)
 Number     Number       Type             X           Y           Z
 ---------------------------------------------------------------------
      1          6           0       -0.821539    0.563214    0.501870
      2          6           0       -1.843090   -0.459191   -0.094653
      3          6           0        0.663492    0.165265    0.169657
      4          1           0       -1.759081    2.456440    0.599205
      5          1           0       -1.493431    1.817020   -0.795572
      6          1           0       -0.797482    0.482965    1.552690
      7          1           0       -0.387621   -1.714540    0.093615
      8          1           0        1.655309    1.987580   -0.379575
      9          7           0       -0.992975    1.927420    0.143216
     10          7           0        1.190190   -1.032660    0.275869
     11          7           0        2.426600   -0.944734   -0.049085
     12          7           0        2.779609    0.216495   -0.358747
     13          7           0        1.649229    1.013110   -0.166183
     14          8           0       -1.413070   -1.730270    0.076962
     15          8           0       -2.909360   -0.132556   -0.507849
 ---------------------------------------------------------------------

 SCF Done:  E(RHF) =  -540.842606285     A.U. after    2 cycles

 The electronic state is 1-A.
 Alpha  occ. eigenvalues --  -21.11030 -21.08098 -15.85985 -15.82561 -15.81806
 Alpha  occ. eigenvalues --  -15.78200 -15.78134 -11.55632 -11.53784 -11.47164
 Alpha  occ. eigenvalues --   -1.83063  -1.78554  -1.67876  -1.42386  -1.40128
 Alpha  occ. eigenvalues --   -1.31438  -1.07768  -0.94496  -0.88969  -0.83414
 Alpha  occ. eigenvalues --   -0.77897  -0.73269  -0.69674  -0.69442  -0.61830
 Alpha  occ. eigenvalues --   -0.59496  -0.57189  -0.53739  -0.51379  -0.51237
 Alpha  occ. eigenvalues --   -0.44892  -0.44543  -0.41526  -0.41328  -0.39340
 Alpha  occ. eigenvalues --   -0.34915  -0.31721
 Alpha virt. eigenvalues --    0.02860   0.04493   0.04669   0.05889   0.07920
 Alpha virt. eigenvalues --    0.09189   0.09598   0.11051   0.11306   0.11612
 Alpha virt. eigenvalues --    0.12841   0.13328   0.13794   0.14178   0.14480

 Mulliken charges:
               1
     1  C   -0.673751
     2  C    5.953029
     3  C    3.985211
     4  H    0.641649
     5  H    0.433470
     6  H    1.566702
     7  H    1.566616
     8  H    0.867898
     9  N   -2.905801
    10  N   -1.727974
    11  N   -0.288157
    12  N   -0.616901
    13  N   -2.346795
    14  O   -3.285717
    15  O   -3.169479
 Sum of Mulliken charges =   0.00000

 Dipole moment (field-independent basis, Debye):
    X=             -1.1753    Y=              3.9404    Z=              0.7098  Tot=              4.1728

 Test job not archived.
 1\1\GINC-SE331\SP\RHF\Aug-CC-pVDZ\C3H5N5O2\OHZDE\08-Apr-2025\0\\#t hf
 aug-cc-pvdz iop(5/13=1,5/36=2,99/5=2) pseudo=read geom=check guess=(re
 ad,tcheck) scf=(maxcycle=1)\\title\\0,1\C,0,-0.821538,0.563214,0.50187
 \C,0,-1.84309,-0.459191,-0.0946526\C,0,0.663492,0.165265,0.169657\H,0,
 -1.75908,2.45644,0.599205\H,0,-1.49343,1.81702,-0.795572\H,0,-0.797481
 ,0.482965,1.55269\H,0,-0.387621,-1.71454,0.0936148\H,0,1.65531,1.98758
 ,-0.379575\N,0,-0.992974,1.92742,0.143216\N,0,1.19019,-1.03266,0.27586
 9\N,0,2.4266,-0.944735,-0.0490848\N,0,2.77961,0.216494,-0.358747\N,0,1

 Normal termination of Gaussian 16 at Tue Apr  8 21:54:58 2025.
