 Gaussian 16, Revision C.01,

 ----------------------------------------------------------------------
 #t hf aug-cc-pvdz symm=none int=(grid=ultrafine) guess=(read,tcheck) s
 table=(opt,rrhf)
 ----------------------------------------------------------------------
 -----
 title
 -----
 Symbolic Z-matrix:
 Charge =  0 Multiplicity = 1

 SCF Done:  E(RHF) =  -488.003656346     A.U. after   14 cycles
 Normal termination of Gaussian 16 at Tue Apr  8 21:59:01 2025.
 Gaussian 16:  ES64L-G16RevC.01  3-Jul-2019

 ----------------------------------------------------------------------
 #t hf aug-cc-pvdz iop(5/13=1,5/36=2,99/5=2) pseudo=read geom=check gue
 ss=(read,tcheck) scf=(maxcycle=1)
 ----------------------------------------------------------------------
 -----
 title
 -----
 Structure from the checkpoint file:  "ANI1ccx_796_conf1_mol2.chk"
 Charge =  0 Multiplicity = 1

                         Standard orientation:
 ---------------------------------------------------------------------
 Center     Atomic      Atomic             Coordinates (Angstroms)
 Number     Number       Type             X           Y           Z
 ---------------------------------------------------------------------
      1          6           0        1.328860   -0.008507    0.009383
      2          6           0       -0.807771   -0.749965    0.021021
      3          6           0       -0.764705    0.771599    0.010081
      4          8           0        2.496800   -0.019894   -0.027134
      5          8           0        0.514477   -1.138261   -0.004448
      6          8           0       -1.712221   -1.504740   -0.004541
      7          8           0       -1.671930    1.534670   -0.030640
      8          8           0        0.555586    1.118379    0.036399
 ---------------------------------------------------------------------

 SCF Done:  E(RHF) =  -489.938103486     A.U. after    2 cycles

 The electronic state is 1-A.
 Alpha  occ. eigenvalues --  -21.20495 -21.19553 -21.14924 -21.14869 -21.13248
 Alpha  occ. eigenvalues --  -11.63052 -11.62567 -11.58132  -2.04375  -1.86602
 Alpha  occ. eigenvalues --   -1.81495  -1.74286  -1.73267  -1.08291  -0.92647
 Alpha  occ. eigenvalues --   -0.86228  -0.73859  -0.68085  -0.63208  -0.62730
 Alpha  occ. eigenvalues --   -0.58860  -0.57702  -0.56565  -0.51304  -0.46277
 Alpha  occ. eigenvalues --   -0.40559  -0.39313  -0.35822  -0.33868
 Alpha virt. eigenvalues --    0.04464   0.06046   0.08997   0.09450   0.09573
 Alpha virt. eigenvalues --    0.09661   0.09918   0.10740   0.10947   0.11016
 Alpha virt. eigenvalues --    0.13882   0.15452   0.16229   0.17175   0.21255

 Mulliken charges:
               1
     1  C    6.196244
     2  C    4.261108
     3  C    4.369317
     4  O   -3.011829
     5  O   -2.859648
     6  O   -3.033648
     7  O   -3.008710
     8  O   -2.912834
 Sum of Mulliken charges =  -0.00000

 Dipole moment (field-independent basis, Debye):
    X=             -0.0772    Y=              0.0105    Z=              0.0341  Tot=              0.0850

 Test job not archived.
 1\1\GINC-SE334\SP\RHF\Aug-CC-pVDZ\C3O5\OHZDE\08-Apr-2025\0\\#t hf aug-
 cc-pvdz iop(5/13=1,5/36=2,99/5=2) pseudo=read geom=check guess=(read,t
 check) scf=(maxcycle=1)\\title\\0,1\C,0,1.32886,-0.00850596,0.00938314
 \C,0,-0.807771,-0.749965,0.0210214\C,0,-0.764705,0.771599,0.0100806\O,
 0,2.4968,-0.0198928,-0.0271339\O,0,0.514478,-1.13826,-0.00444846\O,0,-
 1.71222,-1.50474,-0.00454076\O,0,-1.67193,1.53467,-0.0306401\O,0,0.555
 586,1.11838,0.0363992\\Version=ES64L-G16RevC.01\State=1-A\HF=-489.9381
 035\RMSD=1.532e-01\Dipole=-0.0303584,0.0041483,0.0134308\Quadrupole=-2

 Normal termination of Gaussian 16 at Tue Apr  8 21:59:04 2025.
