 Gaussian 16, Revision C.01,

 ----------------------------------------------------------------------
 #t hf aug-cc-pvdz symm=none int=(grid=ultrafine) guess=(read,tcheck) s
 table=(opt,rrhf)
 ----------------------------------------------------------------------
 -----
 title
 -----
 Symbolic Z-matrix:
 Charge =  0 Multiplicity = 1

 SCF Done:  E(RHF) =  -204.677436835     A.U. after   13 cycles
 Normal termination of Gaussian 16 at Tue Apr  8 21:11:17 2025.
 Gaussian 16:  ES64L-G16RevC.01  3-Jul-2019

 ----------------------------------------------------------------------
 #t hf aug-cc-pvdz iop(5/13=1,5/36=2,99/5=2) pseudo=read geom=check gue
 ss=(read,tcheck) scf=(maxcycle=1)
 ----------------------------------------------------------------------
 -----
 title
 -----
 Structure from the checkpoint file:  "ANI1ccx_1849_conf31_mol2.chk"
 Charge =  0 Multiplicity = 1

                         Standard orientation:
 ---------------------------------------------------------------------
 Center     Atomic      Atomic             Coordinates (Angstroms)
 Number     Number       Type             X           Y           Z
 ---------------------------------------------------------------------
      1          1           0       -1.677212    0.451833    0.009904
      2          7           0        0.161149    0.484621   -0.001418
      3          8           0       -1.036432   -0.260287   -0.001062
      4          8           0        1.105078   -0.220235    0.001064
 ---------------------------------------------------------------------

 SCF Done:  E(RHF) =  -205.506069877     A.U. after    2 cycles

 The electronic state is 1-A.
 Alpha  occ. eigenvalues --  -21.15787 -21.14405 -15.94368  -1.97230  -1.71668
 Alpha  occ. eigenvalues --   -0.96227  -0.72132  -0.61174  -0.60992  -0.49558
 Alpha  occ. eigenvalues --   -0.37239  -0.30843
 Alpha virt. eigenvalues --    0.04248   0.12476   0.12843   0.13134   0.16632
 Alpha virt. eigenvalues --    0.18820   0.19546   0.21101   0.22410   0.23783
 Alpha virt. eigenvalues --    0.27363   0.29462   0.29705   0.37745   0.39906

 Mulliken charges:
               1
     1  H    0.912955
     2  N    2.660962
     3  O   -1.919977
     4  O   -1.653941
 Sum of Mulliken charges =  -0.00000

 Dipole moment (field-independent basis, Debye):
    X=             -1.0243    Y=              0.0190    Z=              0.0115  Tot=              1.0246

 Test job not archived.
 1\1\GINC-SE116\SP\RHF\Aug-CC-pVDZ\H1N1O2\OHZDE\08-Apr-2025\0\\#t hf au
 g-cc-pvdz iop(5/13=1,5/36=2,99/5=2) pseudo=read geom=check guess=(read
 ,tcheck) scf=(maxcycle=1)\\title\\0,1\H,0,-1.67721,0.451834,0.00990386
 \N,0,0.161152,0.484621,-0.00141796\O,0,-1.03643,-0.260287,-0.00106153\
 O,0,1.10508,-0.220236,0.00106426\\Version=ES64L-G16RevC.01\State=1-A\H
 F=-205.5060699\RMSD=7.647e-02\Dipole=-0.4030076,0.0074817,0.0045382\Qu
 adrupole=1.2823204,-1.1242443,-0.1580761,-1.2685039,-0.0204965,0.01433
 54\PG=C01 [X(H1N1O2)]\\@

 Normal termination of Gaussian 16 at Tue Apr  8 21:11:18 2025.
