 Gaussian 16, Revision C.01,

 ----------------------------------------------------------------------
 #t hf aug-cc-pvdz symm=none int=(grid=ultrafine) guess=(read,tcheck) s
 table=(opt,rrhf)
 ----------------------------------------------------------------------
 -----
 title
 -----
 Symbolic Z-matrix:
 Charge =  0 Multiplicity = 1

 SCF Done:  E(RHF) =  -452.134529997     A.U. after   16 cycles
 Normal termination of Gaussian 16 at Tue Apr  8 22:03:10 2025.
 Gaussian 16:  ES64L-G16RevC.01  3-Jul-2019

 ----------------------------------------------------------------------
 #t hf aug-cc-pvdz iop(5/13=1,5/36=2,99/5=2) pseudo=read geom=check gue
 ss=(read,tcheck) scf=(maxcycle=1)
 ----------------------------------------------------------------------
 -----
 title
 -----
 Structure from the checkpoint file:  "ANI1ccx_859_conf2_mol1.chk"
 Charge =  0 Multiplicity = 1

                         Standard orientation:
 ---------------------------------------------------------------------
 Center     Atomic      Atomic             Coordinates (Angstroms)
 Number     Number       Type             X           Y           Z
 ---------------------------------------------------------------------
      1          6           0        1.372830   -0.033993    0.049744
      2          6           0        0.525457   -1.268959    0.225509
      3          6           0       -0.880297   -0.757073   -0.085569
      4          6           0       -0.722195    0.765448    0.003172
      5          1           0        0.410524   -1.514459    1.215870
      6          1           0        1.014430   -2.097359   -0.295317
      7          8           0        2.536040    0.013238   -0.257717
      8          8           0       -1.979100   -1.318019   -0.140275
      9          8           0       -1.558590    1.615281   -0.033768
     10          8           0        0.601683    1.111911    0.172049
 ---------------------------------------------------------------------

 SCF Done:  E(RHF) =  -453.996943089     A.U. after    2 cycles

 The electronic state is 1-A.
 Alpha  occ. eigenvalues --  -21.16858 -21.13799 -21.11598 -21.10952 -11.59890
 Alpha  occ. eigenvalues --  -11.57455 -11.55135 -11.47679  -1.94048  -1.76829
 Alpha  occ. eigenvalues --   -1.74898  -1.69244  -1.25198  -1.01581  -0.87734
 Alpha  occ. eigenvalues --   -0.79337  -0.72065  -0.68463  -0.62546  -0.60905
 Alpha  occ. eigenvalues --   -0.57996  -0.55011  -0.52420  -0.51591  -0.45431
 Alpha  occ. eigenvalues --   -0.41797  -0.36473  -0.32840  -0.31800
 Alpha virt. eigenvalues --    0.01966   0.04664   0.06404   0.07257   0.08991
 Alpha virt. eigenvalues --    0.09766   0.10203   0.10401   0.10893   0.11777
 Alpha virt. eigenvalues --    0.11987   0.12813   0.13943   0.14260   0.14586

 Mulliken charges:
               1
     1  C    5.414675
     2  C   -3.943921
     3  C    3.781029
     4  C    4.227763
     5  H    1.467123
     6  H    1.276515
     7  O   -3.142975
     8  O   -3.077656
     9  O   -3.058431
    10  O   -2.944124
 Sum of Mulliken charges =   0.00000

 Dipole moment (field-independent basis, Debye):
    X=              0.1243    Y=             -1.5296    Z=              0.5872  Tot=              1.6431

 Test job not archived.
 1\1\GINC-SE331\SP\RHF\Aug-CC-pVDZ\C4H2O4\OHZDE\08-Apr-2025\0\\#t hf au
 g-cc-pvdz iop(5/13=1,5/36=2,99/5=2) pseudo=read geom=check guess=(read
 ,tcheck) scf=(maxcycle=1)\\title\\0,1\C,0,1.37283,-0.0339933,0.0497444
 \C,0,0.525457,-1.26896,0.225509\C,0,-0.880297,-0.757074,-0.0855685\C,0
 ,-0.722195,0.765447,0.00317197\H,0,0.410524,-1.51446,1.21587\H,0,1.014
 43,-2.09736,-0.295317\O,0,2.53604,0.013237,-0.257717\O,0,-1.9791,-1.31
 802,-0.140275\O,0,-1.55859,1.61528,-0.0337683\O,0,0.601683,1.11191,0.1
 72049\\Version=ES64L-G16RevC.01\State=1-A\HF=-453.9969431\RMSD=2.826e-

 Normal termination of Gaussian 16 at Tue Apr  8 22:03:14 2025.
