 Gaussian 16, Revision C.01,

 ----------------------------------------------------------------------
 #t hf aug-cc-pvdz symm=none int=(grid=ultrafine) guess=(read,tcheck) s
 table=(opt,rrhf)
 ----------------------------------------------------------------------
 -----
 title
 -----
 Symbolic Z-matrix:
 Charge =  0 Multiplicity = 1

 SCF Done:  E(RHF) =  -369.537386454     A.U. after   16 cycles
 Normal termination of Gaussian 16 at Tue Apr  8 21:43:49 2025.
 Gaussian 16:  ES64L-G16RevC.01  3-Jul-2019

 ----------------------------------------------------------------------
 #t hf aug-cc-pvdz iop(5/13=1,5/36=2,99/5=2) pseudo=read geom=check gue
 ss=(read,tcheck) scf=(maxcycle=1)
 ----------------------------------------------------------------------
 -----
 title
 -----
 Structure from the checkpoint file:  "ANI1ccx_487_conf2_mol1.chk"
 Charge =  0 Multiplicity = 1

                         Standard orientation:
 ---------------------------------------------------------------------
 Center     Atomic      Atomic             Coordinates (Angstroms)
 Number     Number       Type             X           Y           Z
 ---------------------------------------------------------------------
      1          6           0        0.985338    0.126417   -0.017431
      2          6           0       -1.077141    1.054068    0.044343
      3          1           0       -1.675182    1.953217    0.155154
      4          1           0        0.844604   -1.910970   -0.002181
      5          7           0        0.227234    1.255419   -0.057303
      6          7           0       -1.757890   -0.089333   -0.022827
      7          7           0       -1.050429   -1.166742   -0.010708
      8          7           0        0.249960   -1.094061    0.023890
      9          8           0        2.212410    0.067232    0.019273
 ---------------------------------------------------------------------

 SCF Done:  E(RHF) =  -371.127548977     A.U. after    2 cycles

 The electronic state is 1-A.
 Alpha  occ. eigenvalues --  -21.05186 -15.90562 -15.87501 -15.81279 -15.77993
 Alpha  occ. eigenvalues --  -11.53581 -11.49699  -1.76402  -1.68096  -1.43140
 Alpha  occ. eigenvalues --   -1.38265  -1.07634  -0.97586  -0.81614  -0.75566
 Alpha  occ. eigenvalues --   -0.71869  -0.69936  -0.54676  -0.53111  -0.52925
 Alpha  occ. eigenvalues --   -0.50862  -0.48296  -0.39784  -0.32426  -0.31876
 Alpha virt. eigenvalues --    0.03271   0.04849   0.05023   0.09319   0.09661
 Alpha virt. eigenvalues --    0.09784   0.11693   0.12095   0.12581   0.13994
 Alpha virt. eigenvalues --    0.14373   0.15336   0.15633   0.16566   0.17083

 Mulliken charges:
               1
     1  C    5.126373
     2  C    1.303716
     3  H    1.680260
     4  H    0.832559
     5  N   -2.691434
     6  N   -1.626312
     7  N   -0.103859
     8  N   -1.605935
     9  O   -2.915368
 Sum of Mulliken charges =  -0.00000

 Dipole moment (field-independent basis, Debye):
    X=             -0.8587    Y=             -1.4693    Z=              0.1323  Tot=              1.7070

 Test job not archived.
 1\1\GINC-SE334\SP\RHF\Aug-CC-pVDZ\C2H2N4O1\OHZDE\08-Apr-2025\0\\#t hf
 aug-cc-pvdz iop(5/13=1,5/36=2,99/5=2) pseudo=read geom=check guess=(re
 ad,tcheck) scf=(maxcycle=1)\\title\\0,1\C,0,0.985338,0.126417,-0.01743
 06\C,0,-1.07714,1.05407,0.0443433\H,0,-1.67518,1.95322,0.155154\H,0,0.
 844602,-1.91097,-0.00218056\N,0,0.227236,1.25542,-0.0573027\N,0,-1.757
 89,-0.0893298,-0.0228268\N,0,-1.05043,-1.16674,-0.010708\N,0,0.249959,
 -1.09406,0.0238903\O,0,2.21241,0.0672314,0.0192726\\Version=ES64L-G16R
 evC.01\State=1-A\HF=-371.127549\RMSD=9.067e-02\Dipole=-0.3378534,-0.57

 Normal termination of Gaussian 16 at Tue Apr  8 21:43:52 2025.
