 Gaussian 16, Revision C.01,

 ----------------------------------------------------------------------
 #t hf aug-cc-pvdz symm=none int=(grid=ultrafine) guess=(read,tcheck) s
 table=(opt,rrhf)
 ----------------------------------------------------------------------
 -----
 title
 -----
 Symbolic Z-matrix:
 Charge =  0 Multiplicity = 1

 SCF Done:  E(RHF) =  -413.898351035     A.U. after   13 cycles
 Normal termination of Gaussian 16 at Tue Apr  8 21:49:16 2025.
 Gaussian 16:  ES64L-G16RevC.01  3-Jul-2019

 ----------------------------------------------------------------------
 #t hf aug-cc-pvdz iop(5/13=1,5/36=2,99/5=2) pseudo=read geom=check gue
 ss=(read,tcheck) scf=(maxcycle=1)
 ----------------------------------------------------------------------
 -----
 title
 -----
 Structure from the checkpoint file:  "ANI1ccx_583_conf1_mol1.chk"
 Charge =  0 Multiplicity = 1

                         Standard orientation:
 ---------------------------------------------------------------------
 Center     Atomic      Atomic             Coordinates (Angstroms)
 Number     Number       Type             X           Y           Z
 ---------------------------------------------------------------------
      1          6           0       -1.217940    1.812091    0.303271
      2          6           0       -0.915858   -0.413296   -0.192816
      3          1           0        3.099969    0.346514   -0.024303
      4          1           0        1.789869    1.239280   -0.067207
      5          1           0       -1.724870    1.949371   -0.693278
      6          1           0       -0.675711    2.747691    0.566020
      7          1           0       -1.882540    1.563161    1.128130
      8          1           0       -0.609161   -2.369039   -0.328183
      9          1           0        1.885168   -2.183530    0.021794
     10          1           0        1.109998   -1.742360    1.454150
     11          7           0       -0.085501   -1.470169   -0.165810
     12          7           0        1.148908   -1.576420    0.407939
     13          8           0        2.736339    1.181209   -0.390462
     14          8           0       -0.292431    0.709962    0.215663
     15          8           0       -2.148131   -0.468388   -0.377046
 ---------------------------------------------------------------------

 SCF Done:  E(RHF) =  -415.706647056     A.U. after    2 cycles

 The electronic state is 1-A.
 Alpha  occ. eigenvalues --  -21.09981 -21.06281 -21.03348 -15.80179 -15.78880
 Alpha  occ. eigenvalues --  -11.52870 -11.42122  -1.85840  -1.65154  -1.61855
 Alpha  occ. eigenvalues --   -1.50711  -1.17034  -1.01099  -0.80798  -0.72458
 Alpha  occ. eigenvalues --   -0.70282  -0.68610  -0.64410  -0.60076  -0.56030
 Alpha  occ. eigenvalues --   -0.54781  -0.54213  -0.45379  -0.41972  -0.40747
 Alpha  occ. eigenvalues --   -0.35001  -0.32428  -0.31894  -0.30684
 Alpha virt. eigenvalues --    0.02934   0.04508   0.04694   0.05292   0.06544
 Alpha virt. eigenvalues --    0.06955   0.07584   0.09557   0.11934   0.12592
 Alpha virt. eigenvalues --    0.13238   0.13907   0.14841   0.15514   0.15835

 Mulliken charges:
               1
     1  C   -3.163971
     2  C    5.999828
     3  H    0.845587
     4  H    1.357945
     5  H    1.227567
     6  H    1.303317
     7  H    1.299291
     8  H    0.513799
     9  H    0.757427
    10  H    0.591503
    11  N   -1.585716
    12  N   -1.707619
    13  O   -2.151240
    14  O   -2.627405
    15  O   -2.660312
 Sum of Mulliken charges =  -0.00000

 Dipole moment (field-independent basis, Debye):
    X=              0.6417    Y=             -1.9129    Z=              1.6266  Tot=              2.5917

 Test job not archived.
 1\1\GINC-SE048\SP\RHF\Aug-CC-pVDZ\C2H8N2O3\OHZDE\08-Apr-2025\0\\#t hf
 aug-cc-pvdz iop(5/13=1,5/36=2,99/5=2) pseudo=read geom=check guess=(re
 ad,tcheck) scf=(maxcycle=1)\\title\\0,1\C,0,-1.21794,1.81209,0.303271\
 C,0,-0.915857,-0.413297,-0.192816\H,0,3.09997,0.346515,-0.0243026\H,0,
 1.78987,1.23928,-0.0672072\H,0,-1.72487,1.94937,-0.693278\H,0,-0.67571
 1,2.74769,0.56602\H,0,-1.88254,1.56316,1.12813\H,0,-0.609159,-2.36904,
 -0.328183\H,0,1.88517,-2.18353,0.0217939\H,0,1.11,-1.74236,1.45415\N,0
 ,-0.0854994,-1.47017,-0.16581\N,0,1.14891,-1.57642,0.407939\O,0,2.7363

 Normal termination of Gaussian 16 at Tue Apr  8 21:49:21 2025.
