 Gaussian 16, Revision C.01,

 ----------------------------------------------------------------------
 #t hf aug-cc-pvdz symm=none int=(grid=ultrafine) guess=(read,tcheck) s
 table=(opt,rrhf)
 ----------------------------------------------------------------------
 -----
 title
 -----
 Symbolic Z-matrix:
 Charge =  0 Multiplicity = 1

 SCF Done:  E(RHF) =  -226.849102857     A.U. after   13 cycles
 Normal termination of Gaussian 16 at Tue Apr  8 21:13:19 2025.
 Gaussian 16:  ES64L-G16RevC.01  3-Jul-2019

 ----------------------------------------------------------------------
 #t hf aug-cc-pvdz iop(5/13=1,5/36=2,99/5=2) pseudo=read geom=check gue
 ss=(read,tcheck) scf=(maxcycle=1)
 ----------------------------------------------------------------------
 -----
 title
 -----
 Structure from the checkpoint file:  "ANI1ccx_1883_conf10_mol2.chk"
 Charge =  0 Multiplicity = 1

                         Standard orientation:
 ---------------------------------------------------------------------
 Center     Atomic      Atomic             Coordinates (Angstroms)
 Number     Number       Type             X           Y           Z
 ---------------------------------------------------------------------
      1          1           0       -1.932001   -0.881025    0.491260
      2          1           0       -2.610871    0.439561    0.167381
      3          1           0       -0.054220    0.708007   -0.167214
      4          1           0        1.687839   -0.769922    0.718960
      5          8           0       -1.837021   -0.103826   -0.076837
      6          8           0        0.895079    0.756385    0.057215
      7          8           0        1.305599   -0.589638   -0.131677
 ---------------------------------------------------------------------

 SCF Done:  E(RHF) =  -227.779142633     A.U. after    2 cycles

 The electronic state is 1-A.
 Alpha  occ. eigenvalues --  -21.12186 -21.10294 -21.08839  -1.92030  -1.68502
 Alpha  occ. eigenvalues --   -1.37525  -0.64996  -0.60981  -0.59572  -0.49117
 Alpha  occ. eigenvalues --   -0.45702  -0.38077  -0.34552  -0.27464
 Alpha virt. eigenvalues --    0.03187   0.05436   0.06434   0.08782   0.15388
 Alpha virt. eigenvalues --    0.19123   0.20079   0.20732   0.21563   0.22838
 Alpha virt. eigenvalues --    0.24360   0.25050   0.25859   0.27302   0.27817

 Mulliken charges:
               1
     1  H    0.892541
     2  H    0.913941
     3  H    1.358892
     4  H    0.963523
     5  O   -1.920018
     6  O   -1.260089
     7  O   -0.948789
 Sum of Mulliken charges =  -0.00000

 Dipole moment (field-independent basis, Debye):
    X=             -1.8881    Y=             -0.5134    Z=              1.2349  Tot=              2.3137

 Test job not archived.
 1\1\GINC-SE015\SP\RHF\Aug-CC-pVDZ\H4O3\OHZDE\08-Apr-2025\0\\#t hf aug-
 cc-pvdz iop(5/13=1,5/36=2,99/5=2) pseudo=read geom=check guess=(read,t
 check) scf=(maxcycle=1)\\title\\0,1\H,0,-1.932,-0.881024,0.49126\H,0,-
 2.61087,0.439562,0.167381\H,0,-0.0542189,0.708007,-0.167214\H,0,1.6878
 4,-0.769923,0.71896\O,0,-1.83702,-0.103825,-0.0768367\O,0,0.89508,0.75
 6385,0.0572154\O,0,1.3056,-0.589638,-0.131677\\Version=ES64L-G16RevC.0
 1\State=1-A\HF=-227.7791426\RMSD=3.458e-02\Dipole=-0.7428302,-0.201972
 4,0.4858462\Quadrupole=1.7312795,-0.4006476,-1.3306319,-1.6949483,0.28

 Normal termination of Gaussian 16 at Tue Apr  8 21:13:21 2025.
