 Gaussian 16, Revision C.01,

 ----------------------------------------------------------------------
 #t hf aug-cc-pvdz symm=none int=(grid=ultrafine) guess=(read,tcheck) s
 table=(opt,rrhf)
 ----------------------------------------------------------------------
 -----
 title
 -----
 Symbolic Z-matrix:
 Charge =  0 Multiplicity = 1

 SCF Done:  E(RHF) =  -369.118651206     A.U. after   13 cycles
 Normal termination of Gaussian 16 at Tue Apr  8 21:41:05 2025.
 Gaussian 16:  ES64L-G16RevC.01  3-Jul-2019

 ----------------------------------------------------------------------
 #t hf aug-cc-pvdz iop(5/13=1,5/36=2,99/5=2) pseudo=read geom=check gue
 ss=(read,tcheck) scf=(maxcycle=1)
 ----------------------------------------------------------------------
 -----
 title
 -----
 Structure from the checkpoint file:  "ANI1ccx_452_conf3_mol1.chk"
 Charge =  0 Multiplicity = 1

                         Standard orientation:
 ---------------------------------------------------------------------
 Center     Atomic      Atomic             Coordinates (Angstroms)
 Number     Number       Type             X           Y           Z
 ---------------------------------------------------------------------
      1          6           0       -0.169454   -0.237592   -0.055442
      2          1           0        2.033699    1.101950   -0.185022
      3          1           0        0.925639    1.648080   -1.243120
      4          1           0       -0.782302    1.732159    0.441194
      5          1           0       -1.416821   -1.582261   -0.590550
      6          1           0       -2.782241    0.735323   -0.240190
      7          1           0       -2.376171    0.186477    1.250960
      8          1           0        2.631979   -1.777810    0.102552
      9          1           0        2.056659   -0.725739    1.322620
     10          7           0        1.176739    1.731120   -0.257338
     11          7           0        0.034668    1.052560    0.363113
     12          7           0       -1.409071   -0.613984   -0.443197
     13          7           0       -2.533671   -0.129457    0.251481
     14          7           0        0.781182   -1.123750   -0.253432
     15          7           0        2.053909   -0.901149    0.264260
 ---------------------------------------------------------------------

 SCF Done:  E(RHF) =  -370.830599236     A.U. after    2 cycles

 The electronic state is 1-A.
 Alpha  occ. eigenvalues --  -15.77974 -15.76831 -15.76752 -15.75656 -15.74800
 Alpha  occ. eigenvalues --  -15.70687 -11.46369  -1.57509  -1.45214  -1.40770
 Alpha  occ. eigenvalues --   -1.22094  -1.10896  -1.03956  -0.81588  -0.73060
 Alpha  occ. eigenvalues --   -0.69948  -0.66677  -0.64236  -0.62919  -0.59154
 Alpha  occ. eigenvalues --   -0.57016  -0.53967  -0.45317  -0.41728  -0.40913
 Alpha  occ. eigenvalues --   -0.35894  -0.34845  -0.25562
 Alpha virt. eigenvalues --    0.03662   0.04986   0.05498   0.06090   0.06604
 Alpha virt. eigenvalues --    0.07063   0.07249   0.08023   0.12556   0.13284
 Alpha virt. eigenvalues --    0.14106   0.15064   0.15638   0.15968   0.16769

 Mulliken charges:
               1
     1  C    5.212652
     2  H    0.692949
     3  H    0.580445
     4  H    0.725980
     5  H    0.787463
     6  H    0.657303
     7  H    0.641515
     8  H    0.720112
     9  H    0.534226
    10  N   -1.747979
    11  N   -1.674474
    12  N   -1.845351
    13  N   -1.894054
    14  N   -1.529545
    15  N   -1.861243
 Sum of Mulliken charges =  -0.00000

 Dipole moment (field-independent basis, Debye):
    X=             -0.9173    Y=              0.6144    Z=              0.8089  Tot=              1.3687

 Test job not archived.
 1\1\GINC-SE340\SP\RHF\Aug-CC-pVDZ\C1H8N6\OHZDE\08-Apr-2025\0\\#t hf au
 g-cc-pvdz iop(5/13=1,5/36=2,99/5=2) pseudo=read geom=check guess=(read
 ,tcheck) scf=(maxcycle=1)\\title\\0,1\C,0,-0.169453,-0.237592,-0.05544
 15\H,0,2.0337,1.10195,-0.185022\H,0,0.92564,1.64808,-1.24312\H,0,-0.78
 2301,1.73216,0.441194\H,0,-1.41682,-1.58226,-0.59055\H,0,-2.78224,0.73
 5324,-0.24019\H,0,-2.37617,0.186478,1.25096\H,0,2.63198,-1.77781,0.102
 552\H,0,2.05666,-0.725739,1.32262\N,0,1.17674,1.73112,-0.257338\N,0,0.
 0346697,1.05256,0.363113\N,0,-1.40907,-0.613983,-0.443197\N,0,-2.53367

 Normal termination of Gaussian 16 at Tue Apr  8 21:41:09 2025.
