 Gaussian 16, Revision C.01,

 ----------------------------------------------------------------------
 #t hf aug-cc-pvdz symm=none int=(grid=ultrafine) guess=(read,tcheck) s
 table=(opt,rrhf)
 ----------------------------------------------------------------------
 -----
 title
 -----
 Symbolic Z-matrix:
 Charge =  0 Multiplicity = 1

 SCF Done:  E(RHF) =  -221.194870466     A.U. after   15 cycles
 Normal termination of Gaussian 16 at Tue Apr  8 21:14:23 2025.
 Gaussian 16:  ES64L-G16RevC.01  3-Jul-2019

 ----------------------------------------------------------------------
 #t hf aug-cc-pvdz iop(5/13=1,5/36=2,99/5=2) pseudo=read geom=check gue
 ss=(read,tcheck) scf=(maxcycle=1)
 ----------------------------------------------------------------------
 -----
 title
 -----
 Structure from the checkpoint file:  "ANI1ccx_1899_conf15_mol1.chk"
 Charge =  0 Multiplicity = 1

                         Standard orientation:
 ---------------------------------------------------------------------
 Center     Atomic      Atomic             Coordinates (Angstroms)
 Number     Number       Type             X           Y           Z
 ---------------------------------------------------------------------
      1          1           0        2.435961    1.200740   -0.465871
      2          1           0        3.382291    0.070151    0.243645
      3          1           0        0.678721   -0.587262   -0.225036
      4          1           0        1.180841    0.211312    1.147970
      5          1           0       -3.275079   -0.293464    0.311874
      6          1           0       -2.016679   -1.173570   -0.479282
      7          7           0        2.549431    0.200981   -0.310070
      8          7           0        1.469281   -0.375465    0.388498
      9          7           0       -2.624389    0.474589    0.189158
     10          7           0       -1.735189   -0.218378   -0.343773
 ---------------------------------------------------------------------

 SCF Done:  E(RHF) =  -222.212994807     A.U. after    2 cycles

 The electronic state is 1-A.
 Alpha  occ. eigenvalues --  -15.83016 -15.81991 -15.73595 -15.72765  -1.53773
 Alpha  occ. eigenvalues --   -1.41902  -1.05345  -0.97095  -0.75100  -0.65530
 Alpha  occ. eigenvalues --   -0.64503  -0.57241  -0.53936  -0.50787  -0.39263
 Alpha  occ. eigenvalues --   -0.36161  -0.33978
 Alpha virt. eigenvalues --    0.03482   0.05103   0.05613   0.06627   0.07206
 Alpha virt. eigenvalues --    0.09230   0.10679   0.14761   0.16223   0.17238
 Alpha virt. eigenvalues --    0.18051   0.18329   0.19067   0.19107   0.20782

 Mulliken charges:
               1
     1  H    0.600203
     2  H    0.701845
     3  H    0.799225
     4  H    0.653318
     5  H    0.662528
     6  H    0.728617
     7  N   -1.379394
     8  N   -1.401210
     9  N   -0.857644
    10  N   -0.507487
 Sum of Mulliken charges =   0.00000

 Dipole moment (field-independent basis, Debye):
    X=             -2.1729    Y=             -0.4634    Z=              0.6283  Tot=              2.3089

 Test job not archived.
 1\1\GINC-SE030\SP\RHF\Aug-CC-pVDZ\H6N4\OHZDE\08-Apr-2025\0\\#t hf aug-
 cc-pvdz iop(5/13=1,5/36=2,99/5=2) pseudo=read geom=check guess=(read,t
 check) scf=(maxcycle=1)\\title\\0,1\H,0,2.43596,1.20074,-0.465871\H,0,
 3.38229,0.0701514,0.243645\H,0,0.67872,-0.587262,-0.225036\H,0,1.18084
 ,0.211312,1.14797\H,0,-3.27508,-0.293464,0.311874\H,0,-2.01668,-1.1735
 7,-0.479282\N,0,2.54943,0.200981,-0.31007\N,0,1.46928,-0.375465,0.3884
 98\N,0,-2.62439,0.474589,0.189158\N,0,-1.73519,-0.218378,-0.343773\\Ve
 rsion=ES64L-G16RevC.01\State=1-A\HF=-222.2129948\RMSD=5.168e-02\Dipole

 Normal termination of Gaussian 16 at Tue Apr  8 21:14:25 2025.
