 Gaussian 16, Revision C.01,

 ----------------------------------------------------------------------
 #t hf aug-cc-pvdz symm=none int=(grid=ultrafine) guess=(read,tcheck) s
 table=(opt,rrhf)
 ----------------------------------------------------------------------
 -----
 title
 -----
 Symbolic Z-matrix:
 Charge =  0 Multiplicity = 1

 SCF Done:  E(RHF) =  -794.416481728     A.U. after   15 cycles
 Normal termination of Gaussian 16 at Tue Apr  8 20:26:23 2025.
 Gaussian 16:  ES64L-G16RevC.01  3-Jul-2019

 ----------------------------------------------------------------------
 #t hf aug-cc-pvdz iop(5/13=1,5/36=2,99/5=2) pseudo=read geom=check gue
 ss=(read,tcheck) scf=(maxcycle=1)
 ----------------------------------------------------------------------
 -----
 title
 -----
 Structure from the checkpoint file:  "ANI1ccx_1592_conf19_mol1.chk"
 Charge =  0 Multiplicity = 1

                         Standard orientation:
 ---------------------------------------------------------------------
 Center     Atomic      Atomic             Coordinates (Angstroms)
 Number     Number       Type             X           Y           Z
 ---------------------------------------------------------------------
      1          6           0        0.533428    1.299380   -0.316470
      2          6           0       -0.815507    1.878832   -0.070904
      3          6           0        1.325711    1.000239    0.847497
      4          6           0        2.677530    0.335528    0.517445
      5          6           0        2.461148   -1.049032    0.020251
      6          6           0       -1.649401   -0.445716    0.633521
      7          6           0       -2.029662   -1.345406   -0.616838
      8          6           0       -2.348351   -0.827934    1.874490
      9          1           0       -0.247156   -1.807329   -0.654986
     10          1           0       -3.409051   -0.796053    1.732670
     11          1           0       -2.094660   -0.123503    2.622130
     12          1           0       -2.064013   -1.830966    2.132190
     13          1           0       -0.597810   -0.689188    0.525006
     14          1           0       -2.795198    1.485665    0.220489
     15          1           0        3.368216   -2.677044   -0.178975
     16          1           0        3.216521    0.833035   -0.290795
     17          1           0        3.324620    0.247156    1.411670
     18          1           0        1.561642    1.808159    1.538720
     19          1           0        0.768470    0.274365    1.460370
     20          1           0        0.357493    0.384335   -0.962630
     21          1           0        0.860056    2.446600   -1.977220
     22          1           0        1.299294    3.151289   -0.670454
     23          7           0        1.411193    2.257559   -1.111990
     24          7           0       -1.810049    1.019643    0.280408
     25          8           0       -1.019066    3.138912   -0.133912
     26          8           0        1.436698   -1.583041   -0.253400
     27          8           0        3.570447   -1.805334    0.140633
     28          8           0       -3.102352   -1.363355   -1.096350
     29          8           0       -1.096453   -2.227468   -0.959609
 ---------------------------------------------------------------------

 SCF Done:  E(RHF) =  -797.937097388     A.U. after    2 cycles

 The electronic state is 1-A.
 Alpha  occ. eigenvalues --  -21.14727 -21.10918 -21.09015 -21.04603 -21.02674
 Alpha  occ. eigenvalues --  -15.77687 -15.74139 -11.58373 -11.54887 -11.53211
 Alpha  occ. eigenvalues --  -11.49665 -11.48875 -11.46423 -11.41607 -11.41382
 Alpha  occ. eigenvalues --   -1.88231  -1.83204  -1.70179  -1.68422  -1.65761
 Alpha  occ. eigenvalues --   -1.41678  -1.35979  -1.21157  -1.17478  -1.07647
 Alpha  occ. eigenvalues --   -0.97930  -0.95009  -0.81855  -0.80598  -0.78539
 Alpha  occ. eigenvalues --   -0.73046  -0.71695  -0.69813  -0.67141  -0.65635
 Alpha  occ. eigenvalues --   -0.64381  -0.62258  -0.61441  -0.59484  -0.58148
 Alpha  occ. eigenvalues --   -0.55882  -0.55631  -0.53915  -0.53232  -0.51354
 Alpha  occ. eigenvalues --   -0.50443  -0.49916  -0.48574  -0.47420  -0.45684
 Alpha  occ. eigenvalues --   -0.42698  -0.39012  -0.37563  -0.34139  -0.33359
 Alpha  occ. eigenvalues --   -0.32333  -0.29289  -0.27135
 Alpha virt. eigenvalues --    0.03203   0.03755   0.04190   0.05012   0.05389
 Alpha virt. eigenvalues --    0.05908   0.06199   0.06607   0.06875   0.07504
 Alpha virt. eigenvalues --    0.07643   0.08864   0.09350   0.09831   0.10336

 Mulliken charges:
               1
     1  C   -1.513955
     2  C    5.745058
     3  C   -3.024990
     4  C   -4.070482
     5  C    6.436808
     6  C   -1.489670
     7  C    6.955747
     8  C   -5.402531
     9  H    1.996443
    10  H    1.240235
    11  H    1.266918
    12  H    1.113868
    13  H    3.156868
    14  H    0.685009
    15  H    0.973486
    16  H    1.637440
    17  H    1.244022
    18  H    1.309689
    19  H    2.085241
    20  H    2.272443
    21  H    0.458821
    22  H    0.634830
    23  N   -2.803836
    24  N   -3.178774
    25  O   -3.637847
    26  O   -3.585939
    27  O   -3.509176
    28  O   -3.564766
    29  O   -3.430959
 Sum of Mulliken charges =  -0.00000

 Dipole moment (field-independent basis, Debye):
    X=              3.0125    Y=             -1.1367    Z=              2.4806  Tot=              4.0645

 Test job not archived.
 1\1\GINC-SE058\SP\RHF\Aug-CC-pVDZ\C8H14N2O5\OHZDE\08-Apr-2025\0\\#t hf
  aug-cc-pvdz iop(5/13=1,5/36=2,99/5=2) pseudo=read geom=check guess=(r
 ead,tcheck) scf=(maxcycle=1)\\title\\0,1\C,0,0.533426,1.29938,-0.31647
 \C,0,-0.815509,1.87883,-0.0709041\C,0,1.32571,1.00024,0.847497\C,0,2.6
 7753,0.335531,0.517445\C,0,2.46115,-1.04903,0.0202506\C,0,-1.6494,-0.4
 45719,0.633521\C,0,-2.02966,-1.34541,-0.616838\C,0,-2.34835,-0.827938,
 1.87449\H,0,-0.247153,-1.80733,-0.654986\H,0,-3.40905,-0.796059,1.7326
 7\H,0,-2.09466,-0.123507,2.62213\H,0,-2.06401,-1.83097,2.13219\H,0,-0.

 Normal termination of Gaussian 16 at Tue Apr  8 20:26:58 2025.
