 Gaussian 16, Revision C.01,

 ----------------------------------------------------------------------
 #t hf aug-cc-pvdz symm=none int=(grid=ultrafine) guess=(read,tcheck) s
 table=(opt,rrhf)
 ----------------------------------------------------------------------
 -----
 title
 -----
 Symbolic Z-matrix:
 Charge =  0 Multiplicity = 1

 SCF Done:  E(RHF) =  -583.222332898     A.U. after   14 cycles
 Normal termination of Gaussian 16 at Tue Apr  8 22:10:30 2025.
 Gaussian 16:  ES64L-G16RevC.01  3-Jul-2019

 ----------------------------------------------------------------------
 #t hf aug-cc-pvdz iop(5/13=1,5/36=2,99/5=2) pseudo=read geom=check gue
 ss=(read,tcheck) scf=(maxcycle=1)
 ----------------------------------------------------------------------
 -----
 title
 -----
 Structure from the checkpoint file:  "ANI1ccx_900_conf7_mol1.chk"
 Charge =  0 Multiplicity = 1

                         Standard orientation:
 ---------------------------------------------------------------------
 Center     Atomic      Atomic             Coordinates (Angstroms)
 Number     Number       Type             X           Y           Z
 ---------------------------------------------------------------------
      1          6           0        2.109100   -0.016241    0.111082
      2          6           0        1.167160   -0.510971   -0.925310
      3          6           0       -1.219120   -0.722606   -0.125212
      4          6           0       -1.375909    0.827848   -0.132145
      5          1           0        0.883665   -0.870738    1.337900
      6          1           0        0.919583    0.438008   -1.511800
      7          1           0        1.667020   -1.229071   -1.646430
      8          1           0        0.095919   -2.282040   -0.629781
      9          1           0       -2.947660    0.173370    0.043430
     10          7           0       -0.028483   -1.245290   -0.559212
     11          8           0        1.744450   -0.328674    1.394670
     12          8           0        2.984531    0.805258   -0.202892
     13          8           0       -2.137050   -1.374460    0.371296
     14          8           0       -2.632989    1.084521    0.121159
     15          8           0       -0.522257    1.690770   -0.090397
 ---------------------------------------------------------------------

 SCF Done:  E(RHF) =  -585.660858572     A.U. after    2 cycles

 The electronic state is 1-A.
 Alpha  occ. eigenvalues --  -21.15118 -21.13975 -21.11219 -21.09347 -21.06573
 Alpha  occ. eigenvalues --  -15.83883 -11.59394 -11.55865 -11.54648 -11.46627
 Alpha  occ. eigenvalues --   -1.89324  -1.81678  -1.76808  -1.69168  -1.65817
 Alpha  occ. eigenvalues --   -1.45969  -1.11654  -1.00812  -0.83881  -0.80232
 Alpha  occ. eigenvalues --   -0.76627  -0.72660  -0.71033  -0.65004  -0.62444
 Alpha  occ. eigenvalues --   -0.60096  -0.55771  -0.54027  -0.52311  -0.51054
 Alpha  occ. eigenvalues --   -0.49983  -0.47324  -0.41857  -0.39059  -0.36138
 Alpha  occ. eigenvalues --   -0.34597  -0.31080  -0.30605
 Alpha virt. eigenvalues --    0.02230   0.04259   0.04762   0.05885   0.06826
 Alpha virt. eigenvalues --    0.07900   0.08390   0.09823   0.10047   0.11314
 Alpha virt. eigenvalues --    0.11344   0.11769   0.12167   0.13068   0.13583

 Mulliken charges:
               1
     1  C    5.818842
     2  C   -2.914679
     3  C    3.759838
     4  C    4.761909
     5  H    1.140023
     6  H    1.399181
     7  H    1.359143
     8  H    0.562252
     9  H    1.089064
    10  N   -1.990234
    11  O   -3.091070
    12  O   -3.040466
    13  O   -3.161193
    14  O   -2.997118
    15  O   -2.695492
 Sum of Mulliken charges =   0.00000

 Dipole moment (field-independent basis, Debye):
    X=             -1.0994    Y=             -2.7289    Z=             -0.7698  Tot=              3.0410

 Test job not archived.
 1\1\GINC-SE059\SP\RHF\Aug-CC-pVDZ\C4H5N1O5\OHZDE\08-Apr-2025\0\\#t hf
 aug-cc-pvdz iop(5/13=1,5/36=2,99/5=2) pseudo=read geom=check guess=(re
 ad,tcheck) scf=(maxcycle=1)\\title\\0,1\C,0,2.1091,-0.0162404,0.111082
 \C,0,1.16716,-0.51097,-0.92531\C,0,-1.21912,-0.722606,-0.125212\C,0,-1
 .37591,0.827848,-0.132145\H,0,0.883665,-0.870737,1.3379\H,0,0.919583,0
 .438009,-1.5118\H,0,1.66702,-1.22907,-1.64643\H,0,0.0959192,-2.28204,-
 0.629781\H,0,-2.94766,0.173369,0.0434301\N,0,-0.0284833,-1.24529,-0.55
 9212\O,0,1.74445,-0.328673,1.39467\O,0,2.98453,0.805259,-0.202892\O,0,

 Normal termination of Gaussian 16 at Tue Apr  8 22:10:37 2025.
