 Gaussian 16, Revision C.01,

 ----------------------------------------------------------------------
 #t hf aug-cc-pvdz symm=none int=(grid=ultrafine) guess=(read,tcheck) s
 table=(opt,rrhf)
 ----------------------------------------------------------------------
 -----
 title
 -----
 Symbolic Z-matrix:
 Charge =  0 Multiplicity = 1

 SCF Done:  E(RHF) =  -604.213749131     A.U. after   15 cycles
 Normal termination of Gaussian 16 at Tue Apr  8 22:13:18 2025.
 Gaussian 16:  ES64L-G16RevC.01  3-Jul-2019

 ----------------------------------------------------------------------
 #t hf aug-cc-pvdz iop(5/13=1,5/36=2,99/5=2) pseudo=read geom=check gue
 ss=(read,tcheck) scf=(maxcycle=1)
 ----------------------------------------------------------------------
 -----
 title
 -----
 Structure from the checkpoint file:  "ANI1ccx_934_conf4_mol1.chk"
 Charge =  0 Multiplicity = 1

                         Standard orientation:
 ---------------------------------------------------------------------
 Center     Atomic      Atomic             Coordinates (Angstroms)
 Number     Number       Type             X           Y           Z
 ---------------------------------------------------------------------
      1          6           0        0.621293   -0.819874    0.286364
      2          6           0       -0.558464   -0.575772   -0.654104
      3          6           0       -1.293160    0.740399   -0.283857
      4          6           0        1.701220    0.176193   -0.011039
      5          1           0       -0.507138   -1.269669    1.662590
      6          1           0        0.985366   -1.843139    0.069136
      7          1           0       -0.271676   -0.506234   -1.702890
      8          1           0       -2.289380   -1.514339   -0.440421
      9          1           0       -2.900700    1.429441    0.088648
     10          1           0        2.792970   -1.179109   -0.892936
     11          8           0        0.267597   -0.663390    1.578670
     12          8           0       -1.369110   -1.767349   -0.336233
     13          8           0       -2.601530    0.463988   -0.067114
     14          8           0       -0.850110    1.800981   -0.095356
     15          8           0        2.743630   -0.205728   -0.793780
     16          8           0        1.730180    1.341171    0.362773
 ---------------------------------------------------------------------

 SCF Done:  E(RHF) =  -606.735968320     A.U. after    2 cycles

 The electronic state is 1-A.
 Alpha  occ. eigenvalues --  -21.13756 -21.12639 -21.11052 -21.10002 -21.07776
 Alpha  occ. eigenvalues --  -21.04178 -11.56691 -11.54280 -11.52502 -11.46112
 Alpha  occ. eigenvalues --   -1.87392  -1.83222  -1.77613  -1.72365  -1.67818
 Alpha  occ. eigenvalues --   -1.63229  -1.16624  -1.01040  -0.84817  -0.78360
 Alpha  occ. eigenvalues --   -0.74160  -0.71731  -0.66699  -0.64121  -0.61977
 Alpha  occ. eigenvalues --   -0.58398  -0.56559  -0.52947  -0.51808  -0.49733
 Alpha  occ. eigenvalues --   -0.47261  -0.46176  -0.43689  -0.39548  -0.35774
 Alpha  occ. eigenvalues --   -0.35370  -0.33191  -0.31013  -0.27464
 Alpha virt. eigenvalues --    0.03145   0.04340   0.04890   0.05161   0.05985
 Alpha virt. eigenvalues --    0.06446   0.08843   0.10728   0.11447   0.11906
 Alpha virt. eigenvalues --    0.12800   0.13102   0.13578   0.14238   0.14797

 Mulliken charges:
               1
     1  C    0.627719
     2  C   -0.909449
     3  C    6.297953
     4  C    6.341230
     5  H    0.643030
     6  H    1.600527
     7  H    1.694729
     8  H    0.795234
     9  H    0.682646
    10  H    0.877017
    11  O   -3.361388
    12  O   -2.875417
    13  O   -2.818741
    14  O   -3.151760
    15  O   -3.191620
    16  O   -3.251710
 Sum of Mulliken charges =   0.00000

 Dipole moment (field-independent basis, Debye):
    X=             -1.8461    Y=             -2.1946    Z=             -0.4800  Tot=              2.9077

 Test job not archived.
 1\1\GINC-SE086\SP\RHF\Aug-CC-pVDZ\C4H6O6\OHZDE\08-Apr-2025\0\\#t hf au
 g-cc-pvdz iop(5/13=1,5/36=2,99/5=2) pseudo=read geom=check guess=(read
 ,tcheck) scf=(maxcycle=1)\\title\\0,1\C,0,0.621293,-0.819875,0.286364\
 C,0,-0.558464,-0.575773,-0.654104\C,0,-1.29316,0.740398,-0.283857\C,0,
 1.70122,0.176192,-0.0110396\H,0,-0.507138,-1.26967,1.66259\H,0,0.98536
 6,-1.84314,0.069136\H,0,-0.271676,-0.506235,-1.70289\H,0,-2.28938,-1.5
 1434,-0.440421\H,0,-2.9007,1.42944,0.0886474\H,0,2.79297,-1.17911,-0.8
 92936\O,0,0.267597,-0.663391,1.57867\O,0,-1.36911,-1.76735,-0.336233\O

 Normal termination of Gaussian 16 at Tue Apr  8 22:13:27 2025.
