 Gaussian 16, Revision C.01,

 ----------------------------------------------------------------------
 #t hf aug-cc-pvdz symm=none int=(grid=ultrafine) guess=(read,tcheck) s
 table=(opt,rrhf)
 ----------------------------------------------------------------------
 -----
 title
 -----
 Symbolic Z-matrix:
 Charge =  0 Multiplicity = 1

 SCF Done:  E(RHF) =  -540.215866444     A.U. after   15 cycles
 Normal termination of Gaussian 16 at Tue Apr  8 21:45:05 2025.
 Gaussian 16:  ES64L-G16RevC.01  3-Jul-2019

 ----------------------------------------------------------------------
 #t hf aug-cc-pvdz iop(5/13=1,5/36=2,99/5=2) pseudo=read geom=check gue
 ss=(read,tcheck) scf=(maxcycle=1)
 ----------------------------------------------------------------------
 -----
 title
 -----
 Structure from the checkpoint file:  "ANI1ccx_504_conf3_mol1.chk"
 Charge =  0 Multiplicity = 1

                         Standard orientation:
 ---------------------------------------------------------------------
 Center     Atomic      Atomic             Coordinates (Angstroms)
 Number     Number       Type             X           Y           Z
 ---------------------------------------------------------------------
      1          6           0        1.143629   -0.645657    0.097338
      2          6           0       -1.118432   -0.736002    0.126214
      3          1           0       -2.131893    1.901956    0.351583
      4          1           0        1.963407    1.989573    0.382057
      5          1           0        0.073194   -2.428151   -0.285702
      6          7           0       -0.716237    0.593652    0.384179
      7          7           0        0.686709    0.651364    0.440193
      8          7           0        0.042921   -1.522851    0.175210
      9          8           0       -1.442804    1.613404   -0.282810
     10          8           0        1.357826    1.626405   -0.290244
     11          8           0        2.220277   -1.024708   -0.263057
     12          8           0       -2.154003   -1.118674   -0.262178
 ---------------------------------------------------------------------

 SCF Done:  E(RHF) =  -542.457301476     A.U. after    2 cycles

 The electronic state is 1-A.
 Alpha  occ. eigenvalues --  -21.15390 -21.15050 -21.07192 -21.07124 -15.84324
 Alpha  occ. eigenvalues --  -15.83165 -15.80806 -11.56198 -11.53561  -1.89278
 Alpha  occ. eigenvalues --   -1.81700  -1.76131  -1.74132  -1.52354  -1.33653
 Alpha  occ. eigenvalues --   -1.13788  -0.91311  -0.84439  -0.75899  -0.73377
 Alpha  occ. eigenvalues --   -0.65986  -0.64834  -0.62323  -0.59532  -0.56304
 Alpha  occ. eigenvalues --   -0.53033  -0.50482  -0.45040  -0.40830  -0.40346
 Alpha  occ. eigenvalues --   -0.37752  -0.33738  -0.31901  -0.28191
 Alpha virt. eigenvalues --    0.03535   0.04967   0.05786   0.09263   0.09751
 Alpha virt. eigenvalues --    0.11245   0.11771   0.12228   0.12415   0.12953
 Alpha virt. eigenvalues --    0.14520   0.15093   0.16662   0.16948   0.17664

 Mulliken charges:
               1
     1  C    5.047963
     2  C    4.937049
     3  H    0.679788
     4  H    0.650189
     5  H    0.605000
     6  N    0.785611
     7  N    0.820607
     8  N   -2.202223
     9  O   -2.494390
    10  O   -2.660151
    11  O   -3.096292
    12  O   -3.073152
 Sum of Mulliken charges =  -0.00000

 Dipole moment (field-independent basis, Debye):
    X=             -0.1062    Y=              1.7940    Z=              0.1573  Tot=              1.8040

 Test job not archived.
 1\1\GINC-SE453\SP\RHF\Aug-CC-pVDZ\C2H3N3O4\OHZDE\08-Apr-2025\0\\#t hf
 aug-cc-pvdz iop(5/13=1,5/36=2,99/5=2) pseudo=read geom=check guess=(re
 ad,tcheck) scf=(maxcycle=1)\\title\\0,1\C,0,1.14363,-0.645653,0.097338
 \C,0,-1.11843,-0.736005,0.126214\H,0,-2.1319,1.90195,0.351583\H,0,1.96
 34,1.98958,0.382057\H,0,0.0732012,-2.42815,-0.285702\N,0,-0.71624,0.59
 365,0.384179\N,0,0.686706,0.651367,0.440193\N,0,0.0429251,-1.52285,0.1
 7521\O,0,-1.44281,1.6134,-0.28281\O,0,1.35782,1.62641,-0.290244\O,0,2.
 22028,-1.0247,-0.263057\O,0,-2.154,-1.11868,-0.262178\\Version=ES64L-G

 Normal termination of Gaussian 16 at Tue Apr  8 21:45:11 2025.
