 Gaussian 16, Revision C.01,

 ----------------------------------------------------------------------
 #t hf aug-cc-pvdz symm=none int=(grid=ultrafine) guess=(read,tcheck) s
 table=(opt,rrhf)
 ----------------------------------------------------------------------
 -----
 title
 -----
 Symbolic Z-matrix:
 Charge =  0 Multiplicity = 1

 SCF Done:  E(RHF) =  -809.776677683     A.U. after   14 cycles
 Normal termination of Gaussian 16 at Tue Apr  8 20:42:06 2025.
 Gaussian 16:  ES64L-G16RevC.01  3-Jul-2019

 ----------------------------------------------------------------------
 #t hf aug-cc-pvdz iop(5/13=1,5/36=2,99/5=2) pseudo=read geom=check gue
 ss=(read,tcheck) scf=(maxcycle=1)
 ----------------------------------------------------------------------
 -----
 title
 -----
 Structure from the checkpoint file:  "ANI1ccx_1634_conf27_mol1.chk"
 Charge =  0 Multiplicity = 1

                         Standard orientation:
 ---------------------------------------------------------------------
 Center     Atomic      Atomic             Coordinates (Angstroms)
 Number     Number       Type             X           Y           Z
 ---------------------------------------------------------------------
      1          6           0        2.919124    0.859902   -0.500118
      2          6           0        2.197079   -0.495385   -0.403821
      3          6           0        0.100146   -1.634140   -0.286749
      4          6           0       -1.236365   -1.572655   -0.951987
      5          6           0       -0.012664   -1.897200    1.218490
      6          6           0       -0.046258   -0.770073    2.245710
      7          6           0       -1.142608    0.332567    2.059650
      8          6           0       -1.216613    1.861924   -0.008611
      9          1           0       -2.123412   -0.727527   -2.388200
     10          1           0       -2.947990    2.609851   -0.638729
     11          1           0       -3.119494    1.570242    0.667831
     12          1           0       -1.004680    2.537934   -1.736110
     13          1           0        0.237799    1.810909    1.346620
     14          1           0       -1.311696    0.850521    3.029370
     15          1           0       -2.075220   -0.154645    1.711280
     16          1           0       -0.190650   -1.143449    3.258310
     17          1           0        0.956386   -0.263803    2.297060
     18          1           0       -0.869714   -2.498417    1.327820
     19          1           0        0.833392   -2.526603    1.540440
     20          1           0        0.525971   -2.513392   -0.666491
     21          1           0        0.529551    0.019667   -1.491300
     22          1           0        3.129574    0.966573   -1.580080
     23          1           0        3.782203    0.772384    0.128505
     24          1           0        1.468929    2.369995   -0.744525
     25          1           0        2.842781    2.836599    0.148490
     26          7           0        2.154088    2.042142   -0.037613
     27          7           0        0.874934   -0.515186   -0.706833
     28          7           0       -0.693487    1.394703    1.144280
     29          7           0       -0.464365    2.346652   -0.875246
     30          7           0       -2.584393    1.763320   -0.167517
     31          8           0        2.791935   -1.517830   -0.046396
     32          8           0       -2.148968   -2.344722   -0.751500
     33          8           0       -1.273242   -0.618433   -1.945250
 ---------------------------------------------------------------------

 SCF Done:  E(RHF) =  -813.471396580     A.U. after    2 cycles

 The electronic state is 1-A.
 Alpha  occ. eigenvalues --  -21.12862 -21.06314 -21.01668 -15.76691 -15.73986
 Alpha  occ. eigenvalues --  -15.72640 -15.70909 -15.68335 -11.56071 -11.50702
 Alpha  occ. eigenvalues --  -11.47947 -11.47355 -11.46878 -11.42536 -11.40287
 Alpha  occ. eigenvalues --  -11.37570  -1.83454  -1.69284  -1.66565  -1.50209
 Alpha  occ. eigenvalues --   -1.41137  -1.32156  -1.30177  -1.24275  -1.19146
 Alpha  occ. eigenvalues --   -1.08911  -0.99864  -0.96759  -0.87300  -0.81319
 Alpha  occ. eigenvalues --   -0.79986  -0.78820  -0.70982  -0.70377  -0.68210
 Alpha  occ. eigenvalues --   -0.67269  -0.65226  -0.63222  -0.61995  -0.61035
 Alpha  occ. eigenvalues --   -0.59950  -0.58717  -0.57803  -0.56401  -0.54332
 Alpha  occ. eigenvalues --   -0.53661  -0.52244  -0.51940  -0.48975  -0.47538
 Alpha  occ. eigenvalues --   -0.46881  -0.45452  -0.44836  -0.43149  -0.38228
 Alpha  occ. eigenvalues --   -0.36845  -0.35323  -0.34316  -0.30766  -0.30311
 Alpha  occ. eigenvalues --   -0.29026  -0.27233
 Alpha virt. eigenvalues --    0.03590   0.04211   0.04336   0.04874   0.05249
 Alpha virt. eigenvalues --    0.05404   0.06335   0.06715   0.07008   0.07219
 Alpha virt. eigenvalues --    0.07473   0.07758   0.08002   0.09031   0.09397

 Mulliken charges:
               1
     1  C   -3.720171
     2  C    5.724085
     3  C   -3.248904
     4  C    8.072121
     5  C   -1.835872
     6  C   -3.146051
     7  C   -3.724373
     8  C    6.738820
     9  H    1.016363
    10  H    0.631616
    11  H    0.706390
    12  H    0.627522
    13  H    0.776740
    14  H    1.442567
    15  H    1.947379
    16  H    1.267634
    17  H    1.750230
    18  H    1.398417
    19  H    1.273857
    20  H    1.714461
    21  H    1.098554
    22  H    1.462841
    23  H    1.322369
    24  H    0.858019
    25  H    0.506854
    26  N   -2.103467
    27  N   -2.385237
    28  N   -2.069668
    29  N   -3.679775
    30  N   -3.611344
    31  O   -3.726533
    32  O   -3.764557
    33  O   -3.320886
 Sum of Mulliken charges =  -0.00000

 Dipole moment (field-independent basis, Debye):
    X=             -2.7586    Y=              2.0718    Z=              0.2211  Tot=              3.4570

 Test job not archived.
 1\1\GINC-SE048\SP\RHF\Aug-CC-pVDZ\C8H17N5O3\OHZDE\08-Apr-2025\0\\#t hf
  aug-cc-pvdz iop(5/13=1,5/36=2,99/5=2) pseudo=read geom=check guess=(r
 ead,tcheck) scf=(maxcycle=1)\\title\\0,1\C,0,2.91912,0.859913,-0.50011
 8\C,0,2.19708,-0.495377,-0.403821\C,0,0.100152,-1.63414,-0.286749\C,0,
 -1.23636,-1.57266,-0.951987\C,0,-0.0126578,-1.8972,1.21849\C,0,-0.0462
 56,-0.770073,2.24571\C,0,-1.14261,0.332563,2.05965\C,0,-1.21662,1.8619
 2,-0.00861126\H,0,-2.12341,-0.727535,-2.3882\H,0,-2.948,2.60984,-0.638
 729\H,0,-3.1195,1.57023,0.667831\H,0,-1.00469,2.53793,-1.73611\H,0,0.2

 Normal termination of Gaussian 16 at Tue Apr  8 20:42:56 2025.
