 Gaussian 16, Revision C.01,

 ----------------------------------------------------------------------
 #t hf aug-cc-pvdz symm=none int=(grid=ultrafine) guess=(read,tcheck) s
 table=(opt,rrhf)
 ----------------------------------------------------------------------
 -----
 title
 -----
 Symbolic Z-matrix:
 Charge =  0 Multiplicity = 1

 SCF Done:  E(RHF) =  -356.582158727     A.U. after   15 cycles
 Normal termination of Gaussian 16 at Tue Apr  8 21:44:49 2025.
 Gaussian 16:  ES64L-G16RevC.01  3-Jul-2019

 ----------------------------------------------------------------------
 #t hf aug-cc-pvdz iop(5/13=1,5/36=2,99/5=2) pseudo=read geom=check gue
 ss=(read,tcheck) scf=(maxcycle=1)
 ----------------------------------------------------------------------
 -----
 title
 -----
 Structure from the checkpoint file:  "ANI1ccx_498_conf1_mol1.chk"
 Charge =  0 Multiplicity = 1

                         Standard orientation:
 ---------------------------------------------------------------------
 Center     Atomic      Atomic             Coordinates (Angstroms)
 Number     Number       Type             X           Y           Z
 ---------------------------------------------------------------------
      1          6           0       -0.794451   -0.208873    0.099604
      2          6           0        0.785029   -0.106687    0.053391
      3          1           0       -2.371811    1.012607    0.271870
      4          1           0       -0.973278    1.898388    0.106349
      5          1           0        2.067469    1.178491   -0.079984
      6          7           0       -1.373341    1.006668   -0.141198
      7          8           0       -1.345588   -1.258802   -0.010223
      8          8           0        1.144909    1.135051    0.029853
      9          8           0        1.569121   -1.031599   -0.048107
 ---------------------------------------------------------------------

 SCF Done:  E(RHF) =  -358.059940257     A.U. after    2 cycles

 The electronic state is 1-A.
 Alpha  occ. eigenvalues --  -21.16625 -21.07382 -21.06851 -15.79647 -11.55378
 Alpha  occ. eigenvalues --  -11.51049  -1.88938  -1.74106  -1.67258  -1.36065
 Alpha  occ. eigenvalues --   -0.98933  -0.79639  -0.72827  -0.66854  -0.62869
 Alpha  occ. eigenvalues --   -0.60113  -0.54130  -0.53014  -0.49096  -0.37938
 Alpha  occ. eigenvalues --   -0.34874  -0.34420  -0.29607
 Alpha virt. eigenvalues --    0.03107   0.04233   0.05967   0.09299   0.10272
 Alpha virt. eigenvalues --    0.11232   0.11802   0.12323   0.13205   0.14376
 Alpha virt. eigenvalues --    0.15254   0.16700   0.17008   0.18314   0.19990

 Mulliken charges:
               1
     1  C    3.694498
     2  C    5.159194
     3  H    0.529868
     4  H    0.834375
     5  H    0.999218
     6  N   -2.469413
     7  O   -3.010778
     8  O   -2.920771
     9  O   -2.816192
 Sum of Mulliken charges =  -0.00000

 Dipole moment (field-independent basis, Debye):
    X=              0.0270    Y=              3.2154    Z=              0.6559  Tot=              3.2817

 Test job not archived.
 1\1\GINC-SE150\SP\RHF\Aug-CC-pVDZ\C2H3N1O3\OHZDE\08-Apr-2025\0\\#t hf
 aug-cc-pvdz iop(5/13=1,5/36=2,99/5=2) pseudo=read geom=check guess=(re
 ad,tcheck) scf=(maxcycle=1)\\title\\0,1\C,0,-0.794452,-0.208872,0.0996
 038\C,0,0.785028,-0.106687,0.0533912\H,0,-2.37181,1.01261,0.27187\H,0,
 -0.973277,1.89839,0.106349\H,0,2.06747,1.17849,-0.0799835\N,0,-1.37334
 ,1.00667,-0.141198\O,0,-1.34559,-1.2588,-0.0102232\O,0,1.14491,1.13505
 ,0.0298532\O,0,1.56912,-1.0316,-0.0481071\\Version=ES64L-G16RevC.01\St
 ate=1-A\HF=-358.0599403\RMSD=1.316e-01\Dipole=0.0106389,1.2650319,0.25

 Normal termination of Gaussian 16 at Tue Apr  8 21:44:52 2025.
