 Gaussian 16, Revision C.01,

 ----------------------------------------------------------------------
 #t hf aug-cc-pvdz symm=none int=(grid=ultrafine) guess=(read,tcheck) s
 table=(opt,rrhf)
 ----------------------------------------------------------------------
 -----
 title
 -----
 Symbolic Z-matrix:
 Charge =  0 Multiplicity = 1

 SCF Done:  E(RHF) =  -410.450686809     A.U. after   14 cycles
 Normal termination of Gaussian 16 at Tue Apr  8 21:43:50 2025.
 Gaussian 16:  ES64L-G16RevC.01  3-Jul-2019

 ----------------------------------------------------------------------
 #t hf aug-cc-pvdz iop(5/13=1,5/36=2,99/5=2) pseudo=read geom=check gue
 ss=(read,tcheck) scf=(maxcycle=1)
 ----------------------------------------------------------------------
 -----
 title
 -----
 Structure from the checkpoint file:  "ANI1ccx_483_conf1_mol2.chk"
 Charge =  0 Multiplicity = 1

                         Standard orientation:
 ---------------------------------------------------------------------
 Center     Atomic      Atomic             Coordinates (Angstroms)
 Number     Number       Type             X           Y           Z
 ---------------------------------------------------------------------
      1          6           0        1.122670   -0.164393   -0.053019
      2          6           0       -1.111190   -0.193386    0.039628
      3          1           0        1.156740    1.838901    0.447797
      4          1           0       -1.224990    1.739690   -0.463512
      5          7           0        0.673899    1.160281   -0.143040
      6          7           0       -0.714674    1.140980    0.165644
      7          8           0        2.239541   -0.598658   -0.012595
      8          8           0       -2.218709   -0.613991   -0.070746
      9          8           0        0.014767   -0.979944    0.075571
 ---------------------------------------------------------------------

 SCF Done:  E(RHF) =  -412.137263023     A.U. after    2 cycles

 The electronic state is 1-A.
 Alpha  occ. eigenvalues --  -21.16220 -21.08805 -21.08762 -15.83943 -15.83394
 Alpha  occ. eigenvalues --  -11.58314 -11.55856  -1.95218  -1.76181  -1.69354
 Alpha  occ. eigenvalues --   -1.56203  -1.23761  -0.90972  -0.90111  -0.75041
 Alpha  occ. eigenvalues --   -0.73336  -0.65575  -0.58537  -0.57133  -0.54638
 Alpha  occ. eigenvalues --   -0.52101  -0.50974  -0.37384  -0.36123  -0.34937
 Alpha  occ. eigenvalues --   -0.32067
 Alpha virt. eigenvalues --    0.02880   0.04762   0.08452   0.09694   0.11078
 Alpha virt. eigenvalues --    0.11144   0.11577   0.11887   0.12103   0.14659
 Alpha virt. eigenvalues --    0.15565   0.15772   0.16414   0.17128   0.18542

 Mulliken charges:
               1
     1  C    5.364392
     2  C    5.492361
     3  H    0.731072
     4  H    0.711600
     5  N   -1.842867
     6  N   -1.833894
     7  O   -2.929236
     8  O   -2.996292
     9  O   -2.697136
 Sum of Mulliken charges =   0.00000

 Dipole moment (field-independent basis, Debye):
    X=              0.0307    Y=              2.4505    Z=              0.0819  Tot=              2.4521

 Test job not archived.
 1\1\GINC-SE116\SP\RHF\Aug-CC-pVDZ\C2H2N2O3\OHZDE\08-Apr-2025\0\\#t hf
 aug-cc-pvdz iop(5/13=1,5/36=2,99/5=2) pseudo=read geom=check guess=(re
 ad,tcheck) scf=(maxcycle=1)\\title\\0,1\C,0,1.12267,-0.164394,-0.05301
 95\C,0,-1.11119,-0.193386,0.0396276\H,0,1.15674,1.8389,0.447797\H,0,-1
 .22499,1.73969,-0.463512\N,0,0.673899,1.16028,-0.14304\N,0,-0.714674,1
 .14098,0.165644\O,0,2.23954,-0.598659,-0.0125952\O,0,-2.21871,-0.61399
 1,-0.0707463\O,0,0.0147664,-0.979944,0.075571\\Version=ES64L-G16RevC.0
 1\State=1-A\HF=-412.137263\RMSD=6.134e-02\Dipole=0.012078,0.9641069,0.

 Normal termination of Gaussian 16 at Tue Apr  8 21:43:54 2025.
