 Gaussian 16, Revision C.01,

 ----------------------------------------------------------------------
 #t hf aug-cc-pvdz symm=none int=(grid=ultrafine) guess=(read,tcheck) s
 table=(opt,rrhf)
 ----------------------------------------------------------------------
 -----
 title
 -----
 Symbolic Z-matrix:
 Charge =  0 Multiplicity = 1

 SCF Done:  E(RHF) =  -758.533056011     A.U. after   14 cycles
 Normal termination of Gaussian 16 at Tue Apr  8 21:03:29 2025.
 Gaussian 16:  ES64L-G16RevC.01  3-Jul-2019

 ----------------------------------------------------------------------
 #t hf aug-cc-pvdz iop(5/13=1,5/36=2,99/5=2) pseudo=read geom=check gue
 ss=(read,tcheck) scf=(maxcycle=1)
 ----------------------------------------------------------------------
 -----
 title
 -----
 Structure from the checkpoint file:  "ANI1ccx_1759_conf27_mol1.chk"
 Charge =  0 Multiplicity = 1

                         Standard orientation:
 ---------------------------------------------------------------------
 Center     Atomic      Atomic             Coordinates (Angstroms)
 Number     Number       Type             X           Y           Z
 ---------------------------------------------------------------------
      1          6           0       -1.820411   -0.607674    0.081672
      2          6           0        2.155599   -2.100310   -0.675611
      3          6           0        2.760029   -1.259510    0.448868
      4          6           0        2.425019    1.268720    0.035440
      5          6           0        0.931033   -1.367270   -1.225270
      6          6           0       -2.656061    1.832690   -0.753909
      7          6           0       -2.925441    0.395414    0.016049
      8          6           0       -0.455492   -0.093170    0.488998
      9          6           0        1.840339   -0.078991    0.639556
     10          1           0        2.784139   -1.720280    1.438970
     11          1           0        0.588401    1.936930    0.594931
     12          1           0       -0.001283   -1.934090   -1.471870
     13          1           0        1.173619   -0.911996   -2.159780
     14          1           0        1.716969   -2.975770   -0.250761
     15          1           0        2.872759   -2.370330   -1.472400
     16          1           0        3.841929   -1.032010    0.203456
     17          1           0        1.495429    0.238824    1.586480
     18          1           0       -2.348721    1.652320   -1.808310
     19          1           0       -1.790591    2.495040   -0.427637
     20          1           0       -4.295921   -0.858177   -0.308288
     21          1           0       -3.340321    0.537943    0.981288
     22          1           0       -1.559301   -1.022950   -0.923411
     23          1           0       -1.714161   -2.593190    0.698987
     24          1           0       -2.220681   -1.346540    1.864160
     25          1           0       -3.600511    2.434259   -0.761817
     26          7           0       -2.248761   -1.728880    0.941039
     27          7           0        0.689328   -0.378813   -0.197034
     28          8           0        3.416579    1.477390   -0.614532
     29          8           0       -0.464952    0.640009    1.467620
     30          8           0       -3.976851   -0.100087   -0.755343
     31          8           0        1.498549    2.268250    0.236407
 ---------------------------------------------------------------------

 SCF Done:  E(RHF) =  -761.972524618     A.U. after    2 cycles

 The electronic state is 1-A.
 Alpha  occ. eigenvalues --  -21.08187 -21.07057 -21.05223 -21.04903 -15.78021
 Alpha  occ. eigenvalues --  -15.76656 -11.57487 -11.55767 -11.52327 -11.51321
 Alpha  occ. eigenvalues --  -11.47120 -11.43680 -11.43287 -11.39386 -11.38865
 Alpha  occ. eigenvalues --   -1.79788  -1.76139  -1.73279  -1.63525  -1.51131
 Alpha  occ. eigenvalues --   -1.36756  -1.20773  -1.14874  -1.10763  -1.02153
 Alpha  occ. eigenvalues --   -0.96238  -0.89223  -0.88545  -0.80015  -0.78244
 Alpha  occ. eigenvalues --   -0.74403  -0.72393  -0.69719  -0.67099  -0.66093
 Alpha  occ. eigenvalues --   -0.63057  -0.61238  -0.60428  -0.58068  -0.56780
 Alpha  occ. eigenvalues --   -0.54302  -0.52866  -0.51573  -0.50361  -0.50145
 Alpha  occ. eigenvalues --   -0.49579  -0.49284  -0.48535  -0.48032  -0.46127
 Alpha  occ. eigenvalues --   -0.41401  -0.40796  -0.39417  -0.34401  -0.33310
 Alpha  occ. eigenvalues --   -0.32038  -0.28948  -0.27739
 Alpha virt. eigenvalues --    0.03008   0.03879   0.03958   0.04701   0.04885
 Alpha virt. eigenvalues --    0.05181   0.05994   0.06432   0.06893   0.06986
 Alpha virt. eigenvalues --    0.07443   0.07602   0.08309   0.08810   0.09609

 Mulliken charges:
               1
     1  C   -1.742274
     2  C   -2.958674
     3  C   -2.117032
     4  C    6.325135
     5  C   -3.475147
     6  C   -4.023496
     7  C    0.246499
     8  C    9.605963
     9  C   -3.279706
    10  H    1.151832
    11  H    1.210311
    12  H    1.848758
    13  H    1.645823
    14  H    1.532625
    15  H    1.275215
    16  H    1.320569
    17  H    2.075804
    18  H    1.248825
    19  H    1.394711
    20  H    0.776575
    21  H    1.821832
    22  H    1.626203
    23  H    0.599127
    24  H    0.596515
    25  H    1.137254
    26  N   -2.913253
    27  N   -2.742615
    28  O   -3.373157
    29  O   -4.108453
    30  O   -3.233240
    31  O   -3.472531
 Sum of Mulliken charges =   0.00000

 Dipole moment (field-independent basis, Debye):
    X=             -0.6786    Y=             -3.7921    Z=              0.3001  Tot=              3.8640

 Test job not archived.
 1\1\GINC-SE015\SP\RHF\Aug-CC-pVDZ\C9H16N2O4\OHZDE\08-Apr-2025\0\\#t hf
  aug-cc-pvdz iop(5/13=1,5/36=2,99/5=2) pseudo=read geom=check guess=(r
 ead,tcheck) scf=(maxcycle=1)\\title\\0,1\C,0,-1.82041,-0.607674,0.0816
 719\C,0,2.1556,-2.10031,-0.675611\C,0,2.76003,-1.25951,0.448868\C,0,2.
 42502,1.26872,0.0354399\C,0,0.931034,-1.36727,-1.22527\C,0,-2.65606,1.
 83269,-0.753909\C,0,-2.92544,0.395414,0.0160491\C,0,-0.455491,-0.09317
 01,0.488998\C,0,1.84034,-0.0789909,0.639556\H,0,2.78414,-1.72028,1.438
 97\H,0,0.588402,1.93693,0.594931\H,0,-0.00128245,-1.93409,-1.47187\H,0

 Normal termination of Gaussian 16 at Tue Apr  8 21:04:09 2025.
