 Gaussian 16, Revision C.01,

 ----------------------------------------------------------------------
 #t hf aug-cc-pvdz symm=none int=(grid=ultrafine) guess=(read,tcheck) s
 table=(opt,rrhf)
 ----------------------------------------------------------------------
 -----
 title
 -----
 Symbolic Z-matrix:
 Charge =  0 Multiplicity = 1

 SCF Done:  E(RHF) =  -509.518504456     A.U. after   15 cycles
 Normal termination of Gaussian 16 at Tue Apr  8 22:14:05 2025.
 Gaussian 16:  ES64L-G16RevC.01  3-Jul-2019

 ----------------------------------------------------------------------
 #t hf aug-cc-pvdz iop(5/13=1,5/36=2,99/5=2) pseudo=read geom=check gue
 ss=(read,tcheck) scf=(maxcycle=1)
 ----------------------------------------------------------------------
 -----
 title
 -----
 Structure from the checkpoint file:  "ANI1ccx_939_conf84_mol1.chk"
 Charge =  0 Multiplicity = 1

                         Standard orientation:
 ---------------------------------------------------------------------
 Center     Atomic      Atomic             Coordinates (Angstroms)
 Number     Number       Type             X           Y           Z
 ---------------------------------------------------------------------
      1          6           0       -0.694045    0.606225   -0.872114
      2          6           0       -1.307061   -0.500032    0.024691
      3          6           0        0.694796    0.133679   -1.151500
      4          6           0        1.560319   -0.022675    0.083256
      5          1           0       -1.686769    2.415552   -0.228093
      6          1           0       -0.591938    1.770481    0.961465
      7          1           0       -1.327040    0.694885   -1.769560
      8          1           0        0.445461   -0.844134   -1.631970
      9          1           0        1.136450    0.707836   -1.888900
     10          1           0        1.603179    0.082037    1.978680
     11          1           0       -1.374572   -2.446608    0.090723
     12          7           0       -0.772500    1.892061   -0.051286
     13          8           0       -2.255051   -0.350859    0.732628
     14          8           0        2.724999   -0.414684   -0.031305
     15          8           0        0.998556    0.364593    1.315310
     16          8           0       -0.758670   -1.715009   -0.224050
 ---------------------------------------------------------------------

 SCF Done:  E(RHF) =  -511.705154267     A.U. after    2 cycles

 The electronic state is 1-A.
 Alpha  occ. eigenvalues --  -21.13898 -21.12551 -21.06570 -21.06006 -15.72968
 Alpha  occ. eigenvalues --  -11.55100 -11.53266 -11.48791 -11.41254  -1.83869
 Alpha  occ. eigenvalues --   -1.81606  -1.66562  -1.65898  -1.33379  -1.15722
 Alpha  occ. eigenvalues --   -0.98067  -0.84314  -0.78705  -0.69551  -0.67834
 Alpha  occ. eigenvalues --   -0.64565  -0.61744  -0.59713  -0.57682  -0.57089
 Alpha  occ. eigenvalues --   -0.54980  -0.50534  -0.49377  -0.46593  -0.44348
 Alpha  occ. eigenvalues --   -0.35683  -0.34742  -0.34507  -0.30335  -0.29740
 Alpha virt. eigenvalues --    0.03276   0.04318   0.05329   0.05687   0.06023
 Alpha virt. eigenvalues --    0.06428   0.08268   0.09859   0.10193   0.11323
 Alpha virt. eigenvalues --    0.12734   0.13286   0.13513   0.14251   0.14582

 Mulliken charges:
               1
     1  C   -1.395643
     2  C    6.632226
     3  C   -2.974940
     4  C    5.154942
     5  H    0.522658
     6  H    0.680804
     7  H    1.820583
     8  H    1.367889
     9  H    1.268750
    10  H    1.080415
    11  H    0.882619
    12  N   -2.623642
    13  O   -3.311914
    14  O   -3.019432
    15  O   -3.080753
    16  O   -3.004561
 Sum of Mulliken charges =  -0.00000

 Dipole moment (field-independent basis, Debye):
    X=             -0.9662    Y=             -0.4993    Z=             -0.1087  Tot=              1.0930

 Test job not archived.
 1\1\GINC-SE073\SP\RHF\Aug-CC-pVDZ\C4H7N1O4\OHZDE\08-Apr-2025\0\\#t hf
 aug-cc-pvdz iop(5/13=1,5/36=2,99/5=2) pseudo=read geom=check guess=(re
 ad,tcheck) scf=(maxcycle=1)\\title\\0,1\C,0,-0.694045,0.606224,-0.8721
 14\C,0,-1.30706,-0.500034,0.024691\C,0,0.694797,0.133679,-1.1515\C,0,1
 .56032,-0.0226749,0.0832557\H,0,-1.68677,2.41555,-0.228093\H,0,-0.5919
 39,1.77048,0.961465\H,0,-1.32704,0.694883,-1.76956\H,0,0.445462,-0.844
 135,-1.63197\H,0,1.13645,0.707836,-1.8889\H,0,1.60318,0.0820369,1.9786
 8\H,0,-1.37457,-2.44661,0.0907227\N,0,-0.772501,1.89206,-0.0512854\O,0

 Normal termination of Gaussian 16 at Tue Apr  8 22:14:12 2025.
