 Gaussian 16, Revision C.01,

 ----------------------------------------------------------------------
 #t hf aug-cc-pvdz symm=none int=(grid=ultrafine) guess=(read,tcheck) s
 table=(opt,rrhf)
 ----------------------------------------------------------------------
 -----
 title
 -----
 Symbolic Z-matrix:
 Charge =  0 Multiplicity = 1

 SCF Done:  E(RHF) =  -982.049122109     A.U. after   15 cycles
 Normal termination of Gaussian 16 at Tue Apr  8 21:02:54 2025.
 Gaussian 16:  ES64L-G16RevC.01  3-Jul-2019

 ----------------------------------------------------------------------
 #t hf aug-cc-pvdz iop(5/13=1,5/36=2,99/5=2) pseudo=read geom=check gue
 ss=(read,tcheck) scf=(maxcycle=1)
 ----------------------------------------------------------------------
 -----
 title
 -----
 Structure from the checkpoint file:  "ANI1ccx_1743_conf32_mol1.chk"
 Charge =  0 Multiplicity = 1

                         Standard orientation:
 ---------------------------------------------------------------------
 Center     Atomic      Atomic             Coordinates (Angstroms)
 Number     Number       Type             X           Y           Z
 ---------------------------------------------------------------------
      1          6           0       -1.347981    1.790439   -0.455915
      2          6           0        0.003960    1.936680    0.089214
      3          6           0       -2.322421    1.266749    0.650417
      4          6           0       -2.573191   -0.161133    0.999963
      5          6           0       -2.816370   -1.036411   -0.224018
      6          6           0        0.926418   -0.476379   -0.243722
      7          6           0        0.528880   -1.067290    1.113690
      8          6           0        2.207090   -1.016520   -0.878264
      9          6           0        3.476559   -0.343312   -0.397965
     10          1           0       -0.588244   -2.394110    0.206796
     11          1           0        5.317779   -0.200126   -0.732192
     12          1           0        2.212570   -0.903633   -1.964600
     13          1           0        2.055490   -2.095250   -0.878260
     14          1           0       -0.019693   -0.618023   -0.805434
     15          1           0        1.813609    1.234170    0.456349
     16          1           0       -4.065990   -1.479941   -1.608000
     17          1           0       -3.490141   -0.245689    1.621060
     18          1           0       -1.882131   -0.682437    1.583200
     19          1           0       -2.101431    1.724599    1.588230
     20          1           0       -3.313801    1.600889    0.361379
     21          1           0       -1.591661    2.854509   -0.593770
     22          1           0       -2.326681    1.048169   -2.158810
     23          1           0       -0.659775    1.303260   -2.373820
     24          7           0       -1.410081    1.046149   -1.692920
     25          7           0        1.006989    0.997433   -0.120516
     26          8           0        0.237657    3.002660    0.642734
     27          8           0       -2.033680   -1.848431   -0.706502
     28          8           0       -4.079371   -0.876676   -0.817820
     29          8           0        0.830474   -0.473431    2.136100
     30          8           0        3.487529    0.310143    0.653300
     31          8           0        4.501089   -0.468064   -1.217930
     32          8           0       -0.073189   -2.247250    1.069060
 ---------------------------------------------------------------------

 SCF Done:  E(RHF) =  -986.317111184     A.U. after    2 cycles

 The electronic state is 1-A.
 Alpha  occ. eigenvalues --  -21.15184 -21.14154 -21.10815 -21.08541 -21.05964
 Alpha  occ. eigenvalues --  -21.04005 -21.01635 -15.75076 -15.73883 -11.57879
 Alpha  occ. eigenvalues --  -11.56370 -11.55326 -11.53570 -11.49381 -11.49098
 Alpha  occ. eigenvalues --  -11.46231 -11.43751 -11.40407  -1.85318  -1.83512
 Alpha  occ. eigenvalues --   -1.81266  -1.70324  -1.67787  -1.66665  -1.64478
 Alpha  occ. eigenvalues --   -1.40327  -1.35599  -1.22474  -1.17627  -1.06177
 Alpha  occ. eigenvalues --   -1.01508  -0.94237  -0.83687  -0.82712  -0.80506
 Alpha  occ. eigenvalues --   -0.77650  -0.71690  -0.70604  -0.68685  -0.67235
 Alpha  occ. eigenvalues --   -0.65622  -0.64323  -0.63319  -0.62084  -0.61665
 Alpha  occ. eigenvalues --   -0.59906  -0.59310  -0.58590  -0.55854  -0.53490
 Alpha  occ. eigenvalues --   -0.52374  -0.52048  -0.51322  -0.50135  -0.49722
 Alpha  occ. eigenvalues --   -0.48527  -0.46137  -0.45654  -0.43622  -0.42294
 Alpha  occ. eigenvalues --   -0.38240  -0.35808  -0.34809  -0.34217  -0.31980
 Alpha  occ. eigenvalues --   -0.31325  -0.30553  -0.27893  -0.27202
 Alpha virt. eigenvalues --    0.03103   0.03725   0.04001   0.04613   0.04851
 Alpha virt. eigenvalues --    0.05300   0.06329   0.06628   0.07214   0.07513
 Alpha virt. eigenvalues --    0.07752   0.08300   0.09519   0.10042   0.10266

 Mulliken charges:
               1
     1  C   -1.010895
     2  C    6.591499
     3  C   -2.519753
     4  C   -3.884722
     5  C    6.425453
     6  C   -0.385360
     7  C    6.301069
     8  C   -5.113284
     9  C    6.231146
    10  H    1.327130
    11  H    0.919974
    12  H    1.470228
    13  H    1.446161
    14  H    2.222583
    15  H    0.709397
    16  H    0.822915
    17  H    1.256174
    18  H    1.895322
    19  H    1.249256
    20  H    1.275057
    21  H    1.363191
    22  H    0.644584
    23  H    0.655788
    24  N   -3.271154
    25  N   -2.473352
    26  O   -4.076870
    27  O   -3.317649
    28  O   -3.358305
    29  O   -3.493881
    30  O   -2.960369
    31  O   -3.423061
    32  O   -3.518270
 Sum of Mulliken charges =  -0.00000

 Dipole moment (field-independent basis, Debye):
    X=             -1.5703    Y=             -1.5540    Z=             -3.4153  Tot=              4.0676

 Test job not archived.
 1\1\GINC-SE083\SP\RHF\Aug-CC-pVDZ\C9H14N2O7\OHZDE\08-Apr-2025\0\\#t hf
  aug-cc-pvdz iop(5/13=1,5/36=2,99/5=2) pseudo=read geom=check guess=(r
 ead,tcheck) scf=(maxcycle=1)\\title\\0,1\C,0,-1.34798,1.79044,-0.45591
 5\C,0,0.00396159,1.93668,0.0892136\C,0,-2.32242,1.26675,0.650417\C,0,-
 2.57319,-0.161132,0.999963\C,0,-2.81637,-1.03641,-0.224018\C,0,0.92641
 9,-0.476379,-0.243722\C,0,0.52888,-1.06729,1.11369\C,0,2.20709,-1.0165
 2,-0.878264\C,0,3.47656,-0.343313,-0.397965\H,0,-0.588244,-2.39411,0.2
 06796\H,0,5.31778,-0.200127,-0.732192\H,0,2.21257,-0.903633,-1.9646\H,

 Normal termination of Gaussian 16 at Tue Apr  8 21:03:46 2025.
