 Gaussian 16, Revision C.01,

 ----------------------------------------------------------------------
 #t hf aug-cc-pvdz symm=none int=(grid=ultrafine) guess=(read,tcheck) s
 table=(opt,rrhf)
 ----------------------------------------------------------------------
 -----
 title
 -----
 Symbolic Z-matrix:
 Charge =  0 Multiplicity = 1

 SCF Done:  E(RHF) =  -316.916360747     A.U. after   14 cycles
 Normal termination of Gaussian 16 at Tue Apr  8 21:46:53 2025.
 Gaussian 16:  ES64L-G16RevC.01  3-Jul-2019

 ----------------------------------------------------------------------
 #t hf aug-cc-pvdz iop(5/13=1,5/36=2,99/5=2) pseudo=read geom=check gue
 ss=(read,tcheck) scf=(maxcycle=1)
 ----------------------------------------------------------------------
 -----
 title
 -----
 Structure from the checkpoint file:  "ANI1ccx_538_conf2_mol2.chk"
 Charge =  0 Multiplicity = 1

                         Standard orientation:
 ---------------------------------------------------------------------
 Center     Atomic      Atomic             Coordinates (Angstroms)
 Number     Number       Type             X           Y           Z
 ---------------------------------------------------------------------
      1          6           0        0.754365    0.214102    0.036569
      2          6           0       -0.724685   -0.243156   -0.021005
      3          1           0        2.538078   -0.642391   -0.096858
      4          1           0        1.187456   -1.768243    0.060942
      5          1           0        0.426064    2.074588    0.353656
      6          1           0       -2.621269    0.496428   -0.142130
      7          1           0       -1.407797    1.714572   -0.283965
      8          7           0        1.557618   -0.849261   -0.167234
      9          7           0        1.155312    1.420827    0.102663
     10          7           0       -1.617699    0.775177   -0.103807
     11          8           0       -0.995904   -1.390979    0.149202
 ---------------------------------------------------------------------

 SCF Done:  E(RHF) =  -318.325911705     A.U. after    2 cycles

 The electronic state is 1-A.
 Alpha  occ. eigenvalues --  -21.05257 -15.79654 -15.76882 -15.72558 -11.52673
 Alpha  occ. eigenvalues --  -11.46231  -1.74729  -1.44030  -1.35796  -1.24368
 Alpha  occ. eigenvalues --   -0.94599  -0.79672  -0.77592  -0.69914  -0.60664
 Alpha  occ. eigenvalues --   -0.59803  -0.57711  -0.53470  -0.49713  -0.42425
 Alpha  occ. eigenvalues --   -0.35395  -0.32967  -0.29895
 Alpha virt. eigenvalues --    0.03260   0.05302   0.05666   0.07016   0.07497
 Alpha virt. eigenvalues --    0.10580   0.11514   0.12252   0.12797   0.13577
 Alpha virt. eigenvalues --    0.13992   0.14846   0.15615   0.17249   0.18629

 Mulliken charges:
               1
     1  C    3.591985
     2  C    4.936803
     3  H    0.711656
     4  H    0.663593
     5  H    0.602240
     6  H    0.682082
     7  H    0.773185
     8  N   -3.002062
     9  N   -2.989721
    10  N   -2.804187
    11  O   -3.165574
 Sum of Mulliken charges =   0.00000

 Dipole moment (field-independent basis, Debye):
    X=             -1.3880    Y=             -0.0111    Z=             -0.0094  Tot=              1.3881

 Test job not archived.
 1\1\GINC-SE094\SP\RHF\Aug-CC-pVDZ\C2H5N3O1\OHZDE\08-Apr-2025\0\\#t hf
 aug-cc-pvdz iop(5/13=1,5/36=2,99/5=2) pseudo=read geom=check guess=(re
 ad,tcheck) scf=(maxcycle=1)\\title\\0,1\C,0,0.754365,0.214104,0.036568
 7\C,0,-0.724684,-0.243156,-0.0210054\H,0,2.53808,-0.642385,-0.0968579\
 H,0,1.18746,-1.76824,0.060942\H,0,0.42606,2.07459,0.353656\H,0,-2.6212
 7,0.496424,-0.14213\H,0,-1.4078,1.71457,-0.283965\N,0,1.55762,-0.84925
 7,-0.167234\N,0,1.15531,1.42083,0.102663\N,0,-1.6177,0.775175,-0.10380
 7\O,0,-0.995901,-1.39098,0.149202\\Version=ES64L-G16RevC.01\State=1-A\

 Normal termination of Gaussian 16 at Tue Apr  8 21:46:56 2025.
