 Gaussian 16, Revision C.01,

 ----------------------------------------------------------------------
 #t hf aug-cc-pvdz symm=none int=(grid=ultrafine) guess=(read,tcheck) s
 table=(opt,rrhf)
 ----------------------------------------------------------------------
 -----
 title
 -----
 Symbolic Z-matrix:
 Charge =  0 Multiplicity = 1

 SCF Done:  E(RHF) =  -218.963129367     A.U. after   14 cycles
 Normal termination of Gaussian 16 at Tue Apr  8 21:12:18 2025.
 Gaussian 16:  ES64L-G16RevC.01  3-Jul-2019

 ----------------------------------------------------------------------
 #t hf aug-cc-pvdz iop(5/13=1,5/36=2,99/5=2) pseudo=read geom=check gue
 ss=(read,tcheck) scf=(maxcycle=1)
 ----------------------------------------------------------------------
 -----
 title
 -----
 Structure from the checkpoint file:  "ANI1ccx_1861_conf13_mol1.chk"
 Charge =  0 Multiplicity = 1

                         Standard orientation:
 ---------------------------------------------------------------------
 Center     Atomic      Atomic             Coordinates (Angstroms)
 Number     Number       Type             X           Y           Z
 ---------------------------------------------------------------------
      1          1           0       -0.782560    1.063300    0.498485
      2          1           0       -0.996555   -0.886037    0.812022
      3          7           0       -1.522072    0.650368   -0.121912
      4          7           0       -1.564733   -0.588027   -0.015730
      5          7           0        1.450487   -0.518789   -0.124720
      6          7           0        1.890477    0.431124    0.075147
 ---------------------------------------------------------------------

 SCF Done:  E(RHF) =  -219.895925636     A.U. after    2 cycles

 The electronic state is 1-A.
 Alpha  occ. eigenvalues --  -15.88374 -15.88299 -15.81623 -15.81066  -1.59908
 Alpha  occ. eigenvalues --   -1.50718  -0.96007  -0.79672  -0.73082  -0.61003
 Alpha  occ. eigenvalues --   -0.60700  -0.60460  -0.52681  -0.49466  -0.37470
 Alpha virt. eigenvalues --    0.04937   0.05846   0.10617   0.11469   0.12965
 Alpha virt. eigenvalues --    0.13446   0.13792   0.15068   0.16789   0.16999
 Alpha virt. eigenvalues --    0.18732   0.19057   0.20526   0.21422   0.22176

 Mulliken charges:
               1
     1  H    0.652340
     2  H    0.685922
     3  N   -0.765580
     4  N   -0.591149
     5  N    0.082515
     6  N   -0.064048
 Sum of Mulliken charges =  -0.00000

 Dipole moment (field-independent basis, Debye):
    X=              1.7203    Y=              0.0464    Z=              1.6482  Tot=              2.3829

 Test job not archived.
 1\1\GINC-SE015\SP\RHF\Aug-CC-pVDZ\H2N4\OHZDE\08-Apr-2025\0\\#t hf aug-
 cc-pvdz iop(5/13=1,5/36=2,99/5=2) pseudo=read geom=check guess=(read,t
 check) scf=(maxcycle=1)\\title\\0,1\H,0,-0.782558,1.0633,0.498485\H,0,
 -0.996552,-0.886037,0.812022\N,0,-1.52207,0.650368,-0.121912\N,0,-1.56
 473,-0.588027,-0.0157302\N,0,1.45049,-0.518789,-0.12472\N,0,1.89048,0.
 431125,0.0751466\\Version=ES64L-G16RevC.01\State=1-A\HF=-219.8959256\R
 MSD=1.304e-01\Dipole=0.6768338,0.0182408,0.6484482\Quadrupole=-1.98758
 6,0.479831,1.507755,-0.2570604,-1.9461472,-0.0592357\PG=C01 [X(H2N4)]\

 Normal termination of Gaussian 16 at Tue Apr  8 21:12:20 2025.
