 Gaussian 16, Revision C.01,

 ----------------------------------------------------------------------
 #t hf aug-cc-pvdz symm=none int=(grid=ultrafine) guess=(read,tcheck) s
 table=(opt,rrhf)
 ----------------------------------------------------------------------
 -----
 title
 -----
 Symbolic Z-matrix:
 Charge =  0 Multiplicity = 1

 SCF Done:  E(RHF) =  -205.853034637     A.U. after   14 cycles
 Normal termination of Gaussian 16 at Tue Apr  8 21:12:18 2025.
 Gaussian 16:  ES64L-G16RevC.01  3-Jul-2019

 ----------------------------------------------------------------------
 #t hf aug-cc-pvdz iop(5/13=1,5/36=2,99/5=2) pseudo=read geom=check gue
 ss=(read,tcheck) scf=(maxcycle=1)
 ----------------------------------------------------------------------
 -----
 title
 -----
 Structure from the checkpoint file:  "ANI1ccx_1869_conf32_mol2.chk"
 Charge =  0 Multiplicity = 1

                         Standard orientation:
 ---------------------------------------------------------------------
 Center     Atomic      Atomic             Coordinates (Angstroms)
 Number     Number       Type             X           Y           Z
 ---------------------------------------------------------------------
      1          1           0        1.038811    1.307900    0.146138
      2          1           0       -1.438959   -0.104038    0.010597
      3          1           0       -2.742539   -0.612818    0.545437
      4          7           0        0.893810    0.233598    0.041148
      5          8           0        1.984411   -0.284957   -0.035811
      6          8           0       -2.373659    0.006678   -0.087965
 ---------------------------------------------------------------------

 SCF Done:  E(RHF) =  -206.706226142     A.U. after    2 cycles

 The electronic state is 1-A.
 Alpha  occ. eigenvalues --  -21.16553 -21.09285 -15.89860  -1.87276  -1.65798
 Alpha  occ. eigenvalues --   -1.04641  -0.68539  -0.62844  -0.56654  -0.53400
 Alpha  occ. eigenvalues --   -0.46130  -0.34653  -0.31596
 Alpha virt. eigenvalues --    0.03822   0.05353   0.08873   0.09917   0.11822
 Alpha virt. eigenvalues --    0.16312   0.17679   0.19430   0.20887   0.23183
 Alpha virt. eigenvalues --    0.23595   0.24744   0.26903   0.27477   0.29125

 Mulliken charges:
               1
     1  H    0.775819
     2  H    1.161115
     3  H    0.785320
     4  N    0.856007
     5  O   -1.628010
     6  O   -1.950251
 Sum of Mulliken charges =  -0.00000

 Dipole moment (field-independent basis, Debye):
    X=              1.4962    Y=              0.3041    Z=              0.6993  Tot=              1.6793

 Test job not archived.
 1\1\GINC-SE028\SP\RHF\Aug-CC-pVDZ\H3N1O2\OHZDE\08-Apr-2025\0\\#t hf au
 g-cc-pvdz iop(5/13=1,5/36=2,99/5=2) pseudo=read geom=check guess=(read
 ,tcheck) scf=(maxcycle=1)\\title\\0,1\H,0,1.03881,1.3079,0.146138\H,0,
 -1.43896,-0.104038,0.0105966\H,0,-2.74254,-0.612818,0.545437\N,0,0.893
 809,0.233598,0.0411479\O,0,1.98441,-0.284956,-0.0358112\O,0,-2.37366,0
 .00667799,-0.0879647\\Version=ES64L-G16RevC.01\State=1-A\HF=-206.70622
 61\RMSD=5.222e-02\Dipole=0.588634,0.1196315,0.2751356\Quadrupole=-0.65
 44253,0.4619945,0.1924308,2.0720065,-1.5075259,-0.7297541\PG=C01 [X(H3

 Normal termination of Gaussian 16 at Tue Apr  8 21:12:19 2025.
