 Gaussian 16, Revision C.01,

 ----------------------------------------------------------------------
 #t hf aug-cc-pvdz symm=none int=(grid=ultrafine) guess=(read,tcheck) s
 table=(opt,rrhf)
 ----------------------------------------------------------------------
 -----
 title
 -----
 Symbolic Z-matrix:
 Charge =  0 Multiplicity = 1

 SCF Done:  E(RHF) =  -504.796322485     A.U. after   14 cycles
 Normal termination of Gaussian 16 at Tue Apr  8 19:40:15 2025.
 Gaussian 16:  ES64L-G16RevC.01  3-Jul-2019

 ----------------------------------------------------------------------
 #t hf aug-cc-pvdz iop(5/13=1,5/36=2,99/5=2) pseudo=read geom=check gue
 ss=(read,tcheck) scf=(maxcycle=1)
 ----------------------------------------------------------------------
 -----
 title
 -----
 Structure from the checkpoint file:  "ANI1ccx_1369_conf2_mol2.chk"
 Charge =  0 Multiplicity = 1

                         Standard orientation:
 ---------------------------------------------------------------------
 Center     Atomic      Atomic             Coordinates (Angstroms)
 Number     Number       Type             X           Y           Z
 ---------------------------------------------------------------------
      1          6           0        2.845330    1.110089   -0.071206
      2          6           0        2.107150   -0.214693   -0.009639
      3          6           0        2.759820   -1.353731    0.033845
      4          6           0        0.616803   -0.116270    0.033015
      5          6           0       -1.377860   -1.073980    0.027399
      6          6           0       -1.198010    1.182630   -0.039497
      7          1           0       -2.760999    2.449010    0.276592
      8          1           0       -1.226649    3.188110    0.073836
      9          1           0       -3.129370   -2.078540   -0.297389
     10          1           0       -1.701211   -3.050020   -0.209986
     11          1           0        3.834280   -1.315461    0.058745
     12          1           0        3.897740    0.993757   -0.400833
     13          1           0        2.850910    1.539479    0.948485
     14          1           0        2.325300    1.836999   -0.687340
     15          1           0        2.282740   -2.325351    0.045291
     16          7           0       -1.798769    2.402070   -0.022098
     17          7           0       -0.028099   -1.254320    0.040122
     18          7           0       -2.168080   -2.182510    0.006357
     19          7           0       -2.009720    0.100565   -0.005842
     20          7           0        0.162934    1.156730    0.031332
 ---------------------------------------------------------------------

 SCF Done:  E(RHF) =  -507.152090172     A.U. after    2 cycles

 The electronic state is 1-A.
 Alpha  occ. eigenvalues --  -15.77984 -15.77577 -15.71752 -15.71674 -15.71552
 Alpha  occ. eigenvalues --  -11.51151 -11.50375 -11.48390 -11.40924 -11.37883
 Alpha  occ. eigenvalues --  -11.35723  -1.57945  -1.42757  -1.37901  -1.26170
 Alpha  occ. eigenvalues --   -1.24576  -1.18920  -0.99002  -0.94045  -0.90652
 Alpha  occ. eigenvalues --   -0.78421  -0.74315  -0.70083  -0.66968  -0.63654
 Alpha  occ. eigenvalues --   -0.61746  -0.60857  -0.57890  -0.56271  -0.55194
 Alpha  occ. eigenvalues --   -0.53613  -0.50940  -0.49109  -0.46416  -0.44834
 Alpha  occ. eigenvalues --   -0.36918  -0.35597  -0.35109  -0.32839  -0.31977
 Alpha virt. eigenvalues --    0.03574   0.04708   0.05242   0.05782   0.06092
 Alpha virt. eigenvalues --    0.06710   0.06996   0.07514   0.09034   0.09473
 Alpha virt. eigenvalues --    0.10013   0.11024   0.11429   0.12932   0.13492

 Mulliken charges:
               1
     1  C   -4.913572
     2  C    2.822473
     3  C   -4.130168
     4  C    4.563451
     5  C    4.373683
     6  C    4.800426
     7  H    0.691932
     8  H    0.705138
     9  H    0.687381
    10  H    0.627626
    11  H    1.767177
    12  H    1.203268
    13  H    1.136386
    14  H    1.136251
    15  H    1.686978
    16  N   -3.269707
    17  N   -3.721130
    18  N   -3.192086
    19  N   -3.142459
    20  N   -3.833049
 Sum of Mulliken charges =   0.00000

 Dipole moment (field-independent basis, Debye):
    X=             -1.7785    Y=              0.1588    Z=             -0.1891  Tot=              1.7956

 Test job not archived.
 1\1\GINC-SE060\SP\RHF\Aug-CC-pVDZ\C6H9N5\OHZDE\08-Apr-2025\0\\#t hf au
 g-cc-pvdz iop(5/13=1,5/36=2,99/5=2) pseudo=read geom=check guess=(read
 ,tcheck) scf=(maxcycle=1)\\title\\0,1\C,0,2.84533,1.11009,-0.0712061\C
 ,0,2.10715,-0.214692,-0.00963903\C,0,2.75982,-1.35373,0.0338448\C,0,0.
 616803,-0.11627,0.0330151\C,0,-1.37786,-1.07398,0.0273993\C,0,-1.19801
 ,1.18263,-0.0394966\H,0,-2.761,2.44901,0.276592\H,0,-1.22665,3.18811,0
 .0738361\H,0,-3.12937,-2.07854,-0.297389\H,0,-1.70121,-3.05002,-0.2099
 86\H,0,3.83428,-1.31546,0.0587452\H,0,3.89774,0.993758,-0.400833\H,0,2

 Normal termination of Gaussian 16 at Tue Apr  8 19:40:27 2025.
