 Gaussian 16, Revision C.01,

 ----------------------------------------------------------------------
 #t hf aug-cc-pvdz symm=none int=(grid=ultrafine) guess=(read,tcheck) s
 table=(opt,rrhf)
 ----------------------------------------------------------------------
 -----
 title
 -----
 Symbolic Z-matrix:
 Charge =  0 Multiplicity = 1

 SCF Done:  E(RHF) =  -456.192862640     A.U. after   12 cycles
 Normal termination of Gaussian 16 at Tue Apr  8 21:09:46 2025.
 Gaussian 16:  ES64L-G16RevC.01  3-Jul-2019

 ----------------------------------------------------------------------
 #t hf aug-cc-pvdz iop(5/13=1,5/36=2,99/5=2) pseudo=read geom=check gue
 ss=(read,tcheck) scf=(maxcycle=1)
 ----------------------------------------------------------------------
 -----
 title
 -----
 Structure from the checkpoint file:  "ANI1ccx_1844_conf677_mol1.chk"
 Charge =  0 Multiplicity = 1

                         Standard orientation:
 ---------------------------------------------------------------------
 Center     Atomic      Atomic             Coordinates (Angstroms)
 Number     Number       Type             X           Y           Z
 ---------------------------------------------------------------------
      1          1           0       -1.008932   -1.855540    1.664250
      2          1           0       -2.479190    0.658424   -0.328081
      3          1           0       -3.417441   -0.537323   -0.696872
      4          1           0        1.717870    1.195748    0.369092
      5          1           0        0.980781    1.798079    1.587760
      6          1           0       -0.447878    1.782320   -0.099977
      7          1           0       -1.705562   -1.101199    0.433359
      8          1           0       -1.444709    2.876380   -0.562318
      9          1           0        1.731767   -2.688802   -0.084948
     10          1           0        0.280660   -1.834871   -0.089785
     11          1           0        2.219649   -0.557331   -0.731714
     12          1           0        3.685749    0.476427   -0.633711
     13          8           0        1.220961    1.983788    0.672387
     14          8           0        1.071918   -1.991452   -0.737530
     15          8           0       -2.830261   -0.182992    0.013299
     16          8           0       -1.286359    1.951640   -0.698276
     17          8           0       -1.028002   -1.812580    0.695307
     18          8           0        2.837649    0.025056   -0.048569
 ---------------------------------------------------------------------

 SCF Done:  E(RHF) =  -458.204522162     A.U. after    2 cycles

 The electronic state is 1-A.
 Alpha  occ. eigenvalues --  -21.09932 -21.08422 -21.07804 -21.06950 -21.06799
 Alpha  occ. eigenvalues --  -21.04587  -1.70355  -1.66817  -1.65335  -1.63929
 Alpha  occ. eigenvalues --   -1.60055  -1.56934  -0.66338  -0.65776  -0.63850
 Alpha  occ. eigenvalues --   -0.61924  -0.61852  -0.58730  -0.51423  -0.49164
 Alpha  occ. eigenvalues --   -0.47919  -0.44388  -0.42358  -0.40336  -0.35708
 Alpha  occ. eigenvalues --   -0.35323  -0.34287  -0.33549  -0.32508  -0.30810
 Alpha virt. eigenvalues --    0.03754   0.04854   0.05056   0.05318   0.06097
 Alpha virt. eigenvalues --    0.07160   0.08612   0.08813   0.09882   0.10893
 Alpha virt. eigenvalues --    0.11240   0.11739   0.18062   0.19166   0.19770

 Mulliken charges:
               1
     1  H    0.839263
     2  H    1.328127
     3  H    0.785283
     4  H    1.783183
     5  H    0.786563
     6  H    1.400947
     7  H    1.908202
     8  H    0.884449
     9  H    0.580802
    10  H    1.947992
    11  H    1.145603
    12  H    0.753875
    13  O   -2.367244
    14  O   -2.084070
    15  O   -2.426405
    16  O   -2.384226
    17  O   -2.757765
    18  O   -2.124579
 Sum of Mulliken charges =   0.00000

 Dipole moment (field-independent basis, Debye):
    X=             -1.0676    Y=              0.6875    Z=              0.6106  Tot=              1.4090

 Test job not archived.
 1\1\GINC-SE072\SP\RHF\Aug-CC-pVDZ\H12O6\OHZDE\08-Apr-2025\0\\#t hf aug
 -cc-pvdz iop(5/13=1,5/36=2,99/5=2) pseudo=read geom=check guess=(read,
 tcheck) scf=(maxcycle=1)\\title\\0,1\H,0,-1.00893,-1.85554,1.66425\H,0
 ,-2.47919,0.658423,-0.328081\H,0,-3.41744,-0.537325,-0.696872\H,0,1.71
 787,1.19575,0.369092\H,0,0.98078,1.79808,1.58776\H,0,-0.447879,1.78232
 ,-0.0999767\H,0,-1.70556,-1.1012,0.433359\H,0,-1.44471,2.87638,-0.5623
 18\H,0,1.73177,-2.6888,-0.0849477\H,0,0.280662,-1.83487,-0.0897847\H,0
 ,2.21965,-0.557329,-0.731714\H,0,3.68575,0.476431,-0.633711\O,0,1.2209

 Normal termination of Gaussian 16 at Tue Apr  8 21:09:50 2025.
