 Gaussian 16, Revision C.01,

 ----------------------------------------------------------------------
 #t hf aug-cc-pvdz symm=none int=(grid=ultrafine) guess=(read,tcheck) s
 table=(opt,rrhf)
 ----------------------------------------------------------------------
 -----
 title
 -----
 Symbolic Z-matrix:
 Charge =  0 Multiplicity = 1

 SCF Done:  E(RHF) =  -353.813989110     A.U. after   13 cycles
 Normal termination of Gaussian 16 at Tue Apr  8 21:39:49 2025.
 Gaussian 16:  ES64L-G16RevC.01  3-Jul-2019

 ----------------------------------------------------------------------
 #t hf aug-cc-pvdz iop(5/13=1,5/36=2,99/5=2) pseudo=read geom=check gue
 ss=(read,tcheck) scf=(maxcycle=1)
 ----------------------------------------------------------------------
 -----
 title
 -----
 Structure from the checkpoint file:  "ANI1ccx_418_conf5_mol1.chk"
 Charge =  0 Multiplicity = 1

                         Standard orientation:
 ---------------------------------------------------------------------
 Center     Atomic      Atomic             Coordinates (Angstroms)
 Number     Number       Type             X           Y           Z
 ---------------------------------------------------------------------
      1          6           0        0.037170    0.511753   -0.037862
      2          1           0        2.504130   -0.059582   -0.604184
      3          1           0        2.180380   -0.417784    1.070350
      4          1           0        0.171375   -1.550250   -0.149769
      5          1           0       -1.889140    1.165189    0.315119
      6          1           0       -2.327269   -1.110771   -0.579213
      7          7           0        2.053971   -0.829590    0.090255
      8          7           0        0.669371   -0.657567   -0.241501
      9          7           0       -1.343530    0.430315   -0.183137
     10          8           0        0.579033    1.608130    0.067578
     11          8           0       -1.894179   -0.820559    0.246865
 ---------------------------------------------------------------------

 SCF Done:  E(RHF) =  -355.338395788     A.U. after    2 cycles

 The electronic state is 1-A.
 Alpha  occ. eigenvalues --  -21.12645 -21.02898 -15.80230 -15.78146 -15.77672
 Alpha  occ. eigenvalues --  -11.50522  -1.81227  -1.70946  -1.47394  -1.25956
 Alpha  occ. eigenvalues --   -1.12119  -0.83556  -0.73294  -0.68855  -0.64927
 Alpha  occ. eigenvalues --   -0.62961  -0.57767  -0.51928  -0.49009  -0.42783
 Alpha  occ. eigenvalues --   -0.38626  -0.36361  -0.31910  -0.30293
 Alpha virt. eigenvalues --    0.03784   0.05250   0.05657   0.06765   0.06868
 Alpha virt. eigenvalues --    0.11310   0.12228   0.12691   0.14696   0.15815
 Alpha virt. eigenvalues --    0.16478   0.17316   0.17700   0.18524   0.18896

 Mulliken charges:
               1
     1  C    5.659696
     2  H    0.534511
     3  H    0.579346
     4  H    0.897782
     5  H    0.628907
     6  H    0.765167
     7  N   -1.766294
     8  N   -1.716870
     9  N   -0.732991
    10  O   -2.799462
    11  O   -2.049794
 Sum of Mulliken charges =   0.00000

 Dipole moment (field-independent basis, Debye):
    X=             -1.4077    Y=             -1.4180    Z=              0.5050  Tot=              2.0609

 Test job not archived.
 1\1\GINC-SE088\SP\RHF\Aug-CC-pVDZ\C1H5N3O2\OHZDE\08-Apr-2025\0\\#t hf
 aug-cc-pvdz iop(5/13=1,5/36=2,99/5=2) pseudo=read geom=check guess=(re
 ad,tcheck) scf=(maxcycle=1)\\title\\0,1\C,0,0.0371697,0.511753,-0.0378
 617\H,0,2.50413,-0.0595826,-0.604184\H,0,2.18038,-0.417785,1.07035\H,0
 ,0.171374,-1.55025,-0.149769\H,0,-1.88914,1.16519,0.315119\H,0,-2.3272
 7,-1.11077,-0.579213\N,0,2.05397,-0.82959,0.0902548\N,0,0.66937,-0.657
 567,-0.241501\N,0,-1.34353,0.430316,-0.183137\O,0,0.579033,1.60813,0.0
 67578\O,0,-1.89418,-0.820558,0.246865\\Version=ES64L-G16RevC.01\State=

 Normal termination of Gaussian 16 at Tue Apr  8 21:39:53 2025.
