 Gaussian 16, Revision C.01,

 ----------------------------------------------------------------------
 #t hf aug-cc-pvdz symm=none int=(grid=ultrafine) guess=(read,tcheck) s
 table=(opt,rrhf)
 ----------------------------------------------------------------------
 -----
 title
 -----
 Symbolic Z-matrix:
 Charge =  0 Multiplicity = 1

 SCF Done:  E(RHF) =  -509.534303763     A.U. after   14 cycles
 Normal termination of Gaussian 16 at Tue Apr  8 22:14:02 2025.
 Gaussian 16:  ES64L-G16RevC.01  3-Jul-2019

 ----------------------------------------------------------------------
 #t hf aug-cc-pvdz iop(5/13=1,5/36=2,99/5=2) pseudo=read geom=check gue
 ss=(read,tcheck) scf=(maxcycle=1)
 ----------------------------------------------------------------------
 -----
 title
 -----
 Structure from the checkpoint file:  "ANI1ccx_939_conf48_mol1.chk"
 Charge =  0 Multiplicity = 1

                         Standard orientation:
 ---------------------------------------------------------------------
 Center     Atomic      Atomic             Coordinates (Angstroms)
 Number     Number       Type             X           Y           Z
 ---------------------------------------------------------------------
      1          6           0       -0.769315    0.549381   -0.758924
      2          6           0       -1.425080   -0.496832    0.081710
      3          6           0        0.685313    0.270766   -1.077290
      4          6           0        1.668310   -0.033811    0.058393
      5          1           0       -0.737871    2.646660   -0.549001
      6          1           0       -1.903559    1.882711    0.127440
      7          1           0       -1.372850    0.630771   -1.682400
      8          1           0        0.843033   -0.600861   -1.650880
      9          1           0        1.191070    1.117599   -1.550340
     10          1           0        2.120480    0.115312    1.796790
     11          1           0       -1.530661   -2.408010    0.106632
     12          7           0       -0.885862    1.799810   -0.056937
     13          8           0       -2.279870   -0.332757    0.924391
     14          8           0        2.619070   -0.798676   -0.076709
     15          8           0        1.461860    0.645418    1.195080
     16          8           0       -0.971556   -1.728970   -0.295638
 ---------------------------------------------------------------------

 SCF Done:  E(RHF) =  -511.721637274     A.U. after    2 cycles

 The electronic state is 1-A.
 Alpha  occ. eigenvalues --  -21.13440 -21.11969 -21.07080 -21.05046 -15.73999
 Alpha  occ. eigenvalues --  -11.55140 -11.53548 -11.48146 -11.41822  -1.83886
 Alpha  occ. eigenvalues --   -1.82222  -1.66890  -1.63928  -1.38251  -1.15298
 Alpha  occ. eigenvalues --   -1.01230  -0.82659  -0.77187  -0.69868  -0.69403
 Alpha  occ. eigenvalues --   -0.66114  -0.61394  -0.60353  -0.56951  -0.56493
 Alpha  occ. eigenvalues --   -0.53088  -0.51649  -0.50451  -0.45539  -0.45117
 Alpha  occ. eigenvalues --   -0.37040  -0.35428  -0.33111  -0.31258  -0.29775
 Alpha virt. eigenvalues --    0.03169   0.04418   0.05327   0.05517   0.06036
 Alpha virt. eigenvalues --    0.06811   0.07731   0.10064   0.10555   0.11481
 Alpha virt. eigenvalues --    0.12112   0.13018   0.13465   0.14064   0.14758

 Mulliken charges:
               1
     1  C   -2.044280
     2  C    6.546439
     3  C   -3.022278
     4  C    5.890085
     5  H    0.653734
     6  H    0.565447
     7  H    1.735976
     8  H    1.275660
     9  H    1.380123
    10  H    0.728050
    11  H    0.911893
    12  N   -2.601859
    13  O   -3.125640
    14  O   -2.997891
    15  O   -2.838597
    16  O   -3.056861
 Sum of Mulliken charges =  -0.00000

 Dipole moment (field-independent basis, Debye):
    X=             -1.2848    Y=              0.7615    Z=             -1.1551  Tot=              1.8880

 Test job not archived.
 1\1\GINC-SE343\SP\RHF\Aug-CC-pVDZ\C4H7N1O4\OHZDE\08-Apr-2025\0\\#t hf
 aug-cc-pvdz iop(5/13=1,5/36=2,99/5=2) pseudo=read geom=check guess=(re
 ad,tcheck) scf=(maxcycle=1)\\title\\0,1\C,0,-0.769315,0.549381,-0.7589
 24\C,0,-1.42508,-0.496832,0.0817106\C,0,0.685313,0.270767,-1.07729\C,0
 ,1.66831,-0.0338101,0.0583928\H,0,-0.737872,2.64666,-0.549001\H,0,-1.9
 0356,1.88271,0.12744\H,0,-1.37285,0.630771,-1.6824\H,0,0.843033,-0.600
 86,-1.65088\H,0,1.19107,1.1176,-1.55034\H,0,2.12048,0.115313,1.79679\H
 ,0,-1.53066,-2.40801,0.106632\N,0,-0.885863,1.79981,-0.0569367\O,0,-2.

 Normal termination of Gaussian 16 at Tue Apr  8 22:14:09 2025.
