 Gaussian 16, Revision C.01,

 ----------------------------------------------------------------------
 #t hf aug-cc-pvdz symm=none int=(grid=ultrafine) guess=(read,tcheck) s
 table=(opt,rrhf)
 ----------------------------------------------------------------------
 -----
 title
 -----
 Symbolic Z-matrix:
 Charge =  0 Multiplicity = 1

 SCF Done:  E(RHF) =  -456.239806591     A.U. after   11 cycles
 Normal termination of Gaussian 16 at Tue Apr  8 21:08:43 2025.
 Gaussian 16:  ES64L-G16RevC.01  3-Jul-2019

 ----------------------------------------------------------------------
 #t hf aug-cc-pvdz iop(5/13=1,5/36=2,99/5=2) pseudo=read geom=check gue
 ss=(read,tcheck) scf=(maxcycle=1)
 ----------------------------------------------------------------------
 -----
 title
 -----
 Structure from the checkpoint file:  "ANI1ccx_1844_conf316_mol1.chk"
 Charge =  0 Multiplicity = 1

                         Standard orientation:
 ---------------------------------------------------------------------
 Center     Atomic      Atomic             Coordinates (Angstroms)
 Number     Number       Type             X           Y           Z
 ---------------------------------------------------------------------
      1          1           0       -1.040743    1.763437    1.566390
      2          1           0        1.483337    1.506272   -0.503249
      3          1           0        1.157205    3.091661   -0.439357
      4          1           0        0.696275   -2.114230    0.057140
      5          1           0        1.187073   -1.839139    1.534030
      6          1           0        2.336031   -0.577833    0.290450
      7          1           0       -0.748601    1.922948    0.081413
      8          1           0        3.079969    0.209300   -0.953907
      9          1           0       -2.990610    0.054995   -0.927171
     10          1           0       -2.283491    0.400437    0.479247
     11          1           0       -1.506848   -1.321383   -0.366498
     12          1           0       -1.431865   -2.873973   -0.856888
     13          8           0        1.507393   -2.011268    0.618746
     14          8           0       -2.728460   -0.373698    0.012070
     15          8           0        0.817409    2.206071   -0.676994
     16          8           0        2.752159    0.315020    0.036602
     17          8           0       -1.493583    1.852407    0.694626
     18          8           0       -0.847135   -2.016342   -0.680250
 ---------------------------------------------------------------------

 SCF Done:  E(RHF) =  -458.239265283     A.U. after    2 cycles

 The electronic state is 1-A.
 Alpha  occ. eigenvalues --  -21.09523 -21.08759 -21.07829 -21.07712 -21.06738
 Alpha  occ. eigenvalues --  -21.06336  -1.69333  -1.66903  -1.66329  -1.64230
 Alpha  occ. eigenvalues --   -1.61632  -1.60725  -0.65581  -0.64619  -0.64379
 Alpha  occ. eigenvalues --   -0.62852  -0.62002  -0.61596  -0.52873  -0.50673
 Alpha  occ. eigenvalues --   -0.48800  -0.45080  -0.44160  -0.41693  -0.35601
 Alpha  occ. eigenvalues --   -0.34733  -0.34092  -0.33898  -0.33051  -0.32484
 Alpha virt. eigenvalues --    0.03684   0.04718   0.05204   0.05526   0.06423
 Alpha virt. eigenvalues --    0.06837   0.08200   0.08630   0.09523   0.09876
 Alpha virt. eigenvalues --    0.10897   0.11169   0.18208   0.18871   0.19812

 Mulliken charges:
               1
     1  H    0.888533
     2  H    1.525074
     3  H    0.832285
     4  H    1.560363
     5  H    0.836439
     6  H    1.566066
     7  H    1.519209
     8  H    0.740064
     9  H    0.658549
    10  H    1.592497
    11  H    1.837043
    12  H    0.755385
    13  O   -2.454887
    14  O   -2.414731
    15  O   -2.401168
    16  O   -2.156463
    17  O   -2.451471
    18  O   -2.432786
 Sum of Mulliken charges =  -0.00000

 Dipole moment (field-independent basis, Debye):
    X=             -0.3246    Y=              0.5790    Z=              0.3503  Tot=              0.7506

 Test job not archived.
 1\1\GINC-SE329\SP\RHF\Aug-CC-pVDZ\H12O6\OHZDE\08-Apr-2025\0\\#t hf aug
 -cc-pvdz iop(5/13=1,5/36=2,99/5=2) pseudo=read geom=check guess=(read,
 tcheck) scf=(maxcycle=1)\\title\\0,1\H,0,-1.04074,1.76344,1.56639\H,0,
 1.48334,1.50627,-0.503249\H,0,1.15721,3.09166,-0.439357\H,0,0.696272,-
 2.11423,0.0571396\H,0,1.18707,-1.83914,1.53403\H,0,2.33603,-0.577836,0
 .29045\H,0,-0.748598,1.92295,0.081413\H,0,3.07997,0.209296,-0.953907\H
 ,0,-2.99061,0.0550007,-0.927171\H,0,-2.28349,0.400442,0.479247\H,0,-1.
 50685,-1.32138,-0.366498\H,0,-1.43187,-2.87397,-0.856888\O,0,1.50739,-

 Normal termination of Gaussian 16 at Tue Apr  8 21:08:48 2025.
