 Gaussian 16, Revision C.01,

 ----------------------------------------------------------------------
 #t hf aug-cc-pvdz symm=none int=(grid=ultrafine) guess=(read,tcheck) s
 table=(opt,rrhf)
 ----------------------------------------------------------------------
 -----
 title
 -----
 Symbolic Z-matrix:
 Charge =  0 Multiplicity = 1

 SCF Done:  E(RHF) =  -563.414616473     A.U. after   15 cycles
 Normal termination of Gaussian 16 at Tue Apr  8 22:11:47 2025.
 Gaussian 16:  ES64L-G16RevC.01  3-Jul-2019

 ----------------------------------------------------------------------
 #t hf aug-cc-pvdz iop(5/13=1,5/36=2,99/5=2) pseudo=read geom=check gue
 ss=(read,tcheck) scf=(maxcycle=1)
 ----------------------------------------------------------------------
 -----
 title
 -----
 Structure from the checkpoint file:  "ANI1ccx_918_conf4_mol1.chk"
 Charge =  0 Multiplicity = 1

                         Standard orientation:
 ---------------------------------------------------------------------
 Center     Atomic      Atomic             Coordinates (Angstroms)
 Number     Number       Type             X           Y           Z
 ---------------------------------------------------------------------
      1          6           0        1.132969   -0.126503   -0.009603
      2          6           0       -1.014561   -1.186420   -0.078723
      3          6           0       -1.529741    0.087043    0.441697
      4          6           0       -0.811647    1.317970   -0.041289
      5          1           0        3.156879   -0.181388   -0.192198
      6          1           0        2.390659    0.489117   -1.535530
      7          1           0        1.706839    0.729372    1.755650
      8          1           0        0.714774   -0.575983    1.944880
      9          1           0       -2.583301    0.166744    0.191264
     10          1           0       -1.435701    0.124123    1.529320
     11          7           0        2.329009   -0.159125   -0.767160
     12          7           0        1.467089   -0.192196    1.403710
     13          8           0        0.351062   -1.217270   -0.371148
     14          8           0       -1.689741   -2.148050   -0.293216
     15          8           0       -1.330850    2.406260   -0.245925
     16          8           0        0.521410    1.103400   -0.342426
 ---------------------------------------------------------------------

 SCF Done:  E(RHF) =  -565.819177166     A.U. after    2 cycles

 The electronic state is 1-A.
 Alpha  occ. eigenvalues --  -21.12024 -21.11881 -21.08733 -21.08547 -15.77785
 Alpha  occ. eigenvalues --  -15.75491 -11.56912 -11.56742 -11.54791 -11.46448
 Alpha  occ. eigenvalues --   -1.94030  -1.82253  -1.72403  -1.67765  -1.39519
 Alpha  occ. eigenvalues --   -1.29218  -1.21151  -0.95829  -0.89237  -0.77155
 Alpha  occ. eigenvalues --   -0.74798  -0.73506  -0.72648  -0.66292  -0.65481
 Alpha  occ. eigenvalues --   -0.61766  -0.56439  -0.55233  -0.53817  -0.51924
 Alpha  occ. eigenvalues --   -0.49348  -0.45540  -0.42738  -0.38922  -0.34892
 Alpha  occ. eigenvalues --   -0.34240  -0.33467  -0.30174
 Alpha virt. eigenvalues --    0.02560   0.04249   0.04538   0.05966   0.06123
 Alpha virt. eigenvalues --    0.07346   0.09520   0.10158   0.10824   0.11112
 Alpha virt. eigenvalues --    0.11711   0.12644   0.12685   0.13691   0.13813

 Mulliken charges:
               1
     1  C    8.597046
     2  C    5.437834
     3  C   -3.653434
     4  C    5.258890
     5  H    0.602703
     6  H    0.567572
     7  H    0.449884
     8  H    0.549344
     9  H    1.100814
    10  H    1.331711
    11  N   -3.134004
    12  N   -2.954029
    13  O   -3.663423
    14  O   -3.432714
    15  O   -3.350000
    16  O   -3.708195
 Sum of Mulliken charges =  -0.00000

 Dipole moment (field-independent basis, Debye):
    X=              1.7524    Y=              1.0477    Z=              1.3746  Tot=              2.4613

 Test job not archived.
 1\1\GINC-SE187\SP\RHF\Aug-CC-pVDZ\C4H6N2O4\OHZDE\08-Apr-2025\0\\#t hf
 aug-cc-pvdz iop(5/13=1,5/36=2,99/5=2) pseudo=read geom=check guess=(re
 ad,tcheck) scf=(maxcycle=1)\\title\\0,1\C,0,1.13297,-0.126503,-0.00960
 334\C,0,-1.01456,-1.18642,-0.0787225\C,0,-1.52974,0.0870429,0.441697\C
 ,0,-0.811647,1.31797,-0.0412888\H,0,3.15688,-0.181387,-0.192198\H,0,2.
 39066,0.489118,-1.53553\H,0,1.70684,0.729373,1.75565\H,0,0.714775,-0.5
 75983,1.94488\H,0,-2.5833,0.166743,0.191264\H,0,-1.4357,0.124123,1.529
 32\N,0,2.32901,-0.159124,-0.76716\N,0,1.46709,-0.192196,1.40371\O,0,0.

 Normal termination of Gaussian 16 at Tue Apr  8 22:11:55 2025.
