 Gaussian 16, Revision C.01,

 ----------------------------------------------------------------------
 #t hf aug-cc-pvdz symm=none int=(grid=ultrafine) guess=(read,tcheck) s
 table=(opt,rrhf)
 ----------------------------------------------------------------------
 -----
 title
 -----
 Symbolic Z-matrix:
 Charge =  0 Multiplicity = 1

 SCF Done:  E(RHF) =  -453.325356917     A.U. after   15 cycles
 Normal termination of Gaussian 16 at Tue Apr  8 22:08:52 2025.
 Gaussian 16:  ES64L-G16RevC.01  3-Jul-2019

 ----------------------------------------------------------------------
 #t hf aug-cc-pvdz iop(5/13=1,5/36=2,99/5=2) pseudo=read geom=check gue
 ss=(read,tcheck) scf=(maxcycle=1)
 ----------------------------------------------------------------------
 -----
 title
 -----
 Structure from the checkpoint file:  "ANI1ccx_892_conf4_mol2.chk"
 Charge =  0 Multiplicity = 1

                         Standard orientation:
 ---------------------------------------------------------------------
 Center     Atomic      Atomic             Coordinates (Angstroms)
 Number     Number       Type             X           Y           Z
 ---------------------------------------------------------------------
      1          6           0       -1.758690    0.015084   -0.007493
      2          6           0       -0.661189   -1.072920    0.076395
      3          6           0        0.667445   -1.110110    0.017911
      4          6           0        1.717320   -0.083311   -0.022202
      5          1           0       -0.471561    1.443640    0.039326
      6          1           0       -1.141100   -2.041210    0.111243
      7          1           0        1.107980   -2.105960    0.024607
      8          1           0        2.013440    1.800780   -0.030753
      9          8           0       -1.433830    1.307760    0.084140
     10          8           0       -2.897130   -0.379609   -0.098182
     11          8           0        1.261430    1.202950   -0.035779
     12          8           0        2.907270   -0.329816   -0.016691
 ---------------------------------------------------------------------

 SCF Done:  E(RHF) =  -455.214808961     A.U. after    2 cycles

 The electronic state is 1-A.
 Alpha  occ. eigenvalues --  -21.16847 -21.12812 -21.09348 -21.06602 -11.58558
 Alpha  occ. eigenvalues --  -11.55052 -11.49444 -11.45170  -1.87541  -1.82928
 Alpha  occ. eigenvalues --   -1.69286  -1.66776  -1.22925  -1.00368  -0.86816
 Alpha  occ. eigenvalues --   -0.78764  -0.72395  -0.68871  -0.62974  -0.60763
 Alpha  occ. eigenvalues --   -0.58433  -0.56633  -0.53644  -0.51803  -0.43783
 Alpha  occ. eigenvalues --   -0.41965  -0.37229  -0.34245  -0.33868  -0.31693
 Alpha virt. eigenvalues --    0.02518   0.04927   0.06193   0.06454   0.07154
 Alpha virt. eigenvalues --    0.09194   0.10449   0.10630   0.11343   0.12114
 Alpha virt. eigenvalues --    0.12546   0.13116   0.13388   0.14743   0.15257

 Mulliken charges:
               1
     1  C    4.168359
     2  C   -0.618072
     3  C   -0.800033
     4  C    5.019483
     5  H    1.502207
     6  H    1.151003
     7  H    1.141423
     8  H    1.046387
     9  O   -3.225461
    10  O   -3.004828
    11  O   -3.288732
    12  O   -3.091737
 Sum of Mulliken charges =  -0.00000

 Dipole moment (field-independent basis, Debye):
    X=              1.9173    Y=              0.7015    Z=              0.0984  Tot=              2.0440

 Test job not archived.
 1\1\GINC-SE226\SP\RHF\Aug-CC-pVDZ\C4H4O4\OHZDE\08-Apr-2025\0\\#t hf au
 g-cc-pvdz iop(5/13=1,5/36=2,99/5=2) pseudo=read geom=check guess=(read
 ,tcheck) scf=(maxcycle=1)\\title\\0,1\C,0,-1.75869,0.0150837,-0.007493
 43\C,0,-0.661189,-1.07292,0.0763954\C,0,0.667445,-1.11011,0.0179106\C,
 0,1.71732,-0.0833116,-0.0222016\H,0,-0.471561,1.44364,0.0393265\H,0,-1
 .1411,-2.04121,0.111243\H,0,1.10798,-2.10596,0.0246067\H,0,2.01344,1.8
 0078,-0.030753\O,0,-1.43383,1.30776,0.08414\O,0,-2.89713,-0.379609,-0.
 0981819\O,0,1.26143,1.20295,-0.0357785\O,0,2.90727,-0.329816,-0.016690

 Normal termination of Gaussian 16 at Tue Apr  8 22:08:57 2025.
