 Gaussian 16, Revision C.01,

 ----------------------------------------------------------------------
 #t hf aug-cc-pvdz symm=none int=(grid=ultrafine) guess=(read,tcheck) s
 table=(opt,rrhf)
 ----------------------------------------------------------------------
 -----
 title
 -----
 Symbolic Z-matrix:
 Charge =  0 Multiplicity = 1

 SCF Done:  E(RHF) =  -548.576562459     A.U. after   14 cycles
 Normal termination of Gaussian 16 at Tue Apr  8 19:24:25 2025.
 Gaussian 16:  ES64L-G16RevC.01  3-Jul-2019

 ----------------------------------------------------------------------
 #t hf aug-cc-pvdz iop(5/13=1,5/36=2,99/5=2) pseudo=read geom=check gue
 ss=(read,tcheck) scf=(maxcycle=1)
 ----------------------------------------------------------------------
 -----
 title
 -----
 Structure from the checkpoint file:  "ANI1ccx_1168_conf26_mol1.chk"
 Charge =  0 Multiplicity = 1

                         Standard orientation:
 ---------------------------------------------------------------------
 Center     Atomic      Atomic             Coordinates (Angstroms)
 Number     Number       Type             X           Y           Z
 ---------------------------------------------------------------------
      1          6           0        1.281850    0.794319    0.257250
      2          6           0        1.682651   -0.673991    0.098315
      3          6           0       -0.178406    1.026460   -0.240429
      4          6           0       -1.315680    0.596325    0.758486
      5          6           0       -2.445979   -0.060979    0.019992
      6          1           0        3.138661   -1.927819   -0.194016
      7          1           0       -0.844447   -0.080450    1.452970
      8          1           0       -1.803190    1.387029    1.339490
      9          1           0       -0.377573    2.121340   -0.498981
     10          1           0       -1.204429   -1.472601   -0.116416
     11          1           0        3.068950    1.689931    0.267725
     12          1           0        2.331130    1.513981   -1.318010
     13          1           0        1.251740    1.013250    1.339920
     14          1           0       -0.342111    0.562695   -1.198090
     15          7           0        2.214520    1.682111   -0.306917
     16          8           0       -3.554460    0.385457   -0.241599
     17          8           0        0.815314   -1.486540    0.331532
     18          8           0       -2.082579   -1.259721   -0.438535
     19          8           0        2.963351   -0.973563   -0.187379
 ---------------------------------------------------------------------

 SCF Done:  E(RHF) =  -550.959203031     A.U. after    2 cycles

 The electronic state is 1-A.
 Alpha  occ. eigenvalues --  -21.16159 -21.10127 -21.07885 -21.03388 -15.75372
 Alpha  occ. eigenvalues --  -11.56503 -11.51995 -11.48599 -11.44099 -11.40019
 Alpha  occ. eigenvalues --   -1.85882  -1.81359  -1.69497  -1.63004  -1.39196
 Alpha  occ. eigenvalues --   -1.19373  -1.04524  -0.94258  -0.83049  -0.78520
 Alpha  occ. eigenvalues --   -0.72247  -0.69023  -0.68249  -0.64317  -0.62596
 Alpha  occ. eigenvalues --   -0.60585  -0.57024  -0.56400  -0.52326  -0.49927
 Alpha  occ. eigenvalues --   -0.49143  -0.47500  -0.46106  -0.42311  -0.40150
 Alpha  occ. eigenvalues --   -0.37206  -0.31799  -0.30728  -0.28105
 Alpha virt. eigenvalues --    0.02906   0.04162   0.04559   0.04815   0.05861
 Alpha virt. eigenvalues --    0.06359   0.06865   0.07612   0.08383   0.10327
 Alpha virt. eigenvalues --    0.10775   0.11182   0.11366   0.12565   0.13538

 Mulliken charges:
               1
     1  C   -0.858099
     2  C    6.368917
     3  C   -2.572209
     4  C   -3.817819
     5  C    6.156175
     6  H    0.915328
     7  H    1.920712
     8  H    0.954839
     9  H    1.178846
    10  H    1.479765
    11  H    0.518053
    12  H    0.589360
    13  H    1.804414
    14  H    1.649921
    15  N   -3.221092
    16  O   -3.343968
    17  O   -3.043473
    18  O   -3.424761
    19  O   -3.254907
 Sum of Mulliken charges =   0.00000

 Dipole moment (field-independent basis, Debye):
    X=              5.4370    Y=             -0.4266    Z=              0.4345  Tot=              5.4710

 Test job not archived.
 1\1\GINC-SE458\SP\RHF\Aug-CC-pVDZ\C5H9N1O4\OHZDE\08-Apr-2025\0\\#t hf
 aug-cc-pvdz iop(5/13=1,5/36=2,99/5=2) pseudo=read geom=check guess=(re
 ad,tcheck) scf=(maxcycle=1)\\title\\0,1\C,0,1.28185,0.794319,0.25725\C
 ,0,1.68265,-0.673991,0.0983149\C,0,-0.178406,1.02646,-0.240429\C,0,-1.
 31568,0.596326,0.758486\C,0,-2.44598,-0.0609782,0.019992\H,0,3.13866,-
 1.92782,-0.194016\H,0,-0.844448,-0.0804491,1.45297\H,0,-1.80319,1.3870
 3,1.33949\H,0,-0.377573,2.12134,-0.498981\H,0,-1.20443,-1.4726,-0.1164
 16\H,0,3.06895,1.68993,0.267725\H,0,2.33113,1.51398,-1.31801\H,0,1.251

 Normal termination of Gaussian 16 at Tue Apr  8 19:24:35 2025.
