 Gaussian 16, Revision C.01,

 ----------------------------------------------------------------------
 #t hf aug-cc-pvdz symm=none int=(grid=ultrafine) guess=(read,tcheck) s
 table=(opt,rrhf)
 ----------------------------------------------------------------------
 -----
 title
 -----
 Symbolic Z-matrix:
 Charge =  0 Multiplicity = 1

 SCF Done:  E(RHF) =  -377.583897863     A.U. after   13 cycles
 Normal termination of Gaussian 16 at Tue Apr  8 21:46:52 2025.
 Gaussian 16:  ES64L-G16RevC.01  3-Jul-2019

 ----------------------------------------------------------------------
 #t hf aug-cc-pvdz iop(5/13=1,5/36=2,99/5=2) pseudo=read geom=check gue
 ss=(read,tcheck) scf=(maxcycle=1)
 ----------------------------------------------------------------------
 -----
 title
 -----
 Structure from the checkpoint file:  "ANI1ccx_529_conf1_mol2.chk"
 Charge =  0 Multiplicity = 1

                         Standard orientation:
 ---------------------------------------------------------------------
 Center     Atomic      Atomic             Coordinates (Angstroms)
 Number     Number       Type             X           Y           Z
 ---------------------------------------------------------------------
      1          6           0        1.789850    0.108902    0.197547
      2          6           0       -1.746630    0.140216    0.268030
      3          1           0        3.480001    0.810569   -0.341403
      4          1           0        1.609001    1.144930    0.521728
      5          1           0       -2.642830   -1.538369    0.010681
      6          1           0       -1.217280   -0.377561    1.090990
      7          8           0        2.983780   -0.025441   -0.379193
      8          8           0        0.985082   -0.772703    0.320022
      9          8           0       -2.585560   -0.666803   -0.402088
     10          8           0       -1.569329    1.273161   -0.048174
 ---------------------------------------------------------------------

 SCF Done:  E(RHF) =  -379.129389356     A.U. after    2 cycles

 The electronic state is 1-A.
 Alpha  occ. eigenvalues --  -21.14926 -21.12306 -21.07333 -21.05113 -11.52684
 Alpha  occ. eigenvalues --  -11.50437  -1.84107  -1.81781  -1.67749  -1.65249
 Alpha  occ. eigenvalues --   -0.88006  -0.85424  -0.75041  -0.72237  -0.56328
 Alpha  occ. eigenvalues --   -0.55684  -0.53530  -0.53000  -0.49112  -0.46587
 Alpha  occ. eigenvalues --   -0.35798  -0.33918  -0.32657  -0.30120
 Alpha virt. eigenvalues --    0.02793   0.04687   0.05969   0.06358   0.10479
 Alpha virt. eigenvalues --    0.11118   0.11657   0.13139   0.14334   0.14772
 Alpha virt. eigenvalues --    0.15761   0.15823   0.17252   0.18815   0.20440

 Mulliken charges:
               1
     1  C    2.551640
     2  C    2.451550
     3  H    0.971372
     4  H    1.536326
     5  H    0.979219
     6  H    1.553807
     7  O   -2.495599
     8  O   -2.537092
     9  O   -2.471067
    10  O   -2.540156
 Sum of Mulliken charges =  -0.00000

 Dipole moment (field-independent basis, Debye):
    X=              1.6764    Y=             -0.3452    Z=              0.7239  Tot=              1.8584

 Test job not archived.
 1\1\GINC-SE049\SP\RHF\Aug-CC-pVDZ\C2H4O4\OHZDE\08-Apr-2025\0\\#t hf au
 g-cc-pvdz iop(5/13=1,5/36=2,99/5=2) pseudo=read geom=check guess=(read
 ,tcheck) scf=(maxcycle=1)\\title\\0,1\C,0,1.78985,0.108902,0.197547\C,
 0,-1.74663,0.140215,0.26803\H,0,3.48,0.810569,-0.341403\H,0,1.609,1.14
 493,0.521728\H,0,-2.64283,-1.53837,0.0106808\H,0,-1.21728,-0.377562,1.
 09099\O,0,2.98378,-0.0254407,-0.379193\O,0,0.985082,-0.772703,0.320022
 \O,0,-2.58556,-0.666804,-0.402088\O,0,-1.56933,1.27316,-0.0481736\\Ver
 sion=ES64L-G16RevC.01\State=1-A\HF=-379.1293894\RMSD=4.883e-02\Dipole=

 Normal termination of Gaussian 16 at Tue Apr  8 21:46:55 2025.
