 Gaussian 16, Revision C.01,

 ----------------------------------------------------------------------
 #t hf aug-cc-pvdz symm=none int=(grid=ultrafine) guess=(read,tcheck) s
 table=(opt,rrhf)
 ----------------------------------------------------------------------
 -----
 title
 -----
 Symbolic Z-matrix:
 Charge =  0 Multiplicity = 1

 SCF Done:  E(RHF) =  -429.701576298     A.U. after   13 cycles
 Normal termination of Gaussian 16 at Tue Apr  8 21:54:04 2025.
 Gaussian 16:  ES64L-G16RevC.01  3-Jul-2019

 ----------------------------------------------------------------------
 #t hf aug-cc-pvdz iop(5/13=1,5/36=2,99/5=2) pseudo=read geom=check gue
 ss=(read,tcheck) scf=(maxcycle=1)
 ----------------------------------------------------------------------
 -----
 title
 -----
 Structure from the checkpoint file:  "ANI1ccx_712_conf5_mol1.chk"
 Charge =  0 Multiplicity = 1

                         Standard orientation:
 ---------------------------------------------------------------------
 Center     Atomic      Atomic             Coordinates (Angstroms)
 Number     Number       Type             X           Y           Z
 ---------------------------------------------------------------------
      1          6           0       -1.252100   -0.392749   -0.023075
      2          6           0        0.011359    1.705889    0.202770
      3          6           0        1.230480   -0.436570   -0.011957
      4          1           0       -2.048706    1.441602   -0.110194
      5          1           0        0.033134    2.035419    1.237960
      6          1           0        0.043138    2.697249   -0.324224
      7          1           0        2.049333    1.399286   -0.526832
      8          1           0       -0.126543   -2.009951    0.303246
      9          7           0       -1.147817    0.964273   -0.155567
     10          7           0        1.202373    0.927436   -0.130234
     11          7           0       -0.031147   -1.022631    0.153454
     12          8           0       -2.286671   -1.042077   -0.058870
     13          8           0        2.280089   -1.071245   -0.023624
 ---------------------------------------------------------------------

 SCF Done:  E(RHF) =  -431.558388152     A.U. after    2 cycles

 The electronic state is 1-A.
 Alpha  occ. eigenvalues --  -21.04005 -21.03618 -15.79570 -15.78837 -15.78216
 Alpha  occ. eigenvalues --  -11.53859 -11.52462 -11.47252  -1.74481  -1.71895
 Alpha  occ. eigenvalues --   -1.51522  -1.36950  -1.33978  -1.02997  -0.92298
 Alpha  occ. eigenvalues --   -0.84225  -0.72283  -0.72110  -0.69012  -0.62270
 Alpha  occ. eigenvalues --   -0.61475  -0.59158  -0.54144  -0.52945  -0.49235
 Alpha  occ. eigenvalues --   -0.37761  -0.34388  -0.34106  -0.31434  -0.29635
 Alpha virt. eigenvalues --    0.02410   0.04679   0.04959   0.05623   0.06929
 Alpha virt. eigenvalues --    0.09249   0.10141   0.10828   0.11012   0.12457
 Alpha virt. eigenvalues --    0.13597   0.13637   0.14558   0.14969   0.15863

 Mulliken charges:
               1
     1  C    5.111319
     2  C   -1.507255
     3  C    5.026215
     4  H    0.562948
     5  H    1.499659
     6  H    1.468155
     7  H    0.601255
     8  H    0.503787
     9  N   -2.354111
    10  N   -2.347969
    11  N   -2.389005
    12  O   -3.102172
    13  O   -3.072824
 Sum of Mulliken charges =  -0.00000

 Dipole moment (field-independent basis, Debye):
    X=             -0.0983    Y=              3.6556    Z=              0.2605  Tot=              3.6662

 Test job not archived.
 1\1\GINC-SE049\SP\RHF\Aug-CC-pVDZ\C3H5N3O2\OHZDE\08-Apr-2025\0\\#t hf
 aug-cc-pvdz iop(5/13=1,5/36=2,99/5=2) pseudo=read geom=check guess=(re
 ad,tcheck) scf=(maxcycle=1)\\title\\0,1\C,0,-1.2521,-0.39275,-0.023075
 4\C,0,0.0113548,1.70589,0.20277\C,0,1.23048,-0.436567,-0.0119571\H,0,-
 2.04871,1.4416,-0.110194\H,0,0.033129,2.03542,1.23796\H,0,0.0431326,2.
 69725,-0.324224\H,0,2.04933,1.39929,-0.526832\H,0,-0.126541,-2.00995,0
 .303246\N,0,-1.14782,0.964272,-0.155567\N,0,1.20237,0.927439,-0.130234
 \N,0,-0.0311469,-1.02263,0.153454\O,0,-2.28667,-1.04208,-0.0588696\O,0

 Normal termination of Gaussian 16 at Tue Apr  8 21:54:09 2025.
