 Gaussian 16, Revision C.01,

 ----------------------------------------------------------------------
 #t hf aug-cc-pvdz symm=none int=(grid=ultrafine) guess=(read,tcheck) s
 table=(opt,rrhf)
 ----------------------------------------------------------------------
 -----
 title
 -----
 Symbolic Z-matrix:
 Charge =  0 Multiplicity = 1

 SCF Done:  E(RHF) =  -366.856173509     A.U. after   16 cycles
 Normal termination of Gaussian 16 at Tue Apr  8 21:38:53 2025.
 Gaussian 16:  ES64L-G16RevC.01  3-Jul-2019

 ----------------------------------------------------------------------
 #t hf aug-cc-pvdz iop(5/13=1,5/36=2,99/5=2) pseudo=read geom=check gue
 ss=(read,tcheck) scf=(maxcycle=1)
 ----------------------------------------------------------------------
 -----
 title
 -----
 Structure from the checkpoint file:  "ANI1ccx_404_conf20_mol2.chk"
 Charge =  0 Multiplicity = 1

                         Standard orientation:
 ---------------------------------------------------------------------
 Center     Atomic      Atomic             Coordinates (Angstroms)
 Number     Number       Type             X           Y           Z
 ---------------------------------------------------------------------
      1          6           0       -0.254023   -0.698673   -0.010612
      2          1           0       -2.231687   -0.891162    0.266591
      3          1           0       -1.350845   -2.358654    0.229240
      4          1           0       -1.116241    2.116335    0.819080
      5          1           0       -1.231051    2.101206   -0.807538
      6          7           0       -1.426050   -1.393203   -0.071102
      7          7           0        0.967196   -1.188596    0.006273
      8          7           0        1.790307   -0.100139    0.014193
      9          7           0        1.144103    0.992261    0.001202
     10          7           0       -0.172861    0.642438   -0.033804
     11          7           0       -1.237844    1.507856    0.019852
 ---------------------------------------------------------------------

 SCF Done:  E(RHF) =  -368.501006785     A.U. after    2 cycles

 The electronic state is 1-A.
 Alpha  occ. eigenvalues --  -15.82671 -15.81731 -15.79563 -15.79529 -15.78886
 Alpha  occ. eigenvalues --  -15.73496 -11.49209  -1.76094  -1.49813  -1.41565
 Alpha  occ. eigenvalues --   -1.26114  -1.18765  -0.90430  -0.84431  -0.75396
 Alpha  occ. eigenvalues --   -0.73930  -0.68539  -0.65013  -0.62704  -0.51578
 Alpha  occ. eigenvalues --   -0.49608  -0.48404  -0.40379  -0.39537  -0.37936
 Alpha  occ. eigenvalues --   -0.32387
 Alpha virt. eigenvalues --    0.03047   0.04339   0.05553   0.06231   0.10554
 Alpha virt. eigenvalues --    0.11839   0.12379   0.12610   0.14167   0.15241
 Alpha virt. eigenvalues --    0.15862   0.16089   0.16652   0.17301   0.18280

 Mulliken charges:
               1
     1  C    4.756743
     2  H    0.642765
     3  H    0.611542
     4  H    0.713591
     5  H    0.720383
     6  N   -2.824608
     7  N   -1.840377
     8  N   -0.187382
     9  N   -0.676698
    10  N   -0.406940
    11  N   -1.509018
 Sum of Mulliken charges =  -0.00000

 Dipole moment (field-independent basis, Debye):
    X=             -5.2575    Y=              1.5367    Z=              0.6934  Tot=              5.5212

 Test job not archived.
 1\1\GINC-SE126\SP\RHF\Aug-CC-pVDZ\C1H4N6\OHZDE\08-Apr-2025\0\\#t hf au
 g-cc-pvdz iop(5/13=1,5/36=2,99/5=2) pseudo=read geom=check guess=(read
 ,tcheck) scf=(maxcycle=1)\\title\\0,1\C,0,-0.254017,-0.698674,-0.01061
 2\H,0,-2.23168,-0.891173,0.266591\H,0,-1.35083,-2.35866,0.22924\H,0,-1
 .11625,2.11633,0.81908\H,0,-1.23106,2.1012,-0.807538\N,0,-1.42604,-1.3
 9321,-0.0711017\N,0,0.967204,-1.18859,0.00627309\N,0,1.79031,-0.100129
 ,0.0141931\N,0,1.1441,0.992268,0.00120164\N,0,-0.172862,0.642438,-0.03
 38041\N,0,-1.23785,1.50785,0.0198521\\Version=ES64L-G16RevC.01\State=1

 Normal termination of Gaussian 16 at Tue Apr  8 21:38:58 2025.
