 Gaussian 16, Revision C.01,

 ----------------------------------------------------------------------
 #t hf aug-cc-pvdz symm=none int=(grid=ultrafine) guess=(read,tcheck) s
 table=(opt,rrhf)
 ----------------------------------------------------------------------
 -----
 title
 -----
 Symbolic Z-matrix:
 Charge =  0 Multiplicity = 1

 SCF Done:  E(RHF) =  -356.588135663     A.U. after   15 cycles
 Normal termination of Gaussian 16 at Tue Apr  8 21:44:49 2025.
 Gaussian 16:  ES64L-G16RevC.01  3-Jul-2019

 ----------------------------------------------------------------------
 #t hf aug-cc-pvdz iop(5/13=1,5/36=2,99/5=2) pseudo=read geom=check gue
 ss=(read,tcheck) scf=(maxcycle=1)
 ----------------------------------------------------------------------
 -----
 title
 -----
 Structure from the checkpoint file:  "ANI1ccx_498_conf1_mol2.chk"
 Charge =  0 Multiplicity = 1

                         Standard orientation:
 ---------------------------------------------------------------------
 Center     Atomic      Atomic             Coordinates (Angstroms)
 Number     Number       Type             X           Y           Z
 ---------------------------------------------------------------------
      1          6           0        0.750777   -0.143186   -0.000992
      2          6           0       -0.747326   -0.144692   -0.004959
      3          1           0        2.386287    0.995909    0.202848
      4          1           0        0.908485    1.963644    0.434699
      5          1           0       -2.228962    1.072505   -0.173744
      6          7           0        1.365557    1.040231    0.087027
      7          8           0        1.309762   -1.222809   -0.156156
      8          8           0       -1.245602    1.146708   -0.154141
      9          8           0       -1.394837   -1.122201    0.180636
 ---------------------------------------------------------------------

 SCF Done:  E(RHF) =  -358.066665021     A.U. after    2 cycles

 The electronic state is 1-A.
 Alpha  occ. eigenvalues --  -21.14304 -21.09064 -21.04855 -15.80261 -11.56283
 Alpha  occ. eigenvalues --  -11.50423  -1.84250  -1.71529  -1.68207  -1.36229
 Alpha  occ. eigenvalues --   -1.00252  -0.78223  -0.71696  -0.67982  -0.61809
 Alpha  occ. eigenvalues --   -0.60863  -0.52214  -0.51123  -0.49648  -0.37580
 Alpha  occ. eigenvalues --   -0.33587  -0.33348  -0.30069
 Alpha virt. eigenvalues --    0.03090   0.04316   0.05795   0.10193   0.10518
 Alpha virt. eigenvalues --    0.11245   0.11631   0.12374   0.13281   0.14322
 Alpha virt. eigenvalues --    0.14793   0.16687   0.17463   0.18512   0.20031

 Mulliken charges:
               1
     1  C    3.723842
     2  C    5.214179
     3  H    0.699342
     4  H    0.739753
     5  H    0.875967
     6  N   -2.722373
     7  O   -3.034690
     8  O   -2.667405
     9  O   -2.828615
 Sum of Mulliken charges =  -0.00000

 Dipole moment (field-independent basis, Debye):
    X=             -0.0212    Y=              3.2447    Z=              0.5673  Tot=              3.2940

 Test job not archived.
 1\1\GINC-SE179\SP\RHF\Aug-CC-pVDZ\C2H3N1O3\OHZDE\08-Apr-2025\0\\#t hf
 aug-cc-pvdz iop(5/13=1,5/36=2,99/5=2) pseudo=read geom=check guess=(re
 ad,tcheck) scf=(maxcycle=1)\\title\\0,1\C,0,0.750777,-0.143181,-0.0009
 9211\C,0,-0.747326,-0.144697,-0.00495901\H,0,2.38628,0.995925,0.202848
 \H,0,0.908472,1.96365,0.434699\H,0,-2.22897,1.07249,-0.173744\N,0,1.36
 555,1.04024,0.0870271\O,0,1.30977,-1.2228,-0.156156\O,0,-1.24561,1.146
 7,-0.154141\O,0,-1.39483,-1.12221,0.180636\\Version=ES64L-G16RevC.01\S
 tate=1-A\HF=-358.066665\RMSD=2.398e-01\Dipole=-0.0083373,1.2765694,0.2

 Normal termination of Gaussian 16 at Tue Apr  8 21:44:53 2025.
