 Gaussian 16, Revision C.01,

 ----------------------------------------------------------------------
 #t hf aug-cc-pvdz symm=none int=(grid=ultrafine) guess=(read,tcheck) s
 table=(opt,rrhf)
 ----------------------------------------------------------------------
 -----
 title
 -----
 Symbolic Z-matrix:
 Charge =  0 Multiplicity = 1

 SCF Done:  E(RHF) =  -560.128619350     A.U. after   17 cycles
 Normal termination of Gaussian 16 at Tue Apr  8 19:54:10 2025.
 Gaussian 16:  ES64L-G16RevC.01  3-Jul-2019

 ----------------------------------------------------------------------
 #t hf aug-cc-pvdz iop(5/13=1,5/36=2,99/5=2) pseudo=read geom=check gue
 ss=(read,tcheck) scf=(maxcycle=1)
 ----------------------------------------------------------------------
 -----
 title
 -----
 Structure from the checkpoint file:  "ANI1ccx_1481_conf4_mol2.chk"
 Charge =  0 Multiplicity = 1

                         Standard orientation:
 ---------------------------------------------------------------------
 Center     Atomic      Atomic             Coordinates (Angstroms)
 Number     Number       Type             X           Y           Z
 ---------------------------------------------------------------------
      1          6           0        1.995890   -0.906629   -0.002542
      2          6           0       -0.269512   -0.034275    0.026296
      3          6           0       -1.633971    0.063257    0.004386
      4          6           0       -0.890610    2.084289    0.005149
      5          6           0        1.572379    1.517920   -0.016905
      6          6           0        2.428429    0.503367   -0.022309
      7          6           0       -2.564120   -1.019792   -0.026478
      8          1           0        0.239295   -2.012911    0.177157
      9          1           0       -0.788724    3.155649   -0.022370
     10          1           0        1.829948    2.582990   -0.018591
     11          1           0        3.509729    0.636948   -0.056350
     12          7           0        0.618473   -1.082660    0.066778
     13          7           0       -1.983091    1.391799   -0.010698
     14          7           0        0.200669    1.248779    0.026288
     15          7           0       -3.234160   -1.962442   -0.028499
     16          8           0        2.770700   -1.847479   -0.032813
 ---------------------------------------------------------------------

 SCF Done:  E(RHF) =  -562.602436472     A.U. after    2 cycles

 The electronic state is 1-A.
 Alpha  occ. eigenvalues --  -21.06162 -15.84766 -15.83056 -15.77014 -15.76828
 Alpha  occ. eigenvalues --  -11.56944 -11.55301 -11.53953 -11.48236 -11.47106
 Alpha  occ. eigenvalues --  -11.44722 -11.43735  -1.74390  -1.66363  -1.45238
 Alpha  occ. eigenvalues --   -1.38362  -1.30546  -1.19967  -1.13143  -0.99663
 Alpha  occ. eigenvalues --   -0.92494  -0.91454  -0.81718  -0.76038  -0.70824
 Alpha  occ. eigenvalues --   -0.70633  -0.68302  -0.64001  -0.63399  -0.58975
 Alpha  occ. eigenvalues --   -0.56466  -0.52810  -0.52302  -0.51912  -0.46344
 Alpha  occ. eigenvalues --   -0.45716  -0.44192  -0.42567  -0.33972  -0.32409
 Alpha  occ. eigenvalues --   -0.29508
 Alpha virt. eigenvalues --    0.01902   0.04065   0.04774   0.06751   0.06827
 Alpha virt. eigenvalues --    0.07711   0.08668   0.08789   0.10109   0.10530
 Alpha virt. eigenvalues --    0.10664   0.11248   0.11785   0.11936   0.12227

 Mulliken charges:
               1
     1  C    4.638571
     2  C    2.321143
     3  C    2.297985
     4  C    0.917202
     5  C    0.002934
     6  C   -1.128828
     7  C    2.960368
     8  H    0.630926
     9  H    1.714888
    10  H    1.654069
    11  H    1.378151
    12  N   -3.316340
    13  N   -3.973461
    14  N   -3.506484
    15  N   -2.869876
    16  O   -3.721248
 Sum of Mulliken charges =  -0.00000

 Dipole moment (field-independent basis, Debye):
    X=              4.5708    Y=              4.2910    Z=              0.1521  Tot=              6.2712

 Test job not archived.
 1\1\GINC-SE187\SP\RHF\Aug-CC-pVDZ\C7H4N4O1\OHZDE\08-Apr-2025\0\\#t hf
 aug-cc-pvdz iop(5/13=1,5/36=2,99/5=2) pseudo=read geom=check guess=(re
 ad,tcheck) scf=(maxcycle=1)\\title\\0,1\C,0,1.99589,-0.906629,-0.00254
 174\C,0,-0.269511,-0.0342739,0.0262959\C,0,-1.63397,0.063258,0.0043861
 9\C,0,-0.890609,2.08429,0.00514875\C,0,1.57238,1.51792,-0.0169049\C,0,
 2.42843,0.503367,-0.0223088\C,0,-2.56412,-1.01979,-0.0264785\H,0,0.239
 295,-2.01291,0.177157\H,0,-0.788722,3.15565,-0.0223699\H,0,1.82995,2.5
 8299,-0.0185914\H,0,3.50973,0.636947,-0.0563499\N,0,0.618473,-1.08266,

 Normal termination of Gaussian 16 at Tue Apr  8 19:54:20 2025.
