 Gaussian 16, Revision C.01,

 ----------------------------------------------------------------------
 #t hf aug-cc-pvdz symm=none int=(grid=ultrafine) guess=(read,tcheck) s
 table=(opt,rrhf)
 ----------------------------------------------------------------------
 -----
 title
 -----
 Symbolic Z-matrix:
 Charge =  0 Multiplicity = 1

 SCF Done:  E(RHF) =  -318.056157407     A.U. after   13 cycles
 Normal termination of Gaussian 16 at Tue Apr  8 21:48:47 2025.
 Gaussian 16:  ES64L-G16RevC.01  3-Jul-2019

 ----------------------------------------------------------------------
 #t hf aug-cc-pvdz iop(5/13=1,5/36=2,99/5=2) pseudo=read geom=check gue
 ss=(read,tcheck) scf=(maxcycle=1)
 ----------------------------------------------------------------------
 -----
 title
 -----
 Structure from the checkpoint file:  "ANI1ccx_569_conf1_mol1.chk"
 Charge =  0 Multiplicity = 1

                         Standard orientation:
 ---------------------------------------------------------------------
 Center     Atomic      Atomic             Coordinates (Angstroms)
 Number     Number       Type             X           Y           Z
 ---------------------------------------------------------------------
      1          6           0        2.191851   -0.253350    0.102872
      2          6           0       -2.358719   -0.493818   -0.126754
      3          1           0        2.014401    1.715510   -0.362949
      4          1           0        0.684086    1.024500    0.480414
      5          1           0        1.563741   -1.022230    0.583997
      6          1           0       -1.349769    0.784295    1.022680
      7          1           0       -0.683739   -0.743415    0.949940
      8          1           0       -2.259259   -1.493170   -0.544016
      9          1           0       -3.429899    1.076290   -0.015864
     10          7           0        1.470391    0.878901   -0.138944
     11          7           0       -1.189629   -0.022873    0.441677
     12          7           0       -3.464149    0.106020   -0.333062
     13          8           0        3.343171   -0.449139   -0.219827
 ---------------------------------------------------------------------

 SCF Done:  E(RHF) =  -319.487924823     A.U. after    2 cycles

 The electronic state is 1-A.
 Alpha  occ. eigenvalues --  -21.04261 -15.79448 -15.78306 -15.73402 -11.48906
 Alpha  occ. eigenvalues --  -11.45410  -1.70705  -1.44067  -1.35043  -1.25242
 Alpha  occ. eigenvalues --   -0.88200  -0.87235  -0.73801  -0.71727  -0.66897
 Alpha  occ. eigenvalues --   -0.63173  -0.56647  -0.54281  -0.52836  -0.50358
 Alpha  occ. eigenvalues --   -0.40460  -0.35968  -0.33971  -0.30122
 Alpha virt. eigenvalues --    0.02642   0.03961   0.04947   0.05121   0.06522
 Alpha virt. eigenvalues --    0.06969   0.08555   0.10542   0.10995   0.12182
 Alpha virt. eigenvalues --    0.12715   0.13894   0.14373   0.15453   0.15868

 Mulliken charges:
               1
     1  C    2.020337
     2  C    1.774115
     3  H    0.562971
     4  H    0.896102
     5  H    1.544276
     6  H    0.566987
     7  H    0.737400
     8  H    1.728217
     9  H    0.632658
    10  N   -2.382332
    11  N   -2.567777
    12  N   -2.869024
    13  O   -2.643930
 Sum of Mulliken charges =  -0.00000

 Dipole moment (field-independent basis, Debye):
    X=              0.0866    Y=              1.3401    Z=              2.4643  Tot=              2.8064

 Test job not archived.
 1\1\GINC-SE221\SP\RHF\Aug-CC-pVDZ\C2H7N3O1\OHZDE\08-Apr-2025\0\\#t hf
 aug-cc-pvdz iop(5/13=1,5/36=2,99/5=2) pseudo=read geom=check guess=(re
 ad,tcheck) scf=(maxcycle=1)\\title\\0,1\C,0,2.19185,-0.25335,0.102872\
 C,0,-2.35872,-0.493818,-0.126754\H,0,2.0144,1.71551,-0.362949\H,0,0.68
 4085,1.0245,0.480414\H,0,1.56374,-1.02223,0.583997\H,0,-1.34977,0.7842
 95,1.02268\H,0,-0.68374,-0.743415,0.94994\H,0,-2.25926,-1.49317,-0.544
 016\H,0,-3.4299,1.07629,-0.0158643\N,0,1.47039,0.878901,-0.138944\N,0,
 -1.18963,-0.0228735,0.441677\N,0,-3.46415,0.10602,-0.333062\O,0,3.3431

 Normal termination of Gaussian 16 at Tue Apr  8 21:48:50 2025.
