 Gaussian 16, Revision C.01,

 ----------------------------------------------------------------------
 #t hf aug-cc-pvdz symm=none int=(grid=ultrafine) guess=(read,tcheck) s
 table=(opt,rrhf)
 ----------------------------------------------------------------------
 -----
 title
 -----
 Symbolic Z-matrix:
 Charge =  0 Multiplicity = 1

 SCF Done:  E(RHF) =  -506.636490395     A.U. after   17 cycles
 Normal termination of Gaussian 16 at Tue Apr  8 21:59:55 2025.
 Gaussian 16:  ES64L-G16RevC.01  3-Jul-2019

 ----------------------------------------------------------------------
 #t hf aug-cc-pvdz iop(5/13=1,5/36=2,99/5=2) pseudo=read geom=check gue
 ss=(read,tcheck) scf=(maxcycle=1)
 ----------------------------------------------------------------------
 -----
 title
 -----
 Structure from the checkpoint file:  "ANI1ccx_787_conf1_mol1.chk"
 Charge =  0 Multiplicity = 1

                         Standard orientation:
 ---------------------------------------------------------------------
 Center     Atomic      Atomic             Coordinates (Angstroms)
 Number     Number       Type             X           Y           Z
 ---------------------------------------------------------------------
      1          6           0        0.376273    1.635950   -0.760868
      2          6           0        1.160140    0.229455    1.123221
      3          6           0        1.928070   -0.908490    0.407373
      4          1           0       -1.741460   -1.242130   -0.964753
      5          1           0        3.136540   -0.956370   -1.106719
      6          1           0        2.637370   -1.301150    1.128981
      7          1           0        0.835587   -0.071265    2.136511
      8          1           0        1.240850   -1.700190    0.063528
      9          1           0       -0.520174    2.190090   -1.089139
     10          1           0        1.112190    2.386360   -0.480534
     11          1           0        0.848226    1.064750   -1.602779
     12          1           0        1.952210    1.004900    1.297101
     13          7           0        0.024282    0.815590    0.423769
     14          7           0       -0.929846   -0.069019    0.188803
     15          7           0       -2.166530    0.262486    0.508128
     16          8           0       -0.763970   -1.055420   -0.779351
     17          8           0        2.660930   -0.286453   -0.613795
     18          8           0       -2.994910   -0.430611   -0.087533
 ---------------------------------------------------------------------

 SCF Done:  E(RHF) =  -508.890634855     A.U. after    2 cycles

 The electronic state is 1-A.
 Alpha  occ. eigenvalues --  -21.11279 -21.08511 -21.07689 -15.89404 -15.84331
 Alpha  occ. eigenvalues --  -15.76644 -11.45723 -11.39700 -11.39392  -1.93324
 Alpha  occ. eigenvalues --   -1.77933  -1.73045  -1.53120  -1.27261  -1.10164
 Alpha  occ. eigenvalues --   -1.00220  -0.91294  -0.80114  -0.74663  -0.70963
 Alpha  occ. eigenvalues --   -0.70561  -0.65615  -0.63639  -0.59176  -0.57401
 Alpha  occ. eigenvalues --   -0.56058  -0.52197  -0.50841  -0.49942  -0.46122
 Alpha  occ. eigenvalues --   -0.43953  -0.41894  -0.35494  -0.32693  -0.30051
 Alpha  occ. eigenvalues --   -0.28347
 Alpha virt. eigenvalues --    0.03842   0.05146   0.05231   0.05587   0.06004
 Alpha virt. eigenvalues --    0.06358   0.06651   0.07489   0.08701   0.11797
 Alpha virt. eigenvalues --    0.12488   0.12954   0.13640   0.13725   0.14421

 Mulliken charges:
               1
     1  C   -3.703508
     2  C   -2.418424
     3  C   -0.615044
     4  H    1.105037
     5  H    0.798890
     6  H    1.335693
     7  H    1.507698
     8  H    1.660141
     9  H    1.346263
    10  H    1.278473
    11  H    1.617446
    12  H    1.481957
    13  N   -0.794390
    14  N    2.456779
    15  N    1.220937
    16  O   -3.304295
    17  O   -2.678041
    18  O   -2.295611
 Sum of Mulliken charges =   0.00000

 Dipole moment (field-independent basis, Debye):
    X=              2.8946    Y=             -0.7464    Z=             -0.9763  Tot=              3.1447

 Test job not archived.
 1\1\GINC-SE163\SP\RHF\Aug-CC-pVDZ\C3H9N3O3\OHZDE\08-Apr-2025\0\\#t hf
 aug-cc-pvdz iop(5/13=1,5/36=2,99/5=2) pseudo=read geom=check guess=(re
 ad,tcheck) scf=(maxcycle=1)\\title\\0,1\C,0,0.376273,1.63595,-0.760869
 \C,0,1.16014,0.229455,1.12322\C,0,1.92807,-0.90849,0.407372\H,0,-1.741
 46,-1.24213,-0.964754\H,0,3.13654,-0.95637,-1.10672\H,0,2.63737,-1.301
 15,1.12898\H,0,0.835587,-0.0712648,2.13651\H,0,1.24085,-1.70019,0.0635
 277\H,0,-0.520174,2.19009,-1.08914\H,0,1.11219,2.38636,-0.480535\H,0,0
 .848226,1.06475,-1.60278\H,0,1.95221,1.0049,1.2971\N,0,0.0242816,0.815

 Normal termination of Gaussian 16 at Tue Apr  8 22:00:04 2025.
