 Gaussian 16, Revision C.01,

 ----------------------------------------------------------------------
 #t hf aug-cc-pvdz symm=none int=(grid=ultrafine) guess=(read,tcheck) s
 table=(opt,rrhf)
 ----------------------------------------------------------------------
 -----
 title
 -----
 Symbolic Z-matrix:
 Charge =  0 Multiplicity = 1

 SCF Done:  E(RHF) =  -601.477144433     A.U. after   16 cycles
 Normal termination of Gaussian 16 at Tue Apr  8 20:03:10 2025.
 Gaussian 16:  ES64L-G16RevC.01  3-Jul-2019

 ----------------------------------------------------------------------
 #t hf aug-cc-pvdz iop(5/13=1,5/36=2,99/5=2) pseudo=read geom=check gue
 ss=(read,tcheck) scf=(maxcycle=1)
 ----------------------------------------------------------------------
 -----
 title
 -----
 Structure from the checkpoint file:  "ANI1ccx_1546_conf2_mol2.chk"
 Charge =  0 Multiplicity = 1

                         Standard orientation:
 ---------------------------------------------------------------------
 Center     Atomic      Atomic             Coordinates (Angstroms)
 Number     Number       Type             X           Y           Z
 ---------------------------------------------------------------------
      1          6           0       -2.817711   -0.000897    0.645004
      2          6           0       -2.458859   -1.101415   -0.393242
      3          6           0        0.105752   -1.147260   -0.131663
      4          6           0        2.304642   -1.677635    0.208466
      5          6           0        2.744940   -0.382372    0.327193
      6          6           0        1.801388    0.558689    0.057978
      7          6           0        0.603727    2.363221   -0.259033
      8          6           0        0.482631    0.209290   -0.141431
      9          1           0        0.318485    3.399451   -0.406767
     10          1           0        2.654944    2.460945    0.063200
     11          1           0        3.755639   -0.086347    0.521699
     12          1           0        2.997264   -2.525044    0.306262
     13          1           0       -1.038995   -2.698302   -0.316255
     14          1           0       -3.109237   -1.913237   -0.190468
     15          1           0       -2.038371   -0.103280    1.475280
     16          1           0       -3.843301   -0.193169    1.031170
     17          1           0       -1.848724    1.506726    0.104481
     18          1           0       -2.670300   -0.667886   -1.401930
     19          7           0       -0.269583    1.371999   -0.270615
     20          7           0       -1.107328   -1.681722   -0.317093
     21          7           0        1.062793   -2.047418   -0.033988
     22          7           0        1.835095    1.955174   -0.058288
     23          8           0       -2.802914    1.338024    0.211698
 ---------------------------------------------------------------------

 SCF Done:  E(RHF) =  -604.254650017     A.U. after    2 cycles

 The electronic state is 1-A.
 Alpha  occ. eigenvalues --  -21.01109 -15.82551 -15.74386 -15.73197 -15.71042
 Alpha  occ. eigenvalues --  -11.53032 -11.48972 -11.46516 -11.44714 -11.44129
 Alpha  occ. eigenvalues --  -11.42455 -11.39008 -11.38125  -1.67326  -1.61536
 Alpha  occ. eigenvalues --   -1.48404  -1.34805  -1.30391  -1.17902  -1.11105
 Alpha  occ. eigenvalues --   -1.03489  -0.92444  -0.89919  -0.87005  -0.84308
 Alpha  occ. eigenvalues --   -0.74932  -0.71564  -0.67400  -0.65496  -0.64805
 Alpha  occ. eigenvalues --   -0.63053  -0.61237  -0.59009  -0.57317  -0.54951
 Alpha  occ. eigenvalues --   -0.53879  -0.51226  -0.49423  -0.49216  -0.44441
 Alpha  occ. eigenvalues --   -0.41434  -0.38067  -0.36507  -0.34757  -0.33156
 Alpha  occ. eigenvalues --   -0.28097  -0.24631
 Alpha virt. eigenvalues --    0.02780   0.04151   0.04796   0.05568   0.06299
 Alpha virt. eigenvalues --    0.06526   0.06740   0.07549   0.08247   0.08541
 Alpha virt. eigenvalues --    0.09717   0.10213   0.11560   0.12020   0.12296

 Mulliken charges:
               1
     1  C   -1.312017
     2  C   -2.516904
     3  C    5.024812
     4  C   -1.339920
     5  C   -2.417631
     6  C    4.782950
     7  C    0.762892
     8  C    2.491089
     9  H    1.733908
    10  H    0.841337
    11  H    1.487612
    12  H    1.587941
    13  H    0.797034
    14  H    1.665705
    15  H    1.644043
    16  H    1.227933
    17  H    1.661571
    18  H    1.517324
    19  N   -4.136983
    20  N   -4.051818
    21  N   -4.235280
    22  N   -4.075281
    23  O   -3.140316
 Sum of Mulliken charges =   0.00000

 Dipole moment (field-independent basis, Debye):
    X=              2.9356    Y=              2.3072    Z=             -0.0563  Tot=              3.7342

 Test job not archived.
 1\1\GINC-SE220\SP\RHF\Aug-CC-pVDZ\C8H10N4O1\OHZDE\08-Apr-2025\0\\#t hf
  aug-cc-pvdz iop(5/13=1,5/36=2,99/5=2) pseudo=read geom=check guess=(r
 ead,tcheck) scf=(maxcycle=1)\\title\\0,1\C,0,-2.81771,-0.00089089,0.64
 5004\C,0,-2.45886,-1.10141,-0.393242\C,0,0.105751,-1.14726,-0.131663\C
 ,0,2.30464,-1.67764,0.208466\C,0,2.74494,-0.382378,0.327193\C,0,1.8013
 9,0.558685,0.0579784\C,0,0.603733,2.36322,-0.259033\C,0,0.482633,0.209
 289,-0.141431\H,0,0.318493,3.39945,-0.406767\H,0,2.65495,2.46094,0.063
 2005\H,0,3.75564,-0.0863548,0.521699\H,0,2.99726,-2.52505,0.306262\H,0

 Normal termination of Gaussian 16 at Tue Apr  8 20:03:31 2025.
