 Gaussian 16, Revision C.01,

 ----------------------------------------------------------------------
 #t hf aug-cc-pvdz symm=none int=(grid=ultrafine) guess=(read,tcheck) s
 table=(opt,rrhf)
 ----------------------------------------------------------------------
 -----
 title
 -----
 Symbolic Z-matrix:
 Charge =  0 Multiplicity = 1

 SCF Done:  E(RHF) =  -390.618759640     A.U. after   13 cycles
 Normal termination of Gaussian 16 at Tue Apr  8 21:44:51 2025.
 Gaussian 16:  ES64L-G16RevC.01  3-Jul-2019

 ----------------------------------------------------------------------
 #t hf aug-cc-pvdz iop(5/13=1,5/36=2,99/5=2) pseudo=read geom=check gue
 ss=(read,tcheck) scf=(maxcycle=1)
 ----------------------------------------------------------------------
 -----
 title
 -----
 Structure from the checkpoint file:  "ANI1ccx_502_conf4_mol1.chk"
 Charge =  0 Multiplicity = 1

                         Standard orientation:
 ---------------------------------------------------------------------
 Center     Atomic      Atomic             Coordinates (Angstroms)
 Number     Number       Type             X           Y           Z
 ---------------------------------------------------------------------
      1          6           0        1.184260   -0.143437    0.024947
      2          6           0       -1.147570   -0.177682   -0.000227
      3          1           0        1.034770    1.839360    0.569728
      4          1           0       -1.198930    1.670450   -0.454415
      5          1           0        0.120351   -1.963650    0.138657
      6          7           0        0.678443    1.175040   -0.138393
      7          7           0       -0.724288    1.103000    0.148671
      8          7           0       -0.000180   -0.907070    0.120109
      9          8           0        2.284390   -0.569799   -0.079625
     10          8           0       -2.266160   -0.582230   -0.084750
 ---------------------------------------------------------------------

 SCF Done:  E(RHF) =  -392.266220258     A.U. after    2 cycles

 The electronic state is 1-A.
 Alpha  occ. eigenvalues --  -21.07722 -21.05597 -15.81766 -15.81234 -15.80266
 Alpha  occ. eigenvalues --  -11.55132 -11.53082  -1.78828  -1.75106  -1.60430
 Alpha  occ. eigenvalues --   -1.37293  -1.23130  -0.91294  -0.88763  -0.73972
 Alpha  occ. eigenvalues --   -0.71847  -0.64075  -0.63173  -0.56097  -0.53786
 Alpha  occ. eigenvalues --   -0.53322  -0.50756  -0.36280  -0.34961  -0.33743
 Alpha  occ. eigenvalues --   -0.30761
 Alpha virt. eigenvalues --    0.03270   0.05440   0.05682   0.09454   0.09716
 Alpha virt. eigenvalues --    0.10595   0.11828   0.12260   0.12457   0.13973
 Alpha virt. eigenvalues --    0.14642   0.15834   0.16094   0.17453   0.18241

 Mulliken charges:
               1
     1  C    4.667284
     2  C    5.113493
     3  H    0.707755
     4  H    0.716636
     5  H    0.659935
     6  N   -1.845251
     7  N   -1.896045
     8  N   -2.112011
     9  O   -2.940186
    10  O   -3.071610
 Sum of Mulliken charges =  -0.00000

 Dipole moment (field-independent basis, Debye):
    X=              0.4075    Y=              0.9978    Z=              0.2660  Tot=              1.1102

 Test job not archived.
 1\1\GINC-SE393\SP\RHF\Aug-CC-pVDZ\C2H3N3O2\OHZDE\08-Apr-2025\0\\#t hf
 aug-cc-pvdz iop(5/13=1,5/36=2,99/5=2) pseudo=read geom=check guess=(re
 ad,tcheck) scf=(maxcycle=1)\\title\\0,1\C,0,1.18426,-0.143437,0.024946
 6\C,0,-1.14757,-0.177682,-0.00022732\H,0,1.03477,1.83936,0.569728\H,0,
 -1.19893,1.67045,-0.454415\H,0,0.12035,-1.96365,0.138657\N,0,0.678443,
 1.17504,-0.138393\N,0,-0.724288,1.103,0.148671\N,0,-0.00018002,-0.9070
 7,0.120109\O,0,2.28439,-0.5698,-0.0796245\O,0,-2.26616,-0.582229,-0.08
 47495\\Version=ES64L-G16RevC.01\State=1-A\HF=-392.2662203\RMSD=6.131e-

 Normal termination of Gaussian 16 at Tue Apr  8 21:44:55 2025.
