 Gaussian 16, Revision C.01,

 ----------------------------------------------------------------------
 #t hf aug-cc-pvdz symm=none int=(grid=ultrafine) guess=(read,tcheck) s
 table=(opt,rrhf)
 ----------------------------------------------------------------------
 -----
 title
 -----
 Symbolic Z-matrix:
 Charge =  0 Multiplicity = 1

 SCF Done:  E(RHF) =  -464.367283860     A.U. after   15 cycles
 Normal termination of Gaussian 16 at Tue Apr  8 21:42:53 2025.
 Gaussian 16:  ES64L-G16RevC.01  3-Jul-2019

 ----------------------------------------------------------------------
 #t hf aug-cc-pvdz iop(5/13=1,5/36=2,99/5=2) pseudo=read geom=check gue
 ss=(read,tcheck) scf=(maxcycle=1)
 ----------------------------------------------------------------------
 -----
 title
 -----
 Structure from the checkpoint file:  "ANI1ccx_474_conf23_mol1.chk"
 Charge =  0 Multiplicity = 1

                         Standard orientation:
 ---------------------------------------------------------------------
 Center     Atomic      Atomic             Coordinates (Angstroms)
 Number     Number       Type             X           Y           Z
 ---------------------------------------------------------------------
      1          6           0        1.364122   -0.260279    0.220955
      2          6           0       -0.485996    1.395588    0.134460
      3          1           0        2.587880    0.503119   -1.104930
      4          7           0        0.712154    1.027351   -0.060023
      5          7           0       -1.777537   -0.878333   -0.482835
      6          7           0       -2.331255   -1.745516   -0.119514
      7          8           0        2.498162   -0.343344   -0.552720
      8          8           0       -1.468373    2.013516    0.148270
      9          8           0        0.960188   -1.187609    0.855582
 ---------------------------------------------------------------------

 SCF Done:  E(RHF) =  -466.270229734     A.U. after    2 cycles

 The electronic state is 1-A.
 Alpha  occ. eigenvalues --  -21.17999 -21.13987 -21.08619 -15.88151 -15.87619
 Alpha  occ. eigenvalues --  -15.80706 -11.62813 -11.57855  -1.83749  -1.81955
 Alpha  occ. eigenvalues --   -1.68404  -1.57761  -1.39279  -0.92840  -0.80450
 Alpha  occ. eigenvalues --   -0.75379  -0.67369  -0.65281  -0.63919  -0.59499
 Alpha  occ. eigenvalues --   -0.58950  -0.58763  -0.56163  -0.55391  -0.49419
 Alpha  occ. eigenvalues --   -0.44127  -0.38327  -0.35672  -0.33124
 Alpha virt. eigenvalues --    0.03857   0.07497   0.09638   0.09831   0.10641
 Alpha virt. eigenvalues --    0.11155   0.11258   0.12306   0.12500   0.12727
 Alpha virt. eigenvalues --    0.14118   0.14530   0.15481   0.16156   0.17561

 Mulliken charges:
               1
     1  C    5.344018
     2  C    3.601310
     3  H    0.928085
     4  N   -2.332601
     5  N    0.033446
     6  N    0.005800
     7  O   -2.595793
     8  O   -2.430566
     9  O   -2.553699
 Sum of Mulliken charges =  -0.00000

 Dipole moment (field-independent basis, Debye):
    X=             -1.0794    Y=              1.2296    Z=             -0.8079  Tot=              1.8248

 Test job not archived.
 1\1\GINC-SE219\SP\RHF\Aug-CC-pVDZ\C2H1N3O3\OHZDE\08-Apr-2025\0\\#t hf
 aug-cc-pvdz iop(5/13=1,5/36=2,99/5=2) pseudo=read geom=check guess=(re
 ad,tcheck) scf=(maxcycle=1)\\title\\0,1\C,0,1.36412,-0.260281,0.220955
 \C,0,-0.485994,1.39559,0.13446\H,0,2.58788,0.503114,-1.10493\N,0,0.712
 155,1.02735,-0.0600233\N,0,-1.77754,-0.878328,-0.482835\N,0,-2.33126,-
 1.74551,-0.119514\O,0,2.49816,-0.343349,-0.55272\O,0,-1.46837,2.01352,
 0.14827\O,0,0.960184,-1.18761,0.855582\\Version=ES64L-G16RevC.01\State
 =1-A\HF=-466.2702297\RMSD=7.904e-02\Dipole=-0.4246541,0.4837757,-0.317

 Normal termination of Gaussian 16 at Tue Apr  8 21:42:57 2025.
