 Gaussian 16, Revision C.01,

 ----------------------------------------------------------------------
 #t hf aug-cc-pvdz symm=none int=(grid=ultrafine) guess=(read,tcheck) s
 table=(opt,rrhf)
 ----------------------------------------------------------------------
 -----
 title
 -----
 Symbolic Z-matrix:
 Charge =  0 Multiplicity = 1

 SCF Done:  E(RHF) =  -849.473833440     A.U. after   14 cycles
 Normal termination of Gaussian 16 at Tue Apr  8 20:36:48 2025.
 Gaussian 16:  ES64L-G16RevC.01  3-Jul-2019

 ----------------------------------------------------------------------
 #t hf aug-cc-pvdz iop(5/13=1,5/36=2,99/5=2) pseudo=read geom=check gue
 ss=(read,tcheck) scf=(maxcycle=1)
 ----------------------------------------------------------------------
 -----
 title
 -----
 Structure from the checkpoint file:  "ANI1ccx_1611_conf3_mol1.chk"
 Charge =  0 Multiplicity = 1

                         Standard orientation:
 ---------------------------------------------------------------------
 Center     Atomic      Atomic             Coordinates (Angstroms)
 Number     Number       Type             X           Y           Z
 ---------------------------------------------------------------------
      1          6           0        2.220511    0.320031    0.822636
      2          6           0        1.077931    0.989537    0.176498
      3          6           0        3.002720   -0.624754   -0.094739
      4          6           0        2.335660   -1.748330   -0.766952
      5          6           0       -1.146879    0.490189   -0.816011
      6          6           0       -2.042029    1.522671   -0.074183
      7          6           0       -1.756920   -0.784029   -1.291130
      8          6           0       -2.041910   -1.669989   -0.071929
      9          1           0       -0.582979    2.512890   -0.206390
     10          1           0       -3.977540   -0.952918    0.175122
     11          1           0       -3.702280   -2.531409    0.850887
     12          1           0       -2.575530   -0.558532   -1.968730
     13          1           0       -0.936059   -1.375659   -1.718880
     14          1           0       -0.769360    1.152981   -1.619910
     15          1           0        0.063902   -0.738031    0.572546
     16          1           0        1.640340   -2.286200   -0.063156
     17          1           0        1.792980   -1.432270   -1.637110
     18          1           0        3.042290   -2.524290   -1.160060
     19          1           0        4.020380   -0.296568   -1.734170
     20          1           0        3.789950   -1.085580    0.541797
     21          1           0        2.874241    1.167980    1.030190
     22          1           0        2.268111    0.291405    2.856810
     23          1           0        1.052150   -0.731522    2.272090
     24          7           0        1.987700   -0.358290    2.105470
     25          7           0       -0.006748    0.166774    0.114744
     26          7           0       -3.339960   -1.707929    0.346357
     27          8           0        1.134031    2.125810   -0.282757
     28          8           0        3.615531    0.272554   -1.047480
     29          8           0       -3.149409    1.222881    0.307103
     30          8           0       -1.156240   -2.326059    0.451091
     31          8           0       -1.491669    2.668801    0.139270
 ---------------------------------------------------------------------

 SCF Done:  E(RHF) =  -853.233175084     A.U. after    2 cycles

 The electronic state is 1-A.
 Alpha  occ. eigenvalues --  -21.11977 -21.06704 -21.05259 -21.04926 -21.04538
 Alpha  occ. eigenvalues --  -15.78025 -15.77640 -15.74972 -11.55320 -11.54827
 Alpha  occ. eigenvalues --  -11.53873 -11.50241 -11.49619 -11.45300 -11.44203
 Alpha  occ. eigenvalues --  -11.38831  -1.84993  -1.74299  -1.73593  -1.70887
 Alpha  occ. eigenvalues --   -1.66319  -1.43791  -1.35681  -1.34129  -1.19393
 Alpha  occ. eigenvalues --   -1.14320  -1.04532  -1.00951  -0.88684  -0.83801
 Alpha  occ. eigenvalues --   -0.81232  -0.78437  -0.74029  -0.72182  -0.70296
 Alpha  occ. eigenvalues --   -0.68196  -0.67849  -0.66691  -0.64193  -0.61924
 Alpha  occ. eigenvalues --   -0.60556  -0.58272  -0.56254  -0.55176  -0.53749
 Alpha  occ. eigenvalues --   -0.53673  -0.51961  -0.51561  -0.50744  -0.49874
 Alpha  occ. eigenvalues --   -0.46970  -0.46384  -0.45168  -0.41163  -0.38580
 Alpha  occ. eigenvalues --   -0.35354  -0.34313  -0.33097  -0.32400  -0.31234
 Alpha  occ. eigenvalues --   -0.29587  -0.28597
 Alpha virt. eigenvalues --    0.03528   0.03952   0.04400   0.04947   0.05191
 Alpha virt. eigenvalues --    0.05686   0.06100   0.06212   0.06779   0.07114
 Alpha virt. eigenvalues --    0.07815   0.08353   0.09126   0.09573   0.09989

 Mulliken charges:
               1
     1  C   -1.948620
     2  C    6.817914
     3  C    1.118170
     4  C   -4.685662
     5  C   -2.307706
     6  C    6.692531
     7  C   -3.701786
     8  C    6.549933
     9  H    1.539613
    10  H    0.832775
    11  H    0.797374
    12  H    1.182535
    13  H    1.365336
    14  H    1.940015
    15  H    1.162542
    16  H    1.392237
    17  H    1.563296
    18  H    1.017793
    19  H    0.837897
    20  H    1.576734
    21  H    1.680744
    22  H    0.506137
    23  H    0.691359
    24  N   -3.033517
    25  N   -2.233847
    26  N   -3.732361
    27  O   -3.847462
    28  O   -3.275889
    29  O   -3.442688
    30  O   -3.490217
    31  O   -3.565180
 Sum of Mulliken charges =  -0.00000

 Dipole moment (field-independent basis, Debye):
    X=             -0.2324    Y=             -1.8856    Z=             -0.5355  Tot=              1.9739

 Test job not archived.
 1\1\GINC-SE081\SP\RHF\Aug-CC-pVDZ\C8H15N3O5\OHZDE\08-Apr-2025\0\\#t hf
  aug-cc-pvdz iop(5/13=1,5/36=2,99/5=2) pseudo=read geom=check guess=(r
 ead,tcheck) scf=(maxcycle=1)\\title\\0,1\C,0,2.22051,0.320031,0.822636
 \C,0,1.07793,0.989537,0.176498\C,0,3.00272,-0.624754,-0.0947396\C,0,2.
 33566,-1.74833,-0.766952\C,0,-1.14688,0.490188,-0.816011\C,0,-2.04203,
 1.52267,-0.074183\C,0,-1.75692,-0.78403,-1.29113\C,0,-2.04191,-1.66999
 ,-0.0719292\H,0,-0.58298,2.51289,-0.20639\H,0,-3.97754,-0.952919,0.175
 122\H,0,-3.70228,-2.53141,0.850887\H,0,-2.57553,-0.558533,-1.96873\H,0

 Normal termination of Gaussian 16 at Tue Apr  8 20:37:30 2025.
