 Gaussian 16, Revision C.01,

 ----------------------------------------------------------------------
 #t hf aug-cc-pvdz symm=none int=(grid=ultrafine) guess=(read,tcheck) s
 table=(opt,rrhf)
 ----------------------------------------------------------------------
 -----
 title
 -----
 Symbolic Z-matrix:
 Charge =  0 Multiplicity = 1

 SCF Done:  E(RHF) =  -759.734325847     A.U. after   15 cycles
 Normal termination of Gaussian 16 at Tue Apr  8 21:12:10 2025.
 Gaussian 16:  ES64L-G16RevC.01  3-Jul-2019

 ----------------------------------------------------------------------
 #t hf aug-cc-pvdz iop(5/13=1,5/36=2,99/5=2) pseudo=read geom=check gue
 ss=(read,tcheck) scf=(maxcycle=1)
 ----------------------------------------------------------------------
 -----
 title
 -----
 Structure from the checkpoint file:  "ANI1ccx_1777_conf4_mol1.chk"
 Charge =  0 Multiplicity = 1

                         Standard orientation:
 ---------------------------------------------------------------------
 Center     Atomic      Atomic             Coordinates (Angstroms)
 Number     Number       Type             X           Y           Z
 ---------------------------------------------------------------------
      1          6           0        2.687851    0.153697   -0.185011
      2          6           0       -3.189209   -1.124439    0.467954
      3          6           0       -1.979319    0.182132    2.201680
      4          6           0       -1.805389   -0.747871    0.982553
      5          6           0       -3.192440   -1.721509   -0.963250
      6          6           0       -1.029949    0.023033   -0.134683
      7          6           0        3.851901   -0.778768    0.044499
      8          6           0        1.317061   -0.542373   -0.119048
      9          6           0       -1.776348    1.286991   -0.628638
     10          1           0       -2.449749   -0.363120    3.012350
     11          1           0       -3.306618    1.917301   -1.377900
     12          1           0       -2.783449   -0.979399   -1.690760
     13          1           0       -4.212220   -2.024428   -1.216780
     14          1           0       -2.538120   -2.617409   -0.885098
     15          1           0       -3.844889   -0.276656    0.502250
     16          1           0       -3.603630   -1.889729    1.090320
     17          1           0       -0.965336    0.587238    2.472460
     18          1           0       -2.529708    1.015951    1.767780
     19          1           0       -0.974721   -0.772553   -0.955008
     20          1           0        0.407960    1.229580    0.583371
     21          1           0        5.711651   -0.349320    0.133763
     22          1           0        4.041131   -1.020252    1.087010
     23          1           0        3.683470   -1.778301   -0.480691
     24          1           0        2.738221    0.582889   -1.150600
     25          1           0        2.935162    1.128919    1.674540
     26          1           0        3.341392    2.031649    0.387523
     27          1           0       -1.189459   -1.622080    1.284630
     28          7           0        2.656452    1.336339    0.688564
     29          7           0        0.286599    0.296466    0.267622
     30          8           0       -1.333418    2.414870   -0.509113
     31          8           0        1.162531   -1.634950   -0.589942
     32          8           0        5.023531   -0.156660   -0.540020
     33          8           0       -2.898568    1.049831   -1.227030
 ---------------------------------------------------------------------

 SCF Done:  E(RHF) =  -763.205742228     A.U. after    2 cycles

 The electronic state is 1-A.
 Alpha  occ. eigenvalues --  -21.13980 -21.07326 -21.05453 -21.03144 -15.74783
 Alpha  occ. eigenvalues --  -15.73871 -11.54687 -11.52729 -11.48417 -11.46737
 Alpha  occ. eigenvalues --  -11.43037 -11.40790 -11.40682 -11.37585 -11.35447
 Alpha  occ. eigenvalues --   -1.86959  -1.73078  -1.69646  -1.66263  -1.42689
 Alpha  occ. eigenvalues --   -1.34152  -1.24586  -1.09141  -1.06881  -1.03334
 Alpha  occ. eigenvalues --   -0.91830  -0.90846  -0.85571  -0.81146  -0.76824
 Alpha  occ. eigenvalues --   -0.72162  -0.67886  -0.66566  -0.66161  -0.64465
 Alpha  occ. eigenvalues --   -0.62006  -0.61654  -0.58644  -0.58233  -0.56739
 Alpha  occ. eigenvalues --   -0.56418  -0.55437  -0.54317  -0.51723  -0.50905
 Alpha  occ. eigenvalues --   -0.49554  -0.48029  -0.47390  -0.46836  -0.43372
 Alpha  occ. eigenvalues --   -0.42990  -0.41096  -0.39829  -0.37573  -0.34312
 Alpha  occ. eigenvalues --   -0.33424  -0.31525  -0.30116  -0.27662
 Alpha virt. eigenvalues --    0.03640   0.04297   0.04686   0.04858   0.04963
 Alpha virt. eigenvalues --    0.05540   0.05957   0.06080   0.06537   0.06833
 Alpha virt. eigenvalues --    0.07113   0.07586   0.07815   0.08320   0.08954

 Mulliken charges:
               1
     1  C   -2.719816
     2  C   -3.235614
     3  C   -5.282832
     4  C    0.057958
     5  C   -4.737484
     6  C   -1.284557
     7  C   -0.784331
     8  C    6.818806
     9  C    7.981969
    10  H    1.114980
    11  H    0.909914
    12  H    1.699931
    13  H    0.998700
    14  H    1.298366
    15  H    1.692414
    16  H    1.175411
    17  H    1.199668
    18  H    1.480169
    19  H    2.083976
    20  H    0.862941
    21  H    0.727549
    22  H    1.485056
    23  H    1.356977
    24  H    1.737669
    25  H    0.563335
    26  H    0.656686
    27  H    1.902450
    28  N   -2.398658
    29  N   -3.895937
    30  O   -3.478639
    31  O   -3.845845
    32  O   -2.566868
    33  O   -3.574345
 Sum of Mulliken charges =   0.00000

 Dipole moment (field-independent basis, Debye):
    X=              0.1556    Y=              0.7135    Z=              0.9795  Tot=              1.2218

 Test job not archived.
 1\1\GINC-SE118\SP\RHF\Aug-CC-pVDZ\C9H18N2O4\OHZDE\08-Apr-2025\0\\#t hf
  aug-cc-pvdz iop(5/13=1,5/36=2,99/5=2) pseudo=read geom=check guess=(r
 ead,tcheck) scf=(maxcycle=1)\\title\\0,1\C,0,2.68785,0.153698,-0.18501
 1\C,0,-3.18921,-1.12444,0.467954\C,0,-1.97932,0.182131,2.20168\C,0,-1.
 80539,-0.747872,0.982553\C,0,-3.19244,-1.72151,-0.96325\C,0,-1.02995,0
 .0230327,-0.134683\C,0,3.8519,-0.778767,0.044499\C,0,1.31706,-0.542372
 ,-0.119048\C,0,-1.77635,1.28699,-0.628638\H,0,-2.44975,-0.363121,3.012
 35\H,0,-3.30662,1.9173,-1.3779\H,0,-2.78345,-0.9794,-1.69076\H,0,-4.21

 Normal termination of Gaussian 16 at Tue Apr  8 21:12:51 2025.
