 Gaussian 16, Revision C.01,

 ----------------------------------------------------------------------
 #t hf aug-cc-pvdz symm=none int=(grid=ultrafine) guess=(read,tcheck) s
 table=(opt,rrhf)
 ----------------------------------------------------------------------
 -----
 title
 -----
 Symbolic Z-matrix:
 Charge =  0 Multiplicity = 1

 SCF Done:  E(RHF) =  -636.080320538     A.U. after   15 cycles
 Normal termination of Gaussian 16 at Tue Apr  8 19:56:45 2025.
 Gaussian 16:  ES64L-G16RevC.01  3-Jul-2019

 ----------------------------------------------------------------------
 #t hf aug-cc-pvdz iop(5/13=1,5/36=2,99/5=2) pseudo=read geom=check gue
 ss=(read,tcheck) scf=(maxcycle=1)
 ----------------------------------------------------------------------
 -----
 title
 -----
 Structure from the checkpoint file:  "ANI1ccx_1499_conf7_mol2.chk"
 Charge =  0 Multiplicity = 1

                         Standard orientation:
 ---------------------------------------------------------------------
 Center     Atomic      Atomic             Coordinates (Angstroms)
 Number     Number       Type             X           Y           Z
 ---------------------------------------------------------------------
      1          6           0        0.730113    1.499988   -0.025325
      2          6           0       -1.968610   -0.029710    1.102430
      3          6           0       -2.191610   -0.116912   -1.026080
      4          6           0        1.315090    0.152552    0.000846
      5          6           0        2.733870    0.025042    0.215338
      6          6           0        3.004148   -1.306625    0.084679
      7          6           0        0.847500   -1.098812   -0.210884
      8          1           0       -0.128262   -1.526921   -0.457002
      9          1           0        3.929868   -1.871786    0.127917
     10          1           0        3.350071    0.886260    0.354864
     11          1           0       -2.046760    0.050543   -2.105220
     12          1           0       -1.601920    0.320029    2.079430
     13          1           0       -1.032997    2.539140   -0.056086
     14          7           0       -0.662548    1.595140   -0.209716
     15          7           0       -1.548500    0.579485   -0.040400
     16          7           0       -2.788131   -1.007498    0.861796
     17          7           0       -2.899981   -1.087658   -0.530231
     18          8           0        1.386933    2.510907   -0.010679
     19          8           0        1.863207   -1.974243   -0.159330
 ---------------------------------------------------------------------

 SCF Done:  E(RHF) =  -638.897985485     A.U. after    2 cycles

 The electronic state is 1-A.
 Alpha  occ. eigenvalues --  -21.14741 -21.06595 -15.84566 -15.82524 -15.76578
 Alpha  occ. eigenvalues --  -15.76106 -11.55776 -11.51397 -11.47931 -11.47504
 Alpha  occ. eigenvalues --  -11.45224 -11.44209 -11.40603  -1.89144  -1.75409
 Alpha  occ. eigenvalues --   -1.68783  -1.49604  -1.25635  -1.22143  -1.20350
 Alpha  occ. eigenvalues --   -1.09437  -0.95016  -0.88354  -0.86870  -0.84261
 Alpha  occ. eigenvalues --   -0.80706  -0.79579  -0.74377  -0.66004  -0.63442
 Alpha  occ. eigenvalues --   -0.62230  -0.61021  -0.60804  -0.58264  -0.56079
 Alpha  occ. eigenvalues --   -0.52856  -0.52155  -0.46375  -0.44768  -0.43052
 Alpha  occ. eigenvalues --   -0.41443  -0.37717  -0.36484  -0.34492  -0.33839
 Alpha  occ. eigenvalues --   -0.32330
 Alpha virt. eigenvalues --    0.02873   0.04840   0.05166   0.05312   0.05877
 Alpha virt. eigenvalues --    0.07166   0.08604   0.09079   0.09544   0.10488
 Alpha virt. eigenvalues --    0.10602   0.10981   0.11541   0.11670   0.12174

 Mulliken charges:
               1
     1  C    5.970357
     2  C    0.612524
     3  C    0.466117
     4  C    3.460550
     5  C   -3.969278
     6  C   -0.030679
     7  C   -0.313573
     8  H    1.818867
     9  H    1.459938
    10  H    1.297943
    11  H    1.686937
    12  H    1.617673
    13  H    0.944175
    14  N   -1.636086
    15  N   -1.791494
    16  N   -1.935473
    17  N   -1.624666
    18  O   -3.803502
    19  O   -4.230329
 Sum of Mulliken charges =   0.00000

 Dipole moment (field-independent basis, Debye):
    X=              2.5744    Y=              1.6743    Z=             -0.3222  Tot=              3.0878

 Test job not archived.
 1\1\GINC-SE068\SP\RHF\Aug-CC-pVDZ\C7H6N4O2\OHZDE\08-Apr-2025\0\\#t hf
 aug-cc-pvdz iop(5/13=1,5/36=2,99/5=2) pseudo=read geom=check guess=(re
 ad,tcheck) scf=(maxcycle=1)\\title\\0,1\C,0,0.730111,1.49999,-0.025325
 2\C,0,-1.96861,-0.0297117,1.10243\C,0,-2.19161,-0.116914,-1.02608\C,0,
 1.31509,0.152555,0.00084636\C,0,2.73387,0.025046,0.215338\C,0,3.00415,
 -1.30662,0.0846794\C,0,0.847502,-1.09881,-0.210884\H,0,-0.12826,-1.526
 92,-0.457002\H,0,3.92987,-1.87178,0.127917\H,0,3.35007,0.886265,0.3548
 64\H,0,-2.04676,0.0505415,-2.10522\H,0,-1.60192,0.320028,2.07943\H,0,-

 Normal termination of Gaussian 16 at Tue Apr  8 19:56:59 2025.
