 Gaussian 16, Revision C.01,

 ----------------------------------------------------------------------
 #t hf aug-cc-pvdz symm=none int=(grid=ultrafine) guess=(read,tcheck) s
 table=(opt,rrhf)
 ----------------------------------------------------------------------
 -----
 title
 -----
 Symbolic Z-matrix:
 Charge =  0 Multiplicity = 1

 SCF Done:  E(RHF) =  -460.260633804     A.U. after   16 cycles
 Normal termination of Gaussian 16 at Tue Apr  8 21:34:45 2025.
 Gaussian 16:  ES64L-G16RevC.01  3-Jul-2019

 ----------------------------------------------------------------------
 #t hf aug-cc-pvdz iop(5/13=1,5/36=2,99/5=2) pseudo=read geom=check gue
 ss=(read,tcheck) scf=(maxcycle=1)
 ----------------------------------------------------------------------
 -----
 title
 -----
 Structure from the checkpoint file:  "ANI1ccx_373_conf3_mol1.chk"
 Charge =  0 Multiplicity = 1

                         Standard orientation:
 ---------------------------------------------------------------------
 Center     Atomic      Atomic             Coordinates (Angstroms)
 Number     Number       Type             X           Y           Z
 ---------------------------------------------------------------------
      1          6           0        0.075858    0.001266   -0.116739
      2          1           0        2.793050   -1.149560   -0.073481
      3          7           0       -1.399930   -0.017134   -0.024265
      4          7           0        0.770261    1.135019    0.123028
      5          7           0        2.011020    0.722556    0.143704
      6          7           0        1.950720   -0.553497   -0.041273
      7          7           0        0.716769   -1.123141   -0.178697
      8          8           0       -1.970640   -1.086121    0.231665
      9          8           0       -1.978120    1.085539   -0.154611
 ---------------------------------------------------------------------

 SCF Done:  E(RHF) =  -462.214823595     A.U. after    2 cycles

 The electronic state is 1-A.
 Alpha  occ. eigenvalues --  -21.12194 -21.11563 -16.02207 -15.91094 -15.88088
 Alpha  occ. eigenvalues --  -15.85596 -15.82603 -11.52414  -1.99683  -1.82431
 Alpha  occ. eigenvalues --   -1.69912  -1.44744  -1.36813  -1.10014  -0.98232
 Alpha  occ. eigenvalues --   -0.85523  -0.79065  -0.75868  -0.68690  -0.66643
 Alpha  occ. eigenvalues --   -0.62550  -0.58515  -0.51020  -0.47367  -0.45827
 Alpha  occ. eigenvalues --   -0.44192  -0.37775  -0.32814  -0.32395
 Alpha virt. eigenvalues --    0.02553   0.08309   0.08808   0.10039   0.10183
 Alpha virt. eigenvalues --    0.11781   0.12320   0.12575   0.13010   0.14783
 Alpha virt. eigenvalues --    0.15951   0.16739   0.16874   0.18298   0.19030

 Mulliken charges:
               1
     1  C    4.698771
     2  H    0.988078
     3  N    3.492244
     4  N   -1.659440
     5  N   -0.096728
     6  N   -0.226199
     7  N   -1.955529
     8  O   -2.617046
     9  O   -2.624150
 Sum of Mulliken charges =  -0.00000

 Dipole moment (field-independent basis, Debye):
    X=              3.5657    Y=             -1.9565    Z=             -0.1978  Tot=              4.0720

 Test job not archived.
 1\1\GINC-SE250\SP\RHF\Aug-CC-pVDZ\C1H1N5O2\OHZDE\08-Apr-2025\0\\#t hf
 aug-cc-pvdz iop(5/13=1,5/36=2,99/5=2) pseudo=read geom=check guess=(re
 ad,tcheck) scf=(maxcycle=1)\\title\\0,1\C,0,0.0758582,0.0012662,-0.116
 739\H,0,2.79305,-1.14956,-0.0734815\N,0,-1.39993,-0.0171335,-0.0242646
 \N,0,0.770261,1.13502,0.123028\N,0,2.01102,0.722556,0.143704\N,0,1.950
 72,-0.553497,-0.041273\N,0,0.716769,-1.12314,-0.178697\O,0,-1.97064,-1
 .08612,0.231665\O,0,-1.97812,1.08554,-0.154611\\Version=ES64L-G16RevC.
 01\State=1-A\HF=-462.2148236\RMSD=9.117e-02\Dipole=1.4028637,-0.769737

 Normal termination of Gaussian 16 at Tue Apr  8 21:34:48 2025.
