 Gaussian 16, Revision C.01,

 ----------------------------------------------------------------------
 #t hf aug-cc-pvdz symm=none int=(grid=ultrafine) guess=(read,tcheck) s
 table=(opt,rrhf)
 ----------------------------------------------------------------------
 -----
 title
 -----
 Symbolic Z-matrix:
 Charge =  0 Multiplicity = 1

 SCF Done:  E(RHF) =  -911.565440436     A.U. after   15 cycles
 Normal termination of Gaussian 16 at Tue Apr  8 21:34:03 2025.
 Gaussian 16:  ES64L-G16RevC.01  3-Jul-2019

 ----------------------------------------------------------------------
 #t hf aug-cc-pvdz iop(5/13=1,5/36=2,99/5=2) pseudo=read geom=check gue
 ss=(read,tcheck) scf=(maxcycle=1)
 ----------------------------------------------------------------------
 -----
 title
 -----
 Structure from the checkpoint file:  "ANI1ccx_191_conf10_mol2.chk"
 Charge =  0 Multiplicity = 1

                         Standard orientation:
 ---------------------------------------------------------------------
 Center     Atomic      Atomic             Coordinates (Angstroms)
 Number     Number       Type             X           Y           Z
 ---------------------------------------------------------------------
      1          6           0        1.803681    0.540180   -0.434837
      2          6           0       -4.161049   -1.163491    0.555998
      3          6           0       -2.503399   -0.238427    2.151070
      4          6           0       -2.641189   -0.912251    0.759733
      5          6           0       -2.476369    1.310969   -0.285649
      6          6           0       -4.561639   -2.145711   -0.611519
      7          6           0        4.643081   -0.624341    0.125187
      8          6           0        3.659851    0.047012    1.033430
      9          6           0        2.218451   -0.287411    0.769138
     10          6           0        0.454185    0.038930   -1.026820
     11          6           0       -1.914109   -0.128314   -0.327181
     12          1           0       -1.492969    0.096503    2.483690
     13          1           0       -3.829149    2.376109   -0.894613
     14          1           0       -5.694809   -2.189051   -0.764269
     15          1           0       -4.172779   -1.786741   -1.565050
     16          1           0       -4.147259   -3.171291   -0.356293
     17          1           0       -4.545909   -1.614611    1.490760
     18          1           0       -4.645779   -0.198831    0.373807
     19          1           0       -2.862419   -0.994685    2.895360
     20          1           0       -3.185419    0.590231    2.213850
     21          1           0       -2.085509   -1.876601    0.801186
     22          1           0        6.337281   -0.665519   -0.439599
     23          1           0       -0.361537    0.691919    0.738999
     24          1           0        3.977371   -0.234437    2.027470
     25          1           0        3.836961    1.104460    0.895841
     26          1           0        1.570361   -0.054524    1.604390
     27          1           0        2.131101   -1.372610    0.505074
     28          1           0        2.562931    0.500399   -1.226370
     29          1           0        1.647841    2.597360   -0.728894
     30          1           0        0.952389    2.028780    0.613763
     31          1           0       -2.098889   -0.634660   -1.305820
     32          7           0        1.756201    1.936360    0.035237
     33          7           0       -0.531687    0.027809   -0.055702
     34          8           0       -1.943379    2.166819    0.376472
     35          8           0        0.296254   -0.416046   -2.115750
     36          8           0        4.401991   -1.492780   -0.716692
     37          8           0        5.889291   -0.189694    0.283899
     38          8           0       -3.593449    1.486169   -1.011840
 ---------------------------------------------------------------------

 SCF Done:  E(RHF) =  -915.690867007     A.U. after    2 cycles

 The electronic state is 1-A.
 Alpha  occ. eigenvalues --  -21.15199 -21.12603 -21.07150 -21.04399 -21.03532
 Alpha  occ. eigenvalues --  -15.75186 -15.74548 -11.55697 -11.53384 -11.52593
 Alpha  occ. eigenvalues --  -11.50360 -11.47462 -11.44232 -11.43524 -11.41825
 Alpha  occ. eigenvalues --  -11.39060 -11.38894 -11.37108  -1.85852  -1.84003
 Alpha  occ. eigenvalues --   -1.72256  -1.68812  -1.63715  -1.43657  -1.36847
 Alpha  occ. eigenvalues --   -1.24934  -1.19905  -1.09952  -1.05683  -1.02291
 Alpha  occ. eigenvalues --   -0.92195  -0.91292  -0.86649  -0.81361  -0.78101
 Alpha  occ. eigenvalues --   -0.77268  -0.72253  -0.70224  -0.66858  -0.65991
 Alpha  occ. eigenvalues --   -0.65439  -0.64128  -0.62210  -0.61768  -0.60723
 Alpha  occ. eigenvalues --   -0.59373  -0.58506  -0.56666  -0.55677  -0.54597
 Alpha  occ. eigenvalues --   -0.54208  -0.52361  -0.51394  -0.51169  -0.49860
 Alpha  occ. eigenvalues --   -0.48829  -0.48545  -0.47896  -0.46107  -0.44667
 Alpha  occ. eigenvalues --   -0.44153  -0.43128  -0.42519  -0.39408  -0.36025
 Alpha  occ. eigenvalues --   -0.33266  -0.32509  -0.31291  -0.29623  -0.26997
 Alpha virt. eigenvalues --    0.03785   0.04018   0.04350   0.04698   0.05121
 Alpha virt. eigenvalues --    0.05451   0.05510   0.05838   0.06353   0.06581
 Alpha virt. eigenvalues --    0.06805   0.07237   0.07839   0.08346   0.08761

 Mulliken charges:
               1
     1  C   -2.031472
     2  C   -3.821823
     3  C   -5.378622
     4  C   -0.212607
     5  C    7.776159
     6  C   -4.246907
     7  C    6.393410
     8  C   -4.701042
     9  C   -3.580406
    10  C    6.876878
    11  C   -0.612817
    12  H    1.271707
    13  H    0.724851
    14  H    1.069910
    15  H    1.483319
    16  H    1.256204
    17  H    1.394368
    18  H    1.675236
    19  H    1.044086
    20  H    1.410490
    21  H    1.835872
    22  H    0.812442
    23  H    1.337460
    24  H    1.555692
    25  H    1.568144
    26  H    1.580958
    27  H    1.762358
    28  H    1.916037
    29  H    0.675875
    30  H    0.479351
    31  H    2.178624
    32  N   -2.835087
    33  N   -3.124128
    34  O   -3.556093
    35  O   -4.185783
    36  O   -3.036632
    37  O   -3.243879
    38  O   -3.512135
 Sum of Mulliken charges =  -0.00000

 Dipole moment (field-independent basis, Debye):
    X=             -2.1341    Y=              1.3105    Z=              1.3946  Tot=              2.8665

 Test job not archived.
 1\1\GINC-SE340\SP\RHF\Aug-CC-pVDZ\C11H20N2O5\OHZDE\08-Apr-2025\0\\#t h
 f aug-cc-pvdz iop(5/13=1,5/36=2,99/5=2) pseudo=read geom=check guess=(
 read,tcheck) scf=(maxcycle=1)\\title\\0,1\C,0,1.80368,0.54018,-0.43483
 7\C,0,-4.16105,-1.16349,0.555998\C,0,-2.5034,-0.238426,2.15107\C,0,-2.
 64119,-0.91225,0.759733\C,0,-2.47637,1.31097,-0.285649\C,0,-4.56164,-2
 .14571,-0.611519\C,0,4.64308,-0.624341,0.125187\C,0,3.65985,0.0470128,
 1.03343\C,0,2.21845,-0.287411,0.769138\C,0,0.454184,0.0389301,-1.02682
 \C,0,-1.91411,-0.128313,-0.327181\H,0,-1.49297,0.0965031,2.48369\H,0,-

 Normal termination of Gaussian 16 at Tue Apr  8 21:34:56 2025.
