 Gaussian 16, Revision C.01,

 ----------------------------------------------------------------------
 #t hf aug-cc-pvdz symm=none int=(grid=ultrafine) guess=(read,tcheck) s
 table=(opt,rrhf)
 ----------------------------------------------------------------------
 -----
 title
 -----
 Symbolic Z-matrix:
 Charge =  0 Multiplicity = 1

 SCF Done:  E(RHF) =  -532.259726347     A.U. after   12 cycles
 Normal termination of Gaussian 16 at Tue Apr  8 21:11:04 2025.
 Gaussian 16:  ES64L-G16RevC.01  3-Jul-2019

 ----------------------------------------------------------------------
 #t hf aug-cc-pvdz iop(5/13=1,5/36=2,99/5=2) pseudo=read geom=check gue
 ss=(read,tcheck) scf=(maxcycle=1)
 ----------------------------------------------------------------------
 -----
 title
 -----
 Structure from the checkpoint file:  "ANI1ccx_1845_conf442_mol1.chk"
 Charge =  0 Multiplicity = 1

                         Standard orientation:
 ---------------------------------------------------------------------
 Center     Atomic      Atomic             Coordinates (Angstroms)
 Number     Number       Type             X           Y           Z
 ---------------------------------------------------------------------
      1          1           0       -0.768206   -0.019596   -0.564635
      2          1           0        2.449882   -2.782510   -0.045401
      3          1           0        1.397992   -1.525360   -0.455531
      4          1           0        3.439442   -0.570606   -0.184548
      5          1           0        4.539782    0.466499   -0.650470
      6          1           0        0.548747    0.511528    0.234953
      7          1           0        2.445332    1.545940    0.600235
      8          1           0       -3.368288    0.084073    0.808363
      9          1           0        1.473402    2.621840   -0.029240
     10          1           0       -2.869158    0.489431   -1.336030
     11          1           0       -1.962518   -0.153893   -2.412910
     12          1           0       -1.657458   -0.243767    2.730990
     13          1           0       -1.111448   -0.528785    1.080910
     14          1           0       -4.203328   -0.965533   -0.260391
     15          8           0        0.040259   -0.317496    0.049466
     16          8           0       -3.928988    0.043289   -0.047785
     17          8           0        3.865962    0.328427    0.034060
     18          8           0       -1.947648    0.625089   -1.775970
     19          8           0        2.324392   -1.865390   -0.523551
     20          8           0        1.523762    1.930540    0.593702
     21          8           0       -1.922008   -0.610617    1.730540
 ---------------------------------------------------------------------

 SCF Done:  E(RHF) =  -534.593312985     A.U. after    2 cycles

 The electronic state is 1-A.
 Alpha  occ. eigenvalues --  -21.09254 -21.08532 -21.08021 -21.07387 -21.07210
 Alpha  occ. eigenvalues --  -21.06934 -21.05057  -1.68490  -1.66149  -1.65501
 Alpha  occ. eigenvalues --   -1.64612  -1.62576  -1.62141  -1.58563  -0.66320
 Alpha  occ. eigenvalues --   -0.64811  -0.63749  -0.62616  -0.62084  -0.61642
 Alpha  occ. eigenvalues --   -0.59740  -0.52438  -0.49704  -0.47299  -0.47154
 Alpha  occ. eigenvalues --   -0.45446  -0.42116  -0.40260  -0.35819  -0.35662
 Alpha  occ. eigenvalues --   -0.35135  -0.33595  -0.33257  -0.31815  -0.31736
 Alpha virt. eigenvalues --    0.03803   0.04155   0.05086   0.05425   0.05950
 Alpha virt. eigenvalues --    0.06095   0.07826   0.08239   0.09093   0.09607
 Alpha virt. eigenvalues --    0.10682   0.11481   0.12463   0.13170   0.17909

 Mulliken charges:
               1
     1  H    1.523963
     2  H    0.827969
     3  H    1.467805
     4  H    1.470643
     5  H    0.869429
     6  H    1.479836
     7  H    1.176933
     8  H    1.345134
     9  H    0.900166
    10  H    1.355830
    11  H    0.774337
    12  H    0.777051
    13  H    1.866407
    14  H    0.823896
    15  O   -3.273682
    16  O   -2.312229
    17  O   -2.195866
    18  O   -2.047378
    19  O   -2.361280
    20  O   -2.221501
    21  O   -2.247464
 Sum of Mulliken charges =   0.00000

 Dipole moment (field-independent basis, Debye):
    X=              0.6578    Y=             -0.4957    Z=             -0.8868  Tot=              1.2103

 Test job not archived.
 1\1\GINC-SE079\SP\RHF\Aug-CC-pVDZ\H14O7\OHZDE\08-Apr-2025\0\\#t hf aug
 -cc-pvdz iop(5/13=1,5/36=2,99/5=2) pseudo=read geom=check guess=(read,
 tcheck) scf=(maxcycle=1)\\title\\0,1\H,0,-0.768208,-0.0195961,-0.56463
 5\H,0,2.44988,-2.78251,-0.0454011\H,0,1.39799,-1.52536,-0.455531\H,0,3
 .43944,-0.570606,-0.184548\H,0,4.53978,0.466499,-0.65047\H,0,0.548745,
 0.511528,0.234953\H,0,2.44533,1.54594,0.600235\H,0,-3.36829,0.0840733,
 0.808363\H,0,1.4734,2.62184,-0.0292398\H,0,-2.86916,0.489431,-1.33603\
 H,0,-1.96252,-0.153893,-2.41291\H,0,-1.65746,-0.243767,2.73099\H,0,-1.

 Normal termination of Gaussian 16 at Tue Apr  8 21:11:11 2025.
