 Gaussian 16, Revision C.01,

 ----------------------------------------------------------------------
 #t hf aug-cc-pvdz symm=none int=(grid=ultrafine) guess=(read,tcheck) s
 table=(opt,rrhf)
 ----------------------------------------------------------------------
 -----
 title
 -----
 Symbolic Z-matrix:
 Charge =  0 Multiplicity = 1

 SCF Done:  E(RHF) =  -556.584102900     A.U. after   17 cycles
 Normal termination of Gaussian 16 at Tue Apr  8 22:12:38 2025.
 Gaussian 16:  ES64L-G16RevC.01  3-Jul-2019

 ----------------------------------------------------------------------
 #t hf aug-cc-pvdz iop(5/13=1,5/36=2,99/5=2) pseudo=read geom=check gue
 ss=(read,tcheck) scf=(maxcycle=1)
 ----------------------------------------------------------------------
 -----
 title
 -----
 Structure from the checkpoint file:  "ANI1ccx_926_conf3_mol1.chk"
 Charge =  0 Multiplicity = 1

                         Standard orientation:
 ---------------------------------------------------------------------
 Center     Atomic      Atomic             Coordinates (Angstroms)
 Number     Number       Type             X           Y           Z
 ---------------------------------------------------------------------
      1          6           0        2.000270   -0.258933    0.011236
      2          6           0        0.501933   -0.198050    0.065398
      3          6           0       -2.063930   -0.128064   -0.007070
      4          6           0       -0.090990    1.070990    0.025016
      5          1           0       -0.055278    3.059900   -0.105560
      6          1           0       -3.705740   -1.231371    0.151461
      7          1           0        1.507149    2.139681   -0.152314
      8          1           0        3.474211   -1.824968    0.174753
      9          1           0        1.940261   -2.350779   -0.273442
     10          1           0       -3.975980    0.452560    0.344776
     11          7           0        0.536362    2.217881    0.007817
     12          7           0        2.495711   -1.552488   -0.076258
     13          7           0       -0.142915   -1.380930   -0.019632
     14          7           0       -1.451340   -1.326090    0.139221
     15          7           0       -3.405010   -0.276558   -0.171643
     16          7           0       -1.444521    1.063640    0.003520
     17          8           0        2.826709    0.702642    0.013959
 ---------------------------------------------------------------------

 SCF Done:  E(RHF) =  -559.067705777     A.U. after    2 cycles

 The electronic state is 1-A.
 Alpha  occ. eigenvalues --  -21.03354 -15.82437 -15.79269 -15.78128 -15.76755
 Alpha  occ. eigenvalues --  -15.75489 -15.74412 -11.54171 -11.53050 -11.49701
 Alpha  occ. eigenvalues --  -11.42479  -1.69950  -1.60960  -1.45506  -1.41277
 Alpha  occ. eigenvalues --   -1.32794  -1.28274  -1.17440  -0.99367  -0.93786
 Alpha  occ. eigenvalues --   -0.84314  -0.75991  -0.73041  -0.70698  -0.67858
 Alpha  occ. eigenvalues --   -0.65541  -0.64194  -0.60089  -0.59013  -0.54753
 Alpha  occ. eigenvalues --   -0.52225  -0.50934  -0.49316  -0.46005  -0.44448
 Alpha  occ. eigenvalues --   -0.36673  -0.34222  -0.32694  -0.30771  -0.29798
 Alpha virt. eigenvalues --    0.03485   0.04571   0.05622   0.06157   0.07160
 Alpha virt. eigenvalues --    0.07490   0.08533   0.09606   0.10826   0.11397
 Alpha virt. eigenvalues --    0.12100   0.12403   0.12688   0.13705   0.14108

 Mulliken charges:
               1
     1  C    4.793341
     2  C    2.517507
     3  C    4.530871
     4  C    3.787586
     5  H    0.870836
     6  H    0.615923
     7  H    0.492151
     8  H    0.723322
     9  H    0.753426
    10  H    0.550037
    11  N   -3.386881
    12  N   -3.145941
    13  N   -1.400041
    14  N   -1.950168
    15  N   -2.963210
    16  N   -3.478755
    17  O   -3.310002
 Sum of Mulliken charges =  -0.00000

 Dipole moment (field-independent basis, Debye):
    X=             -0.9704    Y=              1.1419    Z=              0.4917  Tot=              1.5771

 Test job not archived.
 1\1\GINC-SE460\SP\RHF\Aug-CC-pVDZ\C4H6N6O1\OHZDE\08-Apr-2025\0\\#t hf
 aug-cc-pvdz iop(5/13=1,5/36=2,99/5=2) pseudo=read geom=check guess=(re
 ad,tcheck) scf=(maxcycle=1)\\title\\0,1\C,0,2.00027,-0.258934,0.011235
 6\C,0,0.501933,-0.198051,0.0653984\C,0,-2.06393,-0.128064,-0.00706993\
 C,0,-0.0909897,1.07099,0.0250161\H,0,-0.055276,3.0599,-0.10556\H,0,-3.
 70574,-1.23137,0.151461\H,0,1.50715,2.13968,-0.152314\H,0,3.47421,-1.8
 2497,0.174753\H,0,1.94026,-2.35078,-0.273442\H,0,-3.97598,0.452561,0.3
 44776\N,0,0.536363,2.21788,0.00781678\N,0,2.49571,-1.55249,-0.0762583\

 Normal termination of Gaussian 16 at Tue Apr  8 22:12:46 2025.
