 Gaussian 16, Revision C.01,

 ----------------------------------------------------------------------
 #t hf aug-cc-pvdz symm=none int=(grid=ultrafine) guess=(read,tcheck) s
 table=(opt,rrhf)
 ----------------------------------------------------------------------
 -----
 title
 -----
 Symbolic Z-matrix:
 Charge =  0 Multiplicity = 1

 SCF Done:  E(RHF) =  -280.718972572     A.U. after   14 cycles
 Normal termination of Gaussian 16 at Tue Apr  8 21:12:20 2025.
 Gaussian 16:  ES64L-G16RevC.01  3-Jul-2019

 ----------------------------------------------------------------------
 #t hf aug-cc-pvdz iop(5/13=1,5/36=2,99/5=2) pseudo=read geom=check gue
 ss=(read,tcheck) scf=(maxcycle=1)
 ----------------------------------------------------------------------
 -----
 title
 -----
 Structure from the checkpoint file:  "ANI1ccx_1870_conf5_mol1.chk"
 Charge =  0 Multiplicity = 1

                         Standard orientation:
 ---------------------------------------------------------------------
 Center     Atomic      Atomic             Coordinates (Angstroms)
 Number     Number       Type             X           Y           Z
 ---------------------------------------------------------------------
      1          1           0        2.052740   -0.012979    0.022306
      2          1           0        3.230710    0.692648    0.613150
      3          1           0       -2.789860    0.632044   -0.282343
      4          7           0       -1.364410   -0.520641   -0.171284
      5          8           0        2.971700    0.170640   -0.143629
      6          8           0       -1.880260    0.693798    0.046248
      7          8           0       -0.209279   -0.572842    0.203115
 ---------------------------------------------------------------------

 SCF Done:  E(RHF) =  -281.868978819     A.U. after    2 cycles

 The electronic state is 1-A.
 Alpha  occ. eigenvalues --  -21.17348 -21.14575 -21.08463 -15.94887  -1.99472
 Alpha  occ. eigenvalues --   -1.72814  -1.64868  -0.98135  -0.74396  -0.62951
 Alpha  occ. eigenvalues --   -0.62450  -0.60812  -0.49087  -0.45299  -0.38005
 Alpha  occ. eigenvalues --   -0.33749  -0.32568
 Alpha virt. eigenvalues --    0.03360   0.05632   0.09126   0.11307   0.12666
 Alpha virt. eigenvalues --    0.14521   0.17233   0.17700   0.18716   0.19906
 Alpha virt. eigenvalues --    0.20114   0.23015   0.23455   0.24225   0.26930

 Mulliken charges:
               1
     1  H    1.173924
     2  H    0.787803
     3  H    0.923758
     4  N    2.539968
     5  O   -1.951999
     6  O   -2.093097
     7  O   -1.380356
 Sum of Mulliken charges =  -0.00000

 Dipole moment (field-independent basis, Debye):
    X=             -2.2080    Y=              1.1275    Z=              0.6790  Tot=              2.5705

 Test job not archived.
 1\1\GINC-SE249\SP\RHF\Aug-CC-pVDZ\H3N1O3\OHZDE\08-Apr-2025\0\\#t hf au
 g-cc-pvdz iop(5/13=1,5/36=2,99/5=2) pseudo=read geom=check guess=(read
 ,tcheck) scf=(maxcycle=1)\\title\\0,1\H,0,2.05274,-0.0129792,0.0223059
 \H,0,3.23071,0.692648,0.61315\H,0,-2.78986,0.632044,-0.282343\N,0,-1.3
 6441,-0.520641,-0.171284\O,0,2.9717,0.17064,-0.143629\O,0,-1.88026,0.6
 93798,0.0462483\O,0,-0.209279,-0.572842,0.203115\\Version=ES64L-G16Rev
 C.01\State=1-A\HF=-281.8689788\RMSD=5.434e-02\Dipole=-0.868683,0.44359
 01,0.267158\Quadrupole=1.740962,-1.5479841,-0.1929779,-0.3420709,2.586

 Normal termination of Gaussian 16 at Tue Apr  8 21:12:22 2025.
