 Gaussian 16, Revision C.01,

 ----------------------------------------------------------------------
 #t hf aug-cc-pvdz symm=none int=(grid=ultrafine) guess=(read,tcheck) s
 table=(opt,rrhf)
 ----------------------------------------------------------------------
 -----
 title
 -----
 Symbolic Z-matrix:
 Charge =  0 Multiplicity = 1

 SCF Done:  E(RHF) =  -447.769638778     A.U. after   14 cycles
 Normal termination of Gaussian 16 at Tue Apr  8 21:49:25 2025.
 Gaussian 16:  ES64L-G16RevC.01  3-Jul-2019

 ----------------------------------------------------------------------
 #t hf aug-cc-pvdz iop(5/13=1,5/36=2,99/5=2) pseudo=read geom=check gue
 ss=(read,tcheck) scf=(maxcycle=1)
 ----------------------------------------------------------------------
 -----
 title
 -----
 Structure from the checkpoint file:  "ANI1ccx_586_conf6_mol1.chk"
 Charge =  0 Multiplicity = 1

                         Standard orientation:
 ---------------------------------------------------------------------
 Center     Atomic      Atomic             Coordinates (Angstroms)
 Number     Number       Type             X           Y           Z
 ---------------------------------------------------------------------
      1          6           0       -1.195058    1.467442   -0.800761
      2          6           0        0.160266   -0.487506   -0.172904
      3          1           0       -1.557749    0.881222   -1.626740
      4          1           0       -1.906528    1.593923    0.038600
      5          1           0       -0.892071    2.465582   -1.119990
      6          1           0        0.683294    2.452960    0.756427
      7          1           0       -0.026045    1.125891    1.653350
      8          1           0       -0.700193   -2.196439   -0.289506
      9          1           0       -2.675801   -0.626097    0.355740
     10          1           0        2.071951    0.540199   -0.206762
     11          7           0        0.027652    0.890228   -0.212472
     12          7           0        0.624155    1.417710    0.938551
     13          7           0       -0.980024   -1.216438   -0.377175
     14          7           0        1.288719   -1.175021   -0.140969
     15          8           0       -1.852241   -1.035677    0.742916
     16          8           0        2.413290   -0.405848   -0.139751
 ---------------------------------------------------------------------

 SCF Done:  E(RHF) =  -449.773100287     A.U. after    2 cycles

 The electronic state is 1-A.
 Alpha  occ. eigenvalues --  -21.10759 -21.06794 -15.79062 -15.78522 -15.75984
 Alpha  occ. eigenvalues --  -15.75634 -11.45169 -11.42265  -1.80391  -1.77096
 Alpha  occ. eigenvalues --   -1.55290  -1.33576  -1.18138  -1.11569  -1.00324
 Alpha  occ. eigenvalues --   -0.79826  -0.73825  -0.71659  -0.67073  -0.64337
 Alpha  occ. eigenvalues --   -0.62016  -0.59143  -0.57875  -0.55332  -0.51380
 Alpha  occ. eigenvalues --   -0.46145  -0.43819  -0.40030  -0.37674  -0.35718
 Alpha  occ. eigenvalues --   -0.33601  -0.24197
 Alpha virt. eigenvalues --    0.02984   0.04578   0.04892   0.05498   0.06190
 Alpha virt. eigenvalues --    0.06732   0.07327   0.07975   0.09973   0.13217
 Alpha virt. eigenvalues --    0.13494   0.14104   0.14541   0.15789   0.16211

 Mulliken charges:
               1
     1  C   -3.412791
     2  C    5.288734
     3  H    1.303073
     4  H    1.404883
     5  H    1.296661
     6  H    0.625443
     7  H    0.666876
     8  H    0.716388
     9  H    0.785487
    10  H    0.981527
    11  N   -0.992351
    12  N   -2.147218
    13  N   -1.051893
    14  N   -0.696868
    15  O   -2.280093
    16  O   -2.487858
 Sum of Mulliken charges =  -0.00000

 Dipole moment (field-independent basis, Debye):
    X=             -2.8389    Y=              2.9146    Z=              0.4117  Tot=              4.0894

 Test job not archived.
 1\1\GINC-SE365\SP\RHF\Aug-CC-pVDZ\C2H8N4O2\OHZDE\08-Apr-2025\0\\#t hf
 aug-cc-pvdz iop(5/13=1,5/36=2,99/5=2) pseudo=read geom=check guess=(re
 ad,tcheck) scf=(maxcycle=1)\\title\\0,1\C,0,-1.19506,1.46744,-0.800761
 \C,0,0.160267,-0.487506,-0.172904\H,0,-1.55775,0.88122,-1.62674\H,0,-1
 .90653,1.59392,0.0386001\H,0,-0.892074,2.46558,-1.11999\H,0,0.683291,2
 .45296,0.756427\H,0,-0.0260462,1.12589,1.65335\H,0,-0.70019,-2.19644,-
 0.289506\H,0,-2.6758,-0.626101,0.35574\H,0,2.07195,0.540201,-0.206762\
 N,0,0.0276505,0.890227,-0.212472\N,0,0.624153,1.41771,0.938551\N,0,-0.

 Normal termination of Gaussian 16 at Tue Apr  8 21:49:30 2025.
