 Gaussian 16, Revision C.01,

 ----------------------------------------------------------------------
 #t hf aug-cc-pvdz symm=none int=(grid=ultrafine) guess=(read,tcheck) s
 table=(opt,rrhf)
 ----------------------------------------------------------------------
 -----
 title
 -----
 Symbolic Z-matrix:
 Charge =  0 Multiplicity = 1

 SCF Done:  E(RHF) =  -414.366122216     A.U. after   15 cycles
 Normal termination of Gaussian 16 at Tue Apr  8 21:38:45 2025.
 Gaussian 16:  ES64L-G16RevC.01  3-Jul-2019

 ----------------------------------------------------------------------
 #t hf aug-cc-pvdz iop(5/13=1,5/36=2,99/5=2) pseudo=read geom=check gue
 ss=(read,tcheck) scf=(maxcycle=1)
 ----------------------------------------------------------------------
 -----
 title
 -----
 Structure from the checkpoint file:  "ANI1ccx_410_conf3_mol1.chk"
 Charge =  0 Multiplicity = 1

                         Standard orientation:
 ---------------------------------------------------------------------
 Center     Atomic      Atomic             Coordinates (Angstroms)
 Number     Number       Type             X           Y           Z
 ---------------------------------------------------------------------
      1          6           0       -2.432190   -0.420169    0.060388
      2          1           0       -0.541508   -0.508980   -0.062296
      3          1           0       -2.367611   -1.517129    0.227519
      4          1           0        1.905200    1.208080    1.001730
      5          1           0        3.409879   -0.681385   -0.391658
      6          8           0       -1.253740    0.141497   -0.244129
      7          8           0       -3.455470    0.199706    0.129678
      8          8           0        1.906300    1.205460    0.043829
      9          8           0        1.599820   -0.150081   -0.315344
     10          8           0        2.726489   -0.894029    0.243763
 ---------------------------------------------------------------------

 SCF Done:  E(RHF) =  -416.031956725     A.U. after    2 cycles

 The electronic state is 1-A.
 Alpha  occ. eigenvalues --  -21.18510 -21.16510 -21.15792 -21.12598 -21.05761
 Alpha  occ. eigenvalues --  -11.50842  -2.06424  -1.81912  -1.70548  -1.65425
 Alpha  occ. eigenvalues --   -1.32786  -0.85935  -0.72818  -0.70427  -0.58847
 Alpha  occ. eigenvalues --   -0.58604  -0.55806  -0.54448  -0.53077  -0.47343
 Alpha  occ. eigenvalues --   -0.39319  -0.36701  -0.33719  -0.32426  -0.30875
 Alpha virt. eigenvalues --    0.03619   0.04622   0.05314   0.08582   0.10556
 Alpha virt. eigenvalues --    0.11312   0.13299   0.14150   0.14786   0.15655
 Alpha virt. eigenvalues --    0.17147   0.18605   0.19151   0.19708   0.21355

 Mulliken charges:
               1
     1  C    2.541216
     2  H    1.114119
     3  H    1.409822
     4  H    0.928132
     5  H    0.986230
     6  O   -2.680235
     7  O   -2.437735
     8  O   -0.974130
     9  O    0.203953
    10  O   -1.091373
 Sum of Mulliken charges =  -0.00000

 Dipole moment (field-independent basis, Debye):
    X=              3.2949    Y=             -0.8487    Z=              0.4579  Tot=              3.4331

 Test job not archived.
 1\1\GINC-SE454\SP\RHF\Aug-CC-pVDZ\C1H4O5\OHZDE\08-Apr-2025\0\\#t hf au
 g-cc-pvdz iop(5/13=1,5/36=2,99/5=2) pseudo=read geom=check guess=(read
 ,tcheck) scf=(maxcycle=1)\\title\\0,1\C,0,-2.43219,-0.42017,0.0603886\
 H,0,-0.541508,-0.508981,-0.0622954\H,0,-2.36761,-1.51713,0.227519\H,0,
 1.9052,1.20808,1.00173\H,0,3.40988,-0.681385,-0.391658\O,0,-1.25374,0.
 141496,-0.244129\O,0,-3.45547,0.199705,0.129678\O,0,1.9063,1.20546,0.0
 438294\O,0,1.59982,-0.150081,-0.315344\O,0,2.72649,-0.894029,0.243763\
 \Version=ES64L-G16RevC.01\State=1-A\HF=-416.0319567\RMSD=3.694e-02\Dip

 Normal termination of Gaussian 16 at Tue Apr  8 21:38:48 2025.
