 Gaussian 16, Revision C.01,

 ----------------------------------------------------------------------
 #t hf aug-cc-pvdz symm=none int=(grid=ultrafine) guess=(read,tcheck) s
 table=(opt,rrhf)
 ----------------------------------------------------------------------
 -----
 title
 -----
 Symbolic Z-matrix:
 Charge =  0 Multiplicity = 1

 SCF Done:  E(RHF) =  -681.664094651     A.U. after   15 cycles
 Normal termination of Gaussian 16 at Tue Apr  8 19:54:57 2025.
 Gaussian 16:  ES64L-G16RevC.01  3-Jul-2019

 ----------------------------------------------------------------------
 #t hf aug-cc-pvdz iop(5/13=1,5/36=2,99/5=2) pseudo=read geom=check gue
 ss=(read,tcheck) scf=(maxcycle=1)
 ----------------------------------------------------------------------
 -----
 title
 -----
 Structure from the checkpoint file:  "ANI1ccx_1434_conf3_mol1.chk"
 Charge =  0 Multiplicity = 1

                         Standard orientation:
 ---------------------------------------------------------------------
 Center     Atomic      Atomic             Coordinates (Angstroms)
 Number     Number       Type             X           Y           Z
 ---------------------------------------------------------------------
      1          6           0        1.929129    0.656555    0.160494
      2          6           0        0.498376    1.107900   -0.003744
      3          6           0        2.144299   -0.576348   -0.614631
      4          6           0        3.664739   -0.774290   -0.815891
      5          6           0       -1.883911    0.546785    0.151809
      6          6           0       -2.744441   -0.675216    0.262450
      7          6           0       -2.274141    1.315660   -1.180420
      8          1           0       -1.576891   -1.491690   -1.066050
      9          1           0       -3.289591    1.396169   -1.244500
     10          1           0       -1.865371    2.333820   -1.170460
     11          1           0       -1.886261    0.766811   -2.101300
     12          1           0       -2.077861    1.209220    0.999071
     13          1           0       -0.204924   -0.794369    0.511644
     14          1           0        3.910269   -1.749079   -1.175970
     15          1           0        4.101439    0.023188   -1.408040
     16          1           0        4.086709   -0.608797    0.202451
     17          1           0        1.871939   -1.528130    1.002880
     18          1           0        1.677419   -0.514745   -1.648800
     19          1           0        2.489519    1.427281   -0.320082
     20          1           0        3.260099    0.897602    1.637600
     21          1           0        1.642349    0.767464    2.225820
     22          7           0        2.361829    0.395752    1.552840
     23          7           0       -0.474796    0.152026    0.128467
     24          8           0        0.171555    2.290290   -0.067402
     25          8           0        1.646849   -1.722780    0.082129
     26          8           0       -3.616411   -0.800002    1.057940
     27          8           0       -2.371041   -1.714440   -0.569391
 ---------------------------------------------------------------------

 SCF Done:  E(RHF) =  -684.718762055     A.U. after    2 cycles

 The electronic state is 1-A.
 Alpha  occ. eigenvalues --  -21.11942 -21.07850 -21.06166 -21.04296 -15.77635
 Alpha  occ. eigenvalues --  -15.77345 -11.55254 -11.54407 -11.51211 -11.45945
 Alpha  occ. eigenvalues --  -11.44731 -11.39258 -11.38586  -1.82131  -1.74914
 Alpha  occ. eigenvalues --   -1.71715  -1.66557  -1.41953  -1.37184  -1.17143
 Alpha  occ. eigenvalues --   -1.14285  -1.04088  -0.96847  -0.86667  -0.81786
 Alpha  occ. eigenvalues --   -0.80087  -0.75013  -0.72454  -0.68999  -0.67921
 Alpha  occ. eigenvalues --   -0.64051  -0.60704  -0.59130  -0.58570  -0.57161
 Alpha  occ. eigenvalues --   -0.56612  -0.54353  -0.53072  -0.51726  -0.50207
 Alpha  occ. eigenvalues --   -0.49558  -0.48729  -0.46976  -0.45313  -0.42017
 Alpha  occ. eigenvalues --   -0.40897  -0.34424  -0.33829  -0.32954  -0.29828
 Alpha  occ. eigenvalues --   -0.29324
 Alpha virt. eigenvalues --    0.03217   0.04159   0.04536   0.04986   0.05149
 Alpha virt. eigenvalues --    0.05619   0.05878   0.06358   0.07040   0.07217
 Alpha virt. eigenvalues --    0.07646   0.08283   0.09475   0.09611   0.10695

 Mulliken charges:
               1
     1  C   -3.363340
     2  C    7.529654
     3  C    2.221537
     4  C   -4.191075
     5  C   -2.916626
     6  C    6.637085
     7  C   -4.119518
     8  H    1.125241
     9  H    1.189331
    10  H    1.426019
    11  H    1.412240
    12  H    1.746474
    13  H    0.901285
    14  H    1.112280
    15  H    1.244929
    16  H    1.169860
    17  H    0.798086
    18  H    1.999838
    19  H    1.801991
    20  H    0.548524
    21  H    0.580874
    22  N   -2.570730
    23  N   -2.421477
    24  O   -3.753982
    25  O   -3.287299
    26  O   -3.461123
    27  O   -3.360077
 Sum of Mulliken charges =   0.00000

 Dipole moment (field-independent basis, Debye):
    X=              2.9912    Y=              0.5212    Z=             -0.0634  Tot=              3.0370

 Test job not archived.
 1\1\GINC-SE051\SP\RHF\Aug-CC-pVDZ\C7H14N2O4\OHZDE\08-Apr-2025\0\\#t hf
  aug-cc-pvdz iop(5/13=1,5/36=2,99/5=2) pseudo=read geom=check guess=(r
 ead,tcheck) scf=(maxcycle=1)\\title\\0,1\C,0,1.92913,0.656554,0.160494
 \C,0,0.498377,1.1079,-0.00374344\C,0,2.1443,-0.576349,-0.614631\C,0,3.
 66474,-0.774291,-0.815891\C,0,-1.88391,0.546785,0.151809\C,0,-2.74444,
 -0.675216,0.26245\C,0,-2.27414,1.31566,-1.18042\H,0,-1.57689,-1.49169,
 -1.06605\H,0,-3.28959,1.39617,-1.2445\H,0,-1.86537,2.33382,-1.17046\H,
 0,-1.88626,0.766811,-2.1013\H,0,-2.07786,1.20922,0.999071\H,0,-0.20492

 Normal termination of Gaussian 16 at Tue Apr  8 19:55:22 2025.
