 Gaussian 16, Revision C.01,

 ----------------------------------------------------------------------
 #t hf aug-cc-pvdz symm=none int=(grid=ultrafine) guess=(read,tcheck) s
 table=(opt,rrhf)
 ----------------------------------------------------------------------
 -----
 title
 -----
 Symbolic Z-matrix:
 Charge =  0 Multiplicity = 1

 SCF Done:  E(RHF) =  -584.364692024     A.U. after   15 cycles
 Normal termination of Gaussian 16 at Tue Apr  8 22:15:27 2025.
 Gaussian 16:  ES64L-G16RevC.01  3-Jul-2019

 ----------------------------------------------------------------------
 #t hf aug-cc-pvdz iop(5/13=1,5/36=2,99/5=2) pseudo=read geom=check gue
 ss=(read,tcheck) scf=(maxcycle=1)
 ----------------------------------------------------------------------
 -----
 title
 -----
 Structure from the checkpoint file:  "ANI1ccx_940_conf15_mol1.chk"
 Charge =  0 Multiplicity = 1

                         Standard orientation:
 ---------------------------------------------------------------------
 Center     Atomic      Atomic             Coordinates (Angstroms)
 Number     Number       Type             X           Y           Z
 ---------------------------------------------------------------------
      1          6           0       -0.462889    0.312133    0.333485
      2          6           0        0.508041   -0.643128   -0.350002
      3          6           0        2.121671   -0.342400   -0.219684
      4          6           0       -1.846959   -0.193549   -0.139144
      5          1           0       -2.916570   -1.787179   -0.277063
      6          1           0        1.663021    1.436429   -0.067734
      7          1           0        0.208305   -0.565923   -1.366970
      8          1           0        0.215808   -1.481130    0.191925
      9          1           0       -0.683263    1.342660    2.070230
     10          1           0        0.611643    0.497305    1.991110
     11          1           0       -1.127078    1.825780   -0.879475
     12          7           0       -0.320043    0.396066    1.727280
     13          8           0       -2.267570   -1.308179    0.367858
     14          8           0       -0.454087    1.613260   -0.178752
     15          8           0        2.547101    0.914023   -0.391737
     16          8           0        2.847240   -1.327411   -0.086764
     17          8           0       -2.379029    0.253466   -1.148220
 ---------------------------------------------------------------------

 SCF Done:  E(RHF) =  -586.863100862     A.U. after    2 cycles

 The electronic state is 1-A.
 Alpha  occ. eigenvalues --  -21.14934 -21.13749 -21.08953 -21.07514 -21.06032
 Alpha  occ. eigenvalues --  -15.77345 -11.56271 -11.53963 -11.53054 -11.43891
 Alpha  occ. eigenvalues --   -1.88205  -1.81309  -1.77110  -1.66868  -1.65190
 Alpha  occ. eigenvalues --   -1.37393  -1.16971  -0.98948  -0.81975  -0.79250
 Alpha  occ. eigenvalues --   -0.73585  -0.72076  -0.69752  -0.66332  -0.62882
 Alpha  occ. eigenvalues --   -0.60180  -0.58704  -0.56053  -0.52910  -0.51478
 Alpha  occ. eigenvalues --   -0.48305  -0.46957  -0.43716  -0.41016  -0.36308
 Alpha  occ. eigenvalues --   -0.35657  -0.34305  -0.32415  -0.29032
 Alpha virt. eigenvalues --    0.03111   0.04091   0.05451   0.06208   0.06486
 Alpha virt. eigenvalues --    0.07239   0.07634   0.08918   0.10101   0.10956
 Alpha virt. eigenvalues --    0.11622   0.12739   0.12954   0.14135   0.14275

 Mulliken charges:
               1
     1  C    7.642289
     2  C   -4.449930
     3  C    5.429439
     4  C    5.507355
     5  H    0.674251
     6  H    0.901523
     7  H    1.305536
     8  H    1.297542
     9  H    0.321368
    10  H    0.667742
    11  H    0.775761
    12  N   -3.892298
    13  O   -3.345942
    14  O   -3.910304
    15  O   -2.957762
    16  O   -2.941196
    17  O   -3.025375
 Sum of Mulliken charges =   0.00000

 Dipole moment (field-independent basis, Debye):
    X=             -1.7551    Y=              0.7813    Z=              0.3437  Tot=              1.9517

 Test job not archived.
 1\1\GINC-SE043\SP\RHF\Aug-CC-pVDZ\C4H7N1O5\OHZDE\08-Apr-2025\0\\#t hf
 aug-cc-pvdz iop(5/13=1,5/36=2,99/5=2) pseudo=read geom=check guess=(re
 ad,tcheck) scf=(maxcycle=1)\\title\\0,1\C,0,-0.46289,0.312133,0.333485
 \C,0,0.50804,-0.643128,-0.350002\C,0,2.12167,-0.342399,-0.219684\C,0,-
 1.84696,-0.193549,-0.139144\H,0,-2.91657,-1.78718,-0.277063\H,0,1.6630
 2,1.43643,-0.0677336\H,0,0.208304,-0.565923,-1.36697\H,0,0.215808,-1.4
 8113,0.191925\H,0,-0.683264,1.34266,2.07023\H,0,0.611642,0.497305,1.99
 111\H,0,-1.12708,1.82578,-0.879475\N,0,-0.320044,0.396066,1.72728\O,0,

 Normal termination of Gaussian 16 at Tue Apr  8 22:15:36 2025.
