 Gaussian 16, Revision C.01,

 ----------------------------------------------------------------------
 #t hf aug-cc-pvdz symm=none int=(grid=ultrafine) guess=(read,tcheck) s
 table=(opt,rrhf)
 ----------------------------------------------------------------------
 -----
 title
 -----
 Symbolic Z-matrix:
 Charge =  0 Multiplicity = 1

 SCF Done:  E(RHF) =  -752.384945277     A.U. after   15 cycles
 Normal termination of Gaussian 16 at Tue Apr  8 20:15:12 2025.
 Gaussian 16:  ES64L-G16RevC.01  3-Jul-2019

 ----------------------------------------------------------------------
 #t hf aug-cc-pvdz iop(5/13=1,5/36=2,99/5=2) pseudo=read geom=check gue
 ss=(read,tcheck) scf=(maxcycle=1)
 ----------------------------------------------------------------------
 -----
 title
 -----
 Structure from the checkpoint file:  "ANI1ccx_1572_conf9_mol1.chk"
 Charge =  0 Multiplicity = 1

                         Standard orientation:
 ---------------------------------------------------------------------
 Center     Atomic      Atomic             Coordinates (Angstroms)
 Number     Number       Type             X           Y           Z
 ---------------------------------------------------------------------
      1          6           0       -0.670599    2.682029   -0.616522
      2          6           0       -1.098112    1.312188   -0.126288
      3          6           0       -0.599494   -1.163791   -0.495048
      4          6           0       -1.925504   -1.970614   -0.136032
      5          6           0        0.390629   -1.339559    0.672194
      6          6           0        1.678113   -0.653641    0.356110
      7          6           0        2.223110    0.376361    1.002350
      8          6           0        3.607702   -0.423889   -0.564895
      9          1           0       -2.580028   -0.359628    0.688181
     10          1           0        4.086818    1.466490    0.676904
     11          1           0        4.566663   -0.691445   -0.953782
     12          1           0        1.785119    0.959911    1.848960
     13          1           0        0.305616   -2.379079    0.882224
     14          1           0       -0.022983   -0.798976    1.560290
     15          1           0       -0.269851   -1.702060   -1.330630
     16          1           0        0.085837    0.317677   -1.625050
     17          1           0       -0.641933    2.592149   -1.671090
     18          1           0        0.415172    2.901501   -0.335969
     19          1           0       -1.905618    3.760856    0.732047
     20          1           0       -2.281128    3.939955   -0.760727
     21          7           0       -1.482858    3.787707   -0.215016
     22          7           0       -0.578096    0.266235   -0.801956
     23          7           0        2.543204   -1.206284   -0.615431
     24          7           0        3.475230    0.595695    0.405444
     25          8           0       -1.800362    1.152766    0.891057
     26          8           0       -2.022542   -3.159815   -0.464740
     27          8           0       -2.787236   -1.371116    0.614448
 ---------------------------------------------------------------------

 SCF Done:  E(RHF) =  -755.763211888     A.U. after    2 cycles

 The electronic state is 1-A.
 Alpha  occ. eigenvalues --  -21.09670 -21.05580 -21.02815 -15.81076 -15.78954
 Alpha  occ. eigenvalues --  -15.75099 -15.74236 -11.55022 -11.52352 -11.49727
 Alpha  occ. eigenvalues --  -11.47169 -11.45677 -11.44269 -11.43763 -11.39168
 Alpha  occ. eigenvalues --   -1.81154  -1.73651  -1.62517  -1.55684  -1.43517
 Alpha  occ. eigenvalues --   -1.35216  -1.27496  -1.19132  -1.09602  -1.03023
 Alpha  occ. eigenvalues --   -0.95213  -0.86504  -0.85437  -0.78790  -0.75928
 Alpha  occ. eigenvalues --   -0.74045  -0.73891  -0.71359  -0.67496  -0.64216
 Alpha  occ. eigenvalues --   -0.63677  -0.60092  -0.59097  -0.58078  -0.57846
 Alpha  occ. eigenvalues --   -0.55876  -0.55107  -0.51364  -0.50313  -0.49715
 Alpha  occ. eigenvalues --   -0.49620  -0.46611  -0.43712  -0.41020  -0.37969
 Alpha  occ. eigenvalues --   -0.37437  -0.34260  -0.32276  -0.31355  -0.30375
 Alpha  occ. eigenvalues --   -0.27404
 Alpha virt. eigenvalues --    0.02552   0.03671   0.04088   0.04416   0.04689
 Alpha virt. eigenvalues --    0.05782   0.06290   0.07122   0.07694   0.07943
 Alpha virt. eigenvalues --    0.08429   0.08795   0.09374   0.09766   0.10671

 Mulliken charges:
               1
     1  C   -2.723930
     2  C    6.083942
     3  C   -1.858245
     4  C    6.239294
     5  C   -4.401227
     6  C    6.272658
     7  C   -2.734129
     8  C    0.612968
     9  H    1.368683
    10  H    0.779785
    11  H    1.794545
    12  H    1.381064
    13  H    1.289036
    14  H    1.605661
    15  H    1.945945
    16  H    0.594918
    17  H    1.536067
    18  H    1.417391
    19  H    0.627190
    20  H    0.587244
    21  N   -2.592432
    22  N   -2.526261
    23  N   -3.772036
    24  N   -2.984119
    25  O   -3.641858
    26  O   -3.346470
    27  O   -3.555685
 Sum of Mulliken charges =  -0.00000

 Dipole moment (field-independent basis, Debye):
    X=              4.1682    Y=              4.8468    Z=              0.1435  Tot=              6.3942

 Test job not archived.
 1\1\GINC-SE332\SP\RHF\Aug-CC-pVDZ\C8H12N4O3\OHZDE\08-Apr-2025\0\\#t hf
  aug-cc-pvdz iop(5/13=1,5/36=2,99/5=2) pseudo=read geom=check guess=(r
 ead,tcheck) scf=(maxcycle=1)\\title\\0,1\C,0,-0.670594,2.68203,-0.6165
 22\C,0,-1.09811,1.31219,-0.126288\C,0,-0.599498,-1.16379,-0.495048\C,0
 ,-1.92551,-1.97061,-0.136032\C,0,0.390625,-1.33956,0.672194\C,0,1.6781
 1,-0.653645,0.35611\C,0,2.22311,0.376356,1.00235\C,0,3.6077,-0.423897,
 -0.564895\H,0,-2.58003,-0.359622,0.688181\H,0,4.08682,1.46648,0.676904
 \H,0,4.56666,-0.691456,-0.953782\H,0,1.78512,0.959907,1.84896\H,0,0.30

 Normal termination of Gaussian 16 at Tue Apr  8 20:15:36 2025.
