 Gaussian 16, Revision C.01,

 ----------------------------------------------------------------------
 #t hf aug-cc-pvdz symm=none int=(grid=ultrafine) guess=(read,tcheck) s
 table=(opt,rrhf)
 ----------------------------------------------------------------------
 -----
 title
 -----
 Symbolic Z-matrix:
 Charge =  0 Multiplicity = 1

 SCF Done:  E(RHF) =  -866.304555050     A.U. after   15 cycles
 Normal termination of Gaussian 16 at Tue Apr  8 20:59:33 2025.
 Gaussian 16:  ES64L-G16RevC.01  3-Jul-2019

 ----------------------------------------------------------------------
 #t hf aug-cc-pvdz iop(5/13=1,5/36=2,99/5=2) pseudo=read geom=check gue
 ss=(read,tcheck) scf=(maxcycle=1)
 ----------------------------------------------------------------------
 -----
 title
 -----
 Structure from the checkpoint file:  "ANI1ccx_1746_conf2_mol1.chk"
 Charge =  0 Multiplicity = 1

                         Standard orientation:
 ---------------------------------------------------------------------
 Center     Atomic      Atomic             Coordinates (Angstroms)
 Number     Number       Type             X           Y           Z
 ---------------------------------------------------------------------
      1          6           0       -1.586370   -1.578249    0.720718
      2          6           0       -0.442239   -1.126529   -0.231576
      3          6           0       -2.829220   -1.117429   -0.111714
      4          6           0        1.765170    0.041543   -0.131205
      5          6           0        3.101750   -0.653179   -0.089822
      6          6           0        1.702620    1.465010    0.435239
      7          6           0        0.372159    1.975801    0.202264
      8          6           0       -0.103774    2.418191   -0.965608
      9          6           0       -1.773809    2.142761    0.417160
     10          1           0        2.019800   -2.190470   -0.227149
     11          1           0       -2.115659    2.923851   -1.487450
     12          1           0       -2.670389    2.203031    0.931069
     13          1           0        0.293783    2.752001   -1.883260
     14          1           0        2.406380    2.085080   -0.051857
     15          1           0        1.822300    1.317080    1.543570
     16          1           0        1.492710    0.133166   -1.207130
     17          1           0        0.698363   -1.170410    1.451600
     18          1           0       -2.415900   -1.852119   -1.818590
     19          1           0       -3.745810   -1.132769    0.488936
     20          1           0       -2.766990   -0.096683   -0.517956
     21          1           0       -1.448750   -2.671809    0.836463
     22          1           0       -2.259100   -0.965778    2.440440
     23          1           0       -1.141040   -0.044578    1.905940
     24          7           0       -1.395880   -0.984348    2.011230
     25          7           0        0.701887   -0.862645    0.483536
     26          7           0       -0.693386    1.799741    1.113000
     27          7           0       -1.442559    2.596301   -0.820232
     28          8           0       -0.588960   -0.918269   -1.426950
     29          8           0       -3.038950   -2.058219   -1.128490
     30          8           0        4.161540   -0.094188   -0.127446
     31          8           0        3.016640   -1.996880   -0.240871
 ---------------------------------------------------------------------

 SCF Done:  E(RHF) =  -870.200586109     A.U. after    2 cycles

 The electronic state is 1-A.
 Alpha  occ. eigenvalues --  -21.11053 -21.05934 -21.05182 -21.05039 -15.82356
 Alpha  occ. eigenvalues --  -15.77736 -15.74455 -15.73860 -11.55050 -11.54557
 Alpha  occ. eigenvalues --  -11.50418 -11.47886 -11.47381 -11.45909 -11.44737
 Alpha  occ. eigenvalues --  -11.41390 -11.40100  -1.81916  -1.74865  -1.70146
 Alpha  occ. eigenvalues --   -1.65202  -1.59005  -1.43596  -1.36174  -1.29929
 Alpha  occ. eigenvalues --   -1.20823  -1.10464  -1.06583  -0.99276  -0.92077
 Alpha  occ. eigenvalues --   -0.87606  -0.81860  -0.81227  -0.79353  -0.77013
 Alpha  occ. eigenvalues --   -0.73470  -0.71676  -0.68458  -0.64993  -0.63775
 Alpha  occ. eigenvalues --   -0.63032  -0.61431  -0.60642  -0.59645  -0.58979
 Alpha  occ. eigenvalues --   -0.55198  -0.54473  -0.53529  -0.52331  -0.51372
 Alpha  occ. eigenvalues --   -0.50365  -0.48007  -0.47555  -0.45193  -0.43764
 Alpha  occ. eigenvalues --   -0.41573  -0.39077  -0.37448  -0.34750  -0.33706
 Alpha  occ. eigenvalues --   -0.33127  -0.31532  -0.28844  -0.27803
 Alpha virt. eigenvalues --    0.02798   0.03621   0.03991   0.04931   0.05366
 Alpha virt. eigenvalues --    0.05561   0.05900   0.06812   0.07044   0.07380
 Alpha virt. eigenvalues --    0.07909   0.08149   0.08585   0.09493   0.09927

 Mulliken charges:
               1
     1  C   -2.174499
     2  C    6.924365
     3  C   -0.313046
     4  C   -2.656321
     5  C    6.211773
     6  C   -4.913749
     7  C    6.627435
     8  C   -2.960380
     9  C   -0.180619
    10  H    1.234760
    11  H    1.007087
    12  H    1.849555
    13  H    1.287463
    14  H    1.464106
    15  H    1.307040
    16  H    2.293866
    17  H    0.834031
    18  H    0.858111
    19  H    1.194185
    20  H    1.772676
    21  H    1.720056
    22  H    0.532331
    23  H    1.015042
    24  N   -2.715470
    25  N   -1.750830
    26  N   -3.661535
    27  N   -3.315283
    28  O   -3.579871
    29  O   -3.085193
    30  O   -3.392146
    31  O   -3.434940
 Sum of Mulliken charges =   0.00000

 Dipole moment (field-independent basis, Debye):
    X=             -3.6355    Y=              3.2677    Z=             -1.3270  Tot=              5.0651

 Test job not archived.
 1\1\GINC-SE365\SP\RHF\Aug-CC-pVDZ\C9H14N4O4\OHZDE\08-Apr-2025\0\\#t hf
  aug-cc-pvdz iop(5/13=1,5/36=2,99/5=2) pseudo=read geom=check guess=(r
 ead,tcheck) scf=(maxcycle=1)\\title\\0,1\C,0,-1.58637,-1.57825,0.72071
 8\C,0,-0.442239,-1.12653,-0.231576\C,0,-2.82922,-1.11743,-0.111714\C,0
 ,1.76517,0.0415424,-0.131205\C,0,3.10175,-0.653179,-0.0898213\C,0,1.70
 262,1.46501,0.435239\C,0,0.372159,1.9758,0.202264\C,0,-0.103775,2.4181
 9,-0.965608\C,0,-1.77381,2.14276,0.41716\H,0,2.0198,-2.19047,-0.227149
 \H,0,-2.11566,2.92385,-1.48745\H,0,-2.67039,2.20303,0.931069\H,0,0.293

 Normal termination of Gaussian 16 at Tue Apr  8 21:00:12 2025.
