 Gaussian 16, Revision C.01,

 ----------------------------------------------------------------------
 #t hf aug-cc-pvdz symm=none int=(grid=ultrafine) guess=(read,tcheck) s
 table=(opt,rrhf)
 ----------------------------------------------------------------------
 -----
 title
 -----
 Symbolic Z-matrix:
 Charge =  0 Multiplicity = 1

 SCF Done:  E(RHF) =  -722.749883636     A.U. after   14 cycles
 Normal termination of Gaussian 16 at Tue Apr  8 22:05:51 2025.
 Gaussian 16:  ES64L-G16RevC.01  3-Jul-2019

 ----------------------------------------------------------------------
 #t hf aug-cc-pvdz iop(5/13=1,5/36=2,99/5=2) pseudo=read geom=check gue
 ss=(read,tcheck) scf=(maxcycle=1)
 ----------------------------------------------------------------------
 -----
 title
 -----
 Structure from the checkpoint file:  "ANI1ccx_67_conf2_mol2.chk"
 Charge =  0 Multiplicity = 1

                         Standard orientation:
 ---------------------------------------------------------------------
 Center     Atomic      Atomic             Coordinates (Angstroms)
 Number     Number       Type             X           Y           Z
 ---------------------------------------------------------------------
      1          6           0       -2.268499    0.197593   -0.892101
      2          6           0        1.905081    0.438331    2.000210
      3          6           0        2.221831    0.937270    0.579063
      4          6           0        2.263810   -1.241280   -0.436559
      5          6           0        1.550540    0.064047   -0.560667
      6          6           0        1.910132    2.473120    0.385920
      7          6           0       -3.055830    0.069555    1.375450
      8          6           0       -2.961349    1.051812    0.236310
      9          6           0       -0.749871    0.629770   -1.124400
     10          6           0       -3.206190   -1.296838    0.677322
     11          1           0        3.315841    0.768887    0.437308
     12          1           0        2.078139   -2.964750    0.075052
     13          1           0        0.861428    2.586280    0.614185
     14          1           0        2.443012    3.038119    1.113560
     15          1           0        2.204422    2.748320   -0.691872
     16          1           0        2.056480   -0.614404    2.204520
     17          1           0        0.895616    0.822141    2.152290
     18          1           0        2.551521    1.023809    2.674220
     19          1           0        1.680011    0.552825   -1.527290
     20          1           0       -4.256760   -1.479237    0.391686
     21          1           0       -2.941431   -2.091948    1.400010
     22          1           0       -2.040620    0.054352    1.876710
     23          1           0       -3.876899    0.258670    2.098020
     24          1           0       -2.414409    1.950062    0.505109
     25          1           0       -3.961109    1.345742   -0.145052
     26          1           0       -2.789239    0.298398   -1.888370
     27          1           0       -2.501080   -1.826678   -1.120800
     28          1           0       -0.183965   -0.977225    0.090417
     29          7           0       -2.323320   -1.179698   -0.417253
     30          7           0        0.095922   -0.084854   -0.312868
     31          8           0        3.450410   -1.362281   -0.528350
     32          8           0       -0.350736    1.508531   -1.839310
     33          8           0        1.501939   -2.218970    0.043645
 ---------------------------------------------------------------------

 SCF Done:  E(RHF) =  -726.100020398     A.U. after    2 cycles

 The electronic state is 1-A.
 Alpha  occ. eigenvalues --  -21.13752 -21.05107 -21.02409 -15.74098 -15.72963
 Alpha  occ. eigenvalues --  -11.54061 -11.51627 -11.48900 -11.47005 -11.43558
 Alpha  occ. eigenvalues --  -11.41994 -11.41035 -11.38618 -11.37061 -11.35838
 Alpha  occ. eigenvalues --   -1.86214  -1.71238  -1.66651  -1.46594  -1.38470
 Alpha  occ. eigenvalues --   -1.21566  -1.15590  -1.09581  -1.04106  -0.99608
 Alpha  occ. eigenvalues --   -0.88704  -0.85003  -0.84190  -0.79446  -0.78235
 Alpha  occ. eigenvalues --   -0.73075  -0.70001  -0.67237  -0.64119  -0.62179
 Alpha  occ. eigenvalues --   -0.61715  -0.59929  -0.59136  -0.56771  -0.56301
 Alpha  occ. eigenvalues --   -0.54247  -0.53799  -0.52926  -0.52115  -0.51710
 Alpha  occ. eigenvalues --   -0.48364  -0.47331  -0.46449  -0.45428  -0.45162
 Alpha  occ. eigenvalues --   -0.43469  -0.42813  -0.41074  -0.35173  -0.34371
 Alpha  occ. eigenvalues --   -0.32473  -0.28418  -0.27123
 Alpha virt. eigenvalues --    0.03688   0.04350   0.04448   0.04693   0.05014
 Alpha virt. eigenvalues --    0.05323   0.05888   0.06230   0.06494   0.06816
 Alpha virt. eigenvalues --    0.07218   0.07475   0.07805   0.08007   0.08818

 Mulliken charges:
               1
     1  C   -2.789155
     2  C   -4.875606
     3  C    0.160871
     4  C    7.893512
     5  C   -3.883769
     6  C   -4.926467
     7  C   -2.565891
     8  C   -2.796449
     9  C    6.798322
    10  C   -3.459315
    11  H    1.678410
    12  H    0.932073
    13  H    1.614165
    14  H    1.100570
    15  H    1.265830
    16  H    1.493413
    17  H    1.606818
    18  H    1.027631
    19  H    1.906946
    20  H    1.545895
    21  H    1.365195
    22  H    1.789573
    23  H    1.276630
    24  H    1.469385
    25  H    1.329038
    26  H    1.390360
    27  H    0.614325
    28  H    1.120135
    29  N   -1.374229
    30  N   -1.857894
    31  O   -3.599315
    32  O   -3.861250
    33  O   -3.389755
 Sum of Mulliken charges =  -0.00000

 Dipole moment (field-independent basis, Debye):
    X=             -2.5266    Y=             -1.9776    Z=              1.4067  Tot=              3.5034

 Test job not archived.
 1\1\GINC-SE030\SP\RHF\Aug-CC-pVDZ\C10H18N2O3\OHZDE\08-Apr-2025\0\\#t h
 f aug-cc-pvdz iop(5/13=1,5/36=2,99/5=2) pseudo=read geom=check guess=(
 read,tcheck) scf=(maxcycle=1)\\title\\0,1\C,0,-2.2685,0.197591,-0.8921
 01\C,0,1.90508,0.438331,2.00021\C,0,2.22183,0.93727,0.579063\C,0,2.263
 81,-1.24128,-0.436559\C,0,1.55054,0.0640474,-0.560667\C,0,1.91013,2.47
 312,0.38592\C,0,-3.05583,0.0695527,1.37545\C,0,-2.96135,1.05181,0.2363
 1\C,0,-0.749872,0.629769,-1.1244\C,0,-3.20619,-1.29684,0.677322\H,0,3.
 31584,0.768888,0.437308\H,0,2.07814,-2.96475,0.0750524\H,0,0.861426,2.

 Normal termination of Gaussian 16 at Tue Apr  8 22:06:35 2025.
