 Gaussian 16, Revision C.01,

 ----------------------------------------------------------------------
 #t hf aug-cc-pvdz symm=none int=(grid=ultrafine) guess=(read,tcheck) s
 table=(opt,rrhf)
 ----------------------------------------------------------------------
 -----
 title
 -----
 Symbolic Z-matrix:
 Charge =  0 Multiplicity = 1

 SCF Done:  E(RHF) =  -471.567728262     A.U. after   13 cycles
 Normal termination of Gaussian 16 at Tue Apr  8 21:56:12 2025.
 Gaussian 16:  ES64L-G16RevC.01  3-Jul-2019

 ----------------------------------------------------------------------
 #t hf aug-cc-pvdz iop(5/13=1,5/36=2,99/5=2) pseudo=read geom=check gue
 ss=(read,tcheck) scf=(maxcycle=1)
 ----------------------------------------------------------------------
 -----
 title
 -----
 Structure from the checkpoint file:  "ANI1ccx_745_conf2_mol1.chk"
 Charge =  0 Multiplicity = 1

                         Standard orientation:
 ---------------------------------------------------------------------
 Center     Atomic      Atomic             Coordinates (Angstroms)
 Number     Number       Type             X           Y           Z
 ---------------------------------------------------------------------
      1          6           0        2.284649   -0.098559   -0.460544
      2          6           0        1.422549   -0.917852    0.459896
      3          6           0       -0.806544   -0.203484    0.135195
      4          1           0        1.411750    1.640590   -0.171981
      5          1           0        1.816129   -0.349514   -1.468470
      6          1           0        3.389379   -0.443565   -0.518583
      7          1           0        1.737699   -1.904410    0.367807
      8          1           0        1.396559   -0.466762    1.467550
      9          1           0       -2.427021   -1.381809   -0.100049
     10          1           0       -2.209940    1.258760    0.029402
     11          7           0       -2.006381   -0.516300   -0.404827
     12          8           0        2.371520    1.215840   -0.116591
     13          8           0        0.078312   -1.155500    0.043510
     14          8           0       -0.618779    0.923531    0.551869
     15          8           0       -2.890281    0.588652   -0.176185
 ---------------------------------------------------------------------

 SCF Done:  E(RHF) =  -473.576842411     A.U. after    2 cycles

 The electronic state is 1-A.
 Alpha  occ. eigenvalues --  -21.12192 -21.09658 -21.06762 -21.06439 -15.81185
 Alpha  occ. eigenvalues --  -11.54617 -11.48021 -11.41505  -1.91527  -1.79590
 Alpha  occ. eigenvalues --   -1.71762  -1.68970  -1.27708  -1.10803  -0.90897
 Alpha  occ. eigenvalues --   -0.82869  -0.75904  -0.70118  -0.65163  -0.64629
 Alpha  occ. eigenvalues --   -0.64170  -0.57047  -0.55875  -0.51855  -0.47530
 Alpha  occ. eigenvalues --   -0.45853  -0.45213  -0.42854  -0.35479  -0.34108
 Alpha  occ. eigenvalues --   -0.30880  -0.29273
 Alpha virt. eigenvalues --    0.03706   0.04872   0.05232   0.05718   0.06360
 Alpha virt. eigenvalues --    0.06788   0.07948   0.10151   0.10399   0.12237
 Alpha virt. eigenvalues --    0.12859   0.13954   0.14606   0.15478   0.16045

 Mulliken charges:
               1
     1  C   -1.093314
     2  C   -1.484063
     3  C    6.317710
     4  H    0.828490
     5  H    1.363379
     6  H    1.283547
     7  H    1.442594
     8  H    1.531451
     9  H    0.710255
    10  H    0.913044
    11  N   -1.128205
    12  O   -2.729737
    13  O   -3.395223
    14  O   -2.441644
    15  O   -2.118282
 Sum of Mulliken charges =  -0.00000

 Dipole moment (field-independent basis, Debye):
    X=              0.4646    Y=             -1.8994    Z=              0.5016  Tot=              2.0187

 Test job not archived.
 1\1\GINC-SE187\SP\RHF\Aug-CC-pVDZ\C3H7N1O4\OHZDE\08-Apr-2025\0\\#t hf
 aug-cc-pvdz iop(5/13=1,5/36=2,99/5=2) pseudo=read geom=check guess=(re
 ad,tcheck) scf=(maxcycle=1)\\title\\0,1\C,0,2.28465,-0.0985592,-0.4605
 44\C,0,1.42255,-0.917852,0.459896\C,0,-0.806543,-0.203484,0.135195\H,0
 ,1.41175,1.64059,-0.171981\H,0,1.81613,-0.349514,-1.46847\H,0,3.38938,
 -0.443565,-0.518583\H,0,1.7377,-1.90441,0.367807\H,0,1.39656,-0.466762
 ,1.46755\H,0,-2.42702,-1.38181,-0.100049\H,0,-2.20994,1.25876,0.029402
 2\N,0,-2.00638,-0.5163,-0.404827\O,0,2.37152,1.21584,-0.116591\O,0,0.0

 Normal termination of Gaussian 16 at Tue Apr  8 21:56:18 2025.
