 Gaussian 16, Revision C.01,

 ----------------------------------------------------------------------
 #t hf aug-cc-pvdz symm=none int=(grid=ultrafine) guess=(read,tcheck) s
 table=(opt,rrhf)
 ----------------------------------------------------------------------
 -----
 title
 -----
 Symbolic Z-matrix:
 Charge =  0 Multiplicity = 1

 SCF Done:  E(RHF) =  -663.599975108     A.U. after   13 cycles
 Normal termination of Gaussian 16 at Tue Apr  8 19:31:24 2025.
 Gaussian 16:  ES64L-G16RevC.01  3-Jul-2019

 ----------------------------------------------------------------------
 #t hf aug-cc-pvdz iop(5/13=1,5/36=2,99/5=2) pseudo=read geom=check gue
 ss=(read,tcheck) scf=(maxcycle=1)
 ----------------------------------------------------------------------
 -----
 title
 -----
 Structure from the checkpoint file:  "ANI1ccx_1233_conf1_mol2.chk"
 Charge =  0 Multiplicity = 1

                         Standard orientation:
 ---------------------------------------------------------------------
 Center     Atomic      Atomic             Coordinates (Angstroms)
 Number     Number       Type             X           Y           Z
 ---------------------------------------------------------------------
      1          6           0        0.120852   -0.558032   -1.034370
      2          6           0        1.091040    0.665108   -0.939099
      3          6           0        0.480588    1.562190    0.121638
      4          6           0        0.028815    0.568678    1.179160
      5          6           0       -0.553763   -0.689872    0.413312
      6          6           0       -2.095150   -0.698727    0.334141
      7          1           0       -2.272270    1.094710   -0.540205
      8          1           0       -2.446450   -1.709180   -0.013697
      9          1           0       -2.465670   -0.507087    1.333930
     10          1           0        0.669946   -1.533450    1.587490
     11          1           0        1.963220    0.169276    1.505320
     12          1           0       -0.676479    0.999351    1.886660
     13          1           0       -0.639541    2.691300   -1.224980
     14          1           0        1.205159    2.309990    0.498073
     15          1           0        2.440430   -0.638740   -0.888352
     16          1           0        1.165210    1.053960   -1.946810
     17          1           0       -0.663723   -0.251347   -1.739570
     18          1           0        0.599080   -1.890860   -2.469950
     19          1           0        0.688355   -2.522140   -0.884195
     20          7           0        0.825356   -1.746350   -1.491280
     21          8           0        2.398190    0.249610   -0.457482
     22          8           0       -0.759035    2.144350   -0.430715
     23          8           0        1.115130    0.208549    2.014360
     24          8           0       -0.111475   -1.830090    1.105140
     25          8           0       -2.615190    0.210406   -0.620489
 ---------------------------------------------------------------------

 SCF Done:  E(RHF) =  -666.536149608     A.U. after    2 cycles

 The electronic state is 1-A.
 Alpha  occ. eigenvalues --  -21.09448 -21.07504 -21.07327 -21.06525 -21.04823
 Alpha  occ. eigenvalues --  -15.74645 -11.56922 -11.53404 -11.48205 -11.46722
 Alpha  occ. eigenvalues --  -11.44203 -11.39236  -1.79183  -1.73025  -1.70613
 Alpha  occ. eigenvalues --   -1.70109  -1.68417  -1.35081  -1.19996  -1.05746
 Alpha  occ. eigenvalues --   -1.01268  -0.94425  -0.83940  -0.79695  -0.72491
 Alpha  occ. eigenvalues --   -0.70313  -0.67846  -0.65517  -0.64483  -0.63411
 Alpha  occ. eigenvalues --   -0.58662  -0.58239  -0.56292  -0.55329  -0.52600
 Alpha  occ. eigenvalues --   -0.50552  -0.49403  -0.44211  -0.42117  -0.41661
 Alpha  occ. eigenvalues --   -0.39328  -0.37748  -0.37144  -0.34431  -0.33486
 Alpha  occ. eigenvalues --   -0.31282  -0.30813  -0.29099
 Alpha virt. eigenvalues --    0.03690   0.03788   0.04323   0.04984   0.05034
 Alpha virt. eigenvalues --    0.05802   0.06591   0.06869   0.07296   0.08247
 Alpha virt. eigenvalues --    0.08911   0.09337   0.09631   0.11737   0.12102

 Mulliken charges:
               1
     1  C   -0.588875
     2  C    1.589653
     3  C    0.383367
     4  C    0.299277
     5  C    5.003454
     6  C   -1.316336
     7  H    1.254685
     8  H    1.233590
     9  H    1.205361
    10  H    0.597547
    11  H    0.950705
    12  H    1.868001
    13  H    0.737774
    14  H    1.613523
    15  H    0.767495
    16  H    1.727202
    17  H    2.133003
    18  H    0.445690
    19  H    0.608740
    20  N   -3.202174
    21  O   -3.385548
    22  O   -3.147091
    23  O   -3.625355
    24  O   -4.219970
    25  O   -2.933716
 Sum of Mulliken charges =   0.00000

 Dipole moment (field-independent basis, Debye):
    X=              0.5298    Y=              0.5420    Z=             -1.0298  Tot=              1.2786

 Test job not archived.
 1\1\GINC-SE078\SP\RHF\Aug-CC-pVDZ\C6H13N1O5\OHZDE\08-Apr-2025\0\\#t hf
  aug-cc-pvdz iop(5/13=1,5/36=2,99/5=2) pseudo=read geom=check guess=(r
 ead,tcheck) scf=(maxcycle=1)\\title\\0,1\C,0,0.120852,-0.558032,-1.034
 37\C,0,1.09104,0.665108,-0.939099\C,0,0.480589,1.56219,0.121638\C,0,0.
 0288153,0.568678,1.17916\C,0,-0.553763,-0.689872,0.413312\C,0,-2.09515
 ,-0.698727,0.334141\H,0,-2.27227,1.09471,-0.540205\H,0,-2.44645,-1.709
 18,-0.0136976\H,0,-2.46567,-0.507087,1.33393\H,0,0.669946,-1.53345,1.5
 8749\H,0,1.96322,0.169276,1.50532\H,0,-0.676479,0.999351,1.88666\H,0,-

 Normal termination of Gaussian 16 at Tue Apr  8 19:31:57 2025.
