 Gaussian 16, Revision C.01,

 ----------------------------------------------------------------------
 #t hf aug-cc-pvdz symm=none int=(grid=ultrafine) guess=(read,tcheck) s
 table=(opt,rrhf)
 ----------------------------------------------------------------------
 -----
 title
 -----
 Symbolic Z-matrix:
 Charge =  0 Multiplicity = 1

 SCF Done:  E(RHF) =  -436.953970078     A.U. after   13 cycles
 Normal termination of Gaussian 16 at Tue Apr  8 22:00:56 2025.
 Gaussian 16:  ES64L-G16RevC.01  3-Jul-2019

 ----------------------------------------------------------------------
 #t hf aug-cc-pvdz iop(5/13=1,5/36=2,99/5=2) pseudo=read geom=check gue
 ss=(read,tcheck) scf=(maxcycle=1)
 ----------------------------------------------------------------------
 -----
 title
 -----
 Structure from the checkpoint file:  "ANI1ccx_818_conf3_mol2.chk"
 Charge =  0 Multiplicity = 1

                         Standard orientation:
 ---------------------------------------------------------------------
 Center     Atomic      Atomic             Coordinates (Angstroms)
 Number     Number       Type             X           Y           Z
 ---------------------------------------------------------------------
      1          6           0       -0.194055   -0.246805   -0.004645
      2          6           0       -1.606181   -0.622769   -0.537350
      3          6           0        0.897433   -1.230311   -0.497987
      4          6           0        0.102254    1.174160   -0.565807
      5          1           0        1.174990    1.944609    0.890276
      6          1           0       -0.743736    1.838180   -0.322189
      7          1           0        0.257679    1.132859   -1.653800
      8          1           0        2.283260    0.014312   -0.141152
      9          1           0        0.705475   -2.261381   -0.175205
     10          1           0        0.944219   -1.223481   -1.614970
     11          1           0       -2.251800    0.439339    0.892732
     12          1           0       -1.838021   -1.660940   -0.259078
     13          1           0       -1.666820   -0.488415   -1.619270
     14          1           0       -0.513501   -1.111580    1.809320
     15          1           0        0.729422   -0.094326    1.786740
     16          7           0       -0.226290   -0.194302    1.453910
     17          8           0       -2.581660    0.237194    0.007940
     18          8           0        2.170659   -0.924011    0.021872
     19          8           0        1.324270    1.734979   -0.046818
 ---------------------------------------------------------------------

 SCF Done:  E(RHF) =  -438.922250895     A.U. after    2 cycles

 The electronic state is 1-A.
 Alpha  occ. eigenvalues --  -21.08518 -21.06554 -21.06216 -15.74998 -11.46563
 Alpha  occ. eigenvalues --  -11.45780 -11.45512 -11.39497  -1.74790  -1.70896
 Alpha  occ. eigenvalues --   -1.70504  -1.36612  -1.12241  -0.97678  -0.95866
 Alpha  occ. eigenvalues --   -0.81839  -0.72038  -0.69980  -0.66154  -0.62231
 Alpha  occ. eigenvalues --   -0.59418  -0.58063  -0.55248  -0.53810  -0.51532
 Alpha  occ. eigenvalues --   -0.50668  -0.47110  -0.42788  -0.38615  -0.37767
 Alpha  occ. eigenvalues --   -0.33968  -0.30813  -0.29638
 Alpha virt. eigenvalues --    0.03925   0.04717   0.04802   0.05698   0.05891
 Alpha virt. eigenvalues --    0.06192   0.06428   0.06883   0.07518   0.08841
 Alpha virt. eigenvalues --    0.09209   0.12338   0.12525   0.12797   0.14004

 Mulliken charges:
               1
     1  C    4.120091
     2  C   -0.635835
     3  C   -1.044461
     4  C   -1.333227
     5  H    0.690329
     6  H    1.348018
     7  H    1.260983
     8  H    1.052133
     9  H    1.296518
    10  H    1.243443
    11  H    0.905673
    12  H    1.121140
    13  H    1.337736
    14  H    0.450579
    15  H    0.533607
    16  N   -3.786385
    17  O   -2.944960
    18  O   -2.927959
    19  O   -2.687422
 Sum of Mulliken charges =  -0.00000

 Dipole moment (field-independent basis, Debye):
    X=              0.2397    Y=             -0.1995    Z=              0.3653  Tot=              0.4803

 Test job not archived.
 1\1\GINC-SE073\SP\RHF\Aug-CC-pVDZ\C4H11N1O3\OHZDE\08-Apr-2025\0\\#t hf
  aug-cc-pvdz iop(5/13=1,5/36=2,99/5=2) pseudo=read geom=check guess=(r
 ead,tcheck) scf=(maxcycle=1)\\title\\0,1\C,0,-0.194055,-0.246805,-0.00
 464577\C,0,-1.60618,-0.622769,-0.53735\C,0,0.897434,-1.23031,-0.497987
 \C,0,0.102254,1.17416,-0.565807\H,0,1.17499,1.94461,0.890276\H,0,-0.74
 3736,1.83818,-0.322189\H,0,0.257679,1.13286,-1.6538\H,0,2.28326,0.0143
 132,-0.141152\H,0,0.705476,-2.26138,-0.175205\H,0,0.94422,-1.22348,-1.
 61497\H,0,-2.2518,0.439339,0.892732\H,0,-1.83802,-1.66094,-0.259078\H,

 Normal termination of Gaussian 16 at Tue Apr  8 22:01:04 2025.
