 Gaussian 16, Revision C.01,

 ----------------------------------------------------------------------
 #t hf aug-cc-pvdz symm=none int=(grid=ultrafine) guess=(read,tcheck) s
 table=(opt,rrhf)
 ----------------------------------------------------------------------
 -----
 title
 -----
 Symbolic Z-matrix:
 Charge =  0 Multiplicity = 1

 SCF Done:  E(RHF) =  -982.068921574     A.U. after   15 cycles
 Normal termination of Gaussian 16 at Tue Apr  8 21:01:30 2025.
 Gaussian 16:  ES64L-G16RevC.01  3-Jul-2019

 ----------------------------------------------------------------------
 #t hf aug-cc-pvdz iop(5/13=1,5/36=2,99/5=2) pseudo=read geom=check gue
 ss=(read,tcheck) scf=(maxcycle=1)
 ----------------------------------------------------------------------
 -----
 title
 -----
 Structure from the checkpoint file:  "ANI1ccx_1743_conf25_mol1.chk"
 Charge =  0 Multiplicity = 1

                         Standard orientation:
 ---------------------------------------------------------------------
 Center     Atomic      Atomic             Coordinates (Angstroms)
 Number     Number       Type             X           Y           Z
 ---------------------------------------------------------------------
      1          6           0       -1.692310    1.689611   -0.469809
      2          6           0       -0.434938    1.945400    0.324784
      3          6           0       -2.905260    1.220921    0.366538
      4          6           0       -2.653210   -0.170177    0.945725
      5          6           0       -2.710991   -1.288219   -0.054429
      6          6           0        0.921620   -0.230600   -0.341965
      7          6           0        1.208939   -1.037930    1.007770
      8          6           0        2.079200   -0.417192   -1.270270
      9          6           0        3.395370   -0.007750   -0.691110
     10          1           0       -0.205400   -2.259690    0.415313
     11          1           0        4.926129   -0.735593    0.093787
     12          1           0        1.911100    0.306269   -2.101940
     13          1           0        2.212179   -1.418421   -1.577350
     14          1           0        0.026933   -0.574361   -0.825147
     15          1           0        1.543650    1.712830    0.403197
     16          1           0       -3.809131   -2.158889   -1.320860
     17          1           0       -3.444880   -0.367017    1.693610
     18          1           0       -1.651400   -0.249117    1.467940
     19          1           0       -2.940180    2.021321    1.107340
     20          1           0       -3.786000    1.185951   -0.220710
     21          1           0       -1.973900    2.721741   -0.800109
     22          1           0       -2.401490    0.403805   -2.001220
     23          1           0       -1.075500    1.257740   -2.453810
     24          7           0       -1.554860    0.847092   -1.681650
     25          7           0        0.723979    1.170190    0.143994
     26          8           0       -0.374652    2.916040    1.052760
     27          8           0       -1.808911   -2.041959   -0.449152
     28          8           0       -3.953851   -1.494009   -0.538958
     29          8           0        1.950579   -0.597170    1.830970
     30          8           0        3.673130    1.114489   -0.318008
     31          8           0        4.238539   -1.049561   -0.546604
     32          8           0        0.429358   -2.121820    1.216510
 ---------------------------------------------------------------------

 SCF Done:  E(RHF) =  -986.348120220     A.U. after    2 cycles

 The electronic state is 1-A.
 Alpha  occ. eigenvalues --  -21.15344 -21.12499 -21.10162 -21.08694 -21.05262
 Alpha  occ. eigenvalues --  -21.04446 -21.03199 -15.75788 -15.75206 -11.58480
 Alpha  occ. eigenvalues --  -11.54994 -11.54010 -11.53336 -11.50361 -11.49445
 Alpha  occ. eigenvalues --  -11.46783 -11.43253 -11.41742  -1.86090  -1.83079
 Alpha  occ. eigenvalues --   -1.80345  -1.71572  -1.67692  -1.65361  -1.64749
 Alpha  occ. eigenvalues --   -1.40186  -1.36179  -1.22269  -1.18949  -1.06959
 Alpha  occ. eigenvalues --   -1.00326  -0.94730  -0.82998  -0.82113  -0.78919
 Alpha  occ. eigenvalues --   -0.76821  -0.72413  -0.71463  -0.69273  -0.67613
 Alpha  occ. eigenvalues --   -0.65387  -0.64998  -0.64425  -0.62954  -0.61933
 Alpha  occ. eigenvalues --   -0.60636  -0.59430  -0.57248  -0.56182  -0.54855
 Alpha  occ. eigenvalues --   -0.53286  -0.52377  -0.51355  -0.51043  -0.50401
 Alpha  occ. eigenvalues --   -0.48648  -0.47280  -0.45274  -0.44567  -0.43526
 Alpha  occ. eigenvalues --   -0.38861  -0.35747  -0.34440  -0.34118  -0.33421
 Alpha  occ. eigenvalues --   -0.30884  -0.29941  -0.28888  -0.26965
 Alpha virt. eigenvalues --    0.02760   0.03605   0.03992   0.04121   0.05240
 Alpha virt. eigenvalues --    0.05644   0.06007   0.06378   0.06574   0.07553
 Alpha virt. eigenvalues --    0.07850   0.08282   0.09413   0.09610   0.10191

 Mulliken charges:
               1
     1  C   -0.398387
     2  C    6.097002
     3  C   -3.668911
     4  C   -4.120478
     5  C    6.793349
     6  C   -0.118705
     7  C    6.257626
     8  C   -6.034958
     9  C    7.065980
    10  H    1.325087
    11  H    0.761692
    12  H    1.397498
    13  H    1.622168
    14  H    2.369404
    15  H    0.757968
    16  H    0.784795
    17  H    1.444113
    18  H    1.977700
    19  H    1.255916
    20  H    1.524226
    21  H    1.448740
    22  H    0.709319
    23  H    0.662853
    24  N   -3.165899
    25  N   -2.724729
    26  O   -3.969084
    27  O   -3.322847
    28  O   -3.412997
    29  O   -3.495436
    30  O   -3.201483
    31  O   -3.243850
    32  O   -3.377672
 Sum of Mulliken charges =   0.00000

 Dipole moment (field-independent basis, Debye):
    X=             -4.1204    Y=             -1.6492    Z=             -3.2074  Tot=              5.4759

 Test job not archived.
 1\1\GINC-SE078\SP\RHF\Aug-CC-pVDZ\C9H14N2O7\OHZDE\08-Apr-2025\0\\#t hf
  aug-cc-pvdz iop(5/13=1,5/36=2,99/5=2) pseudo=read geom=check guess=(r
 ead,tcheck) scf=(maxcycle=1)\\title\\0,1\C,0,-1.69231,1.68961,-0.46980
 9\C,0,-0.434938,1.9454,0.324784\C,0,-2.90526,1.22092,0.366538\C,0,-2.6
 5321,-0.170178,0.945725\C,0,-2.71099,-1.28822,-0.0544289\C,0,0.92162,-
 0.2306,-0.341965\C,0,1.20894,-1.03793,1.00777\C,0,2.0792,-0.417191,-1.
 27027\C,0,3.39537,-0.0077492,-0.69111\H,0,-0.205399,-2.25969,0.415313\
 H,0,4.92613,-0.735592,0.0937871\H,0,1.9111,0.306269,-2.10194\H,0,2.212

 Normal termination of Gaussian 16 at Tue Apr  8 21:02:21 2025.
