 Gaussian 16, Revision C.01,

 ----------------------------------------------------------------------
 #t hf aug-cc-pvdz symm=none int=(grid=ultrafine) guess=(read,tcheck) s
 table=(opt,rrhf)
 ----------------------------------------------------------------------
 -----
 title
 -----
 Symbolic Z-matrix:
 Charge =  0 Multiplicity = 1

 SCF Done:  E(RHF) =  -428.583735847     A.U. after   13 cycles
 Normal termination of Gaussian 16 at Tue Apr  8 21:39:53 2025.
 Gaussian 16:  ES64L-G16RevC.01  3-Jul-2019

 ----------------------------------------------------------------------
 #t hf aug-cc-pvdz iop(5/13=1,5/36=2,99/5=2) pseudo=read geom=check gue
 ss=(read,tcheck) scf=(maxcycle=1)
 ----------------------------------------------------------------------
 -----
 title
 -----
 Structure from the checkpoint file:  "ANI1ccx_419_conf3_mol1.chk"
 Charge =  0 Multiplicity = 1

                         Standard orientation:
 ---------------------------------------------------------------------
 Center     Atomic      Atomic             Coordinates (Angstroms)
 Number     Number       Type             X           Y           Z
 ---------------------------------------------------------------------
      1          6           0       -0.101237   -0.314412    0.035521
      2          1           0        1.895440    1.412558   -0.010049
      3          1           0       -0.767734    1.539309   -0.317814
      4          1           0       -1.606131   -1.654110    0.284140
      5          1           0       -3.008860    0.387229    0.319916
      6          1           0        2.565419   -1.560442   -0.163416
      7          7           0        0.073245    1.001209   -0.404933
      8          7           0       -1.431481   -0.658388    0.438679
      9          7           0        0.768364   -1.231641    0.155011
     10          8           0        1.047580    1.684729    0.402006
     11          8           0       -2.365690    0.075505   -0.338338
     12          8           0        2.025409   -0.762275   -0.269568
 ---------------------------------------------------------------------

 SCF Done:  E(RHF) =  -430.399208471     A.U. after    2 cycles

 The electronic state is 1-A.
 Alpha  occ. eigenvalues --  -21.12119 -21.09779 -21.09554 -15.80115 -15.79048
 Alpha  occ. eigenvalues --  -15.76226 -11.47373  -1.82428  -1.78651  -1.75439
 Alpha  occ. eigenvalues --   -1.37768  -1.19826  -1.14273  -0.81357  -0.73871
 Alpha  occ. eigenvalues --   -0.67224  -0.65199  -0.60743  -0.58282  -0.55426
 Alpha  occ. eigenvalues --   -0.53877  -0.52068  -0.41818  -0.40176  -0.37829
 Alpha  occ. eigenvalues --   -0.36440  -0.30894  -0.26353
 Alpha virt. eigenvalues --    0.03889   0.05235   0.05828   0.06748   0.07440
 Alpha virt. eigenvalues --    0.11374   0.12738   0.13391   0.14683   0.15700
 Alpha virt. eigenvalues --    0.15833   0.17666   0.18373   0.19005   0.19369

 Mulliken charges:
               1
     1  C    4.622622
     2  H    0.828904
     3  H    0.890481
     4  H    0.696255
     5  H    0.789003
     6  H    0.923784
     7  N   -0.848056
     8  N   -0.536612
     9  N   -0.467449
    10  O   -2.081170
    11  O   -2.206609
    12  O   -2.611151
 Sum of Mulliken charges =   0.00000

 Dipole moment (field-independent basis, Debye):
    X=             -1.0782    Y=              0.5393    Z=             -0.0443  Tot=              1.2064

 Test job not archived.
 1\1\GINC-SE221\SP\RHF\Aug-CC-pVDZ\C1H5N3O3\OHZDE\08-Apr-2025\0\\#t hf
 aug-cc-pvdz iop(5/13=1,5/36=2,99/5=2) pseudo=read geom=check guess=(re
 ad,tcheck) scf=(maxcycle=1)\\title\\0,1\C,0,-0.101236,-0.314411,0.0355
 208\H,0,1.89544,1.41256,-0.0100491\H,0,-0.767734,1.53931,-0.317814\H,0
 ,-1.60613,-1.65411,0.28414\H,0,-3.00886,0.387229,0.319916\H,0,2.56542,
 -1.56044,-0.163416\N,0,0.0732448,1.00121,-0.404933\N,0,-1.43148,-0.658
 388,0.438679\N,0,0.768365,-1.23164,0.155011\O,0,1.04758,1.68473,0.4020
 06\O,0,-2.36569,0.0755049,-0.338338\O,0,2.02541,-0.762273,-0.269568\\V

 Normal termination of Gaussian 16 at Tue Apr  8 21:39:57 2025.
