 Gaussian 16, Revision C.01,

 ----------------------------------------------------------------------
 #t hf aug-cc-pvdz symm=none int=(grid=ultrafine) guess=(read,tcheck) s
 table=(opt,rrhf)
 ----------------------------------------------------------------------
 -----
 title
 -----
 Symbolic Z-matrix:
 Charge =  0 Multiplicity = 1

 SCF Done:  E(RHF) =  -486.384816758     A.U. after   14 cycles
 Normal termination of Gaussian 16 at Tue Apr  8 21:46:02 2025.
 Gaussian 16:  ES64L-G16RevC.01  3-Jul-2019

 ----------------------------------------------------------------------
 #t hf aug-cc-pvdz iop(5/13=1,5/36=2,99/5=2) pseudo=read geom=check gue
 ss=(read,tcheck) scf=(maxcycle=1)
 ----------------------------------------------------------------------
 -----
 title
 -----
 Structure from the checkpoint file:  "ANI1ccx_517_conf9_mol2.chk"
 Charge =  0 Multiplicity = 1

                         Standard orientation:
 ---------------------------------------------------------------------
 Center     Atomic      Atomic             Coordinates (Angstroms)
 Number     Number       Type             X           Y           Z
 ---------------------------------------------------------------------
      1          6           0        0.694779    0.320687   -0.040749
      2          6           0       -0.693677   -0.304030   -0.049310
      3          1           0        2.889360    0.736602    0.147055
      4          1           0        1.470851   -1.603859   -0.038070
      5          1           0       -1.530080    1.611830    0.051680
      6          1           0       -2.845519   -0.773650    0.039738
      7          7           0        1.643041   -0.605255   -0.014459
      8          7           0       -1.659510    0.611513   -0.038142
      9          8           0        2.966541   -0.232726    0.065182
     10          8           0        0.911482    1.534191   -0.035121
     11          8           0       -0.904026   -1.511830   -0.024100
     12          8           0       -2.958489    0.196031    0.082559
 ---------------------------------------------------------------------

 SCF Done:  E(RHF) =  -488.408022877     A.U. after    2 cycles

 The electronic state is 1-A.
 Alpha  occ. eigenvalues --  -21.13867 -21.13471 -21.07006 -21.06695 -15.83918
 Alpha  occ. eigenvalues --  -15.83770 -11.56539 -11.51867  -1.87444  -1.84747
 Alpha  occ. eigenvalues --   -1.73171  -1.71511  -1.30868  -1.28680  -0.96221
 Alpha  occ. eigenvalues --   -0.85939  -0.81343  -0.66480  -0.66398  -0.64335
 Alpha  occ. eigenvalues --   -0.60194  -0.58967  -0.53070  -0.51326  -0.48377
 Alpha  occ. eigenvalues --   -0.45991  -0.42238  -0.38852  -0.30976  -0.29956
 Alpha  occ. eigenvalues --   -0.27879
 Alpha virt. eigenvalues --    0.04015   0.06058   0.06168   0.06408   0.10038
 Alpha virt. eigenvalues --    0.11239   0.11568   0.11931   0.12174   0.12535
 Alpha virt. eigenvalues --    0.14734   0.16073   0.16614   0.17189   0.17784

 Mulliken charges:
               1
     1  C    5.074971
     2  C    4.985824
     3  H    0.825711
     4  H    0.896707
     5  H    0.878956
     6  H    0.838037
     7  N   -0.640566
     8  N   -0.626868
     9  O   -2.686757
    10  O   -3.422902
    11  O   -3.427482
    12  O   -2.695632
 Sum of Mulliken charges =   0.00000

 Dipole moment (field-independent basis, Debye):
    X=              0.0516    Y=             -0.0372    Z=              0.2139  Tot=              0.2232

 Test job not archived.
 1\1\GINC-SE334\SP\RHF\Aug-CC-pVDZ\C2H4N2O4\OHZDE\08-Apr-2025\0\\#t hf
 aug-cc-pvdz iop(5/13=1,5/36=2,99/5=2) pseudo=read geom=check guess=(re
 ad,tcheck) scf=(maxcycle=1)\\title\\0,1\C,0,0.694778,0.320687,-0.04074
 92\C,0,-0.693678,-0.30403,-0.0493102\H,0,2.88936,0.736601,0.147055\H,0
 ,1.47085,-1.60386,-0.0380698\H,0,-1.53008,1.61183,0.0516803\H,0,-2.845
 52,-0.773649,0.039738\N,0,1.64304,-0.605256,-0.0144587\N,0,-1.65951,0.
 611513,-0.038142\O,0,2.96654,-0.232727,0.0651816\O,0,0.911482,1.53419,
 -0.0351213\O,0,-0.904027,-1.51183,-0.0240997\O,0,-2.95849,0.196032,0.0

 Normal termination of Gaussian 16 at Tue Apr  8 21:46:07 2025.
