 Gaussian 16, Revision C.01,

 ----------------------------------------------------------------------
 #t hf aug-cc-pvdz symm=none int=(grid=ultrafine) guess=(read,tcheck) s
 table=(opt,rrhf)
 ----------------------------------------------------------------------
 -----
 title
 -----
 Symbolic Z-matrix:
 Charge =  0 Multiplicity = 1

 SCF Done:  E(RHF) =  -509.550197096     A.U. after   14 cycles
 Normal termination of Gaussian 16 at Tue Apr  8 22:13:58 2025.
 Gaussian 16:  ES64L-G16RevC.01  3-Jul-2019

 ----------------------------------------------------------------------
 #t hf aug-cc-pvdz iop(5/13=1,5/36=2,99/5=2) pseudo=read geom=check gue
 ss=(read,tcheck) scf=(maxcycle=1)
 ----------------------------------------------------------------------
 -----
 title
 -----
 Structure from the checkpoint file:  "ANI1ccx_939_conf3_mol1.chk"
 Charge =  0 Multiplicity = 1

                         Standard orientation:
 ---------------------------------------------------------------------
 Center     Atomic      Atomic             Coordinates (Angstroms)
 Number     Number       Type             X           Y           Z
 ---------------------------------------------------------------------
      1          6           0        0.769214   -0.577839   -0.762241
      2          6           0        1.316681    0.604978    0.004665
      3          6           0       -0.712943   -0.490555   -1.078259
      4          6           0       -1.604820   -0.067076    0.058710
      5          1           0        1.700188   -2.379022   -0.513412
      6          1           0        1.543269   -1.473882    0.885037
      7          1           0        1.357450   -0.660117   -1.650539
      8          1           0       -0.882860    0.263870   -1.864469
      9          1           0       -1.091521   -1.437449   -1.452839
     10          1           0       -1.977160   -0.360079    1.873441
     11          1           0        1.189403    2.463238   -0.048096
     12          7           0        1.109379   -1.741362    0.005964
     13          8           0        2.118841    0.562739    0.914143
     14          8           0       -2.542769    0.681970   -0.036812
     15          8           0       -1.272890   -0.592318    1.212691
     16          8           0        0.670168    1.717099   -0.416036
 ---------------------------------------------------------------------

 SCF Done:  E(RHF) =  -511.732188732     A.U. after    2 cycles

 The electronic state is 1-A.
 Alpha  occ. eigenvalues --  -21.13766 -21.12011 -21.07327 -21.04256 -15.72676
 Alpha  occ. eigenvalues --  -11.54655 -11.52701 -11.47553 -11.41252  -1.84782
 Alpha  occ. eigenvalues --   -1.83878  -1.67557  -1.64589  -1.37257  -1.14728
 Alpha  occ. eigenvalues --   -0.99798  -0.83883  -0.77680  -0.71492  -0.67770
 Alpha  occ. eigenvalues --   -0.65842  -0.61382  -0.60056  -0.59040  -0.55634
 Alpha  occ. eigenvalues --   -0.53440  -0.51703  -0.50023  -0.46739  -0.45169
 Alpha  occ. eigenvalues --   -0.35975  -0.34793  -0.33061  -0.31771  -0.29129
 Alpha virt. eigenvalues --    0.03377   0.04529   0.05176   0.05684   0.05876
 Alpha virt. eigenvalues --    0.06649   0.08273   0.09896   0.10774   0.11038
 Alpha virt. eigenvalues --    0.12216   0.13340   0.13511   0.14159   0.14782

 Mulliken charges:
               1
     1  C   -1.926849
     2  C    6.665394
     3  C   -3.553153
     4  C    6.350907
     5  H    0.474278
     6  H    0.591696
     7  H    1.854795
     8  H    1.232069
     9  H    1.435538
    10  H    0.851323
    11  H    0.866343
    12  N   -2.475002
    13  O   -3.124878
    14  O   -3.228371
    15  O   -3.005923
    16  O   -3.008168
 Sum of Mulliken charges =  -0.00000

 Dipole moment (field-independent basis, Debye):
    X=              1.3691    Y=             -0.2569    Z=             -0.6283  Tot=              1.5281

 Test job not archived.
 1\1\GINC-SE364\SP\RHF\Aug-CC-pVDZ\C4H7N1O4\OHZDE\08-Apr-2025\0\\#t hf
 aug-cc-pvdz iop(5/13=1,5/36=2,99/5=2) pseudo=read geom=check guess=(re
 ad,tcheck) scf=(maxcycle=1)\\title\\0,1\C,0,0.769214,-0.577838,-0.7622
 42\C,0,1.31668,0.60498,0.00466382\C,0,-0.712943,-0.490555,-1.07826\C,0
 ,-1.60482,-0.0670775,0.0587091\H,0,1.70019,-2.37902,-0.513413\H,0,1.54
 327,-1.47388,0.885036\H,0,1.35745,-0.660115,-1.65054\H,0,-0.882861,0.2
 6387,-1.86447\H,0,-1.09152,-1.43745,-1.45284\H,0,-1.97716,-0.360081,1.
 87344\H,0,1.1894,2.46324,-0.0480969\N,0,1.10938,-1.74136,0.00596327\O,

 Normal termination of Gaussian 16 at Tue Apr  8 22:14:04 2025.
