 Gaussian 16, Revision C.01,

 ----------------------------------------------------------------------
 #t hf aug-cc-pvdz symm=none int=(grid=ultrafine) guess=(read,tcheck) s
 table=(opt,rrhf)
 ----------------------------------------------------------------------
 -----
 title
 -----
 Symbolic Z-matrix:
 Charge =  0 Multiplicity = 1

 SCF Done:  E(RHF) =  -585.373983241     A.U. after   15 cycles
 Normal termination of Gaussian 16 at Tue Apr  8 22:17:41 2025.
 Gaussian 16:  ES64L-G16RevC.01  3-Jul-2019

 ----------------------------------------------------------------------
 #t hf aug-cc-pvdz iop(5/13=1,5/36=2,99/5=2) pseudo=read geom=check gue
 ss=(read,tcheck) scf=(maxcycle=1)
 ----------------------------------------------------------------------
 -----
 title
 -----
 Structure from the checkpoint file:  "ANI1ccx_978_conf10_mol1.chk"
 Charge =  0 Multiplicity = 1

                         Standard orientation:
 ---------------------------------------------------------------------
 Center     Atomic      Atomic             Coordinates (Angstroms)
 Number     Number       Type             X           Y           Z
 ---------------------------------------------------------------------
      1          6           0        0.367294   -1.452290   -0.284407
      2          6           0       -0.181474   -0.156117    0.407326
      3          6           0       -1.566819   -0.489941    0.966101
      4          6           0        0.875840    0.425950    1.445710
      5          1           0        2.397641   -0.227312    0.404219
      6          1           0        0.827449   -0.255646    2.373820
      7          1           0        0.523941    1.456920    1.756750
      8          1           0       -1.885619    0.384811    1.640570
      9          1           0       -3.276249   -0.160821   -0.002524
     10          1           0        0.558829   -2.137190    0.611427
     11          1           0       -0.359137   -1.858740   -0.930847
     12          1           0        1.548351   -0.821122   -1.673180
     13          1           0       -1.406448   -1.396871    1.595120
     14          7           0       -0.267636    0.879703   -0.643181
     15          8           0        0.313406    0.756929   -1.705580
     16          8           0        1.670002   -1.240179   -0.816694
     17          8           0       -2.402789   -0.811985   -0.126660
     18          8           0        2.157730    0.635540    0.879688
     19          8           0       -0.991393    1.771249   -0.290936
 ---------------------------------------------------------------------

 SCF Done:  E(RHF) =  -587.926236019     A.U. after    2 cycles

 The electronic state is 1-A.
 Alpha  occ. eigenvalues --  -21.10167 -21.09966 -21.09886 -21.08592 -21.06017
 Alpha  occ. eigenvalues --  -15.99807 -11.50595 -11.49431 -11.48015 -11.42304
 Alpha  occ. eigenvalues --   -2.02156  -1.75537  -1.72769  -1.70919  -1.68979
 Alpha  occ. eigenvalues --   -1.27046  -1.01646  -0.99443  -0.97139  -0.78915
 Alpha  occ. eigenvalues --   -0.75047  -0.71813  -0.69148  -0.65779  -0.63298
 Alpha  occ. eigenvalues --   -0.60678  -0.59657  -0.57910  -0.55762  -0.53337
 Alpha  occ. eigenvalues --   -0.51945  -0.46788  -0.45399  -0.42021  -0.37351
 Alpha  occ. eigenvalues --   -0.34725  -0.33075  -0.32366  -0.30198  -0.29309
 Alpha virt. eigenvalues --    0.03608   0.04429   0.04759   0.05069   0.05521
 Alpha virt. eigenvalues --    0.06116   0.07002   0.07594   0.08587   0.11344
 Alpha virt. eigenvalues --    0.12111   0.12203   0.12768   0.13943   0.14224

 Mulliken charges:
               1
     1  C   -0.244002
     2  C    1.578773
     3  C   -0.403640
     4  C   -0.490151
     5  H    1.037672
     6  H    1.184246
     7  H    1.308245
     8  H    1.412528
     9  H    0.522057
    10  H    1.160658
    11  H    1.360668
    12  H    0.948296
    13  H    1.020581
    14  N    4.346656
    15  O   -3.088941
    16  O   -2.839215
    17  O   -2.549750
    18  O   -2.905731
    19  O   -3.358950
 Sum of Mulliken charges =   0.00000

 Dipole moment (field-independent basis, Debye):
    X=             -1.1165    Y=             -1.4813    Z=              0.6581  Tot=              1.9683

 Test job not archived.
 1\1\GINC-SE082\SP\RHF\Aug-CC-pVDZ\C4H9N1O5\OHZDE\08-Apr-2025\0\\#t hf
 aug-cc-pvdz iop(5/13=1,5/36=2,99/5=2) pseudo=read geom=check guess=(re
 ad,tcheck) scf=(maxcycle=1)\\title\\0,1\C,0,0.367292,-1.45229,-0.28440
 7\C,0,-0.181475,-0.156117,0.407326\C,0,-1.56682,-0.48994,0.966101\C,0,
 0.875839,0.425949,1.44571\H,0,2.39764,-0.227314,0.404219\H,0,0.827448,
 -0.255647,2.37382\H,0,0.523941,1.45692,1.75675\H,0,-1.88562,0.384812,1
 .64057\H,0,-3.27625,-0.160819,-0.00252368\H,0,0.558827,-2.13719,0.6114
 27\H,0,-0.359139,-1.85874,-0.930847\H,0,1.54835,-0.821123,-1.67318\H,0

 Normal termination of Gaussian 16 at Tue Apr  8 22:17:51 2025.
