 Gaussian 16, Revision C.01,

 ----------------------------------------------------------------------
 #t hf aug-cc-pvdz symm=none int=(grid=ultrafine) guess=(read,tcheck) s
 table=(opt,rrhf)
 ----------------------------------------------------------------------
 -----
 title
 -----
 Symbolic Z-matrix:
 Charge =  0 Multiplicity = 1

 SCF Done:  E(RHF) =  -356.582236422     A.U. after   15 cycles
 Normal termination of Gaussian 16 at Tue Apr  8 21:44:48 2025.
 Gaussian 16:  ES64L-G16RevC.01  3-Jul-2019

 ----------------------------------------------------------------------
 #t hf aug-cc-pvdz iop(5/13=1,5/36=2,99/5=2) pseudo=read geom=check gue
 ss=(read,tcheck) scf=(maxcycle=1)
 ----------------------------------------------------------------------
 -----
 title
 -----
 Structure from the checkpoint file:  "ANI1ccx_498_conf2_mol1.chk"
 Charge =  0 Multiplicity = 1

                         Standard orientation:
 ---------------------------------------------------------------------
 Center     Atomic      Atomic             Coordinates (Angstroms)
 Number     Number       Type             X           Y           Z
 ---------------------------------------------------------------------
      1          6           0        0.734059   -0.124138   -0.106389
      2          6           0       -0.716507    0.058061   -0.053722
      3          1           0        2.344378    0.781212    0.769426
      4          1           0        0.816208    1.796211    0.572755
      5          1           0       -2.232881   -0.392747    0.944683
      6          7           0        1.407528    0.913818    0.491189
      7          8           0        1.217059   -1.153059   -0.532850
      8          8           0       -1.305471   -0.631626    0.807007
      9          8           0       -1.272302    0.761567   -0.869722
 ---------------------------------------------------------------------

 SCF Done:  E(RHF) =  -358.055292590     A.U. after    2 cycles

 The electronic state is 1-A.
 Alpha  occ. eigenvalues --  -21.16337 -21.06491 -21.05620 -15.80230 -11.55825
 Alpha  occ. eigenvalues --  -11.50581  -1.90082  -1.72294  -1.67899  -1.36636
 Alpha  occ. eigenvalues --   -1.01594  -0.80633  -0.73842  -0.68605  -0.64018
 Alpha  occ. eigenvalues --   -0.60564  -0.54386  -0.52648  -0.46638  -0.36404
 Alpha  occ. eigenvalues --   -0.35335  -0.34527  -0.28252
 Alpha virt. eigenvalues --    0.03083   0.04334   0.05644   0.10267   0.10956
 Alpha virt. eigenvalues --    0.11432   0.11881   0.12785   0.13323   0.14952
 Alpha virt. eigenvalues --    0.16596   0.16625   0.17977   0.18665   0.19380

 Mulliken charges:
               1
     1  C    4.109607
     2  C    5.196849
     3  H    0.725035
     4  H    0.703903
     5  H    0.740393
     6  N   -2.713574
     7  O   -2.931729
     8  O   -2.941092
     9  O   -2.889391
 Sum of Mulliken charges =  -0.00000

 Dipole moment (field-independent basis, Debye):
    X=             -0.0663    Y=              1.3468    Z=              2.2336  Tot=              2.6091

 Test job not archived.
 1\1\GINC-SE044\SP\RHF\Aug-CC-pVDZ\C2H3N1O3\OHZDE\08-Apr-2025\0\\#t hf
 aug-cc-pvdz iop(5/13=1,5/36=2,99/5=2) pseudo=read geom=check guess=(re
 ad,tcheck) scf=(maxcycle=1)\\title\\0,1\C,0,0.73406,-0.124139,-0.10638
 9\C,0,-0.716506,0.0580612,-0.053722\H,0,2.34438,0.78121,0.769426\H,0,0
 .81621,1.79621,0.572755\H,0,-2.23288,-0.392746,0.944683\N,0,1.40753,0.
 913817,0.491189\O,0,1.21706,-1.15306,-0.53285\O,0,-1.30547,-0.631626,0
 .807007\O,0,-1.2723,0.761567,-0.869722\\Version=ES64L-G16RevC.01\State
 =1-A\HF=-358.0552926\RMSD=2.216e-01\Dipole=-0.026077,0.5298607,0.87876

 Normal termination of Gaussian 16 at Tue Apr  8 21:44:51 2025.
