 Gaussian 16, Revision C.01,

 ----------------------------------------------------------------------
 #t hf aug-cc-pvdz symm=none int=(grid=ultrafine) guess=(read,tcheck) s
 table=(opt,rrhf)
 ----------------------------------------------------------------------
 -----
 title
 -----
 Symbolic Z-matrix:
 Charge =  0 Multiplicity = 1

 SCF Done:  E(RHF) =  -661.568026440     A.U. after   16 cycles
 Normal termination of Gaussian 16 at Tue Apr  8 19:57:06 2025.
 Gaussian 16:  ES64L-G16RevC.01  3-Jul-2019

 ----------------------------------------------------------------------
 #t hf aug-cc-pvdz iop(5/13=1,5/36=2,99/5=2) pseudo=read geom=check gue
 ss=(read,tcheck) scf=(maxcycle=1)
 ----------------------------------------------------------------------
 -----
 title
 -----
 Structure from the checkpoint file:  "ANI1ccx_1450_conf3_mol1.chk"
 Charge =  0 Multiplicity = 1

                         Standard orientation:
 ---------------------------------------------------------------------
 Center     Atomic      Atomic             Coordinates (Angstroms)
 Number     Number       Type             X           Y           Z
 ---------------------------------------------------------------------
      1          6           0       -1.619780   -0.348017    0.047477
      2          6           0       -0.486610   -0.418729   -0.973727
      3          6           0        0.866360   -0.968048   -0.582488
      4          6           0        2.707490   -1.035990    0.875260
      5          6           0        3.633290   -0.793567   -0.279238
      6          6           0        3.076560    1.492950    0.278245
      7          6           0        1.684010    1.146430    0.619307
      8          1           0        1.006890    1.522130   -0.130509
      9          1           0        1.429590    1.608750    1.602190
     10          1           0        3.144040    2.525870   -0.137823
     11          1           0        3.751910    1.589509    1.194920
     12          1           0        3.291860    0.786134   -1.600590
     13          1           0        4.658550   -1.097461   -0.067249
     14          1           0        3.337010   -1.337331   -1.265850
     15          1           0        3.119530   -0.637102    1.846750
     16          1           0        0.770486   -2.087720   -0.237159
     17          1           0        1.496240   -0.890972   -1.452120
     18          1           0       -0.979558   -0.937698   -1.787610
     19          1           0       -0.432121    0.590235   -1.429450
     20          1           0       -1.245210    0.265120    0.875597
     21          1           0       -1.758960   -1.300950    0.491913
     22          1           0        2.523040   -2.133670    1.206130
     23          7           0       -3.932560    0.220410    0.109175
     24          7           0        1.490050   -0.319302    0.593381
     25          7           0        3.768910    0.653599   -0.709303
     26          8           0       -4.904650    0.606119   -0.439365
     27          8           0       -3.930480   -0.396070    1.194980
     28          8           0       -2.735620    0.190205   -0.626983
 ---------------------------------------------------------------------

 SCF Done:  E(RHF) =  -664.617138965     A.U. after    2 cycles

 The electronic state is 1-A.
 Alpha  occ. eigenvalues --  -21.15378 -21.13640 -21.10030 -16.05534 -15.72349
 Alpha  occ. eigenvalues --  -15.70631 -11.48931 -11.47226 -11.47022 -11.45083
 Alpha  occ. eigenvalues --  -11.39430 -11.38863 -11.38118  -2.08402  -1.79022
 Alpha  occ. eigenvalues --   -1.71231  -1.49045  -1.33268  -1.19672  -1.14751
 Alpha  occ. eigenvalues --   -1.05409  -0.96934  -0.92853  -0.89914  -0.86523
 Alpha  occ. eigenvalues --   -0.76874  -0.73931  -0.72986  -0.70248  -0.69422
 Alpha  occ. eigenvalues --   -0.67810  -0.66485  -0.64627  -0.61121  -0.58267
 Alpha  occ. eigenvalues --   -0.55761  -0.54382  -0.53262  -0.51696  -0.50669
 Alpha  occ. eigenvalues --   -0.49950  -0.48435  -0.47877  -0.44942  -0.42384
 Alpha  occ. eigenvalues --   -0.38441  -0.37435  -0.35444  -0.33329  -0.31568
 Alpha  occ. eigenvalues --   -0.28936
 Alpha virt. eigenvalues --    0.03725   0.04301   0.04780   0.05066   0.05289
 Alpha virt. eigenvalues --    0.05460   0.05633   0.05932   0.06400   0.07126
 Alpha virt. eigenvalues --    0.07805   0.08604   0.08806   0.09106   0.09824

 Mulliken charges:
               1
     1  C   -1.804782
     2  C   -2.395501
     3  C   -2.287871
     4  C   -2.816880
     5  C   -2.127940
     6  C   -2.080176
     7  C   -2.482493
     8  H    2.159341
     9  H    1.275578
    10  H    1.143307
    11  H    1.369929
    12  H    0.473572
    13  H    1.374730
    14  H    1.433215
    15  H    1.410807
    16  H    1.417011
    17  H    1.789046
    18  H    1.211647
    19  H    1.458718
    20  H    1.763916
    21  H    1.795766
    22  H    1.423048
    23  N    6.952276
    24  N   -1.614227
    25  N   -1.961116
    26  O   -2.970142
    27  O   -2.637532
    28  O   -3.273248
 Sum of Mulliken charges =   0.00000

 Dipole moment (field-independent basis, Debye):
    X=              2.5075    Y=             -0.5136    Z=             -0.7612  Tot=              2.6704

 Test job not archived.
 1\1\GINC-SE159\SP\RHF\Aug-CC-pVDZ\C7H15N3O3\OHZDE\08-Apr-2025\0\\#t hf
  aug-cc-pvdz iop(5/13=1,5/36=2,99/5=2) pseudo=read geom=check guess=(r
 ead,tcheck) scf=(maxcycle=1)\\title\\0,1\C,0,-1.61978,-0.348017,0.0474
 769\C,0,-0.48661,-0.418729,-0.973727\C,0,0.86636,-0.968048,-0.582488\C
 ,0,2.70749,-1.03599,0.87526\C,0,3.63329,-0.793566,-0.279238\C,0,3.0765
 6,1.49295,0.278245\C,0,1.68401,1.14643,0.619307\H,0,1.00689,1.52213,-0
 .130509\H,0,1.42959,1.60875,1.60219\H,0,3.14404,2.52587,-0.137823\H,0,
 3.75191,1.58951,1.19492\H,0,3.29186,0.786134,-1.60059\H,0,4.65855,-1.0

 Normal termination of Gaussian 16 at Tue Apr  8 19:57:35 2025.
