 Gaussian 16, Revision C.01,

 ----------------------------------------------------------------------
 #t hf aug-cc-pvdz symm=none int=(grid=ultrafine) guess=(read,tcheck) s
 table=(opt,rrhf)
 ----------------------------------------------------------------------
 -----
 title
 -----
 Symbolic Z-matrix:
 Charge =  0 Multiplicity = 1

 SCF Done:  E(RHF) =  -751.224001624     A.U. after   16 cycles
 Normal termination of Gaussian 16 at Tue Apr  8 20:06:51 2025.
 Gaussian 16:  ES64L-G16RevC.01  3-Jul-2019

 ----------------------------------------------------------------------
 #t hf aug-cc-pvdz iop(5/13=1,5/36=2,99/5=2) pseudo=read geom=check gue
 ss=(read,tcheck) scf=(maxcycle=1)
 ----------------------------------------------------------------------
 -----
 title
 -----
 Structure from the checkpoint file:  "ANI1ccx_1547_conf10_mol2.chk"
 Charge =  0 Multiplicity = 1

                         Standard orientation:
 ---------------------------------------------------------------------
 Center     Atomic      Atomic             Coordinates (Angstroms)
 Number     Number       Type             X           Y           Z
 ---------------------------------------------------------------------
      1          6           0        4.095570   -0.941951    0.194031
      2          6           0        3.389500    0.095575   -0.659489
      3          6           0        1.324730    1.256681   -0.762485
      4          6           0       -0.836983    2.260261    0.146551
      5          6           0       -2.089790    0.514451    0.126396
      6          6           0       -0.855941    0.094505   -0.285069
      7          6           0       -1.593480   -2.082019   -0.448362
      8          6           0       -3.172380   -0.450829    0.276455
      9          1           0       -1.386500   -3.110069   -0.706941
     10          1           0        0.404836   -1.491879   -0.800003
     11          1           0       -0.411950    3.257441    0.249219
     12          1           0        1.752500    2.244051   -0.487979
     13          1           0        1.345160    1.215891   -1.857350
     14          1           0        3.890830    1.073321   -0.587346
     15          1           0        3.387870   -0.181132   -1.723020
     16          1           0        5.134750   -1.076379   -0.167869
     17          1           0        3.587470   -1.911309    0.038954
     18          1           0        3.277890   -0.362284    1.855770
     19          7           0       -0.026589    1.189361   -0.285248
     20          7           0       -2.049870    1.880161    0.400822
     21          7           0       -0.540743   -1.202039   -0.588127
     22          7           0       -2.800140   -1.786009   -0.080561
     23          8           0        4.153480   -0.583869    1.546140
     24          8           0        2.044110    0.197245   -0.189663
     25          8           0       -4.276190   -0.201878    0.709796
 ---------------------------------------------------------------------

 SCF Done:  E(RHF) =  -754.545973821     A.U. after    2 cycles

 The electronic state is 1-A.
 Alpha  occ. eigenvalues --  -21.10494 -21.09426 -21.01004 -15.82992 -15.81089
 Alpha  occ. eigenvalues --  -15.74565 -15.73188 -11.52967 -11.50451 -11.50368
 Alpha  occ. eigenvalues --  -11.49552 -11.48732 -11.45702 -11.43139 -11.40401
 Alpha  occ. eigenvalues --   -1.83512  -1.73501  -1.68867  -1.60850  -1.48898
 Alpha  occ. eigenvalues --   -1.34329  -1.29944  -1.13935  -1.12476  -1.02434
 Alpha  occ. eigenvalues --   -0.93896  -0.91565  -0.89384  -0.85755  -0.76803
 Alpha  occ. eigenvalues --   -0.73456  -0.72148  -0.71074  -0.68484  -0.67627
 Alpha  occ. eigenvalues --   -0.64219  -0.63573  -0.61026  -0.59376  -0.57793
 Alpha  occ. eigenvalues --   -0.57314  -0.56129  -0.53591  -0.49376  -0.47407
 Alpha  occ. eigenvalues --   -0.45768  -0.43231  -0.39950  -0.38898  -0.37666
 Alpha  occ. eigenvalues --   -0.37274  -0.35980  -0.34529  -0.26817  -0.26269
 Alpha virt. eigenvalues --    0.02136   0.02956   0.03300   0.03949   0.04450
 Alpha virt. eigenvalues --    0.04810   0.05327   0.05876   0.06750   0.07363
 Alpha virt. eigenvalues --    0.09096   0.09663   0.10218   0.10825   0.11171

 Mulliken charges:
               1
     1  C   -1.346181
     2  C   -1.456869
     3  C   -0.642839
     4  C    0.583300
     5  C    2.295946
     6  C    3.541848
     7  C    0.715493
     8  C    5.497912
     9  H    1.789028
    10  H    1.056230
    11  H    1.771602
    12  H    1.942858
    13  H    2.010095
    14  H    1.709071
    15  H    1.723817
    16  H    1.203505
    17  H    1.410002
    18  H    0.907611
    19  N   -4.339266
    20  N   -3.962346
    21  N   -3.609561
    22  N   -3.219786
    23  O   -2.689255
    24  O   -3.179728
    25  O   -3.712490
 Sum of Mulliken charges =  -0.00000

 Dipole moment (field-independent basis, Debye):
    X=              9.4314    Y=             -0.1222    Z=             -2.9124  Tot=              9.8715

 Test job not archived.
 1\1\GINC-SE009\SP\RHF\Aug-CC-pVDZ\C8H10N4O3\OHZDE\08-Apr-2025\0\\#t hf
  aug-cc-pvdz iop(5/13=1,5/36=2,99/5=2) pseudo=read geom=check guess=(r
 ead,tcheck) scf=(maxcycle=1)\\title\\0,1\C,0,4.09557,-0.941952,0.19403
 1\C,0,3.3895,0.095574,-0.659489\C,0,1.32473,1.25668,-0.762485\C,0,-0.8
 36983,2.26026,0.146551\C,0,-2.08979,0.51445,0.126396\C,0,-0.855941,0.0
 945039,-0.285069\C,0,-1.59348,-2.08202,-0.448362\C,0,-3.17238,-0.45083
 ,0.276455\H,0,-1.3865,-3.11007,-0.706941\H,0,0.404836,-1.49188,-0.8000
 03\H,0,-0.41195,3.25744,0.249219\H,0,1.7525,2.24405,-0.487979\H,0,1.34

 Normal termination of Gaussian 16 at Tue Apr  8 20:07:16 2025.
