 Gaussian 16, Revision C.01,

 ----------------------------------------------------------------------
 #t hf aug-cc-pvdz symm=none int=(grid=ultrafine) guess=(read,tcheck) s
 table=(opt,rrhf)
 ----------------------------------------------------------------------
 -----
 title
 -----
 Symbolic Z-matrix:
 Charge =  0 Multiplicity = 1

 SCF Done:  E(RHF) =  -390.239469445     A.U. after   16 cycles
 Normal termination of Gaussian 16 at Tue Apr  8 22:01:06 2025.
 Gaussian 16:  ES64L-G16RevC.01  3-Jul-2019

 ----------------------------------------------------------------------
 #t hf aug-cc-pvdz iop(5/13=1,5/36=2,99/5=2) pseudo=read geom=check gue
 ss=(read,tcheck) scf=(maxcycle=1)
 ----------------------------------------------------------------------
 -----
 title
 -----
 Structure from the checkpoint file:  "ANI1ccx_847_conf9_mol1.chk"
 Charge =  0 Multiplicity = 1

                         Standard orientation:
 ---------------------------------------------------------------------
 Center     Atomic      Atomic             Coordinates (Angstroms)
 Number     Number       Type             X           Y           Z
 ---------------------------------------------------------------------
      1          6           0       -1.522502   -0.274196    0.009690
      2          6           0       -1.118932    1.235339    0.008977
      3          6           0        0.640470   -0.078393   -0.032203
      4          6           0        2.037768   -0.148100    0.051675
      5          1           0       -1.675902    2.154549    0.016864
      6          7           0        0.159006    1.308619   -0.022224
      7          7           0       -0.189710   -0.987401   -0.044629
      8          7           0        3.190858   -0.346799    0.005162
      9          8           0       -2.583252   -0.797924    0.023267
 ---------------------------------------------------------------------

 SCF Done:  E(RHF) =  -391.913478763     A.U. after    2 cycles

 The electronic state is 1-A.
 Alpha  occ. eigenvalues --  -21.13951 -15.82094 -15.80974 -15.80230 -11.57977
 Alpha  occ. eigenvalues --  -11.55395 -11.50160 -11.47574  -1.78913  -1.57994
 Alpha  occ. eigenvalues --   -1.34428  -1.32343  -1.10410  -0.90763  -0.86274
 Alpha  occ. eigenvalues --   -0.75711  -0.65954  -0.65124  -0.60472  -0.55970
 Alpha  occ. eigenvalues --   -0.52956  -0.52316  -0.48032  -0.47154  -0.43649
 Alpha  occ. eigenvalues --   -0.42248  -0.35154
 Alpha virt. eigenvalues --    0.00739   0.02764   0.07052   0.07973   0.09356
 Alpha virt. eigenvalues --    0.09583   0.10010   0.10901   0.11153   0.12259
 Alpha virt. eigenvalues --    0.12407   0.13220   0.14208   0.14574   0.15284

 Mulliken charges:
               1
     1  C    4.278001
     2  C   -0.042360
     3  C    3.977712
     4  C    2.050929
     5  H    1.498252
     6  N   -2.923923
     7  N   -3.132685
     8  N   -2.644161
     9  O   -3.061766
 Sum of Mulliken charges =   0.00000

 Dipole moment (field-independent basis, Debye):
    X=             -3.2369    Y=              1.4625    Z=              0.0035  Tot=              3.5520

 Test job not archived.
 1\1\GINC-SE364\SP\RHF\Aug-CC-pVDZ\C4H1N3O1\OHZDE\08-Apr-2025\0\\#t hf
 aug-cc-pvdz iop(5/13=1,5/36=2,99/5=2) pseudo=read geom=check guess=(re
 ad,tcheck) scf=(maxcycle=1)\\title\\0,1\C,0,-1.5225,-0.274195,0.009690
 02\C,0,-1.11893,1.23534,0.00897715\C,0,0.640472,-0.0783922,-0.0322029\
 C,0,2.03777,-0.148099,0.0516755\H,0,-1.6759,2.15455,0.0168637\N,0,0.15
 9008,1.30862,-0.0222236\N,0,-0.189708,-0.9874,-0.0446292\N,0,3.19086,-
 0.346798,0.00516167\O,0,-2.58325,-0.797924,0.023267\\Version=ES64L-G16
 RevC.01\State=1-A\HF=-391.9134788\RMSD=5.586e-01\Dipole=-1.2734945,0.5

 Normal termination of Gaussian 16 at Tue Apr  8 22:01:10 2025.
