 Gaussian 16, Revision C.01,

 ----------------------------------------------------------------------
 #t hf aug-cc-pvdz symm=none int=(grid=ultrafine) guess=(read,tcheck) s
 table=(opt,rrhf)
 ----------------------------------------------------------------------
 -----
 title
 -----
 Symbolic Z-matrix:
 Charge =  0 Multiplicity = 1

 SCF Done:  E(RHF) =  -480.052779963     A.U. after   17 cycles
 Normal termination of Gaussian 16 at Tue Apr  8 21:42:12 2025.
 Gaussian 16:  ES64L-G16RevC.01  3-Jul-2019

 ----------------------------------------------------------------------
 #t hf aug-cc-pvdz iop(5/13=1,5/36=2,99/5=2) pseudo=read geom=check gue
 ss=(read,tcheck) scf=(maxcycle=1)
 ----------------------------------------------------------------------
 -----
 title
 -----
 Structure from the checkpoint file:  "ANI1ccx_456_conf3_mol1.chk"
 Charge =  0 Multiplicity = 1

                         Standard orientation:
 ---------------------------------------------------------------------
 Center     Atomic      Atomic             Coordinates (Angstroms)
 Number     Number       Type             X           Y           Z
 ---------------------------------------------------------------------
      1          6           0        0.068526    0.096325    0.026790
      2          7           0       -1.388000   -0.005994   -0.023571
      3          7           0        0.832693    1.124769    0.246727
      4          7           0        2.129020    0.597652    0.114422
      5          7           0        2.046030   -0.623892   -0.172216
      6          8           0       -1.890560   -1.049651    0.286443
      7          8           0       -2.046180    1.023059   -0.271661
      8          8           0        0.718068   -1.001621   -0.179566
 ---------------------------------------------------------------------

 SCF Done:  E(RHF) =  -482.031193312     A.U. after    2 cycles

 The electronic state is 1-A.
 Alpha  occ. eigenvalues --  -21.23405 -21.16523 -21.14176 -16.06811 -15.90763
 Alpha  occ. eigenvalues --  -15.88665 -15.84718 -11.58770  -2.08623  -2.02890
 Alpha  occ. eigenvalues --   -1.73912  -1.59829  -1.40468  -1.15510  -0.96944
 Alpha  occ. eigenvalues --   -0.86732  -0.79010  -0.77854  -0.70330  -0.67644
 Alpha  occ. eigenvalues --   -0.66275  -0.55432  -0.51019  -0.49157  -0.46485
 Alpha  occ. eigenvalues --   -0.46096  -0.41410  -0.35752  -0.35278
 Alpha virt. eigenvalues --    0.05865   0.07071   0.09422   0.10134   0.10615
 Alpha virt. eigenvalues --    0.11587   0.12385   0.12717   0.14247   0.14701
 Alpha virt. eigenvalues --    0.16533   0.17240   0.18505   0.19353   0.19598

 Mulliken charges:
               1
     1  C    4.966809
     2  N    3.549450
     3  N   -1.882425
     4  N    0.617797
     5  N    0.704937
     6  O   -2.694024
     7  O   -2.620909
     8  O   -2.641635
 Sum of Mulliken charges =  -0.00000

 Dipole moment (field-independent basis, Debye):
    X=             -0.5425    Y=             -1.3705    Z=             -0.1560  Tot=              1.4822

 Test job not archived.
 1\1\GINC-SE044\SP\RHF\Aug-CC-pVDZ\C1N4O3\OHZDE\08-Apr-2025\0\\#t hf au
 g-cc-pvdz iop(5/13=1,5/36=2,99/5=2) pseudo=read geom=check guess=(read
 ,tcheck) scf=(maxcycle=1)\\title\\0,1\C,0,0.0685256,0.0963255,0.02679\
 N,0,-1.388,-0.00599297,-0.0235708\N,0,0.832693,1.12477,0.246727\N,0,2.
 12902,0.597653,0.114422\N,0,2.04603,-0.623891,-0.172216\O,0,-1.89056,-
 1.04965,0.286443\O,0,-2.04618,1.02306,-0.271661\O,0,0.718068,-1.00162,
 -0.179566\\Version=ES64L-G16RevC.01\State=1-A\HF=-482.0311933\RMSD=8.7
 33e-02\Dipole=-0.2134402,-0.5392075,-0.0613711\Quadrupole=-2.0367796,-

 Normal termination of Gaussian 16 at Tue Apr  8 21:42:15 2025.
