 Gaussian 16, Revision C.01,

 ----------------------------------------------------------------------
 #t hf aug-cc-pvdz symm=none int=(grid=ultrafine) guess=(read,tcheck) s
 table=(opt,rrhf)
 ----------------------------------------------------------------------
 -----
 title
 -----
 Symbolic Z-matrix:
 Charge =  0 Multiplicity = 1

 SCF Done:  E(RHF) =  -798.771377535     A.U. after   14 cycles
 Normal termination of Gaussian 16 at Tue Apr  8 22:19:41 2025.
 Gaussian 16:  ES64L-G16RevC.01  3-Jul-2019

 ----------------------------------------------------------------------
 #t hf aug-cc-pvdz iop(5/13=1,5/36=2,99/5=2) pseudo=read geom=check gue
 ss=(read,tcheck) scf=(maxcycle=1)
 ----------------------------------------------------------------------
 -----
 title
 -----
 Structure from the checkpoint file:  "ANI1ccx_86_conf3_mol1.chk"
 Charge =  0 Multiplicity = 1

                         Standard orientation:
 ---------------------------------------------------------------------
 Center     Atomic      Atomic             Coordinates (Angstroms)
 Number     Number       Type             X           Y           Z
 ---------------------------------------------------------------------
      1          6           0       -1.745500   -0.501497   -0.626817
      2          6           0        2.124869    0.921268    0.835144
      3          6           0        2.084331   -1.036719   -0.817465
      4          6           0        1.264700   -0.043700    0.011496
      5          6           0       -1.209032    2.511459   -1.088710
      6          6           0        3.116550    0.239330    1.707260
      7          6           0       -3.703010    0.274164    0.758237
      8          6           0       -2.739510    0.670187   -0.367961
      9          6           0       -0.999119   -0.926536    0.679447
     10          6           0       -2.050621    1.943969    0.021720
     11          1           0       -0.421057    1.830920   -1.341930
     12          1           0        3.387270    0.318477   -0.897905
     13          1           0        3.833050   -0.398450    1.043530
     14          1           0        3.695129    1.000362    2.264590
     15          1           0        2.619400   -0.426314    2.459510
     16          1           0        3.166118    2.512422    0.235660
     17          1           0        1.459459    1.540381    1.431830
     18          1           0        0.760548    0.514772   -0.725768
     19          1           0        0.648637   -1.299780    1.639260
     20          1           0       -0.699905    3.459209   -0.852862
     21          1           0       -1.411191    1.745739    0.897402
     22          1           0       -2.770952    2.740928    0.352955
     23          1           0       -3.263250    0.235899    1.739220
     24          1           0       -4.489371    1.013537    0.831984
     25          1           0       -4.217050   -0.663569    0.539084
     26          1           0       -3.371300    0.792737   -1.247240
     27          1           0       -1.051720   -0.223378   -1.471120
     28          1           0       -2.111199   -2.266192   -1.675540
     29          1           0       -2.820139   -2.213682   -0.171600
     30          1           0       -1.770502    2.598369   -1.997100
     31          7           0       -2.595419   -1.677442   -1.004070
     32          7           0        0.315439   -0.690187    0.874951
     33          8           0        2.740289    1.764402   -0.193273
     34          8           0       -1.679629   -1.624301    1.422910
     35          8           0        1.762511   -2.188729   -0.967520
     36          8           0        3.167570   -0.520188   -1.365140
 ---------------------------------------------------------------------

 SCF Done:  E(RHF) =  -802.456847953     A.U. after    2 cycles

 The electronic state is 1-A.
 Alpha  occ. eigenvalues --  -21.12244 -21.11714 -21.05395 -21.01863 -15.77891
 Alpha  occ. eigenvalues --  -15.71154 -11.55842 -11.53851 -11.52819 -11.48734
 Alpha  occ. eigenvalues --  -11.46932 -11.43636 -11.43236 -11.40092 -11.37352
 Alpha  occ. eigenvalues --  -11.34680  -1.84662  -1.76251  -1.71474  -1.66144
 Alpha  occ. eigenvalues --   -1.43079  -1.34240  -1.22613  -1.19934  -1.08601
 Alpha  occ. eigenvalues --   -1.08121  -0.99241  -0.91492  -0.91254  -0.84982
 Alpha  occ. eigenvalues --   -0.81043  -0.77588  -0.77044  -0.71027  -0.68504
 Alpha  occ. eigenvalues --   -0.66637  -0.64949  -0.64300  -0.61860  -0.60145
 Alpha  occ. eigenvalues --   -0.59004  -0.58263  -0.57627  -0.56078  -0.55067
 Alpha  occ. eigenvalues --   -0.53240  -0.52841  -0.51812  -0.50745  -0.49977
 Alpha  occ. eigenvalues --   -0.48349  -0.48108  -0.46556  -0.45641  -0.43887
 Alpha  occ. eigenvalues --   -0.41416  -0.40966  -0.36941  -0.34567  -0.33921
 Alpha  occ. eigenvalues --   -0.31296  -0.29329  -0.28324
 Alpha virt. eigenvalues --    0.02354   0.03402   0.04060   0.04393   0.05184
 Alpha virt. eigenvalues --    0.05293   0.05996   0.06116   0.06373   0.06630
 Alpha virt. eigenvalues --    0.07051   0.07270   0.07958   0.08269   0.09011

 Mulliken charges:
               1
     1  C    0.712987
     2  C    1.511644
     3  C    6.904495
     4  C   -4.409788
     5  C   -4.845869
     6  C   -4.325806
     7  C   -4.967910
     8  C   -0.986180
     9  C    6.489141
    10  C   -3.770029
    11  H    2.609353
    12  H    1.348820
    13  H    1.265480
    14  H    1.126509
    15  H    1.299352
    16  H    0.835746
    17  H    1.726725
    18  H    3.429240
    19  H    0.740702
    20  H    1.109454
    21  H    1.787191
    22  H    1.456015
    23  H    1.418087
    24  H    1.059259
    25  H    1.215679
    26  H    1.901224
    27  H    2.132166
    28  H    0.558024
    29  H    0.631265
    30  H    1.087598
    31  N   -3.612954
    32  N   -3.026794
    33  O   -3.242900
    34  O   -3.921065
    35  O   -3.683146
    36  O   -3.563716
 Sum of Mulliken charges =   0.00000

 Dipole moment (field-independent basis, Debye):
    X=              2.8791    Y=              3.3847    Z=              1.1027  Tot=              4.5784

 Test job not archived.
 1\1\GINC-SE366\SP\RHF\Aug-CC-pVDZ\C10H20N2O4\OHZDE\08-Apr-2025\0\\#t h
 f aug-cc-pvdz iop(5/13=1,5/36=2,99/5=2) pseudo=read geom=check guess=(
 read,tcheck) scf=(maxcycle=1)\\title\\0,1\C,0,-1.7455,-0.501496,-0.626
 817\C,0,2.12487,0.921267,0.835144\C,0,2.08433,-1.03672,-0.817465\C,0,1
 .2647,-0.0437007,0.0114962\C,0,-1.20903,2.51146,-1.08871\C,0,3.11655,0
 .239328,1.70726\C,0,-3.70301,0.274167,0.758237\C,0,-2.73951,0.670189,-
 0.367961\C,0,-0.99912,-0.926535,0.679447\C,0,-2.05062,1.94397,0.021719
 9\H,0,-0.421056,1.83092,-1.34193\H,0,3.38727,0.318475,-0.897905\H,0,3.

 Normal termination of Gaussian 16 at Tue Apr  8 22:20:29 2025.
