 Gaussian 16, Revision C.01,

 ----------------------------------------------------------------------
 #t hf aug-cc-pvdz symm=none int=(grid=ultrafine) guess=(read,tcheck) s
 table=(opt,rrhf)
 ----------------------------------------------------------------------
 -----
 title
 -----
 Symbolic Z-matrix:
 Charge =  0 Multiplicity = 1

 SCF Done:  E(RHF) =  -617.813549374     A.U. after   14 cycles
 Normal termination of Gaussian 16 at Tue Apr  8 19:24:50 2025.
 Gaussian 16:  ES64L-G16RevC.01  3-Jul-2019

 ----------------------------------------------------------------------
 #t hf aug-cc-pvdz iop(5/13=1,5/36=2,99/5=2) pseudo=read geom=check gue
 ss=(read,tcheck) scf=(maxcycle=1)
 ----------------------------------------------------------------------
 -----
 title
 -----
 Structure from the checkpoint file:  "ANI1ccx_1023_conf3_mol1.chk"
 Charge =  0 Multiplicity = 1

                         Standard orientation:
 ---------------------------------------------------------------------
 Center     Atomic      Atomic             Coordinates (Angstroms)
 Number     Number       Type             X           Y           Z
 ---------------------------------------------------------------------
      1          6           0       -0.621960    1.469099    0.358363
      2          6           0       -2.050259   -0.395458   -0.063267
      3          6           0        0.142188   -1.508670    0.411287
      4          6           0        0.961909   -0.927551   -0.783401
      5          6           0        2.197941   -0.310754   -0.363627
      6          1           0        3.750781   -0.623611    0.621869
      7          1           0        0.303909   -0.216264   -1.278340
      8          1           0        1.110682   -1.702819   -1.544390
      9          1           0        0.428498   -2.542540    0.644910
     10          1           0       -1.831617   -2.240022    0.601963
     11          1           0        0.452391   -0.952713    1.313990
     12          1           0       -3.535178   -1.523284   -0.874146
     13          1           0        0.602414    1.894430    1.753520
     14          1           0       -0.617105    2.374339   -1.402800
     15          1           0        0.915399    2.410101   -0.558668
     16          1           0       -3.950900    0.081642   -0.433141
     17          7           0       -0.104459    2.416879   -0.502434
     18          7           0       -0.098561    1.206949    1.509540
     19          7           0       -1.757221    0.873779   -0.140952
     20          7           0       -3.364419   -0.734828   -0.259645
     21          7           0       -1.295048   -1.490922    0.137538
     22          8           0        3.020472   -1.183947    0.307882
     23          8           0        2.595749    0.831165   -0.484035
 ---------------------------------------------------------------------

 SCF Done:  E(RHF) =  -620.598448093     A.U. after    2 cycles

 The electronic state is 1-A.
 Alpha  occ. eigenvalues --  -21.11747 -21.05899 -15.77521 -15.77105 -15.73394
 Alpha  occ. eigenvalues --  -15.69776 -15.67581 -11.54574 -11.50928 -11.46831
 Alpha  occ. eigenvalues --  -11.45719 -11.40661  -1.83329  -1.64746  -1.53691
 Alpha  occ. eigenvalues --   -1.43284  -1.33657  -1.23591  -1.20305  -1.17259
 Alpha  occ. eigenvalues --   -0.97883  -0.88580  -0.81526  -0.75383  -0.72564
 Alpha  occ. eigenvalues --   -0.69086  -0.67521  -0.66684  -0.64719  -0.61802
 Alpha  occ. eigenvalues --   -0.59765  -0.58321  -0.56595  -0.55791  -0.54686
 Alpha  occ. eigenvalues --   -0.52391  -0.50031  -0.48305  -0.46063  -0.37997
 Alpha  occ. eigenvalues --   -0.37588  -0.35168  -0.34211  -0.32856  -0.30256
 Alpha  occ. eigenvalues --   -0.29679
 Alpha virt. eigenvalues --    0.03299   0.04258   0.04493   0.05168   0.05949
 Alpha virt. eigenvalues --    0.06398   0.06824   0.07458   0.07712   0.08422
 Alpha virt. eigenvalues --    0.09344   0.10795   0.11492   0.12078   0.12646

 Mulliken charges:
               1
     1  C    6.788158
     2  C    4.175170
     3  C   -2.321236
     4  C   -4.678341
     5  C    6.717670
     6  H    0.890974
     7  H    2.109069
     8  H    1.216433
     9  H    1.423674
    10  H    0.583800
    11  H    1.988785
    12  H    0.612748
    13  H    0.751243
    14  H    0.637610
    15  H    0.704201
    16  H    0.598676
    17  N   -3.424501
    18  N   -3.503411
    19  N   -3.171583
    20  N   -3.177595
    21  N   -2.424410
    22  O   -3.117482
    23  O   -3.379652
 Sum of Mulliken charges =   0.00000

 Dipole moment (field-independent basis, Debye):
    X=             -0.5802    Y=             -3.7494    Z=             -2.1009  Tot=              4.3369

 Test job not archived.
 1\1\GINC-SE184\SP\RHF\Aug-CC-pVDZ\C5H11N5O2\OHZDE\08-Apr-2025\0\\#t hf
  aug-cc-pvdz iop(5/13=1,5/36=2,99/5=2) pseudo=read geom=check guess=(r
 ead,tcheck) scf=(maxcycle=1)\\title\\0,1\C,0,-0.621959,1.4691,0.358363
 \C,0,-2.05026,-0.395455,-0.0632667\C,0,0.142186,-1.50867,0.411287\C,0,
 0.961908,-0.927552,-0.783401\C,0,2.19794,-0.310756,-0.363627\H,0,3.750
 78,-0.623615,0.621869\H,0,0.303908,-0.216264,-1.27834\H,0,1.11068,-1.7
 0282,-1.54439\H,0,0.428495,-2.54254,0.64491\H,0,-1.83162,-2.24002,0.60
 1963\H,0,0.45239,-0.952713,1.31399\H,0,-3.53518,-1.52328,-0.874146\H,0

 Normal termination of Gaussian 16 at Tue Apr  8 19:25:07 2025.
