 Gaussian 16, Revision C.01,

 ----------------------------------------------------------------------
 #t hf aug-cc-pvdz symm=none int=(grid=ultrafine) guess=(read,tcheck) s
 table=(opt,rrhf)
 ----------------------------------------------------------------------
 -----
 title
 -----
 Symbolic Z-matrix:
 Charge =  0 Multiplicity = 1

 SCF Done:  E(RHF) =  -872.535424575     A.U. after   14 cycles
 Normal termination of Gaussian 16 at Tue Apr  8 22:13:33 2025.
 Gaussian 16:  ES64L-G16RevC.01  3-Jul-2019

 ----------------------------------------------------------------------
 #t hf aug-cc-pvdz iop(5/13=1,5/36=2,99/5=2) pseudo=read geom=check gue
 ss=(read,tcheck) scf=(maxcycle=1)
 ----------------------------------------------------------------------
 -----
 title
 -----
 Structure from the checkpoint file:  "ANI1ccx_68_conf2_mol1.chk"
 Charge =  0 Multiplicity = 1

                         Standard orientation:
 ---------------------------------------------------------------------
 Center     Atomic      Atomic             Coordinates (Angstroms)
 Number     Number       Type             X           Y           Z
 ---------------------------------------------------------------------
      1          6           0       -0.979386    2.062639    0.514192
      2          6           0        4.199489    0.829635    0.170013
      3          6           0        3.283110   -0.404413    0.180441
      4          6           0        1.196010   -1.468210   -0.645671
      5          6           0        1.913819   -0.103296   -0.460011
      6          6           0        3.030450   -0.892327    1.637360
      7          6           0       -2.601051    0.195314   -0.337879
      8          6           0       -2.010651    0.894900    0.876829
      9          6           0        0.147181    1.608000   -0.364819
     10          6           0       -3.026820   -1.227841    0.013102
     11          1           0        3.722580   -1.232119   -0.396824
     12          1           0       -0.463365   -2.250640   -0.320511
     13          1           0        3.989350   -1.097369    2.150040
     14          1           0        2.528529   -0.077350    2.163640
     15          1           0        2.426490   -1.773839    1.646960
     16          1           0        3.835279    1.659641    0.786486
     17          1           0        4.261699    1.206491   -0.849982
     18          1           0        5.202959    0.628816    0.513700
     19          1           0        1.960269    0.257268   -1.503140
     20          1           0       -4.535450   -2.174532    0.685403
     21          1           0       -3.496981    0.704858   -0.619208
     22          1           0       -1.881601    0.289341   -1.167660
     23          1           0       -2.737001    1.312779    1.520570
     24          1           0       -1.528991    0.212324    1.593580
     25          1           0       -0.499132    2.341600    1.483910
     26          1           0       -2.468742    3.407219    0.355451
     27          1           0       -1.594132    3.015939   -1.037810
     28          1           0        0.821933    0.448769    1.139240
     29          7           0       -1.555282    3.231959   -0.069527
     30          7           0        1.115819    0.846260    0.264797
     31          8           0        1.636830   -2.393770   -1.257780
     32          8           0        0.181800    1.801410   -1.555920
     33          8           0       -2.299070   -2.200021   -0.001374
     34          8           0       -4.272590   -1.266072    0.421294
     35          8           0        0.080484   -1.490690    0.017274
 ---------------------------------------------------------------------

 SCF Done:  E(RHF) =  -876.463314886     A.U. after    2 cycles

 The electronic state is 1-A.
 Alpha  occ. eigenvalues --  -21.15214 -21.10432 -21.06598 -21.04189 -21.03831
 Alpha  occ. eigenvalues --  -15.75850 -15.74122 -11.55870 -11.54247 -11.52347
 Alpha  occ. eigenvalues --  -11.47878 -11.46631 -11.45170 -11.41780 -11.40632
 Alpha  occ. eigenvalues --  -11.38850 -11.36287  -1.86646  -1.84163  -1.73455
 Alpha  occ. eigenvalues --   -1.67971  -1.64978  -1.42482  -1.37271  -1.22720
 Alpha  occ. eigenvalues --   -1.20733  -1.06943  -1.01730  -1.00787  -0.93586
 Alpha  occ. eigenvalues --   -0.85165  -0.83127  -0.79674  -0.79070  -0.73148
 Alpha  occ. eigenvalues --   -0.68545  -0.68054  -0.67126  -0.63799  -0.62484
 Alpha  occ. eigenvalues --   -0.62322  -0.60921  -0.60563  -0.59079  -0.58346
 Alpha  occ. eigenvalues --   -0.56329  -0.54940  -0.54478  -0.53414  -0.52574
 Alpha  occ. eigenvalues --   -0.51945  -0.50712  -0.48927  -0.47566  -0.47011
 Alpha  occ. eigenvalues --   -0.46547  -0.45021  -0.42835  -0.41762  -0.36519
 Alpha  occ. eigenvalues --   -0.35822  -0.35008  -0.33808  -0.31220  -0.30208
 Alpha  occ. eigenvalues --   -0.26389
 Alpha virt. eigenvalues --    0.03370   0.03836   0.04209   0.04322   0.05025
 Alpha virt. eigenvalues --    0.05607   0.06014   0.06265   0.06708   0.07193
 Alpha virt. eigenvalues --    0.07252   0.07747   0.07921   0.08471   0.08978

 Mulliken charges:
               1
     1  C    0.033362
     2  C   -4.532124
     3  C   -0.925241
     4  C    8.260053
     5  C   -4.022259
     6  C   -4.856692
     7  C   -4.992972
     8  C   -2.958760
     9  C    7.545297
    10  C    7.111052
    11  H    1.873574
    12  H    1.127741
    13  H    1.227388
    14  H    1.513542
    15  H    1.387182
    16  H    1.565275
    17  H    1.282131
    18  H    1.189288
    19  H    1.873119
    20  H    0.908570
    21  H    1.254463
    22  H    1.875396
    23  H    1.282634
    24  H    1.785637
    25  H    1.731102
    26  H    0.579171
    27  H    0.498282
    28  H    0.710084
    29  N   -3.577168
    30  N   -2.428959
    31  O   -3.843889
    32  O   -4.036371
    33  O   -3.458055
    34  O   -3.455823
    35  O   -3.526031
 Sum of Mulliken charges =  -0.00000

 Dipole moment (field-independent basis, Debye):
    X=             -3.1279    Y=             -0.0733    Z=              2.3699  Tot=              3.9250

 Test job not archived.
 1\1\GINC-SE221\SP\RHF\Aug-CC-pVDZ\C10H18N2O5\OHZDE\08-Apr-2025\0\\#t h
 f aug-cc-pvdz iop(5/13=1,5/36=2,99/5=2) pseudo=read geom=check guess=(
 read,tcheck) scf=(maxcycle=1)\\title\\0,1\C,0,-0.979385,2.06264,0.5141
 92\C,0,4.19949,0.829634,0.170013\C,0,3.28311,-0.404414,0.180441\C,0,1.
 19601,-1.46821,-0.645671\C,0,1.91382,-0.103296,-0.460011\C,0,3.03045,-
 0.892328,1.63736\C,0,-2.60105,0.195315,-0.337879\C,0,-2.01065,0.894901
 ,0.876829\C,0,0.147182,1.608,-0.364819\C,0,-3.02682,-1.22784,0.0131018
 \H,0,3.72258,-1.23212,-0.396824\H,0,-0.463365,-2.25064,-0.320511\H,0,3

 Normal termination of Gaussian 16 at Tue Apr  8 22:14:28 2025.
