 Gaussian 16, Revision C.01,

 ----------------------------------------------------------------------
 #t hf aug-cc-pvdz symm=none int=(grid=ultrafine) guess=(read,tcheck) s
 table=(opt,rrhf)
 ----------------------------------------------------------------------
 -----
 title
 -----
 Symbolic Z-matrix:
 Charge =  0 Multiplicity = 1

 SCF Done:  E(RHF) =  -445.280902921     A.U. after   15 cycles
 Normal termination of Gaussian 16 at Tue Apr  8 22:02:14 2025.
 Gaussian 16:  ES64L-G16RevC.01  3-Jul-2019

 ----------------------------------------------------------------------
 #t hf aug-cc-pvdz iop(5/13=1,5/36=2,99/5=2) pseudo=read geom=check gue
 ss=(read,tcheck) scf=(maxcycle=1)
 ----------------------------------------------------------------------
 -----
 title
 -----
 Structure from the checkpoint file:  "ANI1ccx_856_conf2_mol1.chk"
 Charge =  0 Multiplicity = 1

                         Standard orientation:
 ---------------------------------------------------------------------
 Center     Atomic      Atomic             Coordinates (Angstroms)
 Number     Number       Type             X           Y           Z
 ---------------------------------------------------------------------
      1          6           0        1.381240   -0.449176    0.003045
      2          6           0        1.491049    1.071741    0.018809
      3          6           0       -0.565583    0.783711   -0.018308
      4          6           0       -1.142520   -1.281070    0.001072
      5          1           0        2.475619    1.509541    0.034431
      6          1           0       -1.144190   -2.358680    0.185726
      7          7           0        0.438035    1.766611   -0.001543
      8          7           0       -1.860080    0.771771    0.023928
      9          7           0       -2.242460   -0.559723   -0.020258
     10          7           0       -0.055743   -0.496445   -0.028897
     11          8           0        2.215650   -1.284699   -0.007560
 ---------------------------------------------------------------------

 SCF Done:  E(RHF) =  -447.204208000     A.U. after    2 cycles

 The electronic state is 1-A.
 Alpha  occ. eigenvalues --  -21.13908 -15.82896 -15.82210 -15.77855 -15.77093
 Alpha  occ. eigenvalues --  -11.59788 -11.50245 -11.49013 -11.47026  -1.80560
 Alpha  occ. eigenvalues --   -1.70045  -1.50174  -1.36817  -1.18997  -1.06906
 Alpha  occ. eigenvalues --   -0.92384  -0.86231  -0.82907  -0.71755  -0.67575
 Alpha  occ. eigenvalues --   -0.66192  -0.63607  -0.58041  -0.56340  -0.51652
 Alpha  occ. eigenvalues --   -0.49791  -0.46571  -0.41117  -0.40185  -0.35359
 Alpha  occ. eigenvalues --   -0.34877
 Alpha virt. eigenvalues --    0.02681   0.02887   0.05140   0.07671   0.08878
 Alpha virt. eigenvalues --    0.09289   0.09543   0.10395   0.11035   0.12180
 Alpha virt. eigenvalues --    0.12493   0.12652   0.13520   0.13893   0.14649

 Mulliken charges:
               1
     1  C    4.964580
     2  C   -0.518674
     3  C    3.767550
     4  C    1.372086
     5  H    1.506625
     6  H    1.571725
     7  N   -3.005866
     8  N   -1.791909
     9  N   -1.976089
    10  N   -2.552526
    11  O   -3.337502
 Sum of Mulliken charges =  -0.00000

 Dipole moment (field-independent basis, Debye):
    X=              4.0717    Y=             -1.8169    Z=              0.1654  Tot=              4.4617

 Test job not archived.
 1\1\GINC-SE252\SP\RHF\Aug-CC-pVDZ\C4H2N4O1\OHZDE\08-Apr-2025\0\\#t hf
 aug-cc-pvdz iop(5/13=1,5/36=2,99/5=2) pseudo=read geom=check guess=(re
 ad,tcheck) scf=(maxcycle=1)\\title\\0,1\C,0,1.38124,-0.449177,0.003045
 34\C,0,1.49105,1.07174,0.0188086\C,0,-0.565583,0.783711,-0.0183076\C,0
 ,-1.14252,-1.28107,0.00107202\H,0,2.47562,1.50954,0.0344314\H,0,-1.144
 19,-2.35868,0.185726\N,0,0.438036,1.76661,-0.0015426\N,0,-1.86008,0.77
 1771,0.0239278\N,0,-2.24246,-0.559723,-0.0202578\N,0,-0.0557424,-0.496
 446,-0.0288972\O,0,2.21565,-1.2847,-0.00755985\\Version=ES64L-G16RevC.

 Normal termination of Gaussian 16 at Tue Apr  8 22:02:20 2025.
