 Gaussian 16, Revision C.01,

 ----------------------------------------------------------------------
 #t hf aug-cc-pvdz symm=none int=(grid=ultrafine) guess=(read,tcheck) s
 table=(opt,rrhf)
 ----------------------------------------------------------------------
 -----
 title
 -----
 Symbolic Z-matrix:
 Charge =  0 Multiplicity = 1

 SCF Done:  E(RHF) =  -814.787128074     A.U. after   15 cycles
 Normal termination of Gaussian 16 at Tue Apr  8 21:18:37 2025.
 Gaussian 16:  ES64L-G16RevC.01  3-Jul-2019

 ----------------------------------------------------------------------
 #t hf aug-cc-pvdz iop(5/13=1,5/36=2,99/5=2) pseudo=read geom=check gue
 ss=(read,tcheck) scf=(maxcycle=1)
 ----------------------------------------------------------------------
 -----
 title
 -----
 Structure from the checkpoint file:  "ANI1ccx_1785_conf8_mol2.chk"
 Charge =  0 Multiplicity = 1

                         Standard orientation:
 ---------------------------------------------------------------------
 Center     Atomic      Atomic             Coordinates (Angstroms)
 Number     Number       Type             X           Y           Z
 ---------------------------------------------------------------------
      1          6           0        0.714907   -2.407992   -0.365903
      2          6           0        1.595226    1.837369    0.837727
      3          6           0        0.201301    2.466822    0.857663
      4          6           0       -0.924172    1.843348    0.049722
      5          6           0        2.321807    1.762528   -0.499046
      6          6           0       -1.455178    0.576010    0.659267
      7          6           0        1.834038   -2.271388    0.669957
      8          6           0       -0.108288   -1.160002   -0.505920
      9          6           0       -2.774982    0.125457    0.047906
     10          1           0        0.387977    3.525884    0.562481
     11          1           0       -4.478029    0.672348   -0.404385
     12          1           0        3.226304    3.604159   -0.441885
     13          1           0        2.722329    3.255293   -1.928130
     14          1           0        1.716095    1.167241   -1.233090
     15          1           0        3.228725    1.124299   -0.382197
     16          1           0        1.538529    0.844787    1.358460
     17          1           0        2.172887    2.548406    1.447460
     18          1           0       -0.129093    2.549298    1.939430
     19          1           0       -0.643302    1.702671   -1.000370
     20          1           0       -1.750291    0.813504    1.694500
     21          1           0       -0.062647   -0.900090    1.471690
     22          1           0        2.051311   -2.541425    2.596520
     23          1           0        2.513928   -3.139989    0.455383
     24          1           0        2.359096   -1.306571    0.361920
     25          1           0        0.008396   -3.168491   -0.000167
     26          1           0        1.720245   -2.069329   -2.107290
     27          1           0        0.470408   -2.991475   -2.211240
     28          1           0       -1.770583    2.569047   -0.006145
     29          7           0        1.257975   -2.846565   -1.618610
     30          7           0       -0.532338   -0.541513    0.626196
     31          7           0        2.513530    3.145981   -0.959391
     32          8           0       -3.173898   -1.027850    0.080994
     33          8           0       -0.379016   -0.738595   -1.600380
     34          8           0        1.353687   -2.253234    2.001450
     35          8           0       -3.598825    1.119954   -0.359385
 ---------------------------------------------------------------------

 SCF Done:  E(RHF) =  -818.498319006     A.U. after    2 cycles

 The electronic state is 1-A.
 Alpha  occ. eigenvalues --  -21.11817 -21.09944 -21.04235 -21.01814 -15.74837
 Alpha  occ. eigenvalues --  -15.73196 -15.73051 -11.53999 -11.53240 -11.48708
 Alpha  occ. eigenvalues --  -11.47804 -11.44728 -11.43234 -11.41220 -11.39855
 Alpha  occ. eigenvalues --  -11.35476  -1.82336  -1.74839  -1.71497  -1.63814
 Alpha  occ. eigenvalues --   -1.40979  -1.35641  -1.34097  -1.21122  -1.11843
 Alpha  occ. eigenvalues --   -1.06572  -0.99965  -0.92119  -0.90181  -0.81652
 Alpha  occ. eigenvalues --   -0.80071  -0.74736  -0.74295  -0.68396  -0.67592
 Alpha  occ. eigenvalues --   -0.66655  -0.64915  -0.63831  -0.63136  -0.61141
 Alpha  occ. eigenvalues --   -0.59158  -0.58668  -0.56212  -0.55079  -0.54499
 Alpha  occ. eigenvalues --   -0.52605  -0.51464  -0.50747  -0.49050  -0.47995
 Alpha  occ. eigenvalues --   -0.47538  -0.46859  -0.44148  -0.43155  -0.41901
 Alpha  occ. eigenvalues --   -0.40986  -0.37037  -0.34856  -0.34377  -0.33149
 Alpha  occ. eigenvalues --   -0.30699  -0.28846  -0.28215
 Alpha virt. eigenvalues --    0.03805   0.04217   0.04483   0.04698   0.04761
 Alpha virt. eigenvalues --    0.05393   0.05767   0.06392   0.06688   0.06819
 Alpha virt. eigenvalues --    0.07150   0.07762   0.07960   0.08520   0.08880

 Mulliken charges:
               1
     1  C   -2.220645
     2  C   -3.450915
     3  C   -2.551261
     4  C   -2.552747
     5  C   -2.696391
     6  C   -3.581957
     7  C   -0.328140
     8  C    8.108155
     9  C    7.266167
    10  H    1.376912
    11  H    0.845126
    12  H    0.611692
    13  H    0.719052
    14  H    1.858418
    15  H    1.440324
    16  H    2.032739
    17  H    1.324293
    18  H    1.147530
    19  H    1.858324
    20  H    2.100355
    21  H    0.933885
    22  H    0.970587
    23  H    1.210753
    24  H    1.770035
    25  H    1.749961
    26  H    0.654626
    27  H    0.539103
    28  H    1.452398
    29  N   -3.114536
    30  N   -2.539087
    31  N   -2.857794
    32  O   -3.375253
    33  O   -4.124173
    34  O   -3.241045
    35  O   -3.336493
 Sum of Mulliken charges =   0.00000

 Dipole moment (field-independent basis, Debye):
    X=              1.7211    Y=              0.9937    Z=              1.5072  Tot=              2.4943

 Test job not archived.
 1\1\GINC-SE343\SP\RHF\Aug-CC-pVDZ\C9H19N3O4\OHZDE\08-Apr-2025\0\\#t hf
  aug-cc-pvdz iop(5/13=1,5/36=2,99/5=2) pseudo=read geom=check guess=(r
 ead,tcheck) scf=(maxcycle=1)\\title\\0,1\C,0,0.714878,-2.408,-0.365903
 \C,0,1.59525,1.83735,0.837727\C,0,0.201333,2.46682,0.857663\C,0,-0.924
 148,1.84336,0.0497213\C,0,2.32183,1.7625,-0.499046\C,0,-1.45517,0.5760
 29,0.659267\C,0,1.83401,-2.27141,0.669957\C,0,-0.108302,-1.16,-0.50592
 \C,0,-2.77498,0.125493,0.0479055\H,0,0.388022,3.52588,0.562481\H,0,-4.
 47802,0.672405,-0.404385\H,0,3.22635,3.60412,-0.441885\H,0,2.72237,3.2

 Normal termination of Gaussian 16 at Tue Apr  8 21:19:27 2025.
