 Gaussian 16, Revision C.01,

 ----------------------------------------------------------------------
 #t hf aug-cc-pvdz symm=none int=(grid=ultrafine) guess=(read,tcheck) s
 table=(opt,rrhf)
 ----------------------------------------------------------------------
 -----
 title
 -----
 Symbolic Z-matrix:
 Charge =  0 Multiplicity = 1

 SCF Done:  E(RHF) =  -259.750465777     A.U. after   14 cycles
 Normal termination of Gaussian 16 at Tue Apr  8 21:11:17 2025.
 Gaussian 16:  ES64L-G16RevC.01  3-Jul-2019

 ----------------------------------------------------------------------
 #t hf aug-cc-pvdz iop(5/13=1,5/36=2,99/5=2) pseudo=read geom=check gue
 ss=(read,tcheck) scf=(maxcycle=1)
 ----------------------------------------------------------------------
 -----
 title
 -----
 Structure from the checkpoint file:  "ANI1ccx_1858_conf9_mol1.chk"
 Charge =  0 Multiplicity = 1

                         Standard orientation:
 ---------------------------------------------------------------------
 Center     Atomic      Atomic             Coordinates (Angstroms)
 Number     Number       Type             X           Y           Z
 ---------------------------------------------------------------------
      1          1           0        0.666422    0.684111   -0.544857
      2          1           0        2.452760    0.006990    0.923065
      3          7           0       -1.624540    0.451685    0.077487
      4          7           0       -2.399250   -0.352341   -0.003475
      5          8           0        0.836737   -0.165259   -0.083890
      6          8           0        2.294180   -0.008055   -0.028147
 ---------------------------------------------------------------------

 SCF Done:  E(RHF) =  -260.805235927     A.U. after    2 cycles

 The electronic state is 1-A.
 Alpha  occ. eigenvalues --  -21.12565 -21.12213 -15.87741 -15.87422  -1.90766
 Alpha  occ. eigenvalues --   -1.55588  -1.41260  -0.79982  -0.61983  -0.61101
 Alpha  occ. eigenvalues --   -0.57622  -0.57116  -0.56993  -0.46503  -0.36709
 Alpha  occ. eigenvalues --   -0.31152
 Alpha virt. eigenvalues --    0.04925   0.06671   0.11092   0.13066   0.13631
 Alpha virt. eigenvalues --    0.14294   0.15498   0.16778   0.18086   0.21106
 Alpha virt. eigenvalues --    0.22683   0.24159   0.24332   0.24604   0.26528

 Mulliken charges:
               1
     1  H    0.993371
     2  H    0.997978
     3  N   -0.005612
     4  N    0.043250
     5  O   -1.094128
     6  O   -0.934859
 Sum of Mulliken charges =   0.00000

 Dipole moment (field-independent basis, Debye):
    X=             -0.1533    Y=              0.6382    Z=              0.5422  Tot=              0.8514

 Test job not archived.
 1\1\GINC-SE398\SP\RHF\Aug-CC-pVDZ\H2N2O2\OHZDE\08-Apr-2025\0\\#t hf au
 g-cc-pvdz iop(5/13=1,5/36=2,99/5=2) pseudo=read geom=check guess=(read
 ,tcheck) scf=(maxcycle=1)\\title\\0,1\H,0,0.666422,0.684111,-0.544857\
 H,0,2.45276,0.00698973,0.923065\N,0,-1.62454,0.451685,0.0774871\N,0,-2
 .39925,-0.352341,-0.00347463\O,0,0.836737,-0.165259,-0.0838901\O,0,2.2
 9418,-0.00805484,-0.0281468\\Version=ES64L-G16RevC.01\State=1-A\HF=-26
 0.8052359\RMSD=9.586e-02\Dipole=-0.0603317,0.2510978,0.2133349\Quadrup
 ole=-0.3834426,-0.5041967,0.8876393,0.0403131,1.8933564,-0.7498552\PG=

 Normal termination of Gaussian 16 at Tue Apr  8 21:11:19 2025.
