 Gaussian 16, Revision C.01,

 ----------------------------------------------------------------------
 #t hf aug-cc-pvdz symm=none int=(grid=ultrafine) guess=(read,tcheck) s
 table=(opt,rrhf)
 ----------------------------------------------------------------------
 -----
 title
 -----
 Symbolic Z-matrix:
 Charge =  0 Multiplicity = 1

 SCF Done:  E(RHF) =  -535.520549933     A.U. after   16 cycles
 Normal termination of Gaussian 16 at Tue Apr  8 22:11:31 2025.
 Gaussian 16:  ES64L-G16RevC.01  3-Jul-2019

 ----------------------------------------------------------------------
 #t hf aug-cc-pvdz iop(5/13=1,5/36=2,99/5=2) pseudo=read geom=check gue
 ss=(read,tcheck) scf=(maxcycle=1)
 ----------------------------------------------------------------------
 -----
 title
 -----
 Structure from the checkpoint file:  "ANI1ccx_911_conf5_mol1.chk"
 Charge =  0 Multiplicity = 1

                         Standard orientation:
 ---------------------------------------------------------------------
 Center     Atomic      Atomic             Coordinates (Angstroms)
 Number     Number       Type             X           Y           Z
 ---------------------------------------------------------------------
      1          6           0       -1.605280   -0.563399   -0.006790
      2          6           0       -0.370172    1.272380   -0.054270
      3          6           0        0.815618    0.455925   -0.051326
      4          6           0        2.146669    0.615935   -0.045222
      5          1           0       -2.944210   -2.080981    0.223015
      6          1           0       -3.621620   -0.410073   -0.042675
      7          1           0       -1.118912    3.134350    0.274416
      8          1           0        0.559001    3.038071   -0.085151
      9          1           0        2.772969    1.469492   -0.118858
     10          7           0       -2.846590   -1.113881   -0.088022
     11          7           0       -1.587631    0.786141    0.070555
     12          7           0       -0.327253    2.608560    0.026373
     13          7           0        2.689400   -0.656591    0.027273
     14          7           0        1.799270   -1.562429    0.045815
     15          7           0        0.653194   -0.899611   -0.010542
     16          7           0       -0.604424   -1.424460    0.027820
 ---------------------------------------------------------------------

 SCF Done:  E(RHF) =  -537.947676692     A.U. after    2 cycles

 The electronic state is 1-A.
 Alpha  occ. eigenvalues --  -15.84589 -15.81722 -15.80194 -15.76812 -15.75700
 Alpha  occ. eigenvalues --  -15.74515 -15.73796 -11.56191 -11.49510 -11.47797
 Alpha  occ. eigenvalues --  -11.43612  -1.74953  -1.55831  -1.46101  -1.38124
 Alpha  occ. eigenvalues --   -1.28386  -1.21836  -1.16548  -0.97258  -0.91239
 Alpha  occ. eigenvalues --   -0.86706  -0.79691  -0.73295  -0.70631  -0.70139
 Alpha  occ. eigenvalues --   -0.67446  -0.62844  -0.60896  -0.60400  -0.57957
 Alpha  occ. eigenvalues --   -0.53642  -0.48177  -0.47037  -0.43329  -0.38255
 Alpha  occ. eigenvalues --   -0.38095  -0.37779  -0.35523  -0.27411
 Alpha virt. eigenvalues --    0.02667   0.04419   0.04598   0.05901   0.06908
 Alpha virt. eigenvalues --    0.08609   0.09069   0.10801   0.11175   0.11965
 Alpha virt. eigenvalues --    0.12126   0.12457   0.13467   0.13806   0.14223

 Mulliken charges:
               1
     1  C    4.282934
     2  C    3.450603
     3  C    5.013984
     4  C   -1.682354
     5  H    0.692642
     6  H    0.560502
     7  H    0.782561
     8  H    0.593212
     9  H    1.169654
    10  N   -2.998140
    11  N   -3.248141
    12  N   -3.380095
    13  N   -1.745179
    14  N   -0.762582
    15  N    0.019805
    16  N   -2.749408
 Sum of Mulliken charges =  -0.00000

 Dipole moment (field-independent basis, Debye):
    X=             -3.5061    Y=              4.8404    Z=              0.3615  Tot=              5.9877

 Test job not archived.
 1\1\GINC-SE252\SP\RHF\Aug-CC-pVDZ\C4H5N7\OHZDE\08-Apr-2025\0\\#t hf au
 g-cc-pvdz iop(5/13=1,5/36=2,99/5=2) pseudo=read geom=check guess=(read
 ,tcheck) scf=(maxcycle=1)\\title\\0,1\C,0,-1.60528,-0.563399,-0.006789
 7\C,0,-0.370171,1.27238,-0.0542702\C,0,0.815619,0.455924,-0.0513258\C,
 0,2.14667,0.615934,-0.0452217\H,0,-2.94421,-2.08098,0.223015\H,0,-3.62
 162,-0.410072,-0.0426754\H,0,-1.11891,3.13435,0.274416\H,0,0.559003,3.
 03807,-0.0851508\H,0,2.77297,1.46949,-0.118858\N,0,-2.84659,-1.11388,-
 0.0880223\N,0,-1.58763,0.786141,0.0705545\N,0,-0.327251,2.60856,0.0263

 Normal termination of Gaussian 16 at Tue Apr  8 22:11:39 2025.
