 Gaussian 16, Revision C.01,

 ----------------------------------------------------------------------
 #t hf aug-cc-pvdz symm=none int=(grid=ultrafine) guess=(read,tcheck) s
 table=(opt,rrhf)
 ----------------------------------------------------------------------
 -----
 title
 -----
 Symbolic Z-matrix:
 Charge =  0 Multiplicity = 1

 SCF Done:  E(RHF) =  -446.816115279     A.U. after   14 cycles
 Normal termination of Gaussian 16 at Tue Apr  8 21:48:24 2025.
 Gaussian 16:  ES64L-G16RevC.01  3-Jul-2019

 ----------------------------------------------------------------------
 #t hf aug-cc-pvdz iop(5/13=1,5/36=2,99/5=2) pseudo=read geom=check gue
 ss=(read,tcheck) scf=(maxcycle=1)
 ----------------------------------------------------------------------
 -----
 title
 -----
 Structure from the checkpoint file:  "ANI1ccx_555_conf6_mol1.chk"
 Charge =  0 Multiplicity = 1

                         Standard orientation:
 ---------------------------------------------------------------------
 Center     Atomic      Atomic             Coordinates (Angstroms)
 Number     Number       Type             X           Y           Z
 ---------------------------------------------------------------------
      1          6           0       -1.546470   -0.146694    0.188514
      2          6           0        1.629730    0.010524   -0.029474
      3          1           0       -3.494660    0.597012    0.039633
      4          1           0       -2.324990    1.082640   -1.161240
      5          1           0       -0.713994   -0.298611   -1.699990
      6          1           0        1.009700   -1.756120   -0.681112
      7          1           0        0.358355    1.603150   -0.215257
      8          1           0        2.079120    1.918960    0.433780
      9          7           0       -2.668910    0.342049   -0.490034
     10          7           0       -0.514341   -0.337798   -0.747130
     11          7           0        0.637642   -0.891952   -0.239245
     12          7           0        1.295320    1.346060    0.154187
     13          8           0       -1.389770   -0.376252    1.387090
     14          8           0        2.807140   -0.316062    0.061096
 ---------------------------------------------------------------------

 SCF Done:  E(RHF) =  -448.769129058     A.U. after    2 cycles

 The electronic state is 1-A.
 Alpha  occ. eigenvalues --  -21.04383 -21.00805 -15.80807 -15.79747 -15.79607
 Alpha  occ. eigenvalues --  -15.76649 -11.52411 -11.49437  -1.73211  -1.70741
 Alpha  occ. eigenvalues --   -1.54329  -1.37576  -1.31740  -1.19150  -0.87294
 Alpha  occ. eigenvalues --   -0.83282  -0.78284  -0.73169  -0.71681  -0.65447
 Alpha  occ. eigenvalues --   -0.62679  -0.58915  -0.56298  -0.51146  -0.48317
 Alpha  occ. eigenvalues --   -0.41675  -0.39149  -0.35483  -0.31269  -0.30227
 Alpha  occ. eigenvalues --   -0.28559
 Alpha virt. eigenvalues --    0.02327   0.04155   0.04865   0.04967   0.06728
 Alpha virt. eigenvalues --    0.07517   0.10310   0.11988   0.12266   0.12462
 Alpha virt. eigenvalues --    0.13669   0.14188   0.15085   0.15914   0.15961

 Mulliken charges:
               1
     1  C    5.422737
     2  C    5.466654
     3  H    0.659061
     4  H    0.611754
     5  H    0.854620
     6  H    0.578810
     7  H    0.726677
     8  H    0.649022
     9  N   -2.779060
    10  N   -1.920800
    11  N   -1.795018
    12  N   -2.654885
    13  O   -2.827409
    14  O   -2.992162
 Sum of Mulliken charges =  -0.00000

 Dipole moment (field-independent basis, Debye):
    X=             -2.9465    Y=              1.8779    Z=             -2.8851  Tot=              4.5313

 Test job not archived.
 1\1\GINC-SE402\SP\RHF\Aug-CC-pVDZ\C2H6N4O2\OHZDE\08-Apr-2025\0\\#t hf
 aug-cc-pvdz iop(5/13=1,5/36=2,99/5=2) pseudo=read geom=check guess=(re
 ad,tcheck) scf=(maxcycle=1)\\title\\0,1\C,0,-1.54647,-0.146694,0.18851
 4\C,0,1.62973,0.0105237,-0.0294737\H,0,-3.49466,0.597012,0.039633\H,0,
 -2.32499,1.08264,-1.16124\H,0,-0.713994,-0.298611,-1.69999\H,0,1.0097,
 -1.75612,-0.681112\H,0,0.358355,1.60315,-0.215257\H,0,2.07912,1.91896,
 0.43378\N,0,-2.66891,0.342049,-0.490034\N,0,-0.514341,-0.337798,-0.747
 13\N,0,0.637642,-0.891952,-0.239245\N,0,1.29532,1.34606,0.154187\O,0,-

 Normal termination of Gaussian 16 at Tue Apr  8 21:48:29 2025.
