 Gaussian 16, Revision C.01,

 ----------------------------------------------------------------------
 #t hf aug-cc-pvdz symm=none int=(grid=ultrafine) guess=(read,tcheck) s
 table=(opt,rrhf)
 ----------------------------------------------------------------------
 -----
 title
 -----
 Symbolic Z-matrix:
 Charge =  0 Multiplicity = 1

 SCF Done:  E(RHF) =  -239.964487391     A.U. after   14 cycles
 Normal termination of Gaussian 16 at Tue Apr  8 21:13:21 2025.
 Gaussian 16:  ES64L-G16RevC.01  3-Jul-2019

 ----------------------------------------------------------------------
 #t hf aug-cc-pvdz iop(5/13=1,5/36=2,99/5=2) pseudo=read geom=check gue
 ss=(read,tcheck) scf=(maxcycle=1)
 ----------------------------------------------------------------------
 -----
 title
 -----
 Structure from the checkpoint file:  "ANI1ccx_1874_conf7_mol1.chk"
 Charge =  0 Multiplicity = 1

                         Standard orientation:
 ---------------------------------------------------------------------
 Center     Atomic      Atomic             Coordinates (Angstroms)
 Number     Number       Type             X           Y           Z
 ---------------------------------------------------------------------
      1          1           0       -2.932701   -0.024398   -0.142388
      2          1           0       -1.311491    1.315680   -0.482581
      3          1           0       -1.187591    0.776194    1.071950
      4          7           0        1.959939   -0.611112    0.125186
      5          7           0        2.305089    0.397816   -0.160784
      6          7           0       -1.103331    0.485082    0.099648
      7          8           0       -2.087511   -0.496247   -0.111916
 ---------------------------------------------------------------------

 SCF Done:  E(RHF) =  -240.980969445     A.U. after    2 cycles

 The electronic state is 1-A.
 Alpha  occ. eigenvalues --  -21.09252 -15.85696 -15.85450 -15.77705  -1.76757
 Alpha  occ. eigenvalues --   -1.54494  -1.15394  -0.77369  -0.67855  -0.64836
 Alpha  occ. eigenvalues --   -0.56422  -0.55903  -0.55815  -0.47642  -0.38587
 Alpha  occ. eigenvalues --   -0.32847
 Alpha virt. eigenvalues --    0.03767   0.05817   0.06000   0.11839   0.14038
 Alpha virt. eigenvalues --    0.14343   0.15136   0.16664   0.17128   0.18245
 Alpha virt. eigenvalues --    0.18789   0.21385   0.21820   0.22999   0.24352

 Mulliken charges:
               1
     1  H    0.696022
     2  H    0.717690
     3  H    0.705990
     4  N    0.090401
     5  N   -0.058155
     6  N   -0.174832
     7  O   -1.977116
 Sum of Mulliken charges =  -0.00000

 Dipole moment (field-independent basis, Debye):
    X=             -1.3515    Y=              1.4834    Z=              0.3749  Tot=              2.0415

 Test job not archived.
 1\1\GINC-SE118\SP\RHF\Aug-CC-pVDZ\H3N3O1\OHZDE\08-Apr-2025\0\\#t hf au
 g-cc-pvdz iop(5/13=1,5/36=2,99/5=2) pseudo=read geom=check guess=(read
 ,tcheck) scf=(maxcycle=1)\\title\\0,1\H,0,-2.9327,-0.0243973,-0.142388
 \H,0,-1.31149,1.31568,-0.482581\H,0,-1.18759,0.776194,1.07195\N,0,1.95
 994,-0.611112,0.125186\N,0,2.30509,0.397816,-0.160784\N,0,-1.10333,0.4
 85082,0.0996481\O,0,-2.08751,-0.496247,-0.111916\\Version=ES64L-G16Rev
 C.01\State=1-A\HF=-240.9809694\RMSD=9.052e-02\Dipole=-0.531727,0.58360
 37,0.1474898\Quadrupole=1.2644302,-0.8141466,-0.4502837,-2.3279536,-0.

 Normal termination of Gaussian 16 at Tue Apr  8 21:13:23 2025.
