 Gaussian 16, Revision C.01,

 ----------------------------------------------------------------------
 #t hf aug-cc-pvdz symm=none int=(grid=ultrafine) guess=(read,tcheck) s
 table=(opt,rrhf)
 ----------------------------------------------------------------------
 -----
 title
 -----
 Symbolic Z-matrix:
 Charge =  0 Multiplicity = 1

 SCF Done:  E(RHF) =  -460.010340718     A.U. after   12 cycles

 1\1\GINC-SE054\Stability\RHF\Aug-CC-pVDZ\C6H14O3\OHZDE\08-Apr-2025\0\\
 #t hf aug-cc-pvdz symm=none int=(grid=ultrafine) guess=(read,tcheck) s
 table=(opt,rrhf)\\title\\0,1\C,0,-2.63351,-0.979321,1.0034\C,0,-2.3223
 3,0.367799,0.405994\C,0,-1.11208,0.389283,-0.508771\C,0,1.09596,-0.357
 587,-0.527528\C,0,2.32318,-0.387907,0.395065\C,0,2.6363,0.953143,1.039
 57\H,0,2.79757,1.65097,0.208151\H,0,3.50305,0.974404,1.70511\H,0,1.769
 28,1.31447,1.59951\H,0,2.11031,-1.09062,1.21838\H,0,3.13037,-0.826434,
 -0.204399\H,0,0.826704,-2.29128,-0.469719\H,0,1.23702,0.40424,-1.31898

 Normal termination of Gaussian 16 at Tue Apr  8 19:30:53 2025.
 Gaussian 16:  ES64L-G16RevC.01  3-Jul-2019

 ----------------------------------------------------------------------
 #t hf aug-cc-pvdz iop(5/13=1,5/36=2,99/5=2) pseudo=read geom=check gue
 ss=(read,tcheck) scf=(maxcycle=1)
 ----------------------------------------------------------------------
 -----
 title
 -----
 Structure from the checkpoint file:  "ANI1ccx_1253_conf1_mol2.chk"
 Charge =  0 Multiplicity = 1

                         Standard orientation:
 ---------------------------------------------------------------------
 Center     Atomic      Atomic             Coordinates (Angstroms)
 Number     Number       Type             X           Y           Z
 ---------------------------------------------------------------------
      1          6           0       -2.633511   -0.979322    1.003400
      2          6           0       -2.322331    0.367798    0.405994
      3          6           0       -1.112081    0.389282   -0.508771
      4          6           0        1.095959   -0.357587   -0.527528
      5          6           0        2.323179   -0.387907    0.395065
      6          6           0        2.636299    0.953143    1.039570
      7          1           0        2.797569    1.650970    0.208151
      8          1           0        3.503049    0.974404    1.705110
      9          1           0        1.769279    1.314470    1.599510
     10          1           0        2.110310   -1.090620    1.218380
     11          1           0        3.130369   -0.826434   -0.204399
     12          1           0        0.826704   -2.291280   -0.469719
     13          1           0        1.237019    0.404240   -1.318980
     14          1           0       -1.219341   -0.352799   -1.332930
     15          1           0       -2.054711    1.056859    1.201880
     16          1           0       -3.218351    0.745135   -0.107675
     17          1           0       -1.753830   -1.379861    1.530840
     18          1           0       -3.503131   -0.930656    1.662160
     19          1           0       -2.801440   -1.692991    0.198836
     20          1           0       -0.716513    2.330599   -0.480671
     21          8           0       -0.030237   -0.005339    0.251750
     22          8           0       -0.898071    1.643589   -1.132120
     23          8           0        0.924299   -1.616310   -1.151740
 ---------------------------------------------------------------------

 SCF Done:  E(RHF) =  -462.129041588     A.U. after    2 cycles

 The electronic state is 1-A.
 Alpha  occ. eigenvalues --  -21.07385 -21.07026 -21.04984 -11.50099 -11.47489
 Alpha  occ. eigenvalues --  -11.40588 -11.39906 -11.36281 -11.35471  -1.84404
 Alpha  occ. eigenvalues --   -1.71324  -1.64926  -1.19778  -1.16137  -0.98659
 Alpha  occ. eigenvalues --   -0.93319  -0.85113  -0.84150  -0.69783  -0.64518
 Alpha  occ. eigenvalues --   -0.64244  -0.61554  -0.58843  -0.58541  -0.55995
 Alpha  occ. eigenvalues --   -0.53513  -0.52680  -0.50461  -0.49075  -0.47164
 Alpha  occ. eigenvalues --   -0.45919  -0.44679  -0.43702  -0.35805  -0.32795
 Alpha  occ. eigenvalues --   -0.32662  -0.29335
 Alpha virt. eigenvalues --    0.04169   0.04702   0.04844   0.04947   0.05160
 Alpha virt. eigenvalues --    0.05834   0.06231   0.06354   0.07136   0.08098
 Alpha virt. eigenvalues --    0.08197   0.08929   0.09013   0.09475   0.13751

 Mulliken charges:
               1
     1  C   -3.677814
     2  C   -4.359122
     3  C    4.139311
     4  C    3.838668
     5  C   -4.268564
     6  C   -3.638635
     7  H    1.290064
     8  H    1.144660
     9  H    1.484523
    10  H    1.521574
    11  H    1.377978
    12  H    0.674001
    13  H    1.997514
    14  H    1.952219
    15  H    1.559867
    16  H    1.365572
    17  H    1.497384
    18  H    1.085962
    19  H    1.296833
    20  H    0.638759
    21  O   -4.502835
    22  O   -3.215503
    23  O   -3.202413
 Sum of Mulliken charges =  -0.00000

 Dipole moment (field-independent basis, Debye):
    X=              0.0785    Y=             -0.0121    Z=              0.9211  Tot=              0.9245

 Test job not archived.
 1\1\GINC-SE054\SP\RHF\Aug-CC-pVDZ\C6H14O3\OHZDE\08-Apr-2025\0\\#t hf a
 ug-cc-pvdz iop(5/13=1,5/36=2,99/5=2) pseudo=read geom=check guess=(rea
 d,tcheck) scf=(maxcycle=1)\\title\\0,1\C,0,-2.63351,-0.979321,1.0034\C
 ,0,-2.32233,0.367799,0.405994\C,0,-1.11208,0.389283,-0.508771\C,0,1.09
 596,-0.357587,-0.527528\C,0,2.32318,-0.387907,0.395065\C,0,2.6363,0.95
 3143,1.03957\H,0,2.79757,1.65097,0.208151\H,0,3.50305,0.974404,1.70511
 \H,0,1.76928,1.31447,1.59951\H,0,2.11031,-1.09062,1.21838\H,0,3.13037,
 -0.826434,-0.204399\H,0,0.826704,-2.29128,-0.469719\H,0,1.23702,0.4042

 Normal termination of Gaussian 16 at Tue Apr  8 19:31:07 2025.
