 Gaussian 16, Revision C.01,

 ----------------------------------------------------------------------
 #t hf aug-cc-pvdz symm=none int=(grid=ultrafine) guess=(read,tcheck) s
 table=(opt,rrhf)
 ----------------------------------------------------------------------
 -----
 title
 -----
 Symbolic Z-matrix:
 Charge =  0 Multiplicity = 1

 SCF Done:  E(RHF) =  -259.163392250     A.U. after   13 cycles
 Normal termination of Gaussian 16 at Tue Apr  8 21:39:46 2025.
 Gaussian 16:  ES64L-G16RevC.01  3-Jul-2019

 ----------------------------------------------------------------------
 #t hf aug-cc-pvdz iop(5/13=1,5/36=2,99/5=2) pseudo=read geom=check gue
 ss=(read,tcheck) scf=(maxcycle=1)
 ----------------------------------------------------------------------
 -----
 title
 -----
 Structure from the checkpoint file:  "ANI1ccx_430_conf29_mol2.chk"
 Charge =  0 Multiplicity = 1

                         Standard orientation:
 ---------------------------------------------------------------------
 Center     Atomic      Atomic             Coordinates (Angstroms)
 Number     Number       Type             X           Y           Z
 ---------------------------------------------------------------------
      1          6           0       -0.507883    0.131674    0.001686
      2          1           0        2.057090    0.409367   -0.821574
      3          1           0        2.063420    0.400549    0.824794
      4          1           0        0.555585   -1.675201   -0.018039
      5          1           0       -1.718330   -1.575340    0.011210
      6          1           0       -2.533380   -0.051571    0.007376
      7          1           0        0.404696    1.790299    0.003707
      8          7           0        1.915040   -0.179397   -0.000147
      9          7           0        0.619580   -0.673841    0.001675
     10          7           0       -1.680380   -0.573744   -0.002409
     11          7           0       -0.537353    1.414390   -0.001631
 ---------------------------------------------------------------------

 SCF Done:  E(RHF) =  -260.370219078     A.U. after    2 cycles

 The electronic state is 1-A.
 Alpha  occ. eigenvalues --  -15.77637 -15.76836 -15.76389 -15.68686 -11.47396
 Alpha  occ. eigenvalues --   -1.53999  -1.38150  -1.22831  -1.12308  -0.83206
 Alpha  occ. eigenvalues --   -0.73755  -0.69065  -0.68689  -0.61368  -0.55517
 Alpha  occ. eigenvalues --   -0.54490  -0.40837  -0.38087  -0.35858  -0.30846
 Alpha virt. eigenvalues --    0.03585   0.04734   0.05494   0.06525   0.07219
 Alpha virt. eigenvalues --    0.07593   0.11961   0.13073   0.14281   0.15277
 Alpha virt. eigenvalues --    0.16781   0.17055   0.17665   0.18741   0.18825

 Mulliken charges:
               1
     1  C    4.823520
     2  H    0.628186
     3  H    0.633921
     4  H    0.868098
     5  H    0.639251
     6  H    0.617237
     7  H    0.540104
     8  N   -1.777546
     9  N   -1.499518
    10  N   -2.704731
    11  N   -2.768522
 Sum of Mulliken charges =   0.00000

 Dipole moment (field-independent basis, Debye):
    X=              0.4011    Y=             -2.6225    Z=              0.0215  Tot=              2.6531

 Test job not archived.
 1\1\GINC-SE458\SP\RHF\Aug-CC-pVDZ\C1H6N4\OHZDE\08-Apr-2025\0\\#t hf au
 g-cc-pvdz iop(5/13=1,5/36=2,99/5=2) pseudo=read geom=check guess=(read
 ,tcheck) scf=(maxcycle=1)\\title\\0,1\C,0,-0.507883,0.131674,0.0016855
 1\H,0,2.05709,0.409368,-0.821574\H,0,2.06342,0.40055,0.824794\H,0,0.55
 5585,-1.6752,-0.0180386\H,0,-1.71833,-1.57534,0.0112103\H,0,-2.53338,-
 0.0515706,0.00737587\H,0,0.404696,1.7903,0.00370712\N,0,1.91504,-0.179
 396,-0.00014711\N,0,0.61958,-0.67384,0.0016747\N,0,-1.68038,-0.573744,
 -0.00240878\N,0,-0.537353,1.41439,-0.00163129\\Version=ES64L-G16RevC.0

 Normal termination of Gaussian 16 at Tue Apr  8 21:39:48 2025.
