 Gaussian 16, Revision C.01,

 ----------------------------------------------------------------------
 #t hf aug-cc-pvdz symm=none int=(grid=ultrafine) guess=(read,tcheck) s
 table=(opt,rrhf)
 ----------------------------------------------------------------------
 -----
 title
 -----
 Symbolic Z-matrix:
 Charge =  0 Multiplicity = 1

 SCF Done:  E(RHF) =  -604.230258615     A.U. after   14 cycles
 Normal termination of Gaussian 16 at Tue Apr  8 22:13:12 2025.
 Gaussian 16:  ES64L-G16RevC.01  3-Jul-2019

 ----------------------------------------------------------------------
 #t hf aug-cc-pvdz iop(5/13=1,5/36=2,99/5=2) pseudo=read geom=check gue
 ss=(read,tcheck) scf=(maxcycle=1)
 ----------------------------------------------------------------------
 -----
 title
 -----
 Structure from the checkpoint file:  "ANI1ccx_934_conf12_mol2.chk"
 Charge =  0 Multiplicity = 1

                         Standard orientation:
 ---------------------------------------------------------------------
 Center     Atomic      Atomic             Coordinates (Angstroms)
 Number     Number       Type             X           Y           Z
 ---------------------------------------------------------------------
      1          6           0        0.534738   -0.859744    0.387168
      2          6           0       -0.629272   -0.613124   -0.616867
      3          6           0       -1.109399    0.784697   -0.303558
      4          6           0        1.714001    0.002212    0.013562
      5          1           0       -0.734487   -1.131950    1.778990
      6          1           0        0.750433   -1.941519    0.395375
      7          1           0       -0.230966   -0.711505   -1.636240
      8          1           0       -2.462019   -1.160280   -0.730782
      9          1           0       -2.598290    1.775430    0.255077
     10          1           0        1.883471   -0.904020   -1.729060
     11          8           0        0.031684   -0.560732    1.704890
     12          8           0       -1.668119   -1.558860   -0.363791
     13          8           0       -2.420649    0.831099    0.042417
     14          8           0       -0.353325    1.747250   -0.327187
     15          8           0        2.239831   -0.271691   -1.170650
     16          8           0        2.212011    0.836633    0.712422
 ---------------------------------------------------------------------

 SCF Done:  E(RHF) =  -606.739198003     A.U. after    2 cycles

 The electronic state is 1-A.
 Alpha  occ. eigenvalues --  -21.15533 -21.14066 -21.11559 -21.09272 -21.07529
 Alpha  occ. eigenvalues --  -21.04579 -11.56624 -11.54763 -11.53078 -11.46594
 Alpha  occ. eigenvalues --   -1.86977  -1.84463  -1.76167  -1.72106  -1.67689
 Alpha  occ. eigenvalues --   -1.65547  -1.16987  -1.01260  -0.85932  -0.80830
 Alpha  occ. eigenvalues --   -0.75518  -0.72048  -0.66213  -0.63536  -0.62749
 Alpha  occ. eigenvalues --   -0.59701  -0.55499  -0.52993  -0.52131  -0.51226
 Alpha  occ. eigenvalues --   -0.45927  -0.44484  -0.43233  -0.39598  -0.35632
 Alpha  occ. eigenvalues --   -0.34628  -0.33857  -0.30271  -0.29965
 Alpha virt. eigenvalues --    0.02913   0.04129   0.04513   0.05146   0.06056
 Alpha virt. eigenvalues --    0.06311   0.08729   0.10778   0.11382   0.11597
 Alpha virt. eigenvalues --    0.12146   0.13328   0.13833   0.14205   0.14505

 Mulliken charges:
               1
     1  C   -0.841665
     2  C   -0.115477
     3  C    6.548029
     4  C    6.864310
     5  H    0.661583
     6  H    1.622469
     7  H    1.722821
     8  H    0.780320
     9  H    0.763755
    10  H    1.070749
    11  O   -2.939524
    12  O   -3.188835
    13  O   -3.010656
    14  O   -3.077037
    15  O   -3.501122
    16  O   -3.359719
 Sum of Mulliken charges =   0.00000

 Dipole moment (field-independent basis, Debye):
    X=             -2.8402    Y=             -1.6150    Z=             -0.9165  Tot=              3.3934

 Test job not archived.
 1\1\GINC-SE179\SP\RHF\Aug-CC-pVDZ\C4H6O6\OHZDE\08-Apr-2025\0\\#t hf au
 g-cc-pvdz iop(5/13=1,5/36=2,99/5=2) pseudo=read geom=check guess=(read
 ,tcheck) scf=(maxcycle=1)\\title\\0,1\C,0,0.534737,-0.859745,0.387168\
 C,0,-0.629273,-0.613124,-0.616867\C,0,-1.1094,0.784697,-0.303558\C,0,1
 .714,0.00221145,0.0135614\H,0,-0.734488,-1.13195,1.77899\H,0,0.750432,
 -1.94152,0.395375\H,0,-0.230967,-0.711505,-1.63624\H,0,-2.46202,-1.160
 28,-0.730782\H,0,-2.59829,1.77543,0.255077\H,0,1.88347,-0.904021,-1.72
 906\O,0,0.0316838,-0.560732,1.70489\O,0,-1.66812,-1.55886,-0.363791\O,

 Normal termination of Gaussian 16 at Tue Apr  8 22:13:20 2025.
