 Gaussian 16, Revision C.01,

 ----------------------------------------------------------------------
 #t hf aug-cc-pvdz symm=none int=(grid=ultrafine) guess=(read,tcheck) s
 table=(opt,rrhf)
 ----------------------------------------------------------------------
 -----
 title
 -----
 Symbolic Z-matrix:
 Charge =  0 Multiplicity = 1

 SCF Done:  E(RHF) =  -635.465836727     A.U. after   17 cycles

 1\1\GINC-SE177\Stability\RHF\Aug-CC-pVDZ\C8H10N6\OHZDE\08-Apr-2025\0\\
 #t hf aug-cc-pvdz symm=none int=(grid=ultrafine) guess=(read,tcheck) s
 table=(opt,rrhf)\\title\\0,1\C,0,1.36958,-0.750453,-0.0165764\C,0,-1.0
 8897,-0.714763,0.0418545\C,0,-2.30686,-1.3759,-0.00798286\C,0,-3.51666
 ,-0.68538,-0.0171052\C,0,-3.49009,0.716359,-0.0147688\C,0,-2.28024,1.3
 8083,-0.00110659\C,0,-1.07172,0.683935,0.0123089\C,0,1.38552,0.745912,
 -0.00283216\H,0,3.17623,3.20266,0.296301\H,0,2.10227,3.13714,-0.878633
 \H,0,0.186042,2.33735,0.1457\H,0,-2.23208,2.47759,0.0167319\H,0,-4.398

 Normal termination of Gaussian 16 at Tue Apr  8 20:04:52 2025.
 Gaussian 16:  ES64L-G16RevC.01  3-Jul-2019

 ----------------------------------------------------------------------
 #t hf aug-cc-pvdz iop(5/13=1,5/36=2,99/5=2) pseudo=read geom=check gue
 ss=(read,tcheck) scf=(maxcycle=1)
 ----------------------------------------------------------------------
 -----
 title
 -----
 Structure from the checkpoint file:  "ANI1ccx_1548_conf11_mol2.chk"
 Charge =  0 Multiplicity = 1

                         Standard orientation:
 ---------------------------------------------------------------------
 Center     Atomic      Atomic             Coordinates (Angstroms)
 Number     Number       Type             X           Y           Z
 ---------------------------------------------------------------------
      1          6           0        1.369580   -0.750454   -0.016576
      2          6           0       -1.088970   -0.714763    0.041854
      3          6           0       -2.306860   -1.375899   -0.007983
      4          6           0       -3.516660   -0.685379   -0.017105
      5          6           0       -3.490089    0.716360   -0.014769
      6          6           0       -2.280239    1.380831   -0.001107
      7          6           0       -1.071719    0.683935    0.012309
      8          6           0        1.385521    0.745911   -0.002832
      9          1           0        3.176232    3.202658    0.296301
     10          1           0        2.102272    3.137139   -0.878633
     11          1           0        0.186044    2.337350    0.145700
     12          1           0       -2.232078    2.477591    0.016732
     13          1           0       -4.398489    1.332782   -0.009456
     14          1           0       -2.286600   -2.447809   -0.037232
     15          1           0        0.204582   -2.364370   -0.134870
     16          1           0        3.180939   -3.231932   -0.240564
     17          1           0        2.044839   -3.048561    0.904011
     18          1           0       -4.465040   -1.224458   -0.012370
     19          7           0        2.498951    1.390319    0.056706
     20          7           0        2.260329   -2.804931   -0.057772
     21          7           0        2.475720   -1.383881   -0.119402
     22          7           0        0.143491   -1.376020    0.096180
     23          7           0        0.144381    1.352480   -0.063019
     24          7           0        2.260542    2.797229    0.085540
 ---------------------------------------------------------------------

 SCF Done:  E(RHF) =  -638.408587285     A.U. after    2 cycles

 The electronic state is 1-A.
 Alpha  occ. eigenvalues --  -15.77879 -15.77656 -15.75872 -15.75727 -15.73298
 Alpha  occ. eigenvalues --  -15.73182 -11.55126 -11.52882 -11.48017 -11.46247
 Alpha  occ. eigenvalues --  -11.43768 -11.42507 -11.42096 -11.37458  -1.57991
 Alpha  occ. eigenvalues --   -1.48257  -1.43988  -1.35689  -1.29325  -1.18939
 Alpha  occ. eigenvalues --   -1.12875  -1.07110  -1.06404  -0.93115  -0.88169
 Alpha  occ. eigenvalues --   -0.87786  -0.74779  -0.73017  -0.71301  -0.69400
 Alpha  occ. eigenvalues --   -0.66670  -0.66116  -0.62337  -0.61425  -0.59197
 Alpha  occ. eigenvalues --   -0.58445  -0.56763  -0.53904  -0.53661  -0.51055
 Alpha  occ. eigenvalues --   -0.49506  -0.47306  -0.46107  -0.45508  -0.40113
 Alpha  occ. eigenvalues --   -0.37840  -0.33567  -0.33336  -0.27660  -0.24834
 Alpha virt. eigenvalues --    0.03294   0.04605   0.05022   0.05601   0.05740
 Alpha virt. eigenvalues --    0.06224   0.06526   0.07184   0.08518   0.09702
 Alpha virt. eigenvalues --    0.09817   0.11087   0.11511   0.11620   0.12301

 Mulliken charges:
               1
     1  C    3.731692
     2  C    3.433899
     3  C   -0.641751
     4  C   -2.001868
     5  C   -1.479481
     6  C   -2.260497
     7  C    3.056738
     8  C    4.486927
     9  H    0.778323
    10  H    0.591494
    11  H    0.622898
    12  H    1.909472
    13  H    1.546068
    14  H    1.890027
    15  H    0.619789
    16  H    0.783692
    17  H    0.595835
    18  H    1.587327
    19  N   -2.506122
    20  N   -2.023846
    21  N   -2.548319
    22  N   -5.030605
    23  N   -5.139006
    24  N   -2.002686
 Sum of Mulliken charges =   0.00000

 Dipole moment (field-independent basis, Debye):
    X=             -1.7633    Y=             -0.0175    Z=              0.0711  Tot=              1.7648

 Test job not archived.
 1\1\GINC-SE177\SP\RHF\Aug-CC-pVDZ\C8H10N6\OHZDE\08-Apr-2025\0\\#t hf a
 ug-cc-pvdz iop(5/13=1,5/36=2,99/5=2) pseudo=read geom=check guess=(rea
 d,tcheck) scf=(maxcycle=1)\\title\\0,1\C,0,1.36958,-0.750453,-0.016576
 4\C,0,-1.08897,-0.714763,0.0418545\C,0,-2.30686,-1.3759,-0.00798286\C,
 0,-3.51666,-0.68538,-0.0171052\C,0,-3.49009,0.716359,-0.0147688\C,0,-2
 .28024,1.38083,-0.00110659\C,0,-1.07172,0.683935,0.0123089\C,0,1.38552
 ,0.745912,-0.00283216\H,0,3.17623,3.20266,0.296301\H,0,2.10227,3.13714
 ,-0.878633\H,0,0.186042,2.33735,0.1457\H,0,-2.23208,2.47759,0.0167319\

 Normal termination of Gaussian 16 at Tue Apr  8 20:05:14 2025.
