 Gaussian 16, Revision C.01,

 ----------------------------------------------------------------------
 #t hf aug-cc-pvdz symm=none int=(grid=ultrafine) guess=(read,tcheck) s
 table=(opt,rrhf)
 ----------------------------------------------------------------------
 -----
 title
 -----
 Symbolic Z-matrix:
 Charge =  0 Multiplicity = 1

 SCF Done:  E(RHF) =  -603.003838841     A.U. after   18 cycles
 Normal termination of Gaussian 16 at Tue Apr  8 21:05:08 2025.
 Gaussian 16:  ES64L-G16RevC.01  3-Jul-2019

 ----------------------------------------------------------------------
 #t hf aug-cc-pvdz iop(5/13=1,5/36=2,99/5=2) pseudo=read geom=check gue
 ss=(read,tcheck) scf=(maxcycle=1)
 ----------------------------------------------------------------------
 -----
 title
 -----
 Structure from the checkpoint file:  "ANI1ccx_1812_conf1_mol2.chk"
 Charge =  0 Multiplicity = 1

                         Standard orientation:
 ---------------------------------------------------------------------
 Center     Atomic      Atomic             Coordinates (Angstroms)
 Number     Number       Type             X           Y           Z
 ---------------------------------------------------------------------
      1          6           0        2.866540   -0.343970    0.021143
      2          6           0        1.390290    0.037043   -0.078415
      3          6           0        0.451874   -0.953861    0.041838
      4          6           0       -0.892779   -0.608461   -0.025103
      5          6           0       -1.960601   -1.516908   -0.113970
      6          6           0       -3.229401   -1.076588   -0.192375
      7          6           0       -2.609230    1.162242    0.201914
      8          6           0       -1.249950    0.787977    0.180269
      9          6           0       -0.200820    1.696511   -0.010629
     10          1           0       -0.283952    2.753761    0.117760
     11          1           0       -2.868329    2.239182    0.351848
     12          1           0       -3.993261   -1.766807   -0.366901
     13          1           0        3.199311    1.481669   -0.281599
     14          1           0        0.694285   -1.969770    0.067254
     15          1           0       -1.779542   -2.555349   -0.006326
     16          7           0       -3.600190    0.287801    0.050108
     17          7           0        1.083201    1.292650   -0.193143
     18          8           0        3.684390    0.682173   -0.137273
     19          8           0        3.222469   -1.475892    0.258670
 ---------------------------------------------------------------------

 SCF Done:  E(RHF) =  -605.688183960     A.U. after    2 cycles

 The electronic state is 1-A.
 Alpha  occ. eigenvalues --  -21.12994 -21.05495 -15.77186 -15.77034 -11.54508
 Alpha  occ. eigenvalues --  -11.52495 -11.50711 -11.49477 -11.48724 -11.47431
 Alpha  occ. eigenvalues --  -11.44933 -11.44557 -11.40983  -1.83842  -1.66461
 Alpha  occ. eigenvalues --   -1.51626  -1.41849  -1.24216  -1.18880  -1.13581
 Alpha  occ. eigenvalues --   -0.99272  -0.95506  -0.89913  -0.84814  -0.76295
 Alpha  occ. eigenvalues --   -0.73521  -0.71852  -0.67708  -0.66208  -0.62453
 Alpha  occ. eigenvalues --   -0.61512  -0.59405  -0.56683  -0.55336  -0.52686
 Alpha  occ. eigenvalues --   -0.51213  -0.49740  -0.45200  -0.43397  -0.41442
 Alpha  occ. eigenvalues --   -0.37835  -0.37515  -0.34485  -0.31509  -0.30402
 Alpha virt. eigenvalues --    0.02540   0.04660   0.05212   0.05444   0.05736
 Alpha virt. eigenvalues --    0.06324   0.07094   0.07604   0.08274   0.08724
 Alpha virt. eigenvalues --    0.09681   0.09932   0.10211   0.11005   0.11597

 Mulliken charges:
               1
     1  C    4.789221
     2  C    0.191818
     3  C   -1.523586
     4  C    6.984748
     5  C   -1.970824
     6  C   -1.939384
     7  C   -0.875774
     8  C    1.108118
     9  C   -1.010720
    10  H    1.577059
    11  H    1.517160
    12  H    1.447836
    13  H    1.200205
    14  H    1.858336
    15  H    1.375173
    16  N   -3.839985
    17  N   -4.106143
    18  O   -3.418109
    19  O   -3.365149
 Sum of Mulliken charges =  -0.00000

 Dipole moment (field-independent basis, Debye):
    X=             -2.1533    Y=              0.5969    Z=             -0.0355  Tot=              2.2348

 Test job not archived.
 1\1\GINC-SE088\SP\RHF\Aug-CC-pVDZ\C9H6N2O2\OHZDE\08-Apr-2025\0\\#t hf
 aug-cc-pvdz iop(5/13=1,5/36=2,99/5=2) pseudo=read geom=check guess=(re
 ad,tcheck) scf=(maxcycle=1)\\title\\0,1\C,0,2.86654,-0.343969,0.021142
 7\C,0,1.39029,0.0370438,-0.0784149\C,0,0.451875,-0.953861,0.0418385\C,
 0,-0.892778,-0.608462,-0.0251026\C,0,-1.9606,-1.51691,-0.11397\C,0,-3.
 2294,-1.07659,-0.192375\C,0,-2.60923,1.16224,0.201914\C,0,-1.24995,0.7
 87976,0.180269\C,0,-0.200821,1.69651,-0.0106291\H,0,-0.283953,2.75376,
 0.11776\H,0,-2.86833,2.23918,0.351848\H,0,-3.99326,-1.76681,-0.366901\

 Normal termination of Gaussian 16 at Tue Apr  8 21:05:22 2025.
