 Gaussian 16, Revision C.01,

 ----------------------------------------------------------------------
 #t hf aug-cc-pvdz symm=none int=(grid=ultrafine) guess=(read,tcheck) s
 table=(opt,rrhf)
 ----------------------------------------------------------------------
 -----
 title
 -----
 Symbolic Z-matrix:
 Charge =  0 Multiplicity = 1

 SCF Done:  E(RHF) =  -506.626932009     A.U. after   17 cycles
 Normal termination of Gaussian 16 at Tue Apr  8 21:58:58 2025.
 Gaussian 16:  ES64L-G16RevC.01  3-Jul-2019

 ----------------------------------------------------------------------
 #t hf aug-cc-pvdz iop(5/13=1,5/36=2,99/5=2) pseudo=read geom=check gue
 ss=(read,tcheck) scf=(maxcycle=1)
 ----------------------------------------------------------------------
 -----
 title
 -----
 Structure from the checkpoint file:  "ANI1ccx_787_conf15_mol1.chk"
 Charge =  0 Multiplicity = 1

                         Standard orientation:
 ---------------------------------------------------------------------
 Center     Atomic      Atomic             Coordinates (Angstroms)
 Number     Number       Type             X           Y           Z
 ---------------------------------------------------------------------
      1          6           0        1.102959    1.726111   -0.592736
      2          6           0       -1.084681    0.718225   -0.108621
      3          6           0       -1.922100   -0.522008   -0.313960
      4          1           0        1.369771   -2.029609   -1.389820
      5          1           0       -3.219400   -0.097359    1.042890
      6          1           0       -1.388909   -1.375451    0.178134
      7          1           0       -1.059211    1.046110    0.950485
      8          1           0       -1.984919   -0.829093   -1.380520
      9          1           0        2.111089    1.419812   -0.941016
     10          1           0        0.628162    2.464531   -1.253340
     11          1           0        1.158108    2.113831    0.412222
     12          1           0       -1.493821    1.605659   -0.588016
     13          7           0        0.280379    0.542388   -0.638696
     14          7           0        1.006580   -0.547144   -0.156928
     15          7           0        1.418960   -0.686639    1.129610
     16          8           0        1.818891   -1.196958   -1.129030
     17          8           0       -3.264050   -0.326312    0.095359
     18          8           0        0.990237    0.146691    1.874040
 ---------------------------------------------------------------------

 SCF Done:  E(RHF) =  -508.878818247     A.U. after    2 cycles

 The electronic state is 1-A.
 Alpha  occ. eigenvalues --  -21.13721 -21.10335 -21.07931 -15.90084 -15.82668
 Alpha  occ. eigenvalues --  -15.75814 -11.46705 -11.39922 -11.39294  -1.90852
 Alpha  occ. eigenvalues --   -1.80428  -1.71815  -1.49608  -1.26491  -1.11366
 Alpha  occ. eigenvalues --   -0.99566  -0.91723  -0.80507  -0.73780  -0.69872
 Alpha  occ. eigenvalues --   -0.68069  -0.65289  -0.60438  -0.60128  -0.57458
 Alpha  occ. eigenvalues --   -0.55792  -0.55196  -0.53005  -0.50499  -0.48623
 Alpha  occ. eigenvalues --   -0.41948  -0.40880  -0.35226  -0.34029  -0.31328
 Alpha  occ. eigenvalues --   -0.28454
 Alpha virt. eigenvalues --    0.04115   0.04831   0.05324   0.06029   0.06109
 Alpha virt. eigenvalues --    0.06388   0.06736   0.07739   0.08472   0.11066
 Alpha virt. eigenvalues --    0.12814   0.13371   0.13482   0.13726   0.14412

 Mulliken charges:
               1
     1  C   -3.654855
     2  C   -2.718710
     3  C   -0.406553
     4  H    0.722937
     5  H    0.683525
     6  H    1.318100
     7  H    1.843295
     8  H    1.403776
     9  H    1.312146
    10  H    1.290226
    11  H    1.599910
    12  H    1.556754
    13  N   -2.312886
    14  N    3.561421
    15  N    1.358191
    16  O   -2.567920
    17  O   -2.747377
    18  O   -2.241979
 Sum of Mulliken charges =  -0.00000

 Dipole moment (field-independent basis, Debye):
    X=             -0.4420    Y=              0.7592    Z=             -1.0758  Tot=              1.3889

 Test job not archived.
 1\1\GINC-SE365\SP\RHF\Aug-CC-pVDZ\C3H9N3O3\OHZDE\08-Apr-2025\0\\#t hf
 aug-cc-pvdz iop(5/13=1,5/36=2,99/5=2) pseudo=read geom=check guess=(re
 ad,tcheck) scf=(maxcycle=1)\\title\\0,1\C,0,1.10296,1.72611,-0.592736\
 C,0,-1.08468,0.718225,-0.108621\C,0,-1.9221,-0.522007,-0.31396\H,0,1.3
 6977,-2.02961,-1.38982\H,0,-3.2194,-0.0973566,1.04289\H,0,-1.38891,-1.
 37545,0.178134\H,0,-1.05921,1.04611,0.950485\H,0,-1.98492,-0.829092,-1
 .38052\H,0,2.11109,1.41981,-0.941016\H,0,0.628164,2.46453,-1.25334\H,0
 ,1.15811,2.11383,0.412222\H,0,-1.49382,1.60566,-0.588016\N,0,0.280379,

 Normal termination of Gaussian 16 at Tue Apr  8 21:59:04 2025.
