 Gaussian 16, Revision C.01,

 ----------------------------------------------------------------------
 #t hf aug-cc-pvdz symm=none int=(grid=ultrafine) guess=(read,tcheck) s
 table=(opt,rrhf)
 ----------------------------------------------------------------------
 -----
 title
 -----
 Symbolic Z-matrix:
 Charge =  0 Multiplicity = 1

 SCF Done:  E(RHF) =  -794.457943154     A.U. after   15 cycles
 Normal termination of Gaussian 16 at Tue Apr  8 20:24:58 2025.
 Gaussian 16:  ES64L-G16RevC.01  3-Jul-2019

 ----------------------------------------------------------------------
 #t hf aug-cc-pvdz iop(5/13=1,5/36=2,99/5=2) pseudo=read geom=check gue
 ss=(read,tcheck) scf=(maxcycle=1)
 ----------------------------------------------------------------------
 -----
 title
 -----
 Structure from the checkpoint file:  "ANI1ccx_1592_conf2_mol1.chk"
 Charge =  0 Multiplicity = 1

                         Standard orientation:
 ---------------------------------------------------------------------
 Center     Atomic      Atomic             Coordinates (Angstroms)
 Number     Number       Type             X           Y           Z
 ---------------------------------------------------------------------
      1          6           0        0.428317    1.375300   -0.332511
      2          6           0       -1.026381    1.745510    0.047294
      3          6           0        1.287059    1.209301    0.900401
      4          6           0        2.593439    0.546000    0.495911
      5          6           0        2.564960   -0.947890    0.171768
      6          6           0       -1.584020   -0.683121    0.632443
      7          6           0       -1.756390   -1.357981   -0.720330
      8          6           0       -2.524480   -1.280321    1.694550
      9          1           0        0.112763   -1.797470   -0.620631
     10          1           0       -3.578730   -1.215882    1.297560
     11          1           0       -2.516750   -0.723000    2.614520
     12          1           0       -2.337239   -2.376661    1.911240
     13          1           0       -0.573559   -0.901959    0.981691
     14          1           0       -2.769511    1.076049    0.813883
     15          1           0        3.603961   -2.383838   -0.174010
     16          1           0        2.969809    1.078182   -0.409444
     17          1           0        3.386179    0.648354    1.298290
     18          1           0        1.443909    2.176321    1.411080
     19          1           0        0.725823    0.646835    1.651450
     20          1           0        0.388114    0.437204   -0.914623
     21          1           0        0.325066    2.459810   -2.025120
     22          1           0        0.792465    3.297161   -0.688466
     23          7           0        0.962391    2.427641   -1.211410
     24          7           0       -1.826751    0.754442    0.566994
     25          8           0       -1.435722    2.866659   -0.033671
     26          8           0        1.573371   -1.560959    0.125135
     27          8           0        3.821901   -1.431818   -0.049229
     28          8           0       -2.738730   -1.303611   -1.411540
     29          8           0       -0.697922   -2.112330   -1.127400
 ---------------------------------------------------------------------

 SCF Done:  E(RHF) =  -797.973405668     A.U. after    2 cycles

 The electronic state is 1-A.
 Alpha  occ. eigenvalues --  -21.15848 -21.10450 -21.09512 -21.04479 -21.03667
 Alpha  occ. eigenvalues --  -15.76610 -15.74023 -11.58839 -11.54209 -11.52873
 Alpha  occ. eigenvalues --  -11.49359 -11.47481 -11.45418 -11.41470 -11.40949
 Alpha  occ. eigenvalues --   -1.87949  -1.80701  -1.73234  -1.72107  -1.63891
 Alpha  occ. eigenvalues --   -1.41968  -1.36413  -1.20497  -1.14877  -1.05162
 Alpha  occ. eigenvalues --   -0.96702  -0.93879  -0.81742  -0.80667  -0.78740
 Alpha  occ. eigenvalues --   -0.71620  -0.71307  -0.69679  -0.67214  -0.66638
 Alpha  occ. eigenvalues --   -0.65073  -0.62774  -0.59636  -0.58922  -0.57177
 Alpha  occ. eigenvalues --   -0.55469  -0.54942  -0.53636  -0.52522  -0.51252
 Alpha  occ. eigenvalues --   -0.51224  -0.50547  -0.48185  -0.47514  -0.46457
 Alpha  occ. eigenvalues --   -0.42950  -0.39065  -0.37625  -0.34825  -0.33260
 Alpha  occ. eigenvalues --   -0.32476  -0.29543  -0.28112
 Alpha virt. eigenvalues --    0.03273   0.03597   0.04241   0.04952   0.05342
 Alpha virt. eigenvalues --    0.05759   0.06339   0.06918   0.07143   0.07439
 Alpha virt. eigenvalues --    0.07484   0.08923   0.09051   0.09665   0.10356

 Mulliken charges:
               1
     1  C   -0.490866
     2  C    5.750521
     3  C   -3.606926
     4  C   -3.833077
     5  C    6.213801
     6  C   -1.834268
     7  C    6.959985
     8  C   -5.430513
     9  H    2.026083
    10  H    1.247939
    11  H    1.263792
    12  H    1.238340
    13  H    2.899555
    14  H    0.646607
    15  H    0.893313
    16  H    1.562046
    17  H    1.389948
    18  H    1.296197
    19  H    1.870397
    20  H    2.331589
    21  H    0.514219
    22  H    0.508608
    23  N   -2.864650
    24  N   -2.797210
    25  O   -3.934223
    26  O   -3.475359
    27  O   -3.313879
    28  O   -3.496707
    29  O   -3.535262
 Sum of Mulliken charges =   0.00000

 Dipole moment (field-independent basis, Debye):
    X=              3.2403    Y=             -0.7882    Z=              2.5608  Tot=              4.2046

 Test job not archived.
 1\1\GINC-SE232\SP\RHF\Aug-CC-pVDZ\C8H14N2O5\OHZDE\08-Apr-2025\0\\#t hf
  aug-cc-pvdz iop(5/13=1,5/36=2,99/5=2) pseudo=read geom=check guess=(r
 ead,tcheck) scf=(maxcycle=1)\\title\\0,1\C,0,0.428318,1.3753,-0.332511
 \C,0,-1.02638,1.74551,0.047294\C,0,1.28706,1.2093,0.900401\C,0,2.59344
 ,0.545998,0.495911\C,0,2.56496,-0.947892,0.171768\C,0,-1.58402,-0.6831
 2,0.632443\C,0,-1.75639,-1.35798,-0.72033\C,0,-2.52448,-1.28032,1.6945
 5\H,0,0.112762,-1.79747,-0.620631\H,0,-3.57873,-1.21588,1.29756\H,0,-2
 .51675,-0.722999,2.61452\H,0,-2.33724,-2.37666,1.91124\H,0,-0.573559,-

 Normal termination of Gaussian 16 at Tue Apr  8 20:25:33 2025.
