 Gaussian 16, Revision C.01,

 ----------------------------------------------------------------------
 #t hf aug-cc-pvdz symm=none int=(grid=ultrafine) guess=(read,tcheck) s
 table=(opt,rrhf)
 ----------------------------------------------------------------------
 -----
 title
 -----
 Symbolic Z-matrix:
 Charge =  0 Multiplicity = 1

 SCF Done:  E(RHF) =  -298.817022902     A.U. after   14 cycles
 Normal termination of Gaussian 16 at Tue Apr  8 21:38:34 2025.
 Gaussian 16:  ES64L-G16RevC.01  3-Jul-2019

 ----------------------------------------------------------------------
 #t hf aug-cc-pvdz iop(5/13=1,5/36=2,99/5=2) pseudo=read geom=check gue
 ss=(read,tcheck) scf=(maxcycle=1)
 ----------------------------------------------------------------------
 -----
 title
 -----
 Structure from the checkpoint file:  "ANI1ccx_398_conf32_mol1.chk"
 Charge =  0 Multiplicity = 1

                         Standard orientation:
 ---------------------------------------------------------------------
 Center     Atomic      Atomic             Coordinates (Angstroms)
 Number     Number       Type             X           Y           Z
 ---------------------------------------------------------------------
      1          6           0       -0.471158    0.132499   -0.062042
      2          1           0       -1.852250   -1.440010   -0.213158
      3          1           0       -2.536400    0.137381   -0.070433
      4          1           0        0.618857   -1.491290    0.722122
      5          1           0        1.551260    0.782512    0.130347
      6          7           0       -1.663960   -0.416879    0.037069
      7          7           0        0.555437   -0.797751   -0.061454
      8          8           0       -0.211326    1.334420    0.042026
      9          8           0        1.811970   -0.119568   -0.045268
 ---------------------------------------------------------------------

 SCF Done:  E(RHF) =  -300.082335400     A.U. after    2 cycles

 The electronic state is 1-A.
 Alpha  occ. eigenvalues --  -21.08507 -21.03650 -15.80001 -15.79019 -11.51448
 Alpha  occ. eigenvalues --   -1.81048  -1.68899  -1.39542  -1.20910  -0.85325
 Alpha  occ. eigenvalues --   -0.75594  -0.69208  -0.65186  -0.57075  -0.51931
 Alpha  occ. eigenvalues --   -0.46401  -0.43169  -0.34515  -0.31921  -0.29286
 Alpha virt. eigenvalues --    0.02807   0.04844   0.05720   0.07575   0.11244
 Alpha virt. eigenvalues --    0.11531   0.13302   0.14626   0.16082   0.16386
 Alpha virt. eigenvalues --    0.17126   0.17466   0.19217   0.20025   0.20966

 Mulliken charges:
               1
     1  C    5.257447
     2  H    0.664162
     3  H    0.612124
     4  H    0.662645
     5  H    0.761204
     6  N   -2.598803
     7  N   -0.542608
     8  O   -2.603017
     9  O   -2.213154
 Sum of Mulliken charges =   0.00000

 Dipole moment (field-independent basis, Debye):
    X=             -2.2474    Y=             -1.7314    Z=              0.5578  Tot=              2.8913

 Test job not archived.
 1\1\GINC-SE083\SP\RHF\Aug-CC-pVDZ\C1H4N2O2\OHZDE\08-Apr-2025\0\\#t hf
 aug-cc-pvdz iop(5/13=1,5/36=2,99/5=2) pseudo=read geom=check guess=(re
 ad,tcheck) scf=(maxcycle=1)\\title\\0,1\C,0,-0.471158,0.132499,-0.0620
 422\H,0,-1.85225,-1.44001,-0.213158\H,0,-2.5364,0.137381,-0.0704333\H,
 0,0.618857,-1.49129,0.722122\H,0,1.55126,0.782512,0.130347\N,0,-1.6639
 6,-0.416879,0.0370692\N,0,0.555437,-0.797751,-0.0614536\O,0,-0.211326,
 1.33442,0.0420263\O,0,1.81197,-0.119568,-0.045268\\Version=ES64L-G16Re
 vC.01\State=1-A\HF=-300.0823354\RMSD=4.821e-02\Dipole=-0.8841951,-0.68

 Normal termination of Gaussian 16 at Tue Apr  8 21:38:37 2025.
