 Gaussian 16, Revision C.01,

 ----------------------------------------------------------------------
 #t hf aug-cc-pvdz symm=none int=(grid=ultrafine) guess=(read,tcheck) s
 table=(opt,rrhf)
 ----------------------------------------------------------------------
 -----
 title
 -----
 Symbolic Z-matrix:
 Charge =  0 Multiplicity = 1

 SCF Done:  E(RHF) =  -311.841848437     A.U. after   16 cycles
 Normal termination of Gaussian 16 at Tue Apr  8 21:37:44 2025.
 Gaussian 16:  ES64L-G16RevC.01  3-Jul-2019

 ----------------------------------------------------------------------
 #t hf aug-cc-pvdz iop(5/13=1,5/36=2,99/5=2) pseudo=read geom=check gue
 ss=(read,tcheck) scf=(maxcycle=1)
 ----------------------------------------------------------------------
 -----
 title
 -----
 Structure from the checkpoint file:  "ANI1ccx_392_conf6_mol1.chk"
 Charge =  0 Multiplicity = 1

                         Standard orientation:
 ---------------------------------------------------------------------
 Center     Atomic      Atomic             Coordinates (Angstroms)
 Number     Number       Type             X           Y           Z
 ---------------------------------------------------------------------
      1          6           0       -0.613079   -0.027945   -0.002942
      2          1           0       -2.450848    0.862647    0.015153
      3          1           0       -2.535549   -0.858274    0.208036
      4          1           0        2.216711   -1.041431    0.009858
      5          7           0       -2.008728   -0.011862   -0.018698
      6          7           0        0.114691    1.112429   -0.002945
      7          7           0        1.371162    0.746830    0.000177
      8          7           0        1.340002   -0.562223    0.031956
      9          7           0        0.104040   -1.113071   -0.041260
 ---------------------------------------------------------------------

 SCF Done:  E(RHF) =  -313.228522768     A.U. after    2 cycles

 The electronic state is 1-A.
 Alpha  occ. eigenvalues --  -15.85299 -15.82921 -15.77504 -15.77063 -15.75770
 Alpha  occ. eigenvalues --  -11.46417  -1.76273  -1.39602  -1.37798  -1.22662
 Alpha  occ. eigenvalues --   -0.93363  -0.84498  -0.76302  -0.69328  -0.67701
 Alpha  occ. eigenvalues --   -0.60532  -0.53069  -0.48428  -0.44544  -0.40862
 Alpha  occ. eigenvalues --   -0.40482  -0.31134
 Alpha virt. eigenvalues --    0.03863   0.04609   0.06373   0.11347   0.11664
 Alpha virt. eigenvalues --    0.12087   0.13887   0.14315   0.14850   0.15106
 Alpha virt. eigenvalues --    0.17044   0.17536   0.17991   0.19531   0.19647

 Mulliken charges:
               1
     1  C    4.710951
     2  H    0.681863
     3  H    0.666441
     4  H    0.962926
     5  N   -2.711732
     6  N   -1.538216
     7  N   -0.436840
     8  N   -0.413579
     9  N   -1.921813
 Sum of Mulliken charges =  -0.00000

 Dipole moment (field-independent basis, Debye):
    X=             -0.4584    Y=             -1.7371    Z=              0.3789  Tot=              1.8361

 Test job not archived.
 1\1\GINC-SE250\SP\RHF\Aug-CC-pVDZ\C1H3N5\OHZDE\08-Apr-2025\0\\#t hf au
 g-cc-pvdz iop(5/13=1,5/36=2,99/5=2) pseudo=read geom=check guess=(read
 ,tcheck) scf=(maxcycle=1)\\title\\0,1\C,0,-0.613081,-0.0279449,-0.0029
 4194\H,0,-2.45085,0.862647,0.0151533\H,0,-2.53555,-0.858274,0.208036\H
 ,0,2.21671,-1.04143,0.00985761\N,0,-2.00873,-0.0118615,-0.0186982\N,0,
 0.114689,1.11243,-0.00294544\N,0,1.37116,0.746831,0.00017664\N,0,1.34,
 -0.562222,0.0319564\N,0,0.104039,-1.11307,-0.0412602\\Version=ES64L-G1
 6RevC.01\State=1-A\HF=-313.2285228\RMSD=8.500e-02\Dipole=-0.1803396,-0

 Normal termination of Gaussian 16 at Tue Apr  8 21:37:47 2025.
