 Gaussian 16, Revision C.01,

 ----------------------------------------------------------------------
 #t hf aug-cc-pvdz symm=none int=(grid=ultrafine) guess=(read,tcheck) s
 table=(opt,rrhf)
 ----------------------------------------------------------------------
 -----
 title
 -----
 Symbolic Z-matrix:
 Charge =  0 Multiplicity = 1

 SCF Done:  E(RHF) =  -484.039210282     A.U. after   17 cycles
 Normal termination of Gaussian 16 at Tue Apr  8 21:48:55 2025.
 Gaussian 16:  ES64L-G16RevC.01  3-Jul-2019

 ----------------------------------------------------------------------
 #t hf aug-cc-pvdz iop(5/13=1,5/36=2,99/5=2) pseudo=read geom=check gue
 ss=(read,tcheck) scf=(maxcycle=1)
 ----------------------------------------------------------------------
 -----
 title
 -----
 Structure from the checkpoint file:  "ANI1ccx_606_conf3_mol1.chk"
 Charge =  0 Multiplicity = 1

                         Standard orientation:
 ---------------------------------------------------------------------
 Center     Atomic      Atomic             Coordinates (Angstroms)
 Number     Number       Type             X           Y           Z
 ---------------------------------------------------------------------
      1          6           0        1.154279   -0.435184   -0.032025
      2          6           0       -1.207361   -0.321986   -0.003472
      3          7           0        1.170200    0.990840    0.045846
      4          7           0        0.203177    1.726720   -0.041305
      5          8           0        2.245939   -0.942535   -0.113627
      6          8           0       -1.153710    1.031541    0.022819
      7          8           0       -2.217971   -0.917573   -0.124029
      8          8           0       -0.036152   -0.981420    0.237486
 ---------------------------------------------------------------------

 SCF Done:  E(RHF) =  -485.994720539     A.U. after    2 cycles

 The electronic state is 1-A.
 Alpha  occ. eigenvalues --  -21.20619 -21.17419 -21.14344 -21.11224 -15.96691
 Alpha  occ. eigenvalues --  -15.88419 -11.62305 -11.60522  -2.01401  -1.85834
 Alpha  occ. eigenvalues --   -1.78790  -1.72802  -1.57019  -1.11178  -0.98382
 Alpha  occ. eigenvalues --   -0.80734  -0.75375  -0.72643  -0.66714  -0.62312
 Alpha  occ. eigenvalues --   -0.60610  -0.58671  -0.57422  -0.49662  -0.44256
 Alpha  occ. eigenvalues --   -0.40544  -0.38570  -0.37178  -0.35725
 Alpha virt. eigenvalues --    0.04106   0.05348   0.09319   0.09563   0.10042
 Alpha virt. eigenvalues --    0.10331   0.10885   0.10978   0.12147   0.13132
 Alpha virt. eigenvalues --    0.15308   0.15562   0.16644   0.18610   0.19893

 Mulliken charges:
               1
     1  C    5.224739
     2  C    5.949898
     3  N   -0.627275
     4  N    0.185830
     5  O   -2.678132
     6  O   -2.455042
     7  O   -2.760013
     8  O   -2.840006
 Sum of Mulliken charges =  -0.00000

 Dipole moment (field-independent basis, Debye):
    X=             -0.3118    Y=             -0.1798    Z=              0.1533  Tot=              0.3912

 Test job not archived.
 1\1\GINC-SE457\SP\RHF\Aug-CC-pVDZ\C2N2O4\OHZDE\08-Apr-2025\0\\#t hf au
 g-cc-pvdz iop(5/13=1,5/36=2,99/5=2) pseudo=read geom=check guess=(read
 ,tcheck) scf=(maxcycle=1)\\title\\0,1\C,0,1.15428,-0.435184,-0.0320254
 \C,0,-1.20736,-0.321987,-0.0034722\N,0,1.1702,0.99084,0.0458455\N,0,0.
 203177,1.72672,-0.0413047\O,0,2.24594,-0.942534,-0.113627\O,0,-1.15371
 ,1.03154,0.0228193\O,0,-2.21797,-0.917574,-0.124029\O,0,-0.0361516,-0.
 98142,0.237486\\Version=ES64L-G16RevC.01\State=1-A\HF=-485.9947205\RMS
 D=8.469e-02\Dipole=-0.1226776,-0.0707218,0.0603183\Quadrupole=-1.86992

 Normal termination of Gaussian 16 at Tue Apr  8 21:48:58 2025.
