 Gaussian 16, Revision C.01,

 ----------------------------------------------------------------------
 #t hf aug-cc-pvdz symm=none int=(grid=ultrafine) guess=(read,tcheck) s
 table=(opt,rrhf)
 ----------------------------------------------------------------------
 -----
 title
 -----
 Symbolic Z-matrix:
 Charge =  0 Multiplicity = 1

 SCF Done:  E(RHF) =  -544.886670715     A.U. after   16 cycles
 Normal termination of Gaussian 16 at Tue Apr  8 19:20:41 2025.
 Gaussian 16:  ES64L-G16RevC.01  3-Jul-2019

 ----------------------------------------------------------------------
 #t hf aug-cc-pvdz iop(5/13=1,5/36=2,99/5=2) pseudo=read geom=check gue
 ss=(read,tcheck) scf=(maxcycle=1)
 ----------------------------------------------------------------------
 -----
 title
 -----
 Structure from the checkpoint file:  "ANI1ccx_1075_conf2_mol2.chk"
 Charge =  0 Multiplicity = 1

                         Standard orientation:
 ---------------------------------------------------------------------
 Center     Atomic      Atomic             Coordinates (Angstroms)
 Number     Number       Type             X           Y           Z
 ---------------------------------------------------------------------
      1          6           0       -2.748960   -0.179124    0.018761
      2          6           0       -1.393059    0.407916   -0.040191
      3          6           0       -0.945159    1.712001   -0.026661
      4          6           0        0.470615    1.614930    0.006856
      5          6           0        0.735358    0.295294   -0.041829
      6          1           0       -3.541919    0.619202   -0.022619
      7          1           0       -1.556778    2.616561   -0.000219
      8          1           0        1.214342    2.414179    0.115653
      9          7           0        2.011870   -0.446356    0.000563
     10          8           0       -2.950021   -1.367968    0.065011
     11          8           0       -0.377607   -0.439931   -0.048331
     12          8           0        1.953719   -1.647931   -0.040203
     13          8           0        3.009970    0.251886    0.073727
 ---------------------------------------------------------------------

 SCF Done:  E(RHF) =  -547.201546634     A.U. after    2 cycles

 The electronic state is 1-A.
 Alpha  occ. eigenvalues --  -21.17658 -21.12106 -21.10942 -21.09541 -16.03125
 Alpha  occ. eigenvalues --  -11.55538 -11.53109 -11.50767 -11.48781 -11.43951
 Alpha  occ. eigenvalues --   -2.03256  -1.92905  -1.73183  -1.71781  -1.26921
 Alpha  occ. eigenvalues --   -1.19953  -1.05401  -0.91919  -0.83941  -0.81382
 Alpha  occ. eigenvalues --   -0.75612  -0.71808  -0.65827  -0.64314  -0.63290
 Alpha  occ. eigenvalues --   -0.61538  -0.57818  -0.53965  -0.49545  -0.48641
 Alpha  occ. eigenvalues --   -0.39185  -0.37509  -0.35625  -0.33604  -0.33034
 Alpha  occ. eigenvalues --   -0.32420
 Alpha virt. eigenvalues --    0.02347   0.04226   0.04752   0.06627   0.08015
 Alpha virt. eigenvalues --    0.09024   0.09886   0.10997   0.11077   0.11209
 Alpha virt. eigenvalues --    0.11605   0.12419   0.13072   0.13454   0.14454

 Mulliken charges:
               1
     1  C    0.640142
     2  C    5.315092
     3  C   -2.179739
     4  C   -2.060735
     5  C    3.738703
     6  H    1.272560
     7  H    1.376094
     8  H    1.531608
     9  N    3.257304
    10  O   -2.643337
    11  O   -4.578422
    12  O   -2.842890
    13  O   -2.826380
 Sum of Mulliken charges =  -0.00000

 Dipole moment (field-independent basis, Debye):
    X=             -1.7562    Y=              2.1983    Z=              0.0685  Tot=              2.8145

 Test job not archived.
 1\1\GINC-SE402\SP\RHF\Aug-CC-pVDZ\C5H3N1O4\OHZDE\08-Apr-2025\0\\#t hf
 aug-cc-pvdz iop(5/13=1,5/36=2,99/5=2) pseudo=read geom=check guess=(re
 ad,tcheck) scf=(maxcycle=1)\\title\\0,1\C,0,-2.74896,-0.179126,0.01876
 12\C,0,-1.39306,0.407915,-0.0401911\C,0,-0.945161,1.712,-0.0266613\C,0
 ,0.470614,1.61493,0.00685563\C,0,0.735358,0.295294,-0.0418294\H,0,-3.5
 4192,0.619199,-0.0226193\H,0,-1.55678,2.61656,-0.00021941\H,0,1.21434,
 2.41418,0.115653\N,0,2.01187,-0.446355,0.00056323\O,0,-2.95002,-1.3679
 7,0.0650112\O,0,-0.377607,-0.439931,-0.048331\O,0,1.95372,-1.64793,-0.

 Normal termination of Gaussian 16 at Tue Apr  8 19:20:46 2025.
