 Gaussian 16, Revision C.01,

 ----------------------------------------------------------------------
 #t hf aug-cc-pvdz symm=none int=(grid=ultrafine) guess=(read,tcheck) s
 table=(opt,rrhf)
 ----------------------------------------------------------------------
 -----
 title
 -----
 Symbolic Z-matrix:
 Charge =  0 Multiplicity = 1

 SCF Done:  E(RHF) =  -298.818320110     A.U. after   14 cycles
 Normal termination of Gaussian 16 at Tue Apr  8 21:38:33 2025.
 Gaussian 16:  ES64L-G16RevC.01  3-Jul-2019

 ----------------------------------------------------------------------
 #t hf aug-cc-pvdz iop(5/13=1,5/36=2,99/5=2) pseudo=read geom=check gue
 ss=(read,tcheck) scf=(maxcycle=1)
 ----------------------------------------------------------------------
 -----
 title
 -----
 Structure from the checkpoint file:  "ANI1ccx_398_conf34_mol1.chk"
 Charge =  0 Multiplicity = 1

                         Standard orientation:
 ---------------------------------------------------------------------
 Center     Atomic      Atomic             Coordinates (Angstroms)
 Number     Number       Type             X           Y           Z
 ---------------------------------------------------------------------
      1          6           0       -0.464417    0.147138   -0.058035
      2          1           0       -1.823961   -1.314519   -0.605775
      3          1           0       -2.555120   -0.005654    0.252786
      4          1           0        0.659518   -1.388789    0.753074
      5          1           0        1.643990    0.785312    0.306350
      6          7           0       -1.634590   -0.521667    0.028644
      7          7           0        0.613249   -0.756484    0.004987
      8          8           0       -0.351456    1.338561    0.012177
      9          8           0        1.852890   -0.090077   -0.086382
 ---------------------------------------------------------------------

 SCF Done:  E(RHF) =  -300.090754491     A.U. after    2 cycles

 The electronic state is 1-A.
 Alpha  occ. eigenvalues --  -21.09339 -21.04887 -15.79289 -15.78381 -11.51482
 Alpha  occ. eigenvalues --   -1.81119  -1.71363  -1.37680  -1.20651  -0.84990
 Alpha  occ. eigenvalues --   -0.74592  -0.67517  -0.66950  -0.55007  -0.53951
 Alpha  occ. eigenvalues --   -0.47957  -0.40439  -0.36318  -0.32523  -0.30805
 Alpha virt. eigenvalues --    0.03237   0.05187   0.05705   0.07068   0.11406
 Alpha virt. eigenvalues --    0.11672   0.13205   0.14559   0.16085   0.16589
 Alpha virt. eigenvalues --    0.17322   0.17766   0.19528   0.19884   0.21030

 Mulliken charges:
               1
     1  C    5.198198
     2  H    0.621616
     3  H    0.601544
     4  H    0.719401
     5  H    0.692550
     6  N   -2.563065
     7  N   -0.459916
     8  O   -2.523178
     9  O   -2.287149
 Sum of Mulliken charges =  -0.00000

 Dipole moment (field-independent basis, Debye):
    X=             -1.7891    Y=             -1.3987    Z=              0.5618  Tot=              2.3394

 Test job not archived.
 1\1\GINC-SE186\SP\RHF\Aug-CC-pVDZ\C1H4N2O2\OHZDE\08-Apr-2025\0\\#t hf
 aug-cc-pvdz iop(5/13=1,5/36=2,99/5=2) pseudo=read geom=check guess=(re
 ad,tcheck) scf=(maxcycle=1)\\title\\0,1\C,0,-0.464417,0.147137,-0.0580
 349\H,0,-1.82396,-1.31452,-0.605775\H,0,-2.55512,-0.00565591,0.252786\
 H,0,0.659519,-1.38879,0.753074\H,0,1.64399,0.785311,0.30635\N,0,-1.634
 59,-0.521668,0.0286439\N,0,0.613249,-0.756485,0.00498665\O,0,-0.351456
 ,1.33856,0.0121773\O,0,1.85289,-0.0900772,-0.0863821\\Version=ES64L-G1
 6RevC.01\State=1-A\HF=-300.0907545\RMSD=4.350e-02\Dipole=-0.7038714,-0

 Normal termination of Gaussian 16 at Tue Apr  8 21:38:36 2025.
