 Gaussian 16, Revision C.01,

 ----------------------------------------------------------------------
 #t hf aug-cc-pvdz symm=none int=(grid=ultrafine) guess=(read,tcheck) s
 table=(opt,rrhf)
 ----------------------------------------------------------------------
 -----
 title
 -----
 Symbolic Z-matrix:
 Charge =  0 Multiplicity = 1

 SCF Done:  E(RHF) =  -424.692923968     A.U. after   15 cycles
 Normal termination of Gaussian 16 at Tue Apr  8 21:45:46 2025.
 Gaussian 16:  ES64L-G16RevC.01  3-Jul-2019

 ----------------------------------------------------------------------
 #t hf aug-cc-pvdz iop(5/13=1,5/36=2,99/5=2) pseudo=read geom=check gue
 ss=(read,tcheck) scf=(maxcycle=1)
 ----------------------------------------------------------------------
 -----
 title
 -----
 Structure from the checkpoint file:  "ANI1ccx_507_conf2_mol1.chk"
 Charge =  0 Multiplicity = 1

                         Standard orientation:
 ---------------------------------------------------------------------
 Center     Atomic      Atomic             Coordinates (Angstroms)
 Number     Number       Type             X           Y           Z
 ---------------------------------------------------------------------
      1          6           0       -1.284910   -0.316844    0.140782
      2          6           0        0.128224    1.429370   -0.117476
      3          1           0       -2.871570   -0.295014   -1.156000
      4          1           0       -2.802939   -1.597263   -0.052409
      5          1           0        1.886817    2.180002    0.388873
      6          7           0       -2.585500   -0.654467   -0.221132
      7          7           0       -0.867331    0.817769   -0.593484
      8          7           0        0.911204    2.250021    0.329631
      9          7           0        2.251211   -1.721388   -0.235020
     10          7           0        2.512180   -0.651403   -0.255857
     11          8           0       -0.603068   -0.905825    0.938842
 ---------------------------------------------------------------------

 SCF Done:  E(RHF) =  -426.510517151     A.U. after    2 cycles

 The electronic state is 1-A.
 Alpha  occ. eigenvalues --  -21.04315 -15.87388 -15.86965 -15.80724 -15.78186
 Alpha  occ. eigenvalues --  -15.76954 -11.55981 -11.52069  -1.73885  -1.56286
 Alpha  occ. eigenvalues --   -1.45221  -1.36833  -1.29335  -0.90725  -0.79201
 Alpha  occ. eigenvalues --   -0.78271  -0.71642  -0.66181  -0.62067  -0.59662
 Alpha  occ. eigenvalues --   -0.58084  -0.57517  -0.57482  -0.53232  -0.50905
 Alpha  occ. eigenvalues --   -0.42203  -0.38904  -0.34135  -0.30671
 Alpha virt. eigenvalues --    0.03697   0.05235   0.06305   0.08773   0.10495
 Alpha virt. eigenvalues --    0.11288   0.11572   0.12067   0.12604   0.13589
 Alpha virt. eigenvalues --    0.13902   0.14736   0.15008   0.15811   0.15936

 Mulliken charges:
               1
     1  C    5.560612
     2  C    3.234502
     3  H    0.678348
     4  H    0.599275
     5  H    0.815728
     6  N   -2.719731
     7  N   -2.605691
     8  N   -2.894460
     9  N    0.119838
    10  N   -0.081596
    11  O   -2.706825
 Sum of Mulliken charges =  -0.00000

 Dipole moment (field-independent basis, Debye):
    X=              0.6623    Y=             -0.4204    Z=             -1.0488  Tot=              1.3097

 Test job not archived.
 1\1\GINC-SE051\SP\RHF\Aug-CC-pVDZ\C2H3N5O1\OHZDE\08-Apr-2025\0\\#t hf
 aug-cc-pvdz iop(5/13=1,5/36=2,99/5=2) pseudo=read geom=check guess=(re
 ad,tcheck) scf=(maxcycle=1)\\title\\0,1\C,0,-1.28491,-0.316842,0.14078
 2\C,0,0.128226,1.42937,-0.117476\H,0,-2.87157,-0.295011,-1.156\H,0,-2.
 80294,-1.59726,-0.0524087\H,0,1.88682,2.18,0.388873\N,0,-2.5855,-0.654
 464,-0.221132\N,0,-0.86733,0.81777,-0.593484\N,0,0.911207,2.25002,0.32
 9631\N,0,2.25121,-1.72139,-0.23502\N,0,2.51218,-0.651405,-0.255857\O,0
 ,-0.603068,-0.905824,0.938842\\Version=ES64L-G16RevC.01\State=1-A\HF=-

 Normal termination of Gaussian 16 at Tue Apr  8 21:45:50 2025.
