 Gaussian 16, Revision C.01,

 ----------------------------------------------------------------------
 #t hf aug-cc-pvdz symm=none int=(grid=ultrafine) guess=(read,tcheck) s
 table=(opt,rrhf)
 ----------------------------------------------------------------------
 -----
 title
 -----
 Symbolic Z-matrix:
 Charge =  0 Multiplicity = 1

 SCF Done:  E(RHF) =  -869.489114513     A.U. after   15 cycles
 Normal termination of Gaussian 16 at Tue Apr  8 21:33:37 2025.
 Gaussian 16:  ES64L-G16RevC.01  3-Jul-2019

 ----------------------------------------------------------------------
 #t hf aug-cc-pvdz iop(5/13=1,5/36=2,99/5=2) pseudo=read geom=check gue
 ss=(read,tcheck) scf=(maxcycle=1)
 ----------------------------------------------------------------------
 -----
 title
 -----
 Structure from the checkpoint file:  "ANI1ccx_185_conf10_mol1.chk"
 Charge =  0 Multiplicity = 1

                         Standard orientation:
 ---------------------------------------------------------------------
 Center     Atomic      Atomic             Coordinates (Angstroms)
 Number     Number       Type             X           Y           Z
 ---------------------------------------------------------------------
      1          6           0        0.079783    1.287769   -0.967255
      2          6           0       -3.685540    0.021903    1.558650
      3          6           0       -3.078620   -0.631429    0.364236
      4          6           0       -0.952068   -1.823611   -0.565834
      5          6           0       -1.611660   -1.077430    0.643491
      6          6           0       -3.191270    0.264471   -0.915157
      7          6           0        3.312160   -0.314943   -0.788314
      8          6           0        2.424020    0.427406   -0.121485
      9          6           0        1.619551    1.563179   -0.809459
     10          6           0       -0.425188    1.156599    0.498452
     11          6           0        3.559540   -0.702565    1.338000
     12          1           0       -3.609050   -1.607270    0.218381
     13          1           0        0.674594   -2.233291   -1.399360
     14          1           0       -4.788560   -0.023124    1.451570
     15          1           0       -3.380970   -0.509687    2.415050
     16          1           0       -3.462869    1.105270    1.654750
     17          1           0       -2.604459    1.204840   -0.920190
     18          1           0       -2.985810   -0.391538   -1.754570
     19          1           0       -4.231969    0.596521   -1.053150
     20          1           0       -1.660530   -1.886200    1.412010
     21          1           0        4.080220   -1.032992    2.249570
     22          1           0        4.921260   -1.457482   -0.030722
     23          1           0        3.500070   -0.517993   -1.821270
     24          1           0        2.140131    1.779869   -1.777800
     25          1           0        1.690201    2.486349   -0.258047
     26          1           0       -0.134224    0.395525   -1.505670
     27          1           0       -1.445909    2.459769   -1.648420
     28          1           0       -0.359070    3.249339   -0.702532
     29          1           0       -0.681625    0.047640    2.071480
     30          7           0       -0.450914    2.550749   -1.520090
     31          7           0        2.570680    0.182256    1.266870
     32          7           0        4.037780   -1.048422    0.167594
     33          7           0       -0.777519    0.003299    1.043580
     34          8           0       -1.590140   -2.515941   -1.358500
     35          8           0       -0.464328    2.230839    1.115600
     36          8           0        0.351233   -1.778501   -0.596941
 ---------------------------------------------------------------------

 SCF Done:  E(RHF) =  -873.493257345     A.U. after    2 cycles

 The electronic state is 1-A.
 Alpha  occ. eigenvalues --  -21.13627 -21.05138 -21.01282 -15.79811 -15.75787
 Alpha  occ. eigenvalues --  -15.71829 -15.71407 -11.55473 -11.53233 -11.49622
 Alpha  occ. eigenvalues --  -11.46941 -11.45189 -11.43896 -11.43270 -11.41455
 Alpha  occ. eigenvalues --  -11.39934 -11.38044 -11.37106  -1.85335  -1.70073
 Alpha  occ. eigenvalues --   -1.65262  -1.56485  -1.43047  -1.33411  -1.26071
 Alpha  occ. eigenvalues --   -1.23254  -1.13575  -1.06598  -1.04180  -1.01615
 Alpha  occ. eigenvalues --   -0.93713  -0.86526  -0.84549  -0.82201  -0.78526
 Alpha  occ. eigenvalues --   -0.75748  -0.74136  -0.71500  -0.68839  -0.66254
 Alpha  occ. eigenvalues --   -0.63822  -0.61908  -0.61388  -0.60782  -0.59621
 Alpha  occ. eigenvalues --   -0.57142  -0.56732  -0.56256  -0.55754  -0.54235
 Alpha  occ. eigenvalues --   -0.53591  -0.52488  -0.51561  -0.50030  -0.47915
 Alpha  occ. eigenvalues --   -0.46467  -0.46019  -0.44537  -0.43452  -0.42662
 Alpha  occ. eigenvalues --   -0.37863  -0.35831  -0.34384  -0.34159  -0.32047
 Alpha  occ. eigenvalues --   -0.30348  -0.28729  -0.27412
 Alpha virt. eigenvalues --    0.03001   0.03678   0.03959   0.05122   0.05306
 Alpha virt. eigenvalues --    0.05417   0.05792   0.06053   0.06546   0.06776
 Alpha virt. eigenvalues --    0.07352   0.07569   0.07865   0.08441   0.08693

 Mulliken charges:
               1
     1  C   -1.241267
     2  C   -4.740616
     3  C    0.153224
     4  C    8.133597
     5  C   -3.261382
     6  C   -5.406780
     7  C   -2.964916
     8  C    6.579736
     9  C   -5.205965
    10  C    9.086590
    11  C    0.327928
    12  H    1.670817
    13  H    0.888110
    14  H    1.012313
    15  H    1.341218
    16  H    1.250341
    17  H    2.119227
    18  H    1.307081
    19  H    1.058886
    20  H    2.087072
    21  H    1.885748
    22  H    0.876175
    23  H    1.269490
    24  H    1.417081
    25  H    1.266942
    26  H    2.538995
    27  H    0.730580
    28  H    0.449717
    29  H    0.571946
    30  N   -3.161701
    31  N   -4.099186
    32  N   -3.140462
    33  N   -3.328931
    34  O   -3.656283
    35  O   -4.068061
    36  O   -3.747263
 Sum of Mulliken charges =  -0.00000

 Dipole moment (field-independent basis, Debye):
    X=              2.2333    Y=             -3.3077    Z=              0.2884  Tot=              4.0015

 Test job not archived.
 1\1\GINC-SE087\SP\RHF\Aug-CC-pVDZ\C11H18N4O3\OHZDE\08-Apr-2025\0\\#t h
 f aug-cc-pvdz iop(5/13=1,5/36=2,99/5=2) pseudo=read geom=check guess=(
 read,tcheck) scf=(maxcycle=1)\\title\\0,1\C,0,0.0797819,1.28777,-0.967
 255\C,0,-3.68554,0.021903,1.55865\C,0,-3.07862,-0.631429,0.364236\C,0,
 -0.952068,-1.82361,-0.565834\C,0,-1.61166,-1.07743,0.643491\C,0,-3.191
 27,0.264471,-0.915157\C,0,3.31216,-0.314941,-0.788314\C,0,2.42402,0.42
 7407,-0.121485\C,0,1.61955,1.56318,-0.809459\C,0,-0.425189,1.1566,0.49
 8452\C,0,3.55954,-0.702563,1.338\H,0,-3.60905,-1.60727,0.218381\H,0,0.

 Normal termination of Gaussian 16 at Tue Apr  8 21:34:44 2025.
