 Gaussian 16, Revision C.01,

 ----------------------------------------------------------------------
 #t hf aug-cc-pvdz symm=none int=(grid=ultrafine) guess=(read,tcheck) s
 table=(opt,rrhf)
 ----------------------------------------------------------------------
 -----
 title
 -----
 Symbolic Z-matrix:
 Charge =  0 Multiplicity = 1

 SCF Done:  E(RHF) =  -758.518404607     A.U. after   14 cycles
 Normal termination of Gaussian 16 at Tue Apr  8 21:06:30 2025.
 Gaussian 16:  ES64L-G16RevC.01  3-Jul-2019

 ----------------------------------------------------------------------
 #t hf aug-cc-pvdz iop(5/13=1,5/36=2,99/5=2) pseudo=read geom=check gue
 ss=(read,tcheck) scf=(maxcycle=1)
 ----------------------------------------------------------------------
 -----
 title
 -----
 Structure from the checkpoint file:  "ANI1ccx_1759_conf38_mol1.chk"
 Charge =  0 Multiplicity = 1

                         Standard orientation:
 ---------------------------------------------------------------------
 Center     Atomic      Atomic             Coordinates (Angstroms)
 Number     Number       Type             X           Y           Z
 ---------------------------------------------------------------------
      1          6           0       -2.124499    0.051209   -0.621517
      2          6           0        1.640700    2.163630   -0.004081
      3          6           0        2.516650    1.117890   -0.842098
      4          6           0        2.145901   -1.060710    0.509910
      5          6           0        0.222784    1.793120   -0.600094
      6          6           0       -1.542159   -0.535801    1.845879
      7          6           0       -2.256700    0.427842    0.853740
      8          6           0       -0.696352   -0.517710   -0.921028
      9          6           0        1.724371   -0.170068   -0.702249
     10          1           0        3.495240    0.928898   -0.302274
     11          1           0        0.522746   -2.015900    0.294951
     12          1           0       -0.610880    2.005830   -0.026521
     13          1           0        0.010306    2.236690   -1.553411
     14          1           0        1.869400    1.663420    0.975915
     15          1           0        1.875020    3.238020   -0.094336
     16          1           0        2.597940    1.400310   -1.922291
     17          1           0        1.764981   -0.756211   -1.525091
     18          1           0       -1.435659   -1.562210    1.551399
     19          1           0       -2.152189   -0.486079    2.717799
     20          1           0       -1.893300    1.924990    2.112989
     21          1           0       -3.277139    0.153478    1.090849
     22          1           0       -2.311190    0.995929   -1.080341
     23          1           0       -3.861909   -1.045521   -0.507880
     24          1           0       -2.785709   -1.935581   -1.314161
     25          1           0       -0.587663   -0.023105    2.031649
     26          7           0       -3.025939   -0.970385   -1.063461
     27          7           0        0.289207    0.316542   -0.708854
     28          8           0        3.180271   -0.938158    1.073249
     29          8           0       -0.548072   -1.574510   -1.455841
     30          8           0       -1.925920    1.800120    1.114189
     31          8           0        1.312841   -2.007760    0.874171
 ---------------------------------------------------------------------

 SCF Done:  E(RHF) =  -761.971828546     A.U. after    2 cycles

 The electronic state is 1-A.
 Alpha  occ. eigenvalues --  -21.11655 -21.09395 -21.04585 -21.03872 -15.74922
 Alpha  occ. eigenvalues --  -15.73147 -11.54854 -11.53702 -11.52103 -11.47301
 Alpha  occ. eigenvalues --  -11.46131 -11.45434 -11.41585 -11.39581 -11.38773
 Alpha  occ. eigenvalues --   -1.84168  -1.75756  -1.73391  -1.65817  -1.47561
 Alpha  occ. eigenvalues --   -1.35440  -1.19916  -1.14453  -1.11870  -1.02759
 Alpha  occ. eigenvalues --   -0.94722  -0.88481  -0.87476  -0.80198  -0.76575
 Alpha  occ. eigenvalues --   -0.74360  -0.72142  -0.69579  -0.65985  -0.64663
 Alpha  occ. eigenvalues --   -0.62130  -0.61142  -0.60890  -0.58853  -0.56765
 Alpha  occ. eigenvalues --   -0.55732  -0.54320  -0.53301  -0.52393  -0.51635
 Alpha  occ. eigenvalues --   -0.49930  -0.49394  -0.48429  -0.45053  -0.44597
 Alpha  occ. eigenvalues --   -0.43204  -0.41420  -0.34620  -0.34485  -0.33381
 Alpha  occ. eigenvalues --   -0.32038  -0.29889  -0.27789
 Alpha virt. eigenvalues --    0.03308   0.04182   0.04303   0.04549   0.05244
 Alpha virt. eigenvalues --    0.05397   0.05807   0.06411   0.06745   0.06970
 Alpha virt. eigenvalues --    0.07664   0.08132   0.08509   0.09047   0.09723

 Mulliken charges:
               1
     1  C   -1.612483
     2  C   -3.142080
     3  C   -2.601604
     4  C    6.841659
     5  C   -3.771495
     6  C   -5.011740
     7  C    2.221325
     8  C    8.178391
     9  C   -3.654220
    10  H    1.330042
    11  H    1.290584
    12  H    2.791715
    13  H    1.435018
    14  H    1.341700
    15  H    1.354360
    16  H    1.256482
    17  H    2.249139
    18  H    1.573459
    19  H    0.845910
    20  H    0.797994
    21  H    1.699135
    22  H    1.709538
    23  H    0.525827
    24  H    0.581078
    25  H    1.503277
    26  N   -3.226737
    27  N   -1.442993
    28  O   -3.568539
    29  O   -4.075672
    30  O   -3.760689
    31  O   -3.658381
 Sum of Mulliken charges =   0.00000

 Dipole moment (field-independent basis, Debye):
    X=             -1.9488    Y=              2.4559    Z=              0.3976  Tot=              3.1603

 Test job not archived.
 1\1\GINC-SE328\SP\RHF\Aug-CC-pVDZ\C9H16N2O4\OHZDE\08-Apr-2025\0\\#t hf
  aug-cc-pvdz iop(5/13=1,5/36=2,99/5=2) pseudo=read geom=check guess=(r
 ead,tcheck) scf=(maxcycle=1)\\title\\0,1\C,0,-2.1245,0.0512097,-0.6215
 16\C,0,1.6407,2.16363,-0.00408093\C,0,2.51665,1.11789,-0.842097\C,0,2.
 1459,-1.06071,0.509911\C,0,0.222784,1.79312,-0.600093\C,0,-1.54216,-0.
 535801,1.84588\C,0,-2.2567,0.427842,0.853741\C,0,-0.696353,-0.51771,-0
 .921027\C,0,1.72437,-0.170068,-0.702248\H,0,3.49524,0.928898,-0.302273
 \H,0,0.522745,-2.0159,0.294952\H,0,-0.61088,2.00583,-0.0265206\H,0,0.0

 Normal termination of Gaussian 16 at Tue Apr  8 21:07:11 2025.
