 Gaussian 16, Revision C.01,

 ----------------------------------------------------------------------
 #t hf aug-cc-pvdz symm=none int=(grid=ultrafine) guess=(read,tcheck) s
 table=(opt,rrhf)
 ----------------------------------------------------------------------
 -----
 title
 -----
 Symbolic Z-matrix:
 Charge =  0 Multiplicity = 1

 SCF Done:  E(RHF) =  -428.535690399     A.U. after   15 cycles
 Normal termination of Gaussian 16 at Tue Apr  8 21:52:01 2025.
 Gaussian 16:  ES64L-G16RevC.01  3-Jul-2019

 ----------------------------------------------------------------------
 #t hf aug-cc-pvdz iop(5/13=1,5/36=2,99/5=2) pseudo=read geom=check gue
 ss=(read,tcheck) scf=(maxcycle=1)
 ----------------------------------------------------------------------
 -----
 title
 -----
 Structure from the checkpoint file:  "ANI1ccx_676_conf2_mol1.chk"
 Charge =  0 Multiplicity = 1

                         Standard orientation:
 ---------------------------------------------------------------------
 Center     Atomic      Atomic             Coordinates (Angstroms)
 Number     Number       Type             X           Y           Z
 ---------------------------------------------------------------------
      1          6           0        2.450950   -0.967599   -0.477063
      2          6           0        1.246580   -0.370511    0.172380
      3          6           0       -0.028323    1.634119   -0.007440
      4          1           0        2.614320   -1.992201   -0.125040
      5          1           0        2.293990   -0.995888   -1.515110
      6          1           0        3.317500   -0.310912   -0.319869
      7          7           0        0.971803    0.921148   -0.251720
      8          7           0       -2.120360   -0.746576   -0.443530
      9          7           0       -2.763470   -1.578920   -0.072674
     10          8           0       -0.960847    2.312309    0.099646
     11          8           0        0.603738   -0.893136    1.051380
 ---------------------------------------------------------------------

 SCF Done:  E(RHF) =  -430.342697366     A.U. after    2 cycles

 The electronic state is 1-A.
 Alpha  occ. eigenvalues --  -21.16948 -21.06129 -15.87226 -15.86972 -15.78386
 Alpha  occ. eigenvalues --  -11.62283 -11.53594 -11.40334  -1.81044  -1.73901
 Alpha  occ. eigenvalues --   -1.55236  -1.40354  -1.13317  -0.90363  -0.79220
 Alpha  occ. eigenvalues --   -0.68328  -0.66149  -0.65210  -0.63096  -0.59476
 Alpha  occ. eigenvalues --   -0.57360  -0.56743  -0.56653  -0.56068  -0.53071
 Alpha  occ. eigenvalues --   -0.47366  -0.41065  -0.34334  -0.30709
 Alpha virt. eigenvalues --    0.03420   0.05964   0.06117   0.07346   0.09710
 Alpha virt. eigenvalues --    0.10257   0.10986   0.11321   0.12179   0.12740
 Alpha virt. eigenvalues --    0.13425   0.14032   0.14446   0.14701   0.15526

 Mulliken charges:
               1
     1  C   -4.158030
     2  C    4.812643
     3  C    3.771755
     4  H    1.287060
     5  H    1.283179
     6  H    1.241052
     7  N   -2.766079
     8  N   -0.131312
     9  N    0.148661
    10  O   -2.503787
    11  O   -2.985141
 Sum of Mulliken charges =   0.00000

 Dipole moment (field-independent basis, Debye):
    X=             -0.1506    Y=              0.5420    Z=             -0.5165  Tot=              0.7637

 Test job not archived.
 1\1\GINC-SE334\SP\RHF\Aug-CC-pVDZ\C3H3N3O2\OHZDE\08-Apr-2025\0\\#t hf
 aug-cc-pvdz iop(5/13=1,5/36=2,99/5=2) pseudo=read geom=check guess=(re
 ad,tcheck) scf=(maxcycle=1)\\title\\0,1\C,0,2.45095,-0.967598,-0.47706
 3\C,0,1.24658,-0.37051,0.17238\C,0,-0.0283236,1.63412,-0.00744068\H,0,
 2.61432,-1.9922,-0.12504\H,0,2.29399,-0.995887,-1.51511\H,0,3.3175,-0.
 310911,-0.319869\N,0,0.971802,0.921149,-0.25172\N,0,-2.12036,-0.746576
 ,-0.44353\N,0,-2.76347,-1.57892,-0.072674\O,0,-0.960848,2.31231,0.0996
 454\O,0,0.603738,-0.893135,1.05138\\Version=ES64L-G16RevC.01\State=1-A

 Normal termination of Gaussian 16 at Tue Apr  8 21:52:06 2025.
