 Gaussian 16, Revision C.01,

 ----------------------------------------------------------------------
 #t hf aug-cc-pvdz symm=none int=(grid=ultrafine) guess=(read,tcheck) s
 table=(opt,rrhf)
 ----------------------------------------------------------------------
 -----
 title
 -----
 Symbolic Z-matrix:
 Charge =  0 Multiplicity = 1

 SCF Done:  E(RHF) =  -259.757651295     A.U. after   13 cycles
 Normal termination of Gaussian 16 at Tue Apr  8 21:11:17 2025.
 Gaussian 16:  ES64L-G16RevC.01  3-Jul-2019

 ----------------------------------------------------------------------
 #t hf aug-cc-pvdz iop(5/13=1,5/36=2,99/5=2) pseudo=read geom=check gue
 ss=(read,tcheck) scf=(maxcycle=1)
 ----------------------------------------------------------------------
 -----
 title
 -----
 Structure from the checkpoint file:  "ANI1ccx_1858_conf6_mol1.chk"
 Charge =  0 Multiplicity = 1

                         Standard orientation:
 ---------------------------------------------------------------------
 Center     Atomic      Atomic             Coordinates (Angstroms)
 Number     Number       Type             X           Y           Z
 ---------------------------------------------------------------------
      1          1           0        1.916951    1.156720    0.132146
      2          1           0        1.192801   -1.031030    0.777360
      3          7           0       -2.146199    0.522814    0.168739
      4          7           0       -1.748759   -0.415488   -0.263200
      5          8           0        2.131941    0.257029   -0.165436
      6          8           0        0.887429   -0.366650    0.134400
 ---------------------------------------------------------------------

 SCF Done:  E(RHF) =  -260.812574597     A.U. after    2 cycles

 The electronic state is 1-A.
 Alpha  occ. eigenvalues --  -21.12416 -21.11977 -15.86286 -15.86044  -1.94285
 Alpha  occ. eigenvalues --   -1.54986  -1.39845  -0.78114  -0.63284  -0.61297
 Alpha  occ. eigenvalues --   -0.56982  -0.56411  -0.56201  -0.47570  -0.36713
 Alpha  occ. eigenvalues --   -0.30775
 Alpha virt. eigenvalues --    0.04855   0.05821   0.11438   0.13913   0.14285
 Alpha virt. eigenvalues --    0.15121   0.15776   0.16407   0.18635   0.20701
 Alpha virt. eigenvalues --    0.21344   0.23010   0.24131   0.25639   0.27506

 Mulliken charges:
               1
     1  H    0.971363
     2  H    0.989140
     3  N   -0.126967
     4  N    0.112760
     5  O   -0.818047
     6  O   -1.128250
 Sum of Mulliken charges =  -0.00000

 Dipole moment (field-independent basis, Debye):
    X=              0.3027    Y=              0.1645    Z=              0.7565  Tot=              0.8313

 Test job not archived.
 1\1\GINC-SE329\SP\RHF\Aug-CC-pVDZ\H2N2O2\OHZDE\08-Apr-2025\0\\#t hf au
 g-cc-pvdz iop(5/13=1,5/36=2,99/5=2) pseudo=read geom=check guess=(read
 ,tcheck) scf=(maxcycle=1)\\title\\0,1\H,0,1.91695,1.15672,0.132146\H,0
 ,1.1928,-1.03103,0.77736\N,0,-2.1462,0.522814,0.168739\N,0,-1.74876,-0
 .415488,-0.2632\O,0,2.13194,0.257029,-0.165436\O,0,0.887428,-0.36665,0
 .1344\\Version=ES64L-G16RevC.01\State=1-A\HF=-260.8125746\RMSD=9.709e-
 02\Dipole=0.1191056,0.0647327,0.2976467\Quadrupole=-1.3172812,1.702255
 5,-0.3849743,0.786728,1.0355004,-0.9573815\PG=C01 [X(H2N2O2)]\\@

 Normal termination of Gaussian 16 at Tue Apr  8 21:11:19 2025.
