 Gaussian 16, Revision C.01,

 ----------------------------------------------------------------------
 #t hf aug-cc-pvdz symm=none int=(grid=ultrafine) guess=(read,tcheck) s
 table=(opt,rrhf)
 ----------------------------------------------------------------------
 -----
 title
 -----
 Symbolic Z-matrix:
 Charge =  0 Multiplicity = 1

 SCF Done:  E(RHF) =  -743.675769739     A.U. after   14 cycles
 Normal termination of Gaussian 16 at Tue Apr  8 22:12:36 2025.
 Gaussian 16:  ES64L-G16RevC.01  3-Jul-2019

 ----------------------------------------------------------------------
 #t hf aug-cc-pvdz iop(5/13=1,5/36=2,99/5=2) pseudo=read geom=check gue
 ss=(read,tcheck) scf=(maxcycle=1)
 ----------------------------------------------------------------------
 -----
 title
 -----
 Structure from the checkpoint file:  "ANI1ccx_77_conf1_mol2.chk"
 Charge =  0 Multiplicity = 1

                         Standard orientation:
 ---------------------------------------------------------------------
 Center     Atomic      Atomic             Coordinates (Angstroms)
 Number     Number       Type             X           Y           Z
 ---------------------------------------------------------------------
      1          6           0        3.530350    1.410080   -0.322399
      2          6           0        0.009582   -1.994270   -0.083620
      3          6           0       -2.293370   -1.836990    0.430518
      4          6           0       -2.849320   -1.176640   -0.851744
      5          6           0       -2.889330    1.055840   -0.015895
      6          6           0        1.414850   -1.699400    0.468112
      7          6           0        0.180637    1.413260   -0.111843
      8          6           0        1.095480    0.724469    0.943643
      9          6           0        3.091160   -0.025633   -0.264041
     10          6           0       -2.038180    2.332010   -0.042790
     11          1           0       -2.416180   -1.723840   -1.744540
     12          1           0        1.352570   -2.052890    1.518050
     13          1           0        2.159930   -2.271490   -0.089700
     14          1           0       -0.036798   -3.106050   -0.220048
     15          1           0       -0.072179   -1.511310   -1.075750
     16          1           0       -2.400660   -2.906680    0.295941
     17          1           0       -2.864250   -1.545490    1.330120
     18          1           0       -3.928050   -1.289900   -0.838341
     19          1           0       -2.718420    0.595645    0.975719
     20          1           0       -0.307330    0.725295   -0.766451
     21          1           0       -2.046900    2.683700   -1.082600
     22          1           0       -2.612330    3.072240    0.519417
     23          1           0        0.821860    2.054770   -0.730084
     24          1           0        0.447443    0.357446    1.702830
     25          1           0        1.683110    1.515430    1.426790
     26          1           0        3.628490    1.818130    0.710515
     27          1           0        2.887300    2.084700   -0.858296
     28          1           0        4.560830    1.431850   -0.773075
     29          1           0       -3.936860    1.332710   -0.163526
     30          7           0        1.876870   -0.330741    0.370299
     31          8           0       -2.423930    0.183406   -1.000850
     32          8           0        3.748440   -0.888652   -0.852820
     33          8           0       -0.731901    2.255040    0.583490
     34          8           0       -0.948962   -1.570470    0.816594
 ---------------------------------------------------------------------

 SCF Done:  E(RHF) =  -747.096790054     A.U. after    2 cycles

 The electronic state is 1-A.
 Alpha  occ. eigenvalues --  -21.05602 -21.05354 -21.04297 -21.01153 -15.73686
 Alpha  occ. eigenvalues --  -11.50538 -11.48477 -11.47470 -11.46734 -11.46544
 Alpha  occ. eigenvalues --  -11.41340 -11.39980 -11.39597 -11.39075 -11.38147
 Alpha  occ. eigenvalues --   -1.79268  -1.76277  -1.72558  -1.68725  -1.42493
 Alpha  occ. eigenvalues --   -1.15588  -1.12133  -1.10024  -1.07403  -1.00530
 Alpha  occ. eigenvalues --   -0.92802  -0.88719  -0.85803  -0.83073  -0.74686
 Alpha  occ. eigenvalues --   -0.69363  -0.68875  -0.68426  -0.66201  -0.64699
 Alpha  occ. eigenvalues --   -0.63110  -0.62031  -0.59873  -0.59431  -0.58569
 Alpha  occ. eigenvalues --   -0.57550  -0.56399  -0.54228  -0.53069  -0.51482
 Alpha  occ. eigenvalues --   -0.50696  -0.49261  -0.47500  -0.46819  -0.44787
 Alpha  occ. eigenvalues --   -0.43448  -0.40387  -0.39249  -0.37210  -0.32671
 Alpha  occ. eigenvalues --   -0.30505  -0.29030  -0.27607  -0.26901
 Alpha virt. eigenvalues --    0.03860   0.04097   0.04358   0.04638   0.04861
 Alpha virt. eigenvalues --    0.05169   0.05412   0.06108   0.06588   0.06820
 Alpha virt. eigenvalues --    0.06996   0.07464   0.08129   0.08722   0.09070

 Mulliken charges:
               1
     1  C   -4.724469
     2  C   -1.187432
     3  C   -1.610269
     4  C   -1.677549
     5  C   -1.579140
     6  C   -3.035098
     7  C   -1.569198
     8  C   -2.982837
     9  C    5.370416
    10  C   -2.056794
    11  H    1.424065
    12  H    1.594676
    13  H    1.649750
    14  H    1.465518
    15  H    2.327712
    16  H    1.556435
    17  H    1.506378
    18  H    1.583146
    19  H    2.236730
    20  H    2.986229
    21  H    1.731825
    22  H    1.233871
    23  H    1.497634
    24  H    2.023089
    25  H    1.507523
    26  H    1.308110
    27  H    1.427728
    28  H    1.044641
    29  H    1.542083
    30  N   -3.054131
    31  O   -3.278157
    32  O   -3.363986
    33  O   -3.614972
    34  O   -3.283528
 Sum of Mulliken charges =  -0.00000

 Dipole moment (field-independent basis, Debye):
    X=             -2.7125    Y=              0.3230    Z=              0.8087  Tot=              2.8489

 Test job not archived.
 1\1\GINC-SE393\SP\RHF\Aug-CC-pVDZ\C10H19N1O4\OHZDE\08-Apr-2025\0\\#t h
 f aug-cc-pvdz iop(5/13=1,5/36=2,99/5=2) pseudo=read geom=check guess=(
 read,tcheck) scf=(maxcycle=1)\\title\\0,1\C,0,3.53035,1.41008,-0.32239
 9\C,0,0.00958162,-1.99427,-0.0836198\C,0,-2.29337,-1.83699,0.430518\C,
 0,-2.84932,-1.17664,-0.851744\C,0,-2.88933,1.05584,-0.0158945\C,0,1.41
 485,-1.6994,0.468112\C,0,0.180637,1.41326,-0.111843\C,0,1.09548,0.7244
 69,0.943643\C,0,3.09116,-0.0256329,-0.264041\C,0,-2.03818,2.33201,-0.0
 427894\H,0,-2.41618,-1.72384,-1.74454\H,0,1.35257,-2.05289,1.51805\H,0

 Normal termination of Gaussian 16 at Tue Apr  8 22:13:22 2025.
