 Gaussian 16, Revision C.01,

 ----------------------------------------------------------------------
 #t hf aug-cc-pvdz symm=none int=(grid=ultrafine) guess=(read,tcheck) s
 table=(opt,rrhf)
 ----------------------------------------------------------------------
 -----
 title
 -----
 Symbolic Z-matrix:
 Charge =  0 Multiplicity = 1

 SCF Done:  E(RHF) =  -380.227590261     A.U. after   11 cycles
 Normal termination of Gaussian 16 at Tue Apr  8 21:05:27 2025.
 Gaussian 16:  ES64L-G16RevC.01  3-Jul-2019

 ----------------------------------------------------------------------
 #t hf aug-cc-pvdz iop(5/13=1,5/36=2,99/5=2) pseudo=read geom=check gue
 ss=(read,tcheck) scf=(maxcycle=1)
 ----------------------------------------------------------------------
 -----
 title
 -----
 Structure from the checkpoint file:  "ANI1ccx_1843_conf20_mol1.chk"
 Charge =  0 Multiplicity = 1

                         Standard orientation:
 ---------------------------------------------------------------------
 Center     Atomic      Atomic             Coordinates (Angstroms)
 Number     Number       Type             X           Y           Z
 ---------------------------------------------------------------------
      1          1           0       -1.806700    0.135620   -0.471293
      2          1           0       -2.141331    0.415280   -1.971210
      3          1           0       -0.755355   -0.875757    0.959760
      4          1           0       -1.668910   -0.485482    2.185670
      5          1           0       -0.239427   -1.371389   -0.945151
      6          1           0        1.060151   -1.290408   -0.110527
      7          1           0        1.716949    0.634258    0.141393
      8          1           0        2.850200    0.122305   -0.818392
      9          1           0       -0.155685    1.232111    0.924905
     10          1           0       -0.107955    1.542461   -0.565274
     11          8           0       -1.409830    0.252312   -1.349470
     12          8           0       -1.342650   -0.149026    1.327030
     13          8           0        0.161926   -1.718889   -0.136471
     14          8           0        2.360150   -0.118864   -0.011137
     15          8           0        0.386412    1.727092    0.253813
 ---------------------------------------------------------------------

 SCF Done:  E(RHF) =  -381.873490745     A.U. after    2 cycles

 The electronic state is 1-A.
 Alpha  occ. eigenvalues --  -21.11048 -21.09086 -21.07341 -21.07302 -21.07015
 Alpha  occ. eigenvalues --   -1.70080  -1.67394  -1.66207  -1.65589  -1.62491
 Alpha  occ. eigenvalues --   -0.68796  -0.64836  -0.63984  -0.62079  -0.61930
 Alpha  occ. eigenvalues --   -0.52933  -0.50210  -0.47800  -0.46786  -0.42274
 Alpha  occ. eigenvalues --   -0.37082  -0.36376  -0.33762  -0.33394  -0.32533
 Alpha virt. eigenvalues --    0.03477   0.04345   0.05359   0.07080   0.07250
 Alpha virt. eigenvalues --    0.08068   0.08646   0.08816   0.09224   0.11523
 Alpha virt. eigenvalues --    0.17476   0.19635   0.20631   0.20764   0.22350

 Mulliken charges:
               1
     1  H    1.265165
     2  H    0.962697
     3  H    1.459136
     4  H    0.994395
     5  H    1.119648
     6  H    1.352454
     7  H    1.462190
     8  H    0.817688
     9  H    1.302036
    10  H    1.222597
    11  O   -2.146165
    12  O   -2.433737
    13  O   -2.590948
    14  O   -2.171151
    15  O   -2.616005
 Sum of Mulliken charges =   0.00000

 Dipole moment (field-independent basis, Debye):
    X=             -1.5804    Y=              0.1239    Z=             -0.7574  Tot=              1.7569

 Test job not archived.
 1\1\GINC-SE163\SP\RHF\Aug-CC-pVDZ\H10O5\OHZDE\08-Apr-2025\0\\#t hf aug
 -cc-pvdz iop(5/13=1,5/36=2,99/5=2) pseudo=read geom=check guess=(read,
 tcheck) scf=(maxcycle=1)\\title\\0,1\H,0,-1.8067,0.13562,-0.471293\H,0
 ,-2.14133,0.41528,-1.97121\H,0,-0.755355,-0.875758,0.95976\H,0,-1.6689
 1,-0.485482,2.18567\H,0,-0.239428,-1.37139,-0.945151\H,0,1.06015,-1.29
 041,-0.110527\H,0,1.71695,0.634255,0.141393\H,0,2.8502,0.122302,-0.818
 392\H,0,-0.155684,1.23211,0.924905\H,0,-0.107954,1.54246,-0.565274\O,0
 ,-1.40983,0.252312,-1.34947\O,0,-1.34265,-0.149026,1.32703\O,0,0.16192

 Normal termination of Gaussian 16 at Tue Apr  8 21:05:31 2025.
