 Gaussian 16, Revision C.01,

 ----------------------------------------------------------------------
 #t hf aug-cc-pvdz symm=none int=(grid=ultrafine) guess=(read,tcheck) s
 table=(opt,rrhf)
 ----------------------------------------------------------------------
 -----
 title
 -----
 Symbolic Z-matrix:
 Charge =  0 Multiplicity = 1

 SCF Done:  E(RHF) =  -509.536197143     A.U. after   14 cycles
 Normal termination of Gaussian 16 at Tue Apr  8 22:13:59 2025.
 Gaussian 16:  ES64L-G16RevC.01  3-Jul-2019

 ----------------------------------------------------------------------
 #t hf aug-cc-pvdz iop(5/13=1,5/36=2,99/5=2) pseudo=read geom=check gue
 ss=(read,tcheck) scf=(maxcycle=1)
 ----------------------------------------------------------------------
 -----
 title
 -----
 Structure from the checkpoint file:  "ANI1ccx_939_conf43_mol1.chk"
 Charge =  0 Multiplicity = 1

                         Standard orientation:
 ---------------------------------------------------------------------
 Center     Atomic      Atomic             Coordinates (Angstroms)
 Number     Number       Type             X           Y           Z
 ---------------------------------------------------------------------
      1          6           0       -0.958298    0.561644   -0.723775
      2          6           0       -1.165751   -0.598326    0.196727
      3          6           0        0.478505    0.506042   -1.131290
      4          6           0        1.455489   -0.001764   -0.089173
      5          1           0       -1.664010    1.801311    0.693299
      6          1           0       -0.310632    2.273770    0.173283
      7          1           0       -1.531551    0.319068   -1.600180
      8          1           0        0.549349   -0.102390   -2.014860
      9          1           0        0.791780    1.474380   -1.293640
     10          1           0        2.030439    0.400782    1.696040
     11          1           0       -1.087402   -2.514199    0.016008
     12          7           0       -1.185440    1.906311   -0.121695
     13          8           0       -1.338831   -0.586823    1.417320
     14          8           0        2.269829   -0.925114   -0.175486
     15          8           0        1.452319    0.767778    0.997857
     16          8           0       -1.050762   -1.731149   -0.531317
 ---------------------------------------------------------------------

 SCF Done:  E(RHF) =  -511.728201945     A.U. after    2 cycles

 The electronic state is 1-A.
 Alpha  occ. eigenvalues --  -21.13982 -21.13099 -21.06893 -21.05844 -15.75335
 Alpha  occ. eigenvalues --  -11.55652 -11.54494 -11.49683 -11.42046  -1.84802
 Alpha  occ. eigenvalues --   -1.83671  -1.66486  -1.64706  -1.38714  -1.17773
 Alpha  occ. eigenvalues --   -1.02223  -0.85649  -0.78494  -0.71344  -0.69705
 Alpha  occ. eigenvalues --   -0.66453  -0.62366  -0.59926  -0.59412  -0.58225
 Alpha  occ. eigenvalues --   -0.53036  -0.52251  -0.50830  -0.45707  -0.45365
 Alpha  occ. eigenvalues --   -0.37876  -0.36894  -0.32857  -0.31093  -0.30015
 Alpha virt. eigenvalues --    0.03715   0.04551   0.05495   0.05832   0.06190
 Alpha virt. eigenvalues --    0.06722   0.07700   0.09898   0.10164   0.11746
 Alpha virt. eigenvalues --    0.12260   0.12744   0.13435   0.14544   0.14570

 Mulliken charges:
               1
     1  C   -1.619632
     2  C    7.212457
     3  C   -3.751483
     4  C    6.600268
     5  H    0.603211
     6  H    0.540731
     7  H    1.705256
     8  H    1.179311
     9  H    1.551012
    10  H    0.870604
    11  H    0.819916
    12  N   -2.752899
    13  O   -3.260027
    14  O   -3.258623
    15  O   -3.193842
    16  O   -3.246260
 Sum of Mulliken charges =   0.00000

 Dipole moment (field-independent basis, Debye):
    X=              0.0044    Y=             -0.0287    Z=              0.1934  Tot=              0.1956

 Test job not archived.
 1\1\GINC-SE424\SP\RHF\Aug-CC-pVDZ\C4H7N1O4\OHZDE\08-Apr-2025\0\\#t hf
 aug-cc-pvdz iop(5/13=1,5/36=2,99/5=2) pseudo=read geom=check guess=(re
 ad,tcheck) scf=(maxcycle=1)\\title\\0,1\C,0,-0.958297,0.561644,-0.7237
 75\C,0,-1.16575,-0.598327,0.196727\C,0,0.478506,0.506042,-1.13129\C,0,
 1.45549,-0.00176403,-0.0891726\H,0,-1.66401,1.80131,0.693299\H,0,-0.31
 0632,2.27377,0.173283\H,0,-1.53155,0.319067,-1.60018\H,0,0.54935,-0.10
 239,-2.01486\H,0,0.791781,1.47438,-1.29364\H,0,2.03044,0.400782,1.6960
 4\H,0,-1.0874,-2.5142,0.0160086\N,0,-1.18544,1.90631,-0.121695\O,0,-1.

 Normal termination of Gaussian 16 at Tue Apr  8 22:14:05 2025.
