 Gaussian 16, Revision C.01,

 ----------------------------------------------------------------------
 #t hf aug-cc-pvdz symm=none int=(grid=ultrafine) guess=(read,tcheck) s
 table=(opt,rrhf)
 ----------------------------------------------------------------------
 -----
 title
 -----
 Symbolic Z-matrix:
 Charge =  0 Multiplicity = 1

 SCF Done:  E(RHF) =  -406.486841642     A.U. after   16 cycles
 Normal termination of Gaussian 16 at Tue Apr  8 21:36:37 2025.
 Gaussian 16:  ES64L-G16RevC.01  3-Jul-2019

 ----------------------------------------------------------------------
 #t hf aug-cc-pvdz iop(5/13=1,5/36=2,99/5=2) pseudo=read geom=check gue
 ss=(read,tcheck) scf=(maxcycle=1)
 ----------------------------------------------------------------------
 -----
 title
 -----
 Structure from the checkpoint file:  "ANI1ccx_379_conf2_mol1.chk"
 Charge =  0 Multiplicity = 1

                         Standard orientation:
 ---------------------------------------------------------------------
 Center     Atomic      Atomic             Coordinates (Angstroms)
 Number     Number       Type             X           Y           Z
 ---------------------------------------------------------------------
      1          6           0       -0.083004    0.806622    0.040859
      2          1           0       -2.206740   -0.428299   -0.735687
      3          1           0       -2.167620   -1.040748    0.919040
      4          7           0       -1.701770   -1.021898   -0.068776
      5          7           0       -0.423003   -0.514540    0.045582
      6          7           0        0.679911   -1.304752   -0.020151
      7          7           0        1.683180   -0.546189   -0.001426
      8          8           0        1.242762    0.796221   -0.016760
      9          8           0       -0.842243    1.746400    0.002371
 ---------------------------------------------------------------------

 SCF Done:  E(RHF) =  -408.192494654     A.U. after    2 cycles

 The electronic state is 1-A.
 Alpha  occ. eigenvalues --  -21.16873 -21.06911 -15.88214 -15.87508 -15.85160
 Alpha  occ. eigenvalues --  -15.82093 -11.56599  -2.00023  -1.72701  -1.64459
 Alpha  occ. eigenvalues --   -1.44831  -1.22336  -0.96537  -0.87387  -0.77518
 Alpha  occ. eigenvalues --   -0.73966  -0.67998  -0.61601  -0.58347  -0.53395
 Alpha  occ. eigenvalues --   -0.51209  -0.47945  -0.45746  -0.42784  -0.32927
 Alpha  occ. eigenvalues --   -0.31370
 Alpha virt. eigenvalues --    0.03471   0.05454   0.09141   0.11100   0.11302
 Alpha virt. eigenvalues --    0.11755   0.12183   0.12520   0.13057   0.15475
 Alpha virt. eigenvalues --    0.16640   0.17077   0.17850   0.19129   0.19605

 Mulliken charges:
               1
     1  C    5.334625
     2  H    0.660250
     3  H    0.624716
     4  N   -1.798644
     5  N   -0.028908
     6  N    0.407638
     7  N    0.223085
     8  O   -2.595484
     9  O   -2.827278
 Sum of Mulliken charges =   0.00000

 Dipole moment (field-independent basis, Debye):
    X=             -1.9473    Y=             -0.7123    Z=              0.3028  Tot=              2.0955

 Test job not archived.
 1\1\GINC-SE094\SP\RHF\Aug-CC-pVDZ\C1H2N4O2\OHZDE\08-Apr-2025\0\\#t hf
 aug-cc-pvdz iop(5/13=1,5/36=2,99/5=2) pseudo=read geom=check guess=(re
 ad,tcheck) scf=(maxcycle=1)\\title\\0,1\C,0,-0.0830062,0.806623,0.0408
 586\H,0,-2.20674,-0.428301,-0.735687\H,0,-2.16762,-1.04075,0.91904\N,0
 ,-1.70177,-1.0219,-0.068776\N,0,-0.423003,-0.51454,0.0455821\N,0,0.679
 912,-1.30475,-0.0201505\N,0,1.68318,-0.546186,-0.00142577\O,0,1.24276,
 0.796223,-0.0167598\O,0,-0.842246,1.7464,0.00237067\\Version=ES64L-G16
 RevC.01\State=1-A\HF=-408.1924947\RMSD=9.449e-02\Dipole=-0.7661136,-0.

 Normal termination of Gaussian 16 at Tue Apr  8 21:36:40 2025.
