 Gaussian 16, Revision C.01,

 ----------------------------------------------------------------------
 #t hf aug-cc-pvdz symm=none int=(grid=ultrafine) guess=(read,tcheck) s
 table=(opt,rrhf)
 ----------------------------------------------------------------------
 -----
 title
 -----
 Symbolic Z-matrix:
 Charge =  0 Multiplicity = 1

 SCF Done:  E(RHF) =  -456.247628254     A.U. after   12 cycles
 Normal termination of Gaussian 16 at Tue Apr  8 21:08:45 2025.
 Gaussian 16:  ES64L-G16RevC.01  3-Jul-2019

 ----------------------------------------------------------------------
 #t hf aug-cc-pvdz iop(5/13=1,5/36=2,99/5=2) pseudo=read geom=check gue
 ss=(read,tcheck) scf=(maxcycle=1)
 ----------------------------------------------------------------------
 -----
 title
 -----
 Structure from the checkpoint file:  "ANI1ccx_1844_conf254_mol1.chk"
 Charge =  0 Multiplicity = 1

                         Standard orientation:
 ---------------------------------------------------------------------
 Center     Atomic      Atomic             Coordinates (Angstroms)
 Number     Number       Type             X           Y           Z
 ---------------------------------------------------------------------
      1          1           0       -0.632175   -1.862750    1.636100
      2          1           0       -2.413950    0.383120   -0.189257
      3          1           0       -2.986498   -0.933798   -0.858096
      4          1           0        1.497348    1.528723    0.438797
      5          1           0        0.603894    2.328602    1.474620
      6          1           0       -0.726113    1.796909   -0.154245
      7          1           0       -1.423627   -1.490042    0.417359
      8          1           0       -1.994404    2.526067   -0.787207
      9          1           0        2.292345   -2.341105   -0.235634
     10          1           0        0.752235   -1.920938   -0.282685
     11          1           0        2.306791   -0.386944   -0.289365
     12          1           0        3.097869    0.848743   -0.699620
     13          8           0        0.753810    2.208102    0.519504
     14          8           0        1.557654   -1.783296   -0.818161
     15          8           0       -2.810388   -0.482208    0.046652
     16          8           0       -1.591302    1.620988   -0.663457
     17          8           0       -0.711138   -2.056890    0.730179
     18          8           0        2.754650    0.433732    0.126436
 ---------------------------------------------------------------------

 SCF Done:  E(RHF) =  -458.243580576     A.U. after    2 cycles

 The electronic state is 1-A.
 Alpha  occ. eigenvalues --  -21.08907 -21.08836 -21.08592 -21.08398 -21.07530
 Alpha  occ. eigenvalues --  -21.05997  -1.69144  -1.67867  -1.67034  -1.64420
 Alpha  occ. eigenvalues --   -1.62940  -1.61348  -0.65352  -0.64997  -0.63812
 Alpha  occ. eigenvalues --   -0.63384  -0.63120  -0.60743  -0.52537  -0.50730
 Alpha  occ. eigenvalues --   -0.50242  -0.45399  -0.44678  -0.40799  -0.35387
 Alpha  occ. eigenvalues --   -0.35230  -0.34864  -0.33802  -0.33712  -0.32822
 Alpha virt. eigenvalues --    0.03732   0.04742   0.05318   0.05378   0.06405
 Alpha virt. eigenvalues --    0.06759   0.08642   0.08915   0.09568   0.10082
 Alpha virt. eigenvalues --    0.10986   0.11323   0.18218   0.18986   0.19213

 Mulliken charges:
               1
     1  H    0.906787
     2  H    1.794727
     3  H    0.683769
     4  H    1.546539
     5  H    0.805401
     6  H    1.636750
     7  H    1.605698
     8  H    0.814803
     9  H    0.632336
    10  H    1.519515
    11  H    1.541937
    12  H    0.723304
    13  O   -2.447298
    14  O   -2.181923
    15  O   -2.179589
    16  O   -2.585045
    17  O   -2.598444
    18  O   -2.219267
 Sum of Mulliken charges =  -0.00000

 Dipole moment (field-independent basis, Debye):
    X=              0.4855    Y=              0.7900    Z=              0.4337  Tot=              1.0237

 Test job not archived.
 1\1\GINC-SE044\SP\RHF\Aug-CC-pVDZ\H12O6\OHZDE\08-Apr-2025\0\\#t hf aug
 -cc-pvdz iop(5/13=1,5/36=2,99/5=2) pseudo=read geom=check guess=(read,
 tcheck) scf=(maxcycle=1)\\title\\0,1\H,0,-0.632179,-1.86275,1.6361\H,0
 ,-2.41395,0.383123,-0.189257\H,0,-2.9865,-0.933794,-0.858096\H,0,1.497
 35,1.52872,0.438797\H,0,0.603897,2.3286,1.47462\H,0,-0.726111,1.79691,
 -0.154245\H,0,-1.42363,-1.49004,0.417359\H,0,-1.9944,2.52607,-0.787207
 \H,0,2.29234,-2.34111,-0.235634\H,0,0.752231,-1.92094,-0.282685\H,0,2.
 30679,-0.386949,-0.289365\H,0,3.09787,0.848737,-0.69962\O,0,0.753813,2

 Normal termination of Gaussian 16 at Tue Apr  8 21:08:50 2025.
