 Gaussian 16, Revision C.01,

 ----------------------------------------------------------------------
 #t hf aug-cc-pvdz symm=none int=(grid=ultrafine) guess=(read,tcheck) s
 table=(opt,rrhf)
 ----------------------------------------------------------------------
 -----
 title
 -----
 Symbolic Z-matrix:
 Charge =  0 Multiplicity = 1

 SCF Done:  E(RHF) =  -490.346043838     A.U. after   13 cycles
 Normal termination of Gaussian 16 at Tue Apr  8 21:53:02 2025.
 Gaussian 16:  ES64L-G16RevC.01  3-Jul-2019

 ----------------------------------------------------------------------
 #t hf aug-cc-pvdz iop(5/13=1,5/36=2,99/5=2) pseudo=read geom=check gue
 ss=(read,tcheck) scf=(maxcycle=1)
 ----------------------------------------------------------------------
 -----
 title
 -----
 Structure from the checkpoint file:  "ANI1ccx_703_conf2_mol1.chk"
 Charge =  0 Multiplicity = 1

                         Standard orientation:
 ---------------------------------------------------------------------
 Center     Atomic      Atomic             Coordinates (Angstroms)
 Number     Number       Type             X           Y           Z
 ---------------------------------------------------------------------
      1          6           0        0.004011   -0.443976    0.586764
      2          6           0        1.122520    0.383372    0.006385
      3          6           0       -1.271380    0.090085   -0.028337
      4          1           0       -0.552755   -1.974480   -0.278844
      5          1           0       -0.008684   -0.358096    1.664520
      6          1           0        1.917100   -1.234210   -0.464390
      7          1           0       -0.563207    1.756440    0.202574
      8          8           0        0.237600   -1.791750    0.224489
      9          8           0        2.179870   -0.314250   -0.408580
     10          8           0        1.165590    1.571610    0.032010
     11          8           0       -1.476040    1.408250    0.015706
     12          8           0       -2.097440   -0.669678   -0.427717
 ---------------------------------------------------------------------

 SCF Done:  E(RHF) =  -492.357892735     A.U. after    2 cycles

 The electronic state is 1-A.
 Alpha  occ. eigenvalues --  -21.15002 -21.13670 -21.13234 -21.09692 -21.08714
 Alpha  occ. eigenvalues --  -11.58093 -11.56689 -11.49606  -1.90959  -1.84324
 Alpha  occ. eigenvalues --   -1.78019  -1.70674  -1.68867  -1.15542  -0.88384
 Alpha  occ. eigenvalues --   -0.82022  -0.78226  -0.75340  -0.66611  -0.59114
 Alpha  occ. eigenvalues --   -0.58136  -0.57596  -0.56157  -0.53957  -0.49565
 Alpha  occ. eigenvalues --   -0.45206  -0.41402  -0.37496  -0.35842  -0.33900
 Alpha  occ. eigenvalues --   -0.32383
 Alpha virt. eigenvalues --    0.03067   0.05146   0.06555   0.07393   0.08832
 Alpha virt. eigenvalues --    0.09509   0.10087   0.10355   0.11055   0.11349
 Alpha virt. eigenvalues --    0.13492   0.14209   0.14668   0.15386   0.16633

 Mulliken charges:
               1
     1  C   -0.276968
     2  C    5.900207
     3  C    5.649322
     4  H    0.633065
     5  H    1.481873
     6  H    0.934596
     7  H    1.210980
     8  O   -2.919458
     9  O   -3.096706
    10  O   -3.258027
    11  O   -3.186351
    12  O   -3.072532
 Sum of Mulliken charges =  -0.00000

 Dipole moment (field-independent basis, Debye):
    X=              0.9537    Y=             -1.0401    Z=              0.7205  Tot=              1.5844

 Test job not archived.
 1\1\GINC-SE331\SP\RHF\Aug-CC-pVDZ\C3H4O5\OHZDE\08-Apr-2025\0\\#t hf au
 g-cc-pvdz iop(5/13=1,5/36=2,99/5=2) pseudo=read geom=check guess=(read
 ,tcheck) scf=(maxcycle=1)\\title\\0,1\C,0,0.00401155,-0.443976,0.58676
 4\C,0,1.12252,0.383372,0.00638463\C,0,-1.27138,0.0900852,-0.0283371\H,
 0,-0.552754,-1.97448,-0.278844\H,0,-0.00868347,-0.358096,1.66452\H,0,1
 .9171,-1.23421,-0.46439\H,0,-0.563207,1.75644,0.202574\O,0,0.237601,-1
 .79175,0.224489\O,0,2.17987,-0.31425,-0.40858\O,0,1.16559,1.57161,0.03
 201\O,0,-1.47604,1.40825,0.0157062\O,0,-2.09744,-0.669678,-0.427717\\V

 Normal termination of Gaussian 16 at Tue Apr  8 21:53:07 2025.
