 Gaussian 16, Revision C.01,

 ----------------------------------------------------------------------
 #t hf aug-cc-pvdz symm=none int=(grid=ultrafine) guess=(read,tcheck) s
 table=(opt,rrhf)
 ----------------------------------------------------------------------
 -----
 title
 -----
 Symbolic Z-matrix:
 Charge =  0 Multiplicity = 1

 SCF Done:  E(RHF) =  -370.772534740     A.U. after   14 cycles
 Normal termination of Gaussian 16 at Tue Apr  8 21:45:56 2025.
 Gaussian 16:  ES64L-G16RevC.01  3-Jul-2019

 ----------------------------------------------------------------------
 #t hf aug-cc-pvdz iop(5/13=1,5/36=2,99/5=2) pseudo=read geom=check gue
 ss=(read,tcheck) scf=(maxcycle=1)
 ----------------------------------------------------------------------
 -----
 title
 -----
 Structure from the checkpoint file:  "ANI1ccx_520_conf1_mol2.chk"
 Charge =  0 Multiplicity = 1

                         Standard orientation:
 ---------------------------------------------------------------------
 Center     Atomic      Atomic             Coordinates (Angstroms)
 Number     Number       Type             X           Y           Z
 ---------------------------------------------------------------------
      1          6           0        1.143320   -0.196706   -0.025596
      2          6           0       -1.187140   -0.188430    0.028782
      3          1           0        2.945010    0.184607   -0.056936
      4          1           0        1.115489    1.726230    0.622240
      5          1           0       -1.156071    1.708509   -0.599261
      6          1           0       -0.037957   -1.987000   -0.080554
      7          7           0        2.346050   -0.623187    0.017577
      8          7           0        0.703858    1.130880   -0.109473
      9          7           0       -0.707380    1.132589    0.097928
     10          7           0       -0.032555   -0.965751    0.001156
     11          8           0       -2.346670   -0.505406    0.005635
 ---------------------------------------------------------------------

 SCF Done:  E(RHF) =  -372.384506601     A.U. after    2 cycles

 The electronic state is 1-A.
 Alpha  occ. eigenvalues --  -21.05917 -15.80705 -15.80626 -15.79959 -15.73747
 Alpha  occ. eigenvalues --  -11.53718 -11.50715  -1.75648  -1.62336  -1.39247
 Alpha  occ. eigenvalues --   -1.32931  -1.17477  -0.90086  -0.88596  -0.72936
 Alpha  occ. eigenvalues --   -0.70650  -0.65168  -0.61855  -0.60422  -0.53396
 Alpha  occ. eigenvalues --   -0.51618  -0.49523  -0.41624  -0.34390  -0.33249
 Alpha  occ. eigenvalues --   -0.32238
 Alpha virt. eigenvalues --    0.03314   0.04994   0.05737   0.06312   0.09923
 Alpha virt. eigenvalues --    0.10185   0.11004   0.11998   0.12934   0.13640
 Alpha virt. eigenvalues --    0.14571   0.15471   0.16296   0.16945   0.17461

 Mulliken charges:
               1
     1  C    4.134450
     2  C    5.015811
     3  H    0.548206
     4  H    0.678572
     5  H    0.691455
     6  H    0.691951
     7  N   -2.982076
     8  N   -1.700897
     9  N   -1.903174
    10  N   -2.123344
    11  O   -3.050954
 Sum of Mulliken charges =  -0.00000

 Dipole moment (field-independent basis, Debye):
    X=              0.1443    Y=              1.7715    Z=             -0.2179  Tot=              1.7906

 Test job not archived.
 1\1\GINC-SE453\SP\RHF\Aug-CC-pVDZ\C2H4N4O1\OHZDE\08-Apr-2025\0\\#t hf
 aug-cc-pvdz iop(5/13=1,5/36=2,99/5=2) pseudo=read geom=check guess=(re
 ad,tcheck) scf=(maxcycle=1)\\title\\0,1\C,0,1.14332,-0.196706,-0.02559
 64\C,0,-1.18714,-0.188429,0.0287825\H,0,2.94501,0.184606,-0.0569359\H,
 0,1.11549,1.72623,0.62224\H,0,-1.15607,1.70851,-0.599261\H,0,-0.037957
 8,-1.987,-0.0805541\N,0,2.34605,-0.623188,0.0175773\N,0,0.703859,1.130
 88,-0.109473\N,0,-0.707379,1.13259,0.0979277\N,0,-0.0325555,-0.965751,
 0.00115635\O,0,-2.34667,-0.505404,0.00563482\\Version=ES64L-G16RevC.01

 Normal termination of Gaussian 16 at Tue Apr  8 21:46:00 2025.
