 Gaussian 16, Revision C.01,

 ----------------------------------------------------------------------
 #t hf aug-cc-pvdz symm=none int=(grid=ultrafine) guess=(read,tcheck) s
 table=(opt,rrhf)
 ----------------------------------------------------------------------
 -----
 title
 -----
 Symbolic Z-matrix:
 Charge =  0 Multiplicity = 1

 SCF Done:  E(RHF) =  -380.203628967     A.U. after   11 cycles
 Normal termination of Gaussian 16 at Tue Apr  8 21:05:25 2025.
 Gaussian 16:  ES64L-G16RevC.01  3-Jul-2019

 ----------------------------------------------------------------------
 #t hf aug-cc-pvdz iop(5/13=1,5/36=2,99/5=2) pseudo=read geom=check gue
 ss=(read,tcheck) scf=(maxcycle=1)
 ----------------------------------------------------------------------
 -----
 title
 -----
 Structure from the checkpoint file:  "ANI1ccx_1843_conf297_mol1.chk"
 Charge =  0 Multiplicity = 1

                         Standard orientation:
 ---------------------------------------------------------------------
 Center     Atomic      Atomic             Coordinates (Angstroms)
 Number     Number       Type             X           Y           Z
 ---------------------------------------------------------------------
      1          1           0       -1.947468   -0.371866   -0.411483
      2          1           0       -3.140798   -1.193793    0.266727
      3          1           0       -0.855266    1.465559   -0.037940
      4          1           0       -2.098660    2.207238   -0.510564
      5          1           0        1.268250    2.086970    1.016170
      6          1           0        1.224781    0.836279    0.186948
      7          1           0        1.589942   -0.472177   -0.500911
      8          1           0        2.969722   -0.123972   -1.455780
      9          1           0        1.193963   -1.830810    0.973292
     10          1           0       -0.275780   -1.649321    0.431897
     11          8           0       -2.207108   -1.238082   -0.001340
     12          8           0       -1.689919    1.384168   -0.552255
     13          8           0        0.734599    1.319620    0.914156
     14          8           0        2.535812   -0.148228   -0.629114
     15          8           0        0.635531   -1.436740    0.273757
 ---------------------------------------------------------------------

 SCF Done:  E(RHF) =  -381.833074183     A.U. after    2 cycles

 The electronic state is 1-A.
 Alpha  occ. eigenvalues --  -21.09612 -21.09199 -21.08859 -21.06656 -21.06570
 Alpha  occ. eigenvalues --   -1.70166  -1.68190  -1.66164  -1.63348  -1.62804
 Alpha  occ. eigenvalues --   -0.71477  -0.66218  -0.65034  -0.62458  -0.60094
 Alpha  occ. eigenvalues --   -0.50612  -0.49821  -0.45976  -0.42097  -0.39135
 Alpha  occ. eigenvalues --   -0.37279  -0.35672  -0.34277  -0.33212  -0.32518
 Alpha virt. eigenvalues --    0.03919   0.04848   0.05350   0.06081   0.06140
 Alpha virt. eigenvalues --    0.08632   0.09122   0.10030   0.10833   0.12252
 Alpha virt. eigenvalues --    0.19243   0.19543   0.20510   0.21461   0.21675

 Mulliken charges:
               1
     1  H    1.370130
     2  H    0.938211
     3  H    1.281083
     4  H    0.877142
     5  H    0.732250
     6  H    1.384939
     7  H    1.960631
     8  H    0.935956
     9  H    0.782784
    10  H    1.277301
    11  O   -2.171815
    12  O   -2.276385
    13  O   -2.158806
    14  O   -2.394794
    15  O   -2.538627
 Sum of Mulliken charges =  -0.00000

 Dipole moment (field-independent basis, Debye):
    X=             -0.2120    Y=              0.8063    Z=              0.3427  Tot=              0.9014

 Test job not archived.
 1\1\GINC-SE457\SP\RHF\Aug-CC-pVDZ\H10O5\OHZDE\08-Apr-2025\0\\#t hf aug
 -cc-pvdz iop(5/13=1,5/36=2,99/5=2) pseudo=read geom=check guess=(read,
 tcheck) scf=(maxcycle=1)\\title\\0,1\H,0,-1.94747,-0.371864,-0.411483\
 H,0,-3.1408,-1.19379,0.266727\H,0,-0.855267,1.46556,-0.0379404\H,0,-2.
 09866,2.20724,-0.510564\H,0,1.26825,2.08697,1.01617\H,0,1.22478,0.8362
 79,0.186948\H,0,1.58994,-0.472177,-0.500911\H,0,2.96972,-0.123973,-1.4
 5578\H,0,1.19396,-1.83081,0.973292\H,0,-0.275782,-1.64932,0.431897\O,0
 ,-2.20711,-1.23808,-0.00134002\O,0,-1.68992,1.38417,-0.552255\O,0,0.73

 Normal termination of Gaussian 16 at Tue Apr  8 21:05:28 2025.
