 Gaussian 16, Revision C.01,

 ----------------------------------------------------------------------
 #t hf aug-cc-pvdz symm=none int=(grid=ultrafine) guess=(read,tcheck) s
 table=(opt,rrhf)
 ----------------------------------------------------------------------
 -----
 title
 -----
 Symbolic Z-matrix:
 Charge =  0 Multiplicity = 1

 SCF Done:  E(RHF) =  -583.230275134     A.U. after   16 cycles
 Normal termination of Gaussian 16 at Tue Apr  8 22:10:35 2025.
 Gaussian 16:  ES64L-G16RevC.01  3-Jul-2019

 ----------------------------------------------------------------------
 #t hf aug-cc-pvdz iop(5/13=1,5/36=2,99/5=2) pseudo=read geom=check gue
 ss=(read,tcheck) scf=(maxcycle=1)
 ----------------------------------------------------------------------
 -----
 title
 -----
 Structure from the checkpoint file:  "ANI1ccx_900_conf8_mol1.chk"
 Charge =  0 Multiplicity = 1

                         Standard orientation:
 ---------------------------------------------------------------------
 Center     Atomic      Atomic             Coordinates (Angstroms)
 Number     Number       Type             X           Y           Z
 ---------------------------------------------------------------------
      1          6           0       -2.045351   -0.081627   -0.011101
      2          6           0       -1.077211    0.642779   -0.921994
      3          6           0        1.318049    0.711618    0.060910
      4          6           0        1.343039   -0.788994    0.089446
      5          1           0       -1.458941    1.145091    1.180040
      6          1           0       -0.707898   -0.184962   -1.608210
      7          1           0       -1.594381    1.165530   -1.672290
      8          1           0        0.143939    2.312131   -0.460603
      9          1           0        3.011039   -0.610054   -0.151275
     10          7           0        0.072209    1.299321   -0.200563
     11          8           0       -2.033371    0.374352    1.249280
     12          8           0       -2.805731   -0.876662   -0.384046
     13          8           0        2.405509    1.311202    0.140078
     14          8           0        2.462589   -1.367928   -0.000327
     15          8           0        0.329706   -1.419169    0.096603
 ---------------------------------------------------------------------

 SCF Done:  E(RHF) =  -585.658447510     A.U. after    2 cycles

 The electronic state is 1-A.
 Alpha  occ. eigenvalues --  -21.17031 -21.12074 -21.11040 -21.07879 -21.05192
 Alpha  occ. eigenvalues --  -15.82667 -11.59083 -11.53923 -11.53665 -11.46187
 Alpha  occ. eigenvalues --   -1.91751  -1.84089  -1.75654  -1.70511  -1.67307
 Alpha  occ. eigenvalues --   -1.42689  -1.11413  -1.01285  -0.81962  -0.79709
 Alpha  occ. eigenvalues --   -0.76010  -0.73327  -0.70481  -0.65187  -0.62438
 Alpha  occ. eigenvalues --   -0.60188  -0.55714  -0.54508  -0.52827  -0.51027
 Alpha  occ. eigenvalues --   -0.49938  -0.47211  -0.41293  -0.39024  -0.36499
 Alpha  occ. eigenvalues --   -0.34193  -0.31057  -0.29634
 Alpha virt. eigenvalues --    0.02529   0.04397   0.04670   0.05821   0.06435
 Alpha virt. eigenvalues --    0.08490   0.09178   0.09608   0.10282   0.10360
 Alpha virt. eigenvalues --    0.11065   0.12108   0.12792   0.13169   0.13695

 Mulliken charges:
               1
     1  C    6.481895
     2  C   -3.325776
     3  C    3.436157
     4  C    5.740842
     5  H    1.155880
     6  H    1.610901
     7  H    1.319524
     8  H    0.533614
     9  H    0.926816
    10  N   -2.114093
    11  O   -3.109072
    12  O   -3.395862
    13  O   -3.181280
    14  O   -3.223253
    15  O   -2.856295
 Sum of Mulliken charges =  -0.00000

 Dipole moment (field-independent basis, Debye):
    X=              1.8645    Y=              2.7689    Z=             -1.0962  Tot=              3.5135

 Test job not archived.
 1\1\GINC-SE118\SP\RHF\Aug-CC-pVDZ\C4H5N1O5\OHZDE\08-Apr-2025\0\\#t hf
 aug-cc-pvdz iop(5/13=1,5/36=2,99/5=2) pseudo=read geom=check guess=(re
 ad,tcheck) scf=(maxcycle=1)\\title\\0,1\C,0,-2.04535,-0.0816269,-0.011
 1016\C,0,-1.07721,0.642778,-0.921994\C,0,1.31805,0.711617,0.06091\C,0,
 1.34304,-0.788995,0.0894459\H,0,-1.45894,1.14509,1.18004\H,0,-0.707897
 ,-0.184963,-1.60821\H,0,-1.59438,1.16553,-1.67229\H,0,0.143941,2.31213
 ,-0.460603\H,0,3.01104,-0.610056,-0.151275\N,0,0.0722099,1.29932,-0.20
 0563\O,0,-2.03337,0.374352,1.24928\O,0,-2.80573,-0.876662,-0.384046\O,

 Normal termination of Gaussian 16 at Tue Apr  8 22:10:42 2025.
