 Gaussian 16, Revision C.01,

 ----------------------------------------------------------------------
 #t hf aug-cc-pvdz symm=none int=(grid=ultrafine) guess=(read,tcheck) s
 table=(opt,rrhf)
 ----------------------------------------------------------------------
 -----
 title
 -----
 Symbolic Z-matrix:
 Charge =  0 Multiplicity = 1

 SCF Done:  E(RHF) =  -723.898283305     A.U. after   15 cycles
 Normal termination of Gaussian 16 at Tue Apr  8 22:16:38 2025.
 Gaussian 16:  ES64L-G16RevC.01  3-Jul-2019

 ----------------------------------------------------------------------
 #t hf aug-cc-pvdz iop(5/13=1,5/36=2,99/5=2) pseudo=read geom=check gue
 ss=(read,tcheck) scf=(maxcycle=1)
 ----------------------------------------------------------------------
 -----
 title
 -----
 Structure from the checkpoint file:  "ANI1ccx_85_conf1_mol1.chk"
 Charge =  0 Multiplicity = 1

                         Standard orientation:
 ---------------------------------------------------------------------
 Center     Atomic      Atomic             Coordinates (Angstroms)
 Number     Number       Type             X           Y           Z
 ---------------------------------------------------------------------
      1          6           0       -1.513379    0.126448   -0.275651
      2          6           0        3.711361    1.028678   -0.851579
      3          6           0        2.469781    1.130239    0.075990
      4          6           0        1.990920   -1.460051   -0.104236
      5          6           0        1.436741    0.005116   -0.091440
      6          6           0        1.819931    2.495969    0.087588
      7          6           0       -4.046230   -0.643698    0.158148
      8          6           0       -3.020919    0.474306   -0.114993
      9          6           0       -0.820711    0.169305    1.050460
     10          6           0       -3.476579    1.316161   -1.323890
     11          1           0        0.828848    0.134524   -0.998850
     12          1           0        0.404030   -1.903511   -1.029670
     13          1           0        1.370211    2.707799    1.070580
     14          1           0        2.643922    3.218349   -0.131309
     15          1           0        1.017181    2.653959   -0.687410
     16          1           0        3.525791    1.163718   -1.902120
     17          1           0        4.483641    1.770658   -0.521188
     18          1           0        4.215991    0.072147   -0.781680
     19          1           0        2.788651    0.895842    1.147470
     20          1           0        0.951541    0.096759    1.929880
     21          1           0       -4.454319    1.675511   -1.252270
     22          1           0       -3.382909    0.736336   -2.239160
     23          1           0       -3.796960   -1.360369    0.943889
     24          1           0       -5.019329   -0.226612    0.504491
     25          1           0       -4.311250   -1.168689   -0.783138
     26          1           0       -3.013739    1.018020    0.786194
     27          1           0       -1.072369    0.717158   -1.032330
     28          1           0       -1.899160   -1.601890   -1.403970
     29          1           0       -1.385130   -1.865280    0.050450
     30          1           0       -2.764869    2.203490   -1.415670
     31          7           0       -1.220500   -1.249720   -0.768951
     32          7           0        0.523884    0.084254    1.000140
     33          8           0        3.076840   -1.653811    0.339509
     34          8           0       -1.437999    0.161671    2.117140
     35          8           0        1.166290   -2.337171   -0.648512
 ---------------------------------------------------------------------

 SCF Done:  E(RHF) =  -727.286233318     A.U. after    2 cycles

 The electronic state is 1-A.
 Alpha  occ. eigenvalues --  -21.10598 -21.04402 -21.03456 -15.77191 -15.77008
 Alpha  occ. eigenvalues --  -11.55125 -11.53846 -11.49538 -11.48526 -11.43581
 Alpha  occ. eigenvalues --  -11.42701 -11.39993 -11.39226 -11.37979 -11.37472
 Alpha  occ. eigenvalues --   -1.82512  -1.71937  -1.66777  -1.45466  -1.38475
 Alpha  occ. eigenvalues --   -1.22525  -1.22043  -1.06395  -1.03260  -1.01079
 Alpha  occ. eigenvalues --   -1.00793  -0.87654  -0.85468  -0.80614  -0.79904
 Alpha  occ. eigenvalues --   -0.73509  -0.71542  -0.66230  -0.66190  -0.64433
 Alpha  occ. eigenvalues --   -0.62351  -0.60854  -0.59532  -0.58221  -0.56233
 Alpha  occ. eigenvalues --   -0.55483  -0.54603  -0.54032  -0.53442  -0.52761
 Alpha  occ. eigenvalues --   -0.51027  -0.50088  -0.49354  -0.47898  -0.46138
 Alpha  occ. eigenvalues --   -0.45429  -0.45097  -0.44664  -0.42436  -0.37469
 Alpha  occ. eigenvalues --   -0.33849  -0.32815  -0.30040  -0.26541
 Alpha virt. eigenvalues --    0.03376   0.04118   0.04167   0.04289   0.04995
 Alpha virt. eigenvalues --    0.05427   0.05726   0.05875   0.06231   0.06693
 Alpha virt. eigenvalues --    0.06775   0.07061   0.07760   0.08358   0.08688

 Mulliken charges:
               1
     1  C   -1.526227
     2  C   -4.772438
     3  C   -1.376514
     4  C    6.767266
     5  C   -2.615142
     6  C   -4.645434
     7  C   -4.628780
     8  C   -1.062709
     9  C    7.718380
    10  C   -5.213838
    11  H    2.868254
    12  H    1.794211
    13  H    1.243965
    14  H    1.254339
    15  H    1.276661
    16  H    1.296985
    17  H    1.084509
    18  H    1.428461
    19  H    1.596370
    20  H    0.640200
    21  H    1.336321
    22  H    1.227998
    23  H    1.328527
    24  H    1.128139
    25  H    1.381409
    26  H    1.987123
    27  H    2.330672
    28  H    0.679956
    29  H    0.523420
    30  H    1.196443
    31  N   -2.305476
    32  N   -2.311560
    33  O   -3.696627
    34  O   -4.010739
    35  O   -3.924124
 Sum of Mulliken charges =   0.00000

 Dipole moment (field-independent basis, Debye):
    X=             -2.2292    Y=              1.2141    Z=             -1.7802  Tot=              3.1003

 Test job not archived.
 1\1\GINC-SE453\SP\RHF\Aug-CC-pVDZ\C10H20N2O3\OHZDE\08-Apr-2025\0\\#t h
 f aug-cc-pvdz iop(5/13=1,5/36=2,99/5=2) pseudo=read geom=check guess=(
 read,tcheck) scf=(maxcycle=1)\\title\\0,1\C,0,-1.51338,0.126448,-0.275
 651\C,0,3.71136,1.02868,-0.851579\C,0,2.46978,1.13024,0.0759899\C,0,1.
 99092,-1.46005,-0.104236\C,0,1.43674,0.00511669,-0.0914399\C,0,1.81993
 ,2.49597,0.0875881\C,0,-4.04623,-0.643699,0.158148\C,0,-3.02092,0.4743
 06,-0.114993\C,0,-0.820712,0.169305,1.05046\C,0,-3.47658,1.31616,-1.32
 389\H,0,0.828847,0.134525,-0.99885\H,0,0.40403,-1.90351,-1.02967\H,0,1

 Normal termination of Gaussian 16 at Tue Apr  8 22:17:24 2025.
