 Gaussian 16, Revision C.01,

 ----------------------------------------------------------------------
 #t hf aug-cc-pvdz symm=none int=(grid=ultrafine) guess=(read,tcheck) s
 table=(opt,rrhf)
 ----------------------------------------------------------------------
 -----
 title
 -----
 Symbolic Z-matrix:
 Charge =  0 Multiplicity = 1

 SCF Done:  E(RHF) =  -869.310020188     A.U. after   14 cycles
 Normal termination of Gaussian 16 at Tue Apr  8 20:28:18 2025.
 Gaussian 16:  ES64L-G16RevC.01  3-Jul-2019

 ----------------------------------------------------------------------
 #t hf aug-cc-pvdz iop(5/13=1,5/36=2,99/5=2) pseudo=read geom=check gue
 ss=(read,tcheck) scf=(maxcycle=1)
 ----------------------------------------------------------------------
 -----
 title
 -----
 Structure from the checkpoint file:  "ANI1ccx_1593_conf8_mol1.chk"
 Charge =  0 Multiplicity = 1

                         Standard orientation:
 ---------------------------------------------------------------------
 Center     Atomic      Atomic             Coordinates (Angstroms)
 Number     Number       Type             X           Y           Z
 ---------------------------------------------------------------------
      1          6           0       -1.869270    0.590754    0.855088
      2          6           0       -0.697931    0.407504   -0.117053
      3          6           0       -3.175290    0.704070    0.130770
      4          6           0       -3.836389   -0.544219   -0.355774
      5          6           0        1.573061   -0.324954   -0.234416
      6          6           0        2.589471   -1.240189    0.542504
      7          6           0        2.327700    0.912360   -0.776276
      8          6           0        2.946610    1.729241    0.308442
      9          1           0        4.008011   -0.697793   -0.638130
     10          1           0        2.163310    2.084761    1.046920
     11          1           0        3.419870    2.636431   -0.101367
     12          1           0        3.711020    1.183652    0.913859
     13          1           0        2.785921   -0.172738   -2.178480
     14          1           0        1.556700    1.581071   -1.286010
     15          1           0        1.349481   -1.061049   -1.042430
     16          1           0        0.484341   -0.531029    1.429460
     17          1           0       -3.627709   -2.327591   -0.455111
     18          1           0       -3.015770    1.450489   -0.648765
     19          1           0       -3.951870    1.052079    0.931777
     20          1           0       -1.836649   -0.174524    1.646460
     21          1           0       -0.724600    1.865760    1.978430
     22          1           0       -1.892210    2.630580    0.972542
     23          7           0       -1.665150    1.794650    1.624160
     24          7           0        0.409949   -0.124070    0.516248
     25          8           0       -0.722137    0.561587   -1.325730
     26          8           0       -4.942219   -0.630183   -0.777578
     27          8           0       -3.013639   -1.591161   -0.319277
     28          8           0        2.206991   -1.853829    1.534530
     29          8           0        3.290930    0.497809   -1.708520
     30          8           0        3.831171   -1.311918    0.137609
 ---------------------------------------------------------------------

 SCF Done:  E(RHF) =  -873.107803043     A.U. after    2 cycles

 The electronic state is 1-A.
 Alpha  occ. eigenvalues --  -21.13046 -21.12694 -21.12259 -21.05810 -21.05643
 Alpha  occ. eigenvalues --  -21.05346 -15.78269 -15.75954 -11.56357 -11.54855
 Alpha  occ. eigenvalues --  -11.54256 -11.51491 -11.48359 -11.46838 -11.42170
 Alpha  occ. eigenvalues --  -11.40293  -1.85706  -1.85062  -1.78128  -1.73686
 Alpha  occ. eigenvalues --   -1.66491  -1.65968  -1.44532  -1.38063  -1.18120
 Alpha  occ. eigenvalues --   -1.14853  -1.07601  -0.97113  -0.89529  -0.84440
 Alpha  occ. eigenvalues --   -0.80813  -0.80375  -0.76700  -0.71963  -0.70014
 Alpha  occ. eigenvalues --   -0.69559  -0.66622  -0.64743  -0.63976  -0.61756
 Alpha  occ. eigenvalues --   -0.59062  -0.58135  -0.56977  -0.54896  -0.54323
 Alpha  occ. eigenvalues --   -0.52900  -0.52180  -0.51881  -0.50640  -0.50311
 Alpha  occ. eigenvalues --   -0.48811  -0.48205  -0.46170  -0.44566  -0.40508
 Alpha  occ. eigenvalues --   -0.36388  -0.34532  -0.34252  -0.32702  -0.30815
 Alpha  occ. eigenvalues --   -0.30349  -0.29636
 Alpha virt. eigenvalues --    0.03145   0.04146   0.04396   0.04828   0.05131
 Alpha virt. eigenvalues --    0.05594   0.06171   0.06399   0.06484   0.07355
 Alpha virt. eigenvalues --    0.07830   0.08207   0.08442   0.08896   0.11131

 Mulliken charges:
               1
     1  C   -1.685026
     2  C    7.582970
     3  C   -3.073776
     4  C    5.501697
     5  C   -0.733531
     6  C    6.575605
     7  C    0.694030
     8  C   -4.044508
     9  H    1.124215
    10  H    1.399438
    11  H    1.146580
    12  H    1.376542
    13  H    0.611072
    14  H    1.761570
    15  H    2.057759
    16  H    0.895853
    17  H    0.941919
    18  H    1.183108
    19  H    1.165764
    20  H    2.163523
    21  H    0.652967
    22  H    0.462875
    23  N   -2.968979
    24  N   -4.499755
    25  O   -3.982132
    26  O   -3.276899
    27  O   -3.057457
    28  O   -3.278707
    29  O   -3.193948
    30  O   -3.502772
 Sum of Mulliken charges =   0.00000

 Dipole moment (field-independent basis, Debye):
    X=              2.1041    Y=              1.0791    Z=             -0.4714  Tot=              2.4112

 Test job not archived.
 1\1\GINC-SE247\SP\RHF\Aug-CC-pVDZ\C8H14N2O6\OHZDE\08-Apr-2025\0\\#t hf
  aug-cc-pvdz iop(5/13=1,5/36=2,99/5=2) pseudo=read geom=check guess=(r
 ead,tcheck) scf=(maxcycle=1)\\title\\0,1\C,0,-1.86927,0.590754,0.85508
 8\C,0,-0.697932,0.407504,-0.117053\C,0,-3.17529,0.704071,0.13077\C,0,-
 3.83639,-0.544218,-0.355774\C,0,1.57306,-0.324955,-0.234416\C,0,2.5894
 7,-1.24019,0.542504\C,0,2.3277,0.912359,-0.776276\C,0,2.94661,1.72924,
 0.308442\H,0,4.00801,-0.697795,-0.63813\H,0,2.16331,2.08476,1.04692\H,
 0,3.41987,2.63643,-0.101367\H,0,3.71102,1.18365,0.913859\H,0,2.78592,-

 Normal termination of Gaussian 16 at Tue Apr  8 20:28:55 2025.
