 Gaussian 16, Revision C.01,

 ----------------------------------------------------------------------
 #t hf aug-cc-pvdz symm=none int=(grid=ultrafine) guess=(read,tcheck) s
 table=(opt,rrhf)
 ----------------------------------------------------------------------
 -----
 title
 -----
 Symbolic Z-matrix:
 Charge =  0 Multiplicity = 1

 SCF Done:  E(RHF) =  -406.480296881     A.U. after   16 cycles
 Normal termination of Gaussian 16 at Tue Apr  8 21:36:47 2025.
 Gaussian 16:  ES64L-G16RevC.01  3-Jul-2019

 ----------------------------------------------------------------------
 #t hf aug-cc-pvdz iop(5/13=1,5/36=2,99/5=2) pseudo=read geom=check gue
 ss=(read,tcheck) scf=(maxcycle=1)
 ----------------------------------------------------------------------
 -----
 title
 -----
 Structure from the checkpoint file:  "ANI1ccx_379_conf8_mol1.chk"
 Charge =  0 Multiplicity = 1

                         Standard orientation:
 ---------------------------------------------------------------------
 Center     Atomic      Atomic             Coordinates (Angstroms)
 Number     Number       Type             X           Y           Z
 ---------------------------------------------------------------------
      1          6           0        0.033444    0.779321    0.022697
      2          1           0        2.105369   -0.631749    0.992515
      3          1           0        2.227679   -0.596361   -0.695789
      4          7           0        1.751099   -0.913139    0.070418
      5          7           0        0.459150   -0.475261   -0.113700
      6          7           0       -0.555525   -1.309689   -0.045933
      7          7           0       -1.661811   -0.649274   -0.012174
      8          8           0       -1.289650    0.742646    0.096838
      9          8           0        0.729137    1.755320   -0.062236
 ---------------------------------------------------------------------

 SCF Done:  E(RHF) =  -408.186446160     A.U. after    2 cycles

 The electronic state is 1-A.
 Alpha  occ. eigenvalues --  -21.16300 -21.06230 -15.88188 -15.87424 -15.86112
 Alpha  occ. eigenvalues --  -15.82994 -11.55924  -1.98932  -1.72638  -1.66795
 Alpha  occ. eigenvalues --   -1.44624  -1.24243  -0.98395  -0.87150  -0.79979
 Alpha  occ. eigenvalues --   -0.74168  -0.69441  -0.61485  -0.58594  -0.53059
 Alpha  occ. eigenvalues --   -0.50350  -0.47050  -0.46582  -0.43515  -0.32753
 Alpha  occ. eigenvalues --   -0.30870
 Alpha virt. eigenvalues --    0.03452   0.05262   0.09020   0.10840   0.11442
 Alpha virt. eigenvalues --    0.11626   0.12042   0.12524   0.13143   0.15222
 Alpha virt. eigenvalues --    0.16708   0.17100   0.18036   0.18621   0.20087

 Mulliken charges:
               1
     1  C    5.596416
     2  H    0.648651
     3  H    0.725022
     4  N   -1.794445
     5  N   -0.150292
     6  N    0.299410
     7  N    0.095172
     8  O   -2.541589
     9  O   -2.878345
 Sum of Mulliken charges =  -0.00000

 Dipole moment (field-independent basis, Debye):
    X=              2.1552    Y=             -0.5751    Z=              0.3013  Tot=              2.2509

 Test job not archived.
 1\1\GINC-SE220\SP\RHF\Aug-CC-pVDZ\C1H2N4O2\OHZDE\08-Apr-2025\0\\#t hf
 aug-cc-pvdz iop(5/13=1,5/36=2,99/5=2) pseudo=read geom=check guess=(re
 ad,tcheck) scf=(maxcycle=1)\\title\\0,1\C,0,0.0334438,0.77932,0.022696
 6\H,0,2.10537,-0.631749,0.992515\H,0,2.22768,-0.59636,-0.695789\N,0,1.
 7511,-0.913139,0.070418\N,0,0.459151,-0.475262,-0.1137\N,0,-0.555523,-
 1.30969,-0.0459327\N,0,-1.66181,-0.649276,-0.0121741\O,0,-1.28965,0.74
 2644,0.0968381\O,0,0.729137,1.75532,-0.0622365\\Version=ES64L-G16RevC.
 01\State=1-A\HF=-408.1864462\RMSD=9.635e-02\Dipole=0.8479363,-0.226256

 Normal termination of Gaussian 16 at Tue Apr  8 21:36:50 2025.
