 Gaussian 16, Revision C.01,

 ----------------------------------------------------------------------
 #t hf aug-cc-pvdz symm=none int=(grid=ultrafine) guess=(read,tcheck) s
 table=(opt,rrhf)
 ----------------------------------------------------------------------
 -----
 title
 -----
 Symbolic Z-matrix:
 Charge =  0 Multiplicity = 1

 SCF Done:  E(RHF) =  -432.546686973     A.U. after   13 cycles
 Normal termination of Gaussian 16 at Tue Apr  8 21:46:58 2025.
 Gaussian 16:  ES64L-G16RevC.01  3-Jul-2019

 ----------------------------------------------------------------------
 #t hf aug-cc-pvdz iop(5/13=1,5/36=2,99/5=2) pseudo=read geom=check gue
 ss=(read,tcheck) scf=(maxcycle=1)
 ----------------------------------------------------------------------
 -----
 title
 -----
 Structure from the checkpoint file:  "ANI1ccx_535_conf1_mol2.chk"
 Charge =  0 Multiplicity = 1

                         Standard orientation:
 ---------------------------------------------------------------------
 Center     Atomic      Atomic             Coordinates (Angstroms)
 Number     Number       Type             X           Y           Z
 ---------------------------------------------------------------------
      1          6           0        0.147806    0.637235   -0.259444
      2          6           0        1.267141   -1.230890   -0.100000
      3          1           0       -3.624990    0.264756   -0.071387
      4          1           0       -2.432330   -0.523192    0.541155
      5          1           0        1.363920    1.469690    1.198970
      6          1           0        1.861311   -1.706270   -0.859705
      7          1           0        0.930268   -1.945050    0.637918
      8          7           0        1.383090    0.930370    0.333714
      9          8           0       -3.434669   -0.583741    0.386091
     10          8           0       -0.804384    1.380630   -0.370183
     11          8           0        2.095340   -0.248325    0.416051
     12          8           0        0.110027   -0.612389   -0.635243
 ---------------------------------------------------------------------

 SCF Done:  E(RHF) =  -434.333957848     A.U. after    2 cycles

 The electronic state is 1-A.
 Alpha  occ. eigenvalues --  -21.14672 -21.12651 -21.07253 -21.06393 -15.83068
 Alpha  occ. eigenvalues --  -11.56133 -11.49503  -2.00481  -1.81517  -1.69374
 Alpha  occ. eigenvalues --   -1.62193  -1.30135  -0.99852  -0.88743  -0.75936
 Alpha  occ. eigenvalues --   -0.74091  -0.65659  -0.60505  -0.59595  -0.58195
 Alpha  occ. eigenvalues --   -0.51409  -0.50305  -0.45606  -0.44580  -0.35266
 Alpha  occ. eigenvalues --   -0.33276  -0.32782  -0.30426
 Alpha virt. eigenvalues --    0.02772   0.04701   0.05131   0.06968   0.07667
 Alpha virt. eigenvalues --    0.08591   0.10100   0.11472   0.11862   0.12849
 Alpha virt. eigenvalues --    0.13664   0.15552   0.16257   0.16982   0.17339

 Mulliken charges:
               1
     1  C    5.829978
     2  C   -0.513783
     3  H    0.894119
     4  H    1.014142
     5  H    0.732452
     6  H    1.516794
     7  H    1.588834
     8  N   -0.586866
     9  O   -1.996276
    10  O   -2.999019
    11  O   -2.705623
    12  O   -2.774751
 Sum of Mulliken charges =  -0.00000

 Dipole moment (field-independent basis, Debye):
    X=              2.5753    Y=             -0.9244    Z=              0.7108  Tot=              2.8270

 Test job not archived.
 1\1\GINC-SE187\SP\RHF\Aug-CC-pVDZ\C2H5N1O4\OHZDE\08-Apr-2025\0\\#t hf
 aug-cc-pvdz iop(5/13=1,5/36=2,99/5=2) pseudo=read geom=check guess=(re
 ad,tcheck) scf=(maxcycle=1)\\title\\0,1\C,0,0.147806,0.637235,-0.25944
 4\C,0,1.26714,-1.23089,-0.1\H,0,-3.62499,0.264757,-0.0713871\H,0,-2.43
 233,-0.523191,0.541155\H,0,1.36392,1.46969,1.19897\H,0,1.86131,-1.7062
 7,-0.859705\H,0,0.930267,-1.94505,0.637918\N,0,1.38309,0.93037,0.33371
 4\O,0,-3.43467,-0.58374,0.386091\O,0,-0.804384,1.38063,-0.370183\O,0,2
 .09534,-0.248325,0.416051\O,0,0.110026,-0.612389,-0.635243\\Version=ES

 Normal termination of Gaussian 16 at Tue Apr  8 21:47:03 2025.
