 Gaussian 16, Revision C.01,

 ----------------------------------------------------------------------
 #t hf aug-cc-pvdz symm=none int=(grid=ultrafine) guess=(read,tcheck) s
 table=(opt,rrhf)
 ----------------------------------------------------------------------
 -----
 title
 -----
 Symbolic Z-matrix:
 Charge =  0 Multiplicity = 1

 SCF Done:  E(RHF) =  -556.251254746     A.U. after   17 cycles
 Normal termination of Gaussian 16 at Tue Apr  8 19:30:49 2025.
 Gaussian 16:  ES64L-G16RevC.01  3-Jul-2019

 ----------------------------------------------------------------------
 #t hf aug-cc-pvdz iop(5/13=1,5/36=2,99/5=2) pseudo=read geom=check gue
 ss=(read,tcheck) scf=(maxcycle=1)
 ----------------------------------------------------------------------
 -----
 title
 -----
 Structure from the checkpoint file:  "ANI1ccx_1294_conf2_mol1.chk"
 Charge =  0 Multiplicity = 1

                         Standard orientation:
 ---------------------------------------------------------------------
 Center     Atomic      Atomic             Coordinates (Angstroms)
 Number     Number       Type             X           Y           Z
 ---------------------------------------------------------------------
      1          6           0        0.468144    1.278930   -0.015495
      2          6           0        2.562039    0.364502    0.019372
      3          6           0        0.897761   -1.076580    0.019211
      4          6           0       -1.264711   -0.659556   -0.040629
      5          6           0       -2.497111    0.072826   -0.049697
      6          6           0       -0.014176   -0.026501   -0.006666
      7          1           0       -1.238452    2.411859   -0.228103
      8          1           0        0.207413    3.285529   -0.105073
      9          1           0        3.617919    0.514308    0.209352
     10          1           0       -1.745200   -2.732041   -0.041175
     11          7           0       -0.238103    2.426639    0.023329
     12          7           0        1.801098    1.427860   -0.044480
     13          7           0        2.185079   -0.921224    0.017660
     14          7           0        0.298882   -2.271741    0.028091
     15          7           0       -0.977884   -1.997891   -0.047728
     16          7           0       -3.319552    0.879016    0.110045
 ---------------------------------------------------------------------

 SCF Done:  E(RHF) =  -558.749842343     A.U. after    2 cycles

 The electronic state is 1-A.
 Alpha  occ. eigenvalues --  -15.88324 -15.80802 -15.80262 -15.77732 -15.73364
 Alpha  occ. eigenvalues --  -15.72000 -11.56150 -11.55340 -11.49152 -11.48461
 Alpha  occ. eigenvalues --  -11.44686 -11.42934  -1.68515  -1.52671  -1.40839
 Alpha  occ. eigenvalues --   -1.35272  -1.29027  -1.21562  -1.18429  -1.00280
 Alpha  occ. eigenvalues --   -0.93528  -0.90259  -0.80640  -0.74396  -0.71333
 Alpha  occ. eigenvalues --   -0.68582  -0.67261  -0.63492  -0.61296  -0.58766
 Alpha  occ. eigenvalues --   -0.58009  -0.55820  -0.52921  -0.49349  -0.48608
 Alpha  occ. eigenvalues --   -0.45589  -0.40912  -0.38704  -0.37700  -0.35500
 Alpha  occ. eigenvalues --   -0.28249
 Alpha virt. eigenvalues --    0.02702   0.04943   0.05256   0.06629   0.07131
 Alpha virt. eigenvalues --    0.07833   0.08301   0.10263   0.10400   0.10891
 Alpha virt. eigenvalues --    0.10992   0.11635   0.12139   0.12585   0.13167

 Mulliken charges:
               1
     1  C    5.286691
     2  C    0.732055
     3  C    5.085594
     4  C    2.082264
     5  C    1.771374
     6  C    0.470963
     7  H    0.478959
     8  H    0.927513
     9  H    1.724024
    10  H    0.893349
    11  N   -3.702847
    12  N   -3.803654
    13  N   -3.924465
    14  N   -2.609356
    15  N   -2.657110
    16  N   -2.755355
 Sum of Mulliken charges =  -0.00000

 Dipole moment (field-independent basis, Debye):
    X=             -2.3720    Y=              0.2467    Z=             -0.5035  Tot=              2.4373

 Test job not archived.
 1\1\GINC-SE462\SP\RHF\Aug-CC-pVDZ\C6H4N6\OHZDE\08-Apr-2025\0\\#t hf au
 g-cc-pvdz iop(5/13=1,5/36=2,99/5=2) pseudo=read geom=check guess=(read
 ,tcheck) scf=(maxcycle=1)\\title\\0,1\C,0,0.468146,1.27893,-0.0154946\
 C,0,2.56204,0.364502,0.0193718\C,0,0.897762,-1.07658,0.019211\C,0,-1.2
 6471,-0.659555,-0.0406293\C,0,-2.49711,0.0728278,-0.049697\C,0,-0.0141
 745,-0.0265001,-0.00666582\H,0,-1.23845,2.41186,-0.228103\H,0,0.207415
 ,3.28553,-0.105073\H,0,3.61792,0.514307,0.209352\H,0,-1.7452,-2.73204,
 -0.0411753\N,0,-0.238101,2.42664,0.0233288\N,0,1.8011,1.42786,-0.04448

 Normal termination of Gaussian 16 at Tue Apr  8 19:31:00 2025.
