 Gaussian 16, Revision C.01,

 ----------------------------------------------------------------------
 #t hf aug-cc-pvdz symm=none int=(grid=ultrafine) guess=(read,tcheck) s
 table=(opt,rrhf)
 ----------------------------------------------------------------------
 -----
 title
 -----
 Symbolic Z-matrix:
 Charge =  0 Multiplicity = 1

 SCF Done:  E(RHF) =  -339.592676194     A.U. after   14 cycles
 Normal termination of Gaussian 16 at Tue Apr  8 21:38:43 2025.
 Gaussian 16:  ES64L-G16RevC.01  3-Jul-2019

 ----------------------------------------------------------------------
 #t hf aug-cc-pvdz iop(5/13=1,5/36=2,99/5=2) pseudo=read geom=check gue
 ss=(read,tcheck) scf=(maxcycle=1)
 ----------------------------------------------------------------------
 -----
 title
 -----
 Structure from the checkpoint file:  "ANI1ccx_409_conf6_mol2.chk"
 Charge =  0 Multiplicity = 1

                         Standard orientation:
 ---------------------------------------------------------------------
 Center     Atomic      Atomic             Coordinates (Angstroms)
 Number     Number       Type             X           Y           Z
 ---------------------------------------------------------------------
      1          6           0        1.484761   -0.080536    0.368910
      2          1           0       -1.630039    0.918932   -0.760435
      3          1           0       -2.897669   -0.853978   -0.054327
      4          1           0        1.046420    1.778051    0.305708
      5          1           0        1.488371    0.029838    1.462910
      6          8           0       -1.878209    0.662479    0.138202
      7          8           0       -1.936659   -0.770204   -0.038346
      8          8           0        1.281551    1.052811   -0.297165
      9          8           0        1.668861   -1.118789   -0.198606
 ---------------------------------------------------------------------

 SCF Done:  E(RHF) =  -340.970011642     A.U. after    2 cycles

 The electronic state is 1-A.
 Alpha  occ. eigenvalues --  -21.13370 -21.13182 -21.12830 -21.05397 -11.50751
 Alpha  occ. eigenvalues --   -1.93339  -1.82993  -1.65316  -1.41099  -0.86540
 Alpha  occ. eigenvalues --   -0.73554  -0.62816  -0.61979  -0.54671  -0.53269
 Alpha  occ. eigenvalues --   -0.47539  -0.47298  -0.36203  -0.34100  -0.32444
 Alpha  occ. eigenvalues --   -0.30940
 Alpha virt. eigenvalues --    0.03487   0.05029   0.05324   0.06263   0.10896
 Alpha virt. eigenvalues --    0.12205   0.13513   0.14152   0.15616   0.17171
 Alpha virt. eigenvalues --    0.18464   0.20397   0.21010   0.22362   0.23077

 Mulliken charges:
               1
     1  C    2.239477
     2  H    0.927239
     3  H    1.049281
     4  H    0.980340
     5  H    1.515215
     6  O   -0.725692
     7  O   -1.201593
     8  O   -2.355099
     9  O   -2.429168
 Sum of Mulliken charges =  -0.00000

 Dipole moment (field-independent basis, Debye):
    X=             -1.2457    Y=              1.7095    Z=              0.5017  Tot=              2.1739

 Test job not archived.
 1\1\GINC-SE250\SP\RHF\Aug-CC-pVDZ\C1H4O4\OHZDE\08-Apr-2025\0\\#t hf au
 g-cc-pvdz iop(5/13=1,5/36=2,99/5=2) pseudo=read geom=check guess=(read
 ,tcheck) scf=(maxcycle=1)\\title\\0,1\C,0,1.48476,-0.0805365,0.36891\H
 ,0,-1.63004,0.918932,-0.760435\H,0,-2.89767,-0.853977,-0.0543275\H,0,1
 .04642,1.77805,0.305708\H,0,1.48837,0.0298373,1.46291\O,0,-1.87821,0.6
 62479,0.138202\O,0,-1.93666,-0.770204,-0.0383466\O,0,1.28155,1.05281,-
 0.297165\O,0,1.66886,-1.11879,-0.198606\\Version=ES64L-G16RevC.01\Stat
 e=1-A\HF=-340.9700116\RMSD=3.925e-02\Dipole=-0.4900981,0.67256,0.19739

 Normal termination of Gaussian 16 at Tue Apr  8 21:38:45 2025.
