 Gaussian 16, Revision C.01,

 ----------------------------------------------------------------------
 #t hf aug-cc-pvdz symm=none int=(grid=ultrafine) guess=(read,tcheck) s
 table=(opt,rrhf)
 ----------------------------------------------------------------------
 -----
 title
 -----
 Symbolic Z-matrix:
 Charge =  0 Multiplicity = 1

 SCF Done:  E(RHF) =  -299.988636215     A.U. after   13 cycles
 Normal termination of Gaussian 16 at Tue Apr  8 21:39:44 2025.
 Gaussian 16:  ES64L-G16RevC.01  3-Jul-2019

 ----------------------------------------------------------------------
 #t hf aug-cc-pvdz iop(5/13=1,5/36=2,99/5=2) pseudo=read geom=check gue
 ss=(read,tcheck) scf=(maxcycle=1)
 ----------------------------------------------------------------------
 -----
 title
 -----
 Structure from the checkpoint file:  "ANI1ccx_426_conf3_mol2.chk"
 Charge =  0 Multiplicity = 1

                         Standard orientation:
 ---------------------------------------------------------------------
 Center     Atomic      Atomic             Coordinates (Angstroms)
 Number     Number       Type             X           Y           Z
 ---------------------------------------------------------------------
      1          6           0        1.725040    0.343524    0.089982
      2          1           0       -1.781450   -0.742573    0.975178
      3          1           0       -2.262270   -1.307480   -0.460944
      4          1           0       -2.301240    1.421700    0.281765
      5          1           0       -3.585010    0.433474    0.328401
      6          1           0       -0.010880   -0.295642    0.225939
      7          1           0        1.268700    1.325300    0.339638
      8          7           0       -1.845480   -0.511522   -0.010675
      9          7           0       -2.722110    0.614225   -0.187182
     10          8           0        0.877731   -0.671748    0.005314
     11          8           0        2.909150    0.219892   -0.110922
 ---------------------------------------------------------------------

 SCF Done:  E(RHF) =  -301.297198558     A.U. after    2 cycles

 The electronic state is 1-A.
 Alpha  occ. eigenvalues --  -21.10663 -21.04045 -15.78978 -15.78211 -11.49547
 Alpha  occ. eigenvalues --   -1.81100  -1.63756  -1.46760  -1.11147  -0.84773
 Alpha  occ. eigenvalues --   -0.73846  -0.69870  -0.68087  -0.60650  -0.53280
 Alpha  occ. eigenvalues --   -0.51915  -0.48481  -0.42202  -0.38270  -0.31882
 Alpha  occ. eigenvalues --   -0.29549
 Alpha virt. eigenvalues --    0.02429   0.03861   0.04577   0.05317   0.07589
 Alpha virt. eigenvalues --    0.08546   0.11303   0.12755   0.14443   0.15164
 Alpha virt. eigenvalues --    0.15799   0.16645   0.17554   0.17768   0.18457

 Mulliken charges:
               1
     1  C    2.496135
     2  H    0.608885
     3  H    0.722187
     4  H    0.664921
     5  H    0.613088
     6  H    1.684897
     7  H    1.319494
     8  N   -1.343125
     9  N   -1.322939
    10  O   -2.895328
    11  O   -2.548216
 Sum of Mulliken charges =   0.00000

 Dipole moment (field-independent basis, Debye):
    X=             -4.4974    Y=             -0.1674    Z=              1.8443  Tot=              4.8638

 Test job not archived.
 1\1\GINC-SE365\SP\RHF\Aug-CC-pVDZ\C1H6N2O2\OHZDE\08-Apr-2025\0\\#t hf
 aug-cc-pvdz iop(5/13=1,5/36=2,99/5=2) pseudo=read geom=check guess=(re
 ad,tcheck) scf=(maxcycle=1)\\title\\0,1\C,0,1.72504,0.343524,0.0899816
 \H,0,-1.78145,-0.742573,0.975178\H,0,-2.26227,-1.30748,-0.460944\H,0,-
 2.30124,1.4217,0.281765\H,0,-3.58501,0.433473,0.328401\H,0,-0.0108797,
 -0.295642,0.225939\H,0,1.2687,1.3253,0.339638\N,0,-1.84548,-0.511522,-
 0.0106747\N,0,-2.72211,0.614225,-0.187182\O,0,0.877731,-0.671748,0.005
 31362\O,0,2.90915,0.219892,-0.110922\\Version=ES64L-G16RevC.01\State=1

 Normal termination of Gaussian 16 at Tue Apr  8 21:39:47 2025.
