 Gaussian 16, Revision C.01,

 ----------------------------------------------------------------------
 #t hf aug-cc-pvdz symm=none int=(grid=ultrafine) guess=(read,tcheck) s
 table=(opt,rrhf)
 ----------------------------------------------------------------------
 -----
 title
 -----
 Symbolic Z-matrix:
 Charge =  0 Multiplicity = 1

 SCF Done:  E(RHF) =  -298.830136360     A.U. after   14 cycles
 Normal termination of Gaussian 16 at Tue Apr  8 21:37:41 2025.
 Gaussian 16:  ES64L-G16RevC.01  3-Jul-2019

 ----------------------------------------------------------------------
 #t hf aug-cc-pvdz iop(5/13=1,5/36=2,99/5=2) pseudo=read geom=check gue
 ss=(read,tcheck) scf=(maxcycle=1)
 ----------------------------------------------------------------------
 -----
 title
 -----
 Structure from the checkpoint file:  "ANI1ccx_398_conf13_mol2.chk"
 Charge =  0 Multiplicity = 1

                         Standard orientation:
 ---------------------------------------------------------------------
 Center     Atomic      Atomic             Coordinates (Angstroms)
 Number     Number       Type             X           Y           Z
 ---------------------------------------------------------------------
      1          6           0       -0.476638    0.139429   -0.029285
      2          1           0       -1.850980   -1.285842   -0.453012
      3          1           0       -2.468721    0.217373   -0.019322
      4          1           0        0.540945   -1.438010    0.690964
      5          1           0        1.531409    0.806345    0.203026
      6          7           0       -1.712570   -0.447844    0.085694
      7          7           0        0.591545   -0.805836   -0.100194
      8          8           0       -0.216286    1.317539   -0.003208
      9          8           0        1.835580   -0.112625   -0.014847
 ---------------------------------------------------------------------

 SCF Done:  E(RHF) =  -300.104844543     A.U. after    2 cycles

 The electronic state is 1-A.
 Alpha  occ. eigenvalues --  -21.08555 -21.05780 -15.80201 -15.79487 -11.52001
 Alpha  occ. eigenvalues --   -1.81282  -1.70491  -1.39157  -1.21187  -0.83689
 Alpha  occ. eigenvalues --   -0.75540  -0.69389  -0.66135  -0.56696  -0.53898
 Alpha  occ. eigenvalues --   -0.46336  -0.42959  -0.37370  -0.32926  -0.30198
 Alpha virt. eigenvalues --    0.03169   0.05183   0.05836   0.07377   0.11277
 Alpha virt. eigenvalues --    0.11535   0.13152   0.14672   0.16118   0.16498
 Alpha virt. eigenvalues --    0.16722   0.17599   0.19535   0.19724   0.20944

 Mulliken charges:
               1
     1  C    5.138510
     2  H    0.658815
     3  H    0.558685
     4  H    0.675672
     5  H    0.753742
     6  N   -2.569968
     7  N   -0.467757
     8  O   -2.567422
     9  O   -2.180275
 Sum of Mulliken charges =  -0.00000

 Dipole moment (field-independent basis, Debye):
    X=             -2.0000    Y=             -1.1346    Z=              0.2052  Tot=              2.3086

 Test job not archived.
 1\1\GINC-SE339\SP\RHF\Aug-CC-pVDZ\C1H4N2O2\OHZDE\08-Apr-2025\0\\#t hf
 aug-cc-pvdz iop(5/13=1,5/36=2,99/5=2) pseudo=read geom=check guess=(re
 ad,tcheck) scf=(maxcycle=1)\\title\\0,1\C,0,-0.476637,0.13943,-0.02928
 54\H,0,-1.85098,-1.28584,-0.453012\H,0,-2.46872,0.217375,-0.0193219\H,
 0,0.540945,-1.43801,0.690964\H,0,1.53141,0.806345,0.203026\N,0,-1.7125
 7,-0.447842,0.0856939\N,0,0.591545,-0.805836,-0.100194\O,0,-0.216285,1
 .31754,-0.00320816\O,0,1.83558,-0.112625,-0.0148472\\Version=ES64L-G16
 RevC.01\State=1-A\HF=-300.1048445\RMSD=4.653e-02\Dipole=-0.7868704,-0.

 Normal termination of Gaussian 16 at Tue Apr  8 21:37:43 2025.
