 Gaussian 16, Revision C.01,

 ----------------------------------------------------------------------
 #t hf aug-cc-pvdz symm=none int=(grid=ultrafine) guess=(read,tcheck) s
 table=(opt,rrhf)
 ----------------------------------------------------------------------
 -----
 title
 -----
 Symbolic Z-matrix:
 Charge =  0 Multiplicity = 1

 SCF Done:  E(RHF) =  -526.451194376     A.U. after   14 cycles
 Normal termination of Gaussian 16 at Tue Apr  8 21:57:51 2025.
 Gaussian 16:  ES64L-G16RevC.01  3-Jul-2019

 ----------------------------------------------------------------------
 #t hf aug-cc-pvdz iop(5/13=1,5/36=2,99/5=2) pseudo=read geom=check gue
 ss=(read,tcheck) scf=(maxcycle=1)
 ----------------------------------------------------------------------
 -----
 title
 -----
 Structure from the checkpoint file:  "ANI1ccx_765_conf1_mol1.chk"
 Charge =  0 Multiplicity = 1

                         Standard orientation:
 ---------------------------------------------------------------------
 Center     Atomic      Atomic             Coordinates (Angstroms)
 Number     Number       Type             X           Y           Z
 ---------------------------------------------------------------------
      1          6           0       -1.393638   -1.279432    0.073444
      2          6           0        0.068891   -0.877687   -0.156968
      3          6           0        0.504872    0.571346   -0.122293
      4          1           0        3.478180    0.262028    0.063639
      5          1           0        0.213631    2.427190    0.218876
      6          1           0        1.765972   -1.126309    0.737782
      7          1           0       -2.054691    1.135757    0.232030
      8          1           0       -3.088599   -1.021374   -1.194450
      9          1           0       -1.696578   -1.416112    1.147000
     10          1           0       -1.362787   -2.302892   -0.488167
     11          1           0        0.377291   -1.289470   -1.257350
     12          7           0       -0.419888    1.691239   -0.147330
     13          7           0        1.719060    0.834884   -0.244969
     14          8           0       -2.328819   -0.336101   -0.739741
     15          8           0        0.840949   -1.565640    0.880049
     16          8           0       -1.418991    1.402668    0.862194
     17          8           0        2.680941   -0.105558   -0.437297
 ---------------------------------------------------------------------

 SCF Done:  E(RHF) =  -528.753025122     A.U. after    2 cycles

 The electronic state is 1-A.
 Alpha  occ. eigenvalues --  -21.12682 -21.08643 -21.08481 -21.06275 -15.78782
 Alpha  occ. eigenvalues --  -15.76815 -11.51765 -11.48990 -11.42750  -1.83989
 Alpha  occ. eigenvalues --   -1.77371  -1.69368  -1.64886  -1.35077  -1.13872
 Alpha  occ. eigenvalues --   -1.08904  -0.91636  -0.76578  -0.69255  -0.68115
 Alpha  occ. eigenvalues --   -0.66518  -0.63090  -0.61438  -0.58165  -0.55530
 Alpha  occ. eigenvalues --   -0.53343  -0.51976  -0.47969  -0.43612  -0.42615
 Alpha  occ. eigenvalues --   -0.41140  -0.35322  -0.33501  -0.33017  -0.31032
 Alpha  occ. eigenvalues --   -0.29191
 Alpha virt. eigenvalues --    0.03474   0.04757   0.05465   0.06129   0.06221
 Alpha virt. eigenvalues --    0.06611   0.07306   0.08614   0.11205   0.12023
 Alpha virt. eigenvalues --    0.12604   0.13579   0.14171   0.15149   0.15776

 Mulliken charges:
               1
     1  C   -1.092914
     2  C    1.097942
     3  C    3.696504
     4  H    0.745472
     5  H    0.686699
     6  H    1.042691
     7  H    1.232965
     8  H    0.653161
     9  H    1.409816
    10  H    0.997174
    11  H    1.226724
    12  N   -1.195309
    13  N   -0.906426
    14  O   -2.229827
    15  O   -2.694387
    16  O   -2.117151
    17  O   -2.553135
 Sum of Mulliken charges =   0.00000

 Dipole moment (field-independent basis, Debye):
    X=             -0.3640    Y=             -0.8590    Z=              0.3085  Tot=              0.9827

 Test job not archived.
 1\1\GINC-SE334\SP\RHF\Aug-CC-pVDZ\C3H8N2O4\OHZDE\08-Apr-2025\0\\#t hf
 aug-cc-pvdz iop(5/13=1,5/36=2,99/5=2) pseudo=read geom=check guess=(re
 ad,tcheck) scf=(maxcycle=1)\\title\\0,1\C,0,-1.39364,-1.27943,0.073443
 7\C,0,0.06889,-0.877687,-0.156968\C,0,0.504872,0.571346,-0.122293\H,0,
 3.47818,0.262025,0.0636394\H,0,0.213633,2.42719,0.218876\H,0,1.76597,-
 1.12631,0.737782\H,0,-2.05469,1.13576,0.23203\H,0,-3.0886,-1.02137,-1.
 19445\H,0,-1.69658,-1.41611,1.147\H,0,-1.36279,-2.30289,-0.488167\H,0,
 0.377289,-1.28947,-1.25735\N,0,-0.419887,1.69124,-0.14733\N,0,1.71906,

 Normal termination of Gaussian 16 at Tue Apr  8 21:57:58 2025.
