 Gaussian 16, Revision C.01,

 ----------------------------------------------------------------------
 #t hf aug-cc-pvdz symm=none int=(grid=ultrafine) guess=(read,tcheck) s
 table=(opt,rrhf)
 ----------------------------------------------------------------------
 -----
 title
 -----
 Symbolic Z-matrix:
 Charge =  0 Multiplicity = 1

 SCF Done:  E(RHF) =  -471.592870755     A.U. after   14 cycles
 Normal termination of Gaussian 16 at Tue Apr  8 21:56:14 2025.
 Gaussian 16:  ES64L-G16RevC.01  3-Jul-2019

 ----------------------------------------------------------------------
 #t hf aug-cc-pvdz iop(5/13=1,5/36=2,99/5=2) pseudo=read geom=check gue
 ss=(read,tcheck) scf=(maxcycle=1)
 ----------------------------------------------------------------------
 -----
 title
 -----
 Structure from the checkpoint file:  "ANI1ccx_745_conf1_mol2.chk"
 Charge =  0 Multiplicity = 1

                         Standard orientation:
 ---------------------------------------------------------------------
 Center     Atomic      Atomic             Coordinates (Angstroms)
 Number     Number       Type             X           Y           Z
 ---------------------------------------------------------------------
      1          6           0        2.213490    0.081806    0.436197
      2          6           0        1.385131    1.045098   -0.401919
      3          6           0       -0.732976    0.149654   -0.027200
      4          1           0        1.422819   -1.591762   -0.101926
      5          1           0        1.946950    0.095751    1.521190
      6          1           0        3.275940    0.452941    0.392210
      7          1           0        1.662271    2.068878   -0.401297
      8          1           0        1.398460    0.633890   -1.431440
      9          1           0       -2.296469    1.359491    0.089713
     10          1           0       -2.410421   -1.342059   -0.200203
     11          7           0       -2.002300    0.416777    0.388086
     12          8           0        2.302269   -1.255542   -0.007078
     13          8           0        0.014243    1.250999   -0.027144
     14          8           0       -0.399688   -0.986553   -0.276938
     15          8           0       -2.938990   -0.540644   -0.017256
 ---------------------------------------------------------------------

 SCF Done:  E(RHF) =  -473.594682862     A.U. after    2 cycles

 The electronic state is 1-A.
 Alpha  occ. eigenvalues --  -21.12185 -21.11174 -21.06760 -21.05967 -15.81164
 Alpha  occ. eigenvalues --  -11.54515 -11.47656 -11.41499  -1.90246  -1.79979
 Alpha  occ. eigenvalues --   -1.70787  -1.70203  -1.27342  -1.10012  -0.91598
 Alpha  occ. eigenvalues --   -0.82466  -0.74889  -0.69334  -0.66090  -0.63628
 Alpha  occ. eigenvalues --   -0.62316  -0.58109  -0.57187  -0.51709  -0.47830
 Alpha  occ. eigenvalues --   -0.46606  -0.44788  -0.42618  -0.35729  -0.33395
 Alpha  occ. eigenvalues --   -0.30849  -0.29425
 Alpha virt. eigenvalues --    0.03639   0.04966   0.05260   0.05699   0.06385
 Alpha virt. eigenvalues --    0.06476   0.08112   0.10381   0.11100   0.12227
 Alpha virt. eigenvalues --    0.13083   0.13983   0.14479   0.15506   0.16102

 Mulliken charges:
               1
     1  C   -1.168787
     2  C   -1.689639
     3  C    6.274852
     4  H    1.176986
     5  H    1.446959
     6  H    1.236498
     7  H    1.549715
     8  H    1.389525
     9  H    0.679127
    10  H    0.815181
    11  N   -0.946956
    12  O   -2.748596
    13  O   -3.129151
    14  O   -2.614241
    15  O   -2.271472
 Sum of Mulliken charges =  -0.00000

 Dipole moment (field-independent basis, Debye):
    X=             -0.2197    Y=              1.9783    Z=             -0.5745  Tot=              2.0718

 Test job not archived.
 1\1\GINC-SE102\SP\RHF\Aug-CC-pVDZ\C3H7N1O4\OHZDE\08-Apr-2025\0\\#t hf
 aug-cc-pvdz iop(5/13=1,5/36=2,99/5=2) pseudo=read geom=check guess=(re
 ad,tcheck) scf=(maxcycle=1)\\title\\0,1\C,0,2.21349,0.0818083,0.436197
 \C,0,1.38513,1.0451,-0.401919\C,0,-0.732976,0.149655,-0.0272002\H,0,1.
 42282,-1.59176,-0.101926\H,0,1.94695,0.0957536,1.52119\H,0,3.27594,0.4
 52944,0.39221\H,0,1.66227,2.06888,-0.401297\H,0,1.39846,0.633892,-1.43
 144\H,0,-2.29647,1.35949,0.0897131\H,0,-2.41042,-1.34206,-0.200203\N,0
 ,-2.0023,0.416777,0.388086\O,0,2.30227,-1.25554,-0.00707776\O,0,0.0142

 Normal termination of Gaussian 16 at Tue Apr  8 21:56:20 2025.
