 Gaussian 16, Revision C.01,

 ----------------------------------------------------------------------
 #t hf aug-cc-pvdz symm=none int=(grid=ultrafine) guess=(read,tcheck) s
 table=(opt,rrhf)
 ----------------------------------------------------------------------
 -----
 title
 -----
 Symbolic Z-matrix:
 Charge =  0 Multiplicity = 1

 SCF Done:  E(RHF) =  -504.964370929     A.U. after   16 cycles
 Normal termination of Gaussian 16 at Tue Apr  8 21:42:13 2025.
 Gaussian 16:  ES64L-G16RevC.01  3-Jul-2019

 ----------------------------------------------------------------------
 #t hf aug-cc-pvdz iop(5/13=1,5/36=2,99/5=2) pseudo=read geom=check gue
 ss=(read,tcheck) scf=(maxcycle=1)
 ----------------------------------------------------------------------
 -----
 title
 -----
 Structure from the checkpoint file:  "ANI1ccx_471_conf48_mol1.chk"
 Charge =  0 Multiplicity = 1

                         Standard orientation:
 ---------------------------------------------------------------------
 Center     Atomic      Atomic             Coordinates (Angstroms)
 Number     Number       Type             X           Y           Z
 ---------------------------------------------------------------------
      1          6           0        1.395980   -0.172904   -0.062465
      2          6           0       -0.659526    0.777614   -0.006294
      3          1           0       -2.262390   -1.873808    0.136256
      4          7           0       -0.872725   -0.562819    0.306622
      5          8           0       -1.891210   -1.211588   -0.268968
      6          8           0        0.543432   -1.154548    0.195445
      7          8           0        2.588820   -0.118318   -0.296614
      8          8           0        0.785131    1.067322    0.300753
      9          8           0       -1.532080    1.690292   -0.164372
 ---------------------------------------------------------------------

 SCF Done:  E(RHF) =  -507.003821724     A.U. after    2 cycles

 The electronic state is 1-A.
 Alpha  occ. eigenvalues --  -21.22777 -21.20103 -21.16868 -21.11859 -21.10537
 Alpha  occ. eigenvalues --  -15.93510 -11.61769 -11.59057  -2.01630  -1.90411
 Alpha  occ. eigenvalues --   -1.77714  -1.73062  -1.67649  -1.29559  -0.90187
 Alpha  occ. eigenvalues --   -0.87631  -0.77857  -0.73899  -0.66127  -0.63400
 Alpha  occ. eigenvalues --   -0.59403  -0.56545  -0.52509  -0.51101  -0.46440
 Alpha  occ. eigenvalues --   -0.41925  -0.39279  -0.35579  -0.34669  -0.32162
 Alpha virt. eigenvalues --    0.02643   0.06519   0.09724   0.10093   0.10855
 Alpha virt. eigenvalues --    0.10948   0.11123   0.12152   0.12274   0.14272
 Alpha virt. eigenvalues --    0.14697   0.15946   0.17177   0.18321   0.19006

 Mulliken charges:
               1
     1  C    5.443419
     2  C    4.842017
     3  H    0.867605
     4  N    1.703601
     5  O   -2.877330
     6  O   -2.383207
     7  O   -2.701301
     8  O   -2.337551
     9  O   -2.557254
 Sum of Mulliken charges =  -0.00000

 Dipole moment (field-independent basis, Debye):
    X=             -1.9488    Y=             -2.0623    Z=              0.8090  Tot=              2.9505

 Test job not archived.
 1\1\GINC-SE457\SP\RHF\Aug-CC-pVDZ\C2H1N1O5\OHZDE\08-Apr-2025\0\\#t hf
 aug-cc-pvdz iop(5/13=1,5/36=2,99/5=2) pseudo=read geom=check guess=(re
 ad,tcheck) scf=(maxcycle=1)\\title\\0,1\C,0,1.39598,-0.172905,-0.06246
 48\C,0,-0.659526,0.777612,-0.00629381\H,0,-2.26239,-1.87381,0.136256\N
 ,0,-0.872725,-0.562821,0.306622\O,0,-1.89121,-1.21159,-0.268968\O,0,0.
 543432,-1.15455,0.195445\O,0,2.58882,-0.118319,-0.296614\O,0,0.785131,
 1.06732,0.300753\O,0,-1.53208,1.69029,-0.164372\\Version=ES64L-G16RevC
 .01\State=1-A\HF=-507.0038217\RMSD=5.573e-02\Dipole=-0.7667006,-0.8113

 Normal termination of Gaussian 16 at Tue Apr  8 21:42:16 2025.
