 Gaussian 16, Revision C.01,

 ----------------------------------------------------------------------
 #t hf aug-cc-pvdz symm=none int=(grid=ultrafine) guess=(read,tcheck) s
 table=(opt,rrhf)
 ----------------------------------------------------------------------
 -----
 title
 -----
 Symbolic Z-matrix:
 Charge =  0 Multiplicity = 1

 SCF Done:  E(RHF) =  -555.311282356     A.U. after   18 cycles
 Normal termination of Gaussian 16 at Tue Apr  8 22:09:11 2025.
 Gaussian 16:  ES64L-G16RevC.01  3-Jul-2019

 ----------------------------------------------------------------------
 #t hf aug-cc-pvdz iop(5/13=1,5/36=2,99/5=2) pseudo=read geom=check gue
 ss=(read,tcheck) scf=(maxcycle=1)
 ----------------------------------------------------------------------
 -----
 title
 -----
 Structure from the checkpoint file:  "ANI1ccx_886_conf6_mol1.chk"
 Charge =  0 Multiplicity = 1

                         Standard orientation:
 ---------------------------------------------------------------------
 Center     Atomic      Atomic             Coordinates (Angstroms)
 Number     Number       Type             X           Y           Z
 ---------------------------------------------------------------------
      1          6           0       -1.304720    0.701324   -0.008759
      2          6           0        0.936266    0.697622    0.039963
      3          6           0        0.937183   -0.732657    0.003379
      4          6           0       -1.299228   -0.719562    0.040702
      5          1           0       -3.182620    1.088926    0.613314
      6          1           0       -2.504222    2.310487   -0.224615
      7          1           0       -3.147658   -0.836750   -0.571395
      8          1           0       -2.500876   -2.367413   -0.075914
      9          7           0       -2.514111    1.307417   -0.098359
     10          7           0       -0.181804    1.459519    0.017752
     11          7           0        2.151680    1.164062    0.045875
     12          7           0        2.180272   -1.134288   -0.049710
     13          7           0       -0.216349   -1.424011   -0.006385
     14          7           0       -2.536928   -1.334223    0.092469
     15          8           0        2.942381   -0.018117   -0.025574
 ---------------------------------------------------------------------

 SCF Done:  E(RHF) =  -557.765690050     A.U. after    2 cycles

 The electronic state is 1-A.
 Alpha  occ. eigenvalues --  -21.13950 -15.81314 -15.80327 -15.80255 -15.79305
 Alpha  occ. eigenvalues --  -15.77897 -15.77601 -11.57867 -11.50004 -11.48468
 Alpha  occ. eigenvalues --  -11.43006  -1.93611  -1.58457  -1.43700  -1.40860
 Alpha  occ. eigenvalues --   -1.34946  -1.24901  -1.22192  -1.01292  -0.89646
 Alpha  occ. eigenvalues --   -0.88608  -0.78454  -0.71962  -0.70197  -0.68915
 Alpha  occ. eigenvalues --   -0.66736  -0.65956  -0.60933  -0.55650  -0.53201
 Alpha  occ. eigenvalues --   -0.52728  -0.49529  -0.45618  -0.44681  -0.44129
 Alpha  occ. eigenvalues --   -0.40373  -0.36105  -0.33521  -0.30448
 Alpha virt. eigenvalues --    0.02540   0.03867   0.05039   0.05604   0.06825
 Alpha virt. eigenvalues --    0.07815   0.09596   0.09865   0.10496   0.12304
 Alpha virt. eigenvalues --    0.12397   0.12942   0.13261   0.13554   0.14923

 Mulliken charges:
               1
     1  C    4.499082
     2  C    4.098672
     3  C    4.121735
     4  C    4.595736
     5  H    0.519418
     6  H    0.766474
     7  H    0.493924
     8  H    0.717492
     9  N   -3.478700
    10  N   -3.727541
    11  N   -1.746813
    12  N   -1.387311
    13  N   -3.806763
    14  N   -3.404997
    15  O   -2.260406
 Sum of Mulliken charges =  -0.00000

 Dipole moment (field-independent basis, Debye):
    X=             -5.3384    Y=              0.0872    Z=             -0.1917  Tot=              5.3426

 Test job not archived.
 1\1\GINC-SE338\SP\RHF\Aug-CC-pVDZ\C4H4N6O1\OHZDE\08-Apr-2025\0\\#t hf
 aug-cc-pvdz iop(5/13=1,5/36=2,99/5=2) pseudo=read geom=check guess=(re
 ad,tcheck) scf=(maxcycle=1)\\title\\0,1\C,0,-1.30472,0.701326,-0.00875
 873\C,0,0.936266,0.697621,0.0399631\C,0,0.937181,-0.732658,0.0033791\C
 ,0,-1.29923,-0.71956,0.0407019\H,0,-3.18262,1.08893,0.613314\H,0,-2.50
 422,2.31049,-0.224615\H,0,-3.14766,-0.836746,-0.571395\H,0,-2.50088,-2
 .36741,-0.0759143\N,0,-2.51411,1.30742,-0.098359\N,0,-0.181803,1.45952
 ,0.0177522\N,0,2.15168,1.16406,0.0458751\N,0,2.18027,-1.13429,-0.04970

 Normal termination of Gaussian 16 at Tue Apr  8 22:09:18 2025.
