 Gaussian 16, Revision C.01,

 ----------------------------------------------------------------------
 #t hf aug-cc-pvdz symm=none int=(grid=ultrafine) guess=(read,tcheck) s
 table=(opt,rrhf)
 ----------------------------------------------------------------------
 -----
 title
 -----
 Symbolic Z-matrix:
 Charge =  0 Multiplicity = 1

 SCF Done:  E(RHF) =  -943.055909897     A.U. after   14 cycles
 Normal termination of Gaussian 16 at Tue Apr  8 20:15:18 2025.
 Gaussian 16:  ES64L-G16RevC.01  3-Jul-2019

 ----------------------------------------------------------------------
 #t hf aug-cc-pvdz iop(5/13=1,5/36=2,99/5=2) pseudo=read geom=check gue
 ss=(read,tcheck) scf=(maxcycle=1)
 ----------------------------------------------------------------------
 -----
 title
 -----
 Structure from the checkpoint file:  "ANI1ccx_1569_conf16_mol1.chk"
 Charge =  0 Multiplicity = 1

                         Standard orientation:
 ---------------------------------------------------------------------
 Center     Atomic      Atomic             Coordinates (Angstroms)
 Number     Number       Type             X           Y           Z
 ---------------------------------------------------------------------
      1          6           0        2.309785   -1.022890    0.327479
      2          6           0        0.820710   -1.258266   -0.029802
      3          6           0        2.906380    0.288210   -0.303681
      4          6           0        2.010956    1.417568   -0.083136
      5          6           0       -1.464557   -0.462015    0.467496
      6          6           0       -2.315862   -1.737029    0.205146
      7          6           0       -1.682711    0.598515   -0.579446
      8          6           0       -1.459527    2.009795   -0.102612
      9          1           0       -0.790366   -2.560703   -0.567584
     10          1           0       -2.048304    3.752802   -0.392375
     11          1           0       -2.641141    0.441119   -1.022160
     12          1           0       -0.932386    0.414442   -1.402190
     13          1           0       -1.962438   -0.197670    1.401540
     14          1           0        0.408287   -0.103559    1.424390
     15          1           0        3.113271    0.124911   -1.376620
     16          1           0        3.839899    0.449282    0.245918
     17          1           0        2.382325   -0.873421    1.434310
     18          1           0        2.606602   -2.763089   -0.752670
     19          1           0        3.435612   -2.672056    0.670927
     20          1           0        1.034242    2.341515    1.249230
     21          7           0        3.072390   -2.166398   -0.095033
     22          7           0       -0.080664   -0.771691    0.841114
     23          8           0       -2.208770    2.887332   -0.754686
     24          8           0        0.495413   -1.701088   -1.107200
     25          8           0        1.568712    2.211857   -0.930066
     26          8           0        1.558905    1.542627    1.180780
     27          8           0       -3.506422   -1.678843    0.422816
     28          8           0       -0.709140    2.403558    0.806260
     29          8           0       -1.716038   -2.764226   -0.310900
 ---------------------------------------------------------------------

 SCF Done:  E(RHF) =  -947.103638463     A.U. after    2 cycles

 The electronic state is 1-A.
 Alpha  occ. eigenvalues --  -21.15119 -21.12277 -21.11019 -21.07183 -21.06620
 Alpha  occ. eigenvalues --  -21.05778 -21.04252 -15.79357 -15.76097 -11.58235
 Alpha  occ. eigenvalues --  -11.56717 -11.55672 -11.54494 -11.50739 -11.49627
 Alpha  occ. eigenvalues --  -11.44001 -11.43385  -1.86617  -1.84453  -1.83732
 Alpha  occ. eigenvalues --   -1.77578  -1.67293  -1.65462  -1.64672  -1.45269
 Alpha  occ. eigenvalues --   -1.38260  -1.21509  -1.17130  -1.04902  -0.97528
 Alpha  occ. eigenvalues --   -0.85706  -0.84248  -0.81948  -0.78531  -0.76746
 Alpha  occ. eigenvalues --   -0.73788  -0.70078  -0.67186  -0.66880  -0.65316
 Alpha  occ. eigenvalues --   -0.64534  -0.63563  -0.61927  -0.61364  -0.58686
 Alpha  occ. eigenvalues --   -0.56725  -0.55746  -0.54585  -0.53084  -0.51959
 Alpha  occ. eigenvalues --   -0.51372  -0.50043  -0.49153  -0.47922  -0.45473
 Alpha  occ. eigenvalues --   -0.45215  -0.37726  -0.37017  -0.35839  -0.35007
 Alpha  occ. eigenvalues --   -0.33172  -0.31397  -0.31038  -0.29592  -0.29227
 Alpha virt. eigenvalues --    0.03075   0.04289   0.04569   0.04691   0.05292
 Alpha virt. eigenvalues --    0.05682   0.06752   0.07163   0.07582   0.07796
 Alpha virt. eigenvalues --    0.08169   0.09043   0.09341   0.10372   0.10887

 Mulliken charges:
               1
     1  C   -2.043710
     2  C    8.251826
     3  C   -4.324615
     4  C    7.058748
     5  C   -0.788061
     6  C    6.368102
     7  C   -4.272074
     8  C    6.229541
     9  H    1.584579
    10  H    0.931365
    11  H    1.474183
    12  H    1.640986
    13  H    1.853978
    14  H    1.116378
    15  H    1.236638
    16  H    1.466169
    17  H    1.814878
    18  H    0.495411
    19  H    0.463408
    20  H    1.616157
    21  N   -2.570036
    22  N   -4.119426
    23  O   -3.557523
    24  O   -4.045855
    25  O   -3.551746
    26  O   -3.756809
    27  O   -3.487323
    28  O   -3.285884
    29  O   -3.799284
 Sum of Mulliken charges =   0.00000

 Dipole moment (field-independent basis, Debye):
    X=              2.2371    Y=              1.5889    Z=              1.2627  Tot=              3.0205

 Test job not archived.
 1\1\GINC-SE028\SP\RHF\Aug-CC-pVDZ\C8H12N2O7\OHZDE\08-Apr-2025\0\\#t hf
  aug-cc-pvdz iop(5/13=1,5/36=2,99/5=2) pseudo=read geom=check guess=(r
 ead,tcheck) scf=(maxcycle=1)\\title\\0,1\C,0,2.30978,-1.0229,0.327479\
 C,0,0.820704,-1.25827,-0.0298022\C,0,2.90638,0.288198,-0.303681\C,0,2.
 01096,1.41756,-0.0831364\C,0,-1.46456,-0.46201,0.467496\C,0,-2.31587,-
 1.73702,0.205146\C,0,-1.68271,0.598521,-0.579446\C,0,-1.45952,2.0098,-
 0.102612\H,0,-0.790377,-2.5607,-0.567584\H,0,-2.04829,3.75281,-0.39237
 5\H,0,-2.64114,0.441129,-1.02216\H,0,-0.932385,0.414445,-1.40219\H,0,-

 Normal termination of Gaussian 16 at Tue Apr  8 20:15:57 2025.
