 Gaussian 16, Revision C.01,

 ----------------------------------------------------------------------
 #t hf aug-cc-pvdz symm=none int=(grid=ultrafine) guess=(read,tcheck) s
 table=(opt,rrhf)
 ----------------------------------------------------------------------
 -----
 title
 -----
 Symbolic Z-matrix:
 Charge =  0 Multiplicity = 1

 SCF Done:  E(RHF) =  -482.913641388     A.U. after   14 cycles
 Normal termination of Gaussian 16 at Tue Apr  8 22:17:32 2025.
 Gaussian 16:  ES64L-G16RevC.01  3-Jul-2019

 ----------------------------------------------------------------------
 #t hf aug-cc-pvdz iop(5/13=1,5/36=2,99/5=2) pseudo=read geom=check gue
 ss=(read,tcheck) scf=(maxcycle=1)
 ----------------------------------------------------------------------
 -----
 title
 -----
 Structure from the checkpoint file:  "ANI1ccx_965_conf1_mol1.chk"
 Charge =  0 Multiplicity = 1

                         Standard orientation:
 ---------------------------------------------------------------------
 Center     Atomic      Atomic             Coordinates (Angstroms)
 Number     Number       Type             X           Y           Z
 ---------------------------------------------------------------------
      1          6           0       -1.598890   -0.049412   -0.032924
      2          6           0        0.354471   -1.149290    0.058253
      3          6           0        1.040320    0.073754   -0.171558
      4          6           0        0.274714    1.206560    0.009602
      5          1           0        0.281448    3.194480    0.652168
      6          1           0        1.857336    2.487522    0.439198
      7          1           0        2.813609    0.809258   -0.866288
      8          1           0        2.743601   -0.842537   -0.654175
      9          1           0        0.590609   -3.137040    0.403576
     10          1           0       -3.395918   -0.968153   -0.399149
     11          1           0       -3.489431    0.741514   -0.168038
     12          1           0        1.882624   -2.315698    0.909244
     13          7           0        0.869988    2.438661    0.214197
     14          7           0       -2.930540   -0.137259   -0.087851
     15          7           0       -0.967952   -1.250582   -0.027053
     16          7           0        1.112504   -2.359009    0.222715
     17          7           0        2.450880    0.042207   -0.281693
     18          7           0       -1.064532    1.200408    0.031576
 ---------------------------------------------------------------------

 SCF Done:  E(RHF) =  -485.145991875     A.U. after    2 cycles

 The electronic state is 1-A.
 Alpha  occ. eigenvalues --  -15.76429 -15.75845 -15.75390 -15.74550 -15.70394
 Alpha  occ. eigenvalues --  -15.70182 -11.50999 -11.49370 -11.46760 -11.38296
 Alpha  occ. eigenvalues --   -1.54715  -1.40236  -1.38731  -1.30598  -1.25054
 Alpha  occ. eigenvalues --   -1.22784  -1.04620  -0.88966  -0.87227  -0.74510
 Alpha  occ. eigenvalues --   -0.71095  -0.66103  -0.65766  -0.62852  -0.62363
 Alpha  occ. eigenvalues --   -0.60914  -0.56076  -0.55208  -0.53437  -0.50618
 Alpha  occ. eigenvalues --   -0.48718  -0.42825  -0.41667  -0.35556  -0.34233
 Alpha  occ. eigenvalues --   -0.31642  -0.23196
 Alpha virt. eigenvalues --    0.03687   0.05128   0.05258   0.05559   0.06419
 Alpha virt. eigenvalues --    0.07039   0.07530   0.08433   0.10070   0.11647
 Alpha virt. eigenvalues --    0.12814   0.13220   0.13597   0.13765   0.14851

 Mulliken charges:
               1
     1  C    3.631303
     2  C    3.367227
     3  C    3.226598
     4  C    4.584370
     5  H    0.721142
     6  H    0.586918
     7  H    0.516258
     8  H    0.723363
     9  H    0.823569
    10  H    0.702359
    11  H    0.661028
    12  H    0.496445
    13  N   -3.430152
    14  N   -3.008904
    15  N   -3.451678
    16  N   -3.377417
    17  N   -3.492406
    18  N   -3.280023
 Sum of Mulliken charges =  -0.00000

 Dipole moment (field-independent basis, Debye):
    X=              0.8906    Y=              0.0850    Z=              0.2792  Tot=              0.9372

 Test job not archived.
 1\1\GINC-SE132\SP\RHF\Aug-CC-pVDZ\C4H8N6\OHZDE\08-Apr-2025\0\\#t hf au
 g-cc-pvdz iop(5/13=1,5/36=2,99/5=2) pseudo=read geom=check guess=(read
 ,tcheck) scf=(maxcycle=1)\\title\\0,1\C,0,-1.59889,-0.0494092,-0.03292
 43\C,0,0.354469,-1.14929,0.0582532\C,0,1.04032,0.0737532,-0.171558\C,0
 ,0.274716,1.20656,0.0096021\H,0,0.281453,3.19448,0.652168\H,0,1.85734,
 2.48752,0.439198\H,0,2.81361,0.809254,-0.866288\H,0,2.7436,-0.842541,-
 0.654175\H,0,0.590604,-3.13704,0.403576\H,0,-3.39592,-0.968147,-0.3991
 49\H,0,-3.48943,0.74152,-0.168038\H,0,1.88262,-2.3157,0.909244\N,0,0.8

 Normal termination of Gaussian 16 at Tue Apr  8 22:17:41 2025.
