 Gaussian 16, Revision C.01,

 ----------------------------------------------------------------------
 #t hf aug-cc-pvdz symm=none int=(grid=ultrafine) guess=(read,tcheck) s
 table=(opt,rrhf)
 ----------------------------------------------------------------------
 -----
 title
 -----
 Symbolic Z-matrix:
 Charge =  0 Multiplicity = 1

 SCF Done:  E(RHF) =  -390.629385843     A.U. after   14 cycles
 Normal termination of Gaussian 16 at Tue Apr  8 21:44:51 2025.
 Gaussian 16:  ES64L-G16RevC.01  3-Jul-2019

 ----------------------------------------------------------------------
 #t hf aug-cc-pvdz iop(5/13=1,5/36=2,99/5=2) pseudo=read geom=check gue
 ss=(read,tcheck) scf=(maxcycle=1)
 ----------------------------------------------------------------------
 -----
 title
 -----
 Structure from the checkpoint file:  "ANI1ccx_502_conf1_mol1.chk"
 Charge =  0 Multiplicity = 1

                         Standard orientation:
 ---------------------------------------------------------------------
 Center     Atomic      Atomic             Coordinates (Angstroms)
 Number     Number       Type             X           Y           Z
 ---------------------------------------------------------------------
      1          6           0       -1.147350   -0.196075    0.011435
      2          6           0        1.155970   -0.152773    0.020853
      3          1           0       -1.191520    1.775480   -0.523359
      4          1           0        1.092970    1.789020    0.535779
      5          1           0       -0.022412   -1.972910    0.138574
      6          7           0       -0.719593    1.133040    0.098470
      7          7           0        0.668925    1.163970   -0.087020
      8          7           0        0.025018   -0.972892    0.008902
      9          8           0       -2.288480   -0.558523   -0.020616
     10          8           0        2.319580   -0.537391   -0.040283
 ---------------------------------------------------------------------

 SCF Done:  E(RHF) =  -392.281634714     A.U. after    2 cycles

 The electronic state is 1-A.
 Alpha  occ. eigenvalues --  -21.06488 -21.06208 -15.82050 -15.81763 -15.81205
 Alpha  occ. eigenvalues --  -11.55108 -11.53429  -1.77564  -1.73248  -1.59927
 Alpha  occ. eigenvalues --   -1.38600  -1.21796  -0.92699  -0.88581  -0.73572
 Alpha  occ. eigenvalues --   -0.72561  -0.66389  -0.63566  -0.55636  -0.52841
 Alpha  occ. eigenvalues --   -0.52728  -0.50203  -0.35398  -0.34929  -0.32624
 Alpha  occ. eigenvalues --   -0.30865
 Alpha virt. eigenvalues --    0.03213   0.05381   0.05510   0.09464   0.09825
 Alpha virt. eigenvalues --    0.10639   0.12012   0.12173   0.12672   0.14245
 Alpha virt. eigenvalues --    0.14675   0.16020   0.16129   0.17178   0.17955

 Mulliken charges:
               1
     1  C    4.819507
     2  C    4.698017
     3  H    0.706082
     4  H    0.752141
     5  H    0.701861
     6  N   -1.855752
     7  N   -1.828286
     8  N   -2.122477
     9  O   -2.971441
    10  O   -2.899653
 Sum of Mulliken charges =   0.00000

 Dipole moment (field-independent basis, Debye):
    X=             -0.1044    Y=              1.0544    Z=              0.2287  Tot=              1.0839

 Test job not archived.
 1\1\GINC-SE252\SP\RHF\Aug-CC-pVDZ\C2H3N3O2\OHZDE\08-Apr-2025\0\\#t hf
 aug-cc-pvdz iop(5/13=1,5/36=2,99/5=2) pseudo=read geom=check guess=(re
 ad,tcheck) scf=(maxcycle=1)\\title\\0,1\C,0,-1.14735,-0.196075,0.01143
 52\C,0,1.15597,-0.152773,0.0208531\H,0,-1.19152,1.77548,-0.523359\H,0,
 1.09297,1.78902,0.535779\H,0,-0.0224121,-1.97291,0.138574\N,0,-0.71959
 3,1.13304,0.0984703\N,0,0.668925,1.16397,-0.0870196\N,0,0.0250178,-0.9
 72892,0.00890158\O,0,-2.28848,-0.558523,-0.0206162\O,0,2.31958,-0.5373
 91,-0.0402826\\Version=ES64L-G16RevC.01\State=1-A\HF=-392.2816347\RMSD

 Normal termination of Gaussian 16 at Tue Apr  8 21:44:54 2025.
