 Gaussian 16, Revision C.01,

 ----------------------------------------------------------------------
 #t hf aug-cc-pvdz symm=none int=(grid=ultrafine) guess=(read,tcheck) s
 table=(opt,rrhf)
 ----------------------------------------------------------------------
 -----
 title
 -----
 Symbolic Z-matrix:
 Charge =  0 Multiplicity = 1

 SCF Done:  E(RHF) =  -485.241319496     A.U. after   15 cycles
 Normal termination of Gaussian 16 at Tue Apr  8 21:43:56 2025.
 Gaussian 16:  ES64L-G16RevC.01  3-Jul-2019

 ----------------------------------------------------------------------
 #t hf aug-cc-pvdz iop(5/13=1,5/36=2,99/5=2) pseudo=read geom=check gue
 ss=(read,tcheck) scf=(maxcycle=1)
 ----------------------------------------------------------------------
 -----
 title
 -----
 Structure from the checkpoint file:  "ANI1ccx_484_conf13_mol2.chk"
 Charge =  0 Multiplicity = 1

                         Standard orientation:
 ---------------------------------------------------------------------
 Center     Atomic      Atomic             Coordinates (Angstroms)
 Number     Number       Type             X           Y           Z
 ---------------------------------------------------------------------
      1          6           0       -1.400871   -0.038429   -0.051178
      2          6           0        0.688225    0.774950    0.113629
      3          1           0        2.297829   -0.551045   -0.728660
      4          1           0        2.448101   -1.706758    0.441829
      5          7           0        1.788630   -1.271819   -0.221438
      6          7           0        0.740715   -0.629489    0.475053
      7          8           0       -0.595787   -1.072251   -0.088967
      8          8           0       -2.611861   -0.111579   -0.105758
      9          8           0       -0.618593    1.057369    0.124059
     10          8           0        1.554307    1.519941   -0.162232
 ---------------------------------------------------------------------

 SCF Done:  E(RHF) =  -487.213109748     A.U. after    2 cycles

 The electronic state is 1-A.
 Alpha  occ. eigenvalues --  -21.17912 -21.16266 -21.13123 -21.09022 -15.88138
 Alpha  occ. eigenvalues --  -15.82403 -11.60656 -11.58269  -2.04486  -1.83705
 Alpha  occ. eigenvalues --   -1.75989  -1.71176  -1.49314  -1.17770  -0.91151
 Alpha  occ. eigenvalues --   -0.88014  -0.76691  -0.71787  -0.69811  -0.63842
 Alpha  occ. eigenvalues --   -0.61178  -0.56640  -0.55743  -0.53740  -0.46925
 Alpha  occ. eigenvalues --   -0.42999  -0.39111  -0.38224  -0.33816  -0.33188
 Alpha virt. eigenvalues --    0.03307   0.05371   0.07581   0.09467   0.10442
 Alpha virt. eigenvalues --    0.10755   0.11465   0.11747   0.12035   0.12784
 Alpha virt. eigenvalues --    0.14783   0.15391   0.15961   0.16229   0.18693

 Mulliken charges:
               1
     1  C    5.815038
     2  C    5.615855
     3  H    0.555573
     4  H    0.753374
     5  N   -1.495508
     6  N   -0.116146
     7  O   -2.243560
     8  O   -2.910936
     9  O   -2.972700
    10  O   -3.000990
 Sum of Mulliken charges =  -0.00000

 Dipole moment (field-independent basis, Debye):
    X=              2.7938    Y=             -0.6690    Z=              0.2575  Tot=              2.8843

 Test job not archived.
 1\1\GINC-SE127\SP\RHF\Aug-CC-pVDZ\C2H2N2O4\OHZDE\08-Apr-2025\0\\#t hf
 aug-cc-pvdz iop(5/13=1,5/36=2,99/5=2) pseudo=read geom=check guess=(re
 ad,tcheck) scf=(maxcycle=1)\\title\\0,1\C,0,-1.40087,-0.0384269,-0.051
 1776\C,0,0.688227,0.77495,0.113629\H,0,2.29783,-0.551047,-0.72866\H,0,
 2.4481,-1.70676,0.441829\N,0,1.78863,-1.27182,-0.221438\N,0,0.740716,-
 0.629489,0.475053\O,0,-0.595787,-1.07225,-0.0889674\O,0,-2.61186,-0.11
 1575,-0.105758\O,0,-0.618591,1.05737,0.124059\O,0,1.55431,1.51994,-0.1
 62232\\Version=ES64L-G16RevC.01\State=1-A\HF=-487.2131097\RMSD=5.711e-

 Normal termination of Gaussian 16 at Tue Apr  8 21:44:01 2025.
