 Gaussian 16, Revision C.01,

 ----------------------------------------------------------------------
 #t hf aug-cc-pvdz symm=none int=(grid=ultrafine) guess=(read,tcheck) s
 table=(opt,rrhf)
 ----------------------------------------------------------------------
 -----
 title
 -----
 Symbolic Z-matrix:
 Charge =  0 Multiplicity = 1

 SCF Done:  E(RHF) =  -522.629668769     A.U. after   13 cycles
 Normal termination of Gaussian 16 at Tue Apr  8 22:12:25 2025.
 Gaussian 16:  ES64L-G16RevC.01  3-Jul-2019

 ----------------------------------------------------------------------
 #t hf aug-cc-pvdz iop(5/13=1,5/36=2,99/5=2) pseudo=read geom=check gue
 ss=(read,tcheck) scf=(maxcycle=1)
 ----------------------------------------------------------------------
 -----
 title
 -----
 Structure from the checkpoint file:  "ANI1ccx_922_conf11_mol2.chk"
 Charge =  0 Multiplicity = 1

                         Standard orientation:
 ---------------------------------------------------------------------
 Center     Atomic      Atomic             Coordinates (Angstroms)
 Number     Number       Type             X           Y           Z
 ---------------------------------------------------------------------
      1          6           0       -1.857699   -0.002634   -0.312322
      2          6           0       -0.002358    0.787447    0.916668
      3          6           0        1.859691    0.003359   -0.308883
      4          6           0        0.001557   -0.785374    0.922336
      5          1           0       -1.454609    2.020121   -0.115583
      6          1           0        0.012935    1.219911    1.917290
      7          1           0        1.441871    2.029231   -0.120219
      8          1           0        1.445651   -2.016419   -0.131152
      9          1           0        0.002772   -1.199379    1.937190
     10          1           0       -1.414539   -2.018129   -0.154871
     11          7           0       -1.235869    1.100781    0.237637
     12          7           0        1.211911    1.109521    0.210949
     13          7           0        1.229151   -1.101649    0.233465
     14          7           0       -1.225139   -1.108669    0.234930
     15          8           0       -2.800639   -0.005335   -1.072660
     16          8           0        2.812941   -0.001165   -1.059630
 ---------------------------------------------------------------------

 SCF Done:  E(RHF) =  -524.901620360     A.U. after    2 cycles

 The electronic state is 1-A.
 Alpha  occ. eigenvalues --  -21.03178 -21.03083 -15.77697 -15.77344 -15.77338
 Alpha  occ. eigenvalues --  -15.77208 -11.60194 -11.51392 -11.51284 -11.45788
 Alpha  occ. eigenvalues --   -1.73569  -1.71943  -1.57648  -1.42071  -1.37513
 Alpha  occ. eigenvalues --   -1.27649  -1.08089  -0.92068  -0.90663  -0.84330
 Alpha  occ. eigenvalues --   -0.75823  -0.74150  -0.65586  -0.64146  -0.62435
 Alpha  occ. eigenvalues --   -0.61711  -0.58279  -0.58022  -0.52352  -0.50082
 Alpha  occ. eigenvalues --   -0.49549  -0.40641  -0.35380  -0.34045  -0.31204
 Alpha  occ. eigenvalues --   -0.30198  -0.29868
 Alpha virt. eigenvalues --    0.02753   0.04315   0.04576   0.05501   0.06203
 Alpha virt. eigenvalues --    0.06309   0.09190   0.09928   0.10995   0.11582
 Alpha virt. eigenvalues --    0.11885   0.12128   0.12325   0.12851   0.13182

 Mulliken charges:
               1
     1  C    5.355093
     2  C   -0.071215
     3  C    5.338707
     4  C   -0.222397
     5  H    0.610233
     6  H    1.792042
     7  H    0.628476
     8  H    0.600979
     9  H    1.786447
    10  H    0.599726
    11  N   -2.440598
    12  N   -2.457674
    13  N   -2.397422
    14  N   -2.408550
    15  O   -3.360203
    16  O   -3.353646
 Sum of Mulliken charges =   0.00000

 Dipole moment (field-independent basis, Debye):
    X=              0.0338    Y=              0.0796    Z=              2.4424  Tot=              2.4439

 Test job not archived.
 1\1\GINC-SE106\SP\RHF\Aug-CC-pVDZ\C4H6N4O2\OHZDE\08-Apr-2025\0\\#t hf
 aug-cc-pvdz iop(5/13=1,5/36=2,99/5=2) pseudo=read geom=check guess=(re
 ad,tcheck) scf=(maxcycle=1)\\title\\0,1\C,0,-1.8577,-0.00263494,-0.312
 322\C,0,-0.00235909,0.787446,0.916668\C,0,1.85969,0.00335797,-0.308883
 \C,0,0.00155658,-0.785375,0.922336\H,0,-1.45461,2.02012,-0.115583\H,0,
 0.0129343,1.21991,1.91729\H,0,1.44187,2.02923,-0.120219\H,0,1.44565,-2
 .01642,-0.131152\H,0,0.00277134,-1.19938,1.93719\H,0,-1.41454,-2.01813
 ,-0.154871\N,0,-1.23587,1.10078,0.237637\N,0,1.21191,1.10952,0.210949\

 Normal termination of Gaussian 16 at Tue Apr  8 22:12:33 2025.
