 Gaussian 16, Revision C.01,

 ----------------------------------------------------------------------
 #t hf aug-cc-pvdz symm=none int=(grid=ultrafine) guess=(read,tcheck) s
 table=(opt,rrhf)
 ----------------------------------------------------------------------
 -----
 title
 -----
 Symbolic Z-matrix:
 Charge =  0 Multiplicity = 1

 SCF Done:  E(RHF) =  -791.926477796     A.U. after   14 cycles
 Normal termination of Gaussian 16 at Tue Apr  8 19:36:49 2025.
 Gaussian 16:  ES64L-G16RevC.01  3-Jul-2019

 ----------------------------------------------------------------------
 #t hf aug-cc-pvdz iop(5/13=1,5/36=2,99/5=2) pseudo=read geom=check gue
 ss=(read,tcheck) scf=(maxcycle=1)
 ----------------------------------------------------------------------
 -----
 title
 -----
 Structure from the checkpoint file:  "ANI1ccx_1216_conf21_mol1.chk"
 Charge =  0 Multiplicity = 1

                         Standard orientation:
 ---------------------------------------------------------------------
 Center     Atomic      Atomic             Coordinates (Angstroms)
 Number     Number       Type             X           Y           Z
 ---------------------------------------------------------------------
      1          6           0        0.510635    2.052680    0.196560
      2          6           0       -1.814980    0.271413   -1.204290
      3          6           0       -0.167250   -1.690370   -1.257270
      4          6           0        2.168520    0.306821   -0.257895
      5          6           0        0.945448    0.305264    1.833160
      6          6           0       -1.709429   -1.159771    0.735160
      7          1           0       -2.783990   -0.676252    0.736933
      8          1           0       -1.858289   -2.326571    0.912791
      9          1           0        1.869620    0.106855    2.342090
     10          1           0        0.494741    1.124460    2.484240
     11          1           0        2.980510   -0.294602    0.347920
     12          1           0        2.678770    1.171821   -0.779103
     13          1           0       -0.288454   -2.785920   -1.074060
     14          1           0       -1.443720    0.516693   -2.218640
     15          1           0       -2.896500    0.089008   -1.166170
     16          1           0        0.075322    2.569860    1.008770
     17          1           0        1.370439    2.836141   -0.036263
     18          1           0       -0.345057   -1.545350   -2.396800
     19          7           0       -1.190439   -0.919298   -0.583241
     20          7           0        1.061980    0.743931    0.555034
     21          8           0        0.199527   -0.915325    1.915450
     22          8           0       -0.370177    1.998630   -0.954970
     23          8           0       -1.649601    1.601849   -0.480283
     24          8           0        1.232931   -1.695229   -0.756270
     25          8           0        1.884130   -0.548183   -1.441130
     26          8           0       -1.115790   -0.451092    1.687600
 ---------------------------------------------------------------------

 SCF Done:  E(RHF) =  -795.406102491     A.U. after    2 cycles

 The electronic state is 1-A.
 Alpha  occ. eigenvalues --  -21.09064 -21.09007 -21.08763 -21.08657 -21.08616
 Alpha  occ. eigenvalues --  -21.08546 -15.73520 -15.72886 -11.46549 -11.45916
 Alpha  occ. eigenvalues --  -11.45577 -11.45370 -11.44678 -11.44512  -2.01097
 Alpha  occ. eigenvalues --   -1.96397  -1.90929  -1.55253  -1.47122  -1.44626
 Alpha  occ. eigenvalues --   -1.41062  -1.32635  -1.01453  -1.00679  -0.97525
 Alpha  occ. eigenvalues --   -0.96126  -0.85175  -0.81952  -0.71323  -0.70409
 Alpha  occ. eigenvalues --   -0.69965  -0.66894  -0.66284  -0.63962  -0.62729
 Alpha  occ. eigenvalues --   -0.60567  -0.58848  -0.58260  -0.56608  -0.56091
 Alpha  occ. eigenvalues --   -0.53521  -0.48369  -0.48121  -0.47924  -0.43054
 Alpha  occ. eigenvalues --   -0.40742  -0.38779  -0.37891  -0.35969  -0.33582
 Alpha  occ. eigenvalues --   -0.32802  -0.31201  -0.28496  -0.26577  -0.25427
 Alpha virt. eigenvalues --    0.04096   0.04214   0.04361   0.05782   0.05838
 Alpha virt. eigenvalues --    0.05964   0.06421   0.06608   0.06970   0.07549
 Alpha virt. eigenvalues --    0.07952   0.08651   0.10357   0.11011   0.11983

 Mulliken charges:
               1
     1  C   -0.365487
     2  C   -0.653903
     3  C   -0.162215
     4  C   -0.118506
     5  C   -0.022782
     6  C    0.217453
     7  H    1.416651
     8  H    1.591730
     9  H    1.592739
    10  H    1.746803
    11  H    1.599531
    12  H    1.499762
    13  H    1.563425
    14  H    1.769041
    15  H    1.448772
    16  H    1.904045
    17  H    1.397777
    18  H    1.584803
    19  N   -3.314058
    20  N   -3.845052
    21  O   -1.656670
    22  O   -1.775699
    23  O   -1.513250
    24  O   -1.741915
    25  O   -1.662254
    26  O   -2.500743
 Sum of Mulliken charges =   0.00000

 Dipole moment (field-independent basis, Debye):
    X=             -0.0605    Y=              0.2988    Z=              0.1777  Tot=              0.3529

 Test job not archived.
 1\1\GINC-SE184\SP\RHF\Aug-CC-pVDZ\C6H12N2O6\OHZDE\08-Apr-2025\0\\#t hf
  aug-cc-pvdz iop(5/13=1,5/36=2,99/5=2) pseudo=read geom=check guess=(r
 ead,tcheck) scf=(maxcycle=1)\\title\\0,1\C,0,0.510636,2.05268,0.19656\
 C,0,-1.81498,0.271414,-1.20429\C,0,-0.167251,-1.69037,-1.25727\C,0,2.1
 6852,0.30682,-0.257895\C,0,0.945448,0.305264,1.83316\C,0,-1.70943,-1.1
 5977,0.73516\H,0,-2.78399,-0.676251,0.736933\H,0,-1.85829,-2.32657,0.9
 12791\H,0,1.86962,0.106854,2.34209\H,0,0.494741,1.12446,2.48424\H,0,2.
 98051,-0.294603,0.34792\H,0,2.67877,1.17182,-0.779103\H,0,-0.288455,-2

 Normal termination of Gaussian 16 at Tue Apr  8 19:37:16 2025.
