 Gaussian 16, Revision C.01,

 ----------------------------------------------------------------------
 #t hf aug-cc-pvdz symm=none int=(grid=ultrafine) guess=(read,tcheck) s
 table=(opt,rrhf)
 ----------------------------------------------------------------------
 -----
 title
 -----
 Symbolic Z-matrix:
 Charge =  0 Multiplicity = 1

 SCF Done:  E(RHF) =  -751.163971892     A.U. after   16 cycles
 Normal termination of Gaussian 16 at Tue Apr  8 20:06:43 2025.
 Gaussian 16:  ES64L-G16RevC.01  3-Jul-2019

 ----------------------------------------------------------------------
 #t hf aug-cc-pvdz iop(5/13=1,5/36=2,99/5=2) pseudo=read geom=check gue
 ss=(read,tcheck) scf=(maxcycle=1)
 ----------------------------------------------------------------------
 -----
 title
 -----
 Structure from the checkpoint file:  "ANI1ccx_1547_conf11_mol1.chk"
 Charge =  0 Multiplicity = 1

                         Standard orientation:
 ---------------------------------------------------------------------
 Center     Atomic      Atomic             Coordinates (Angstroms)
 Number     Number       Type             X           Y           Z
 ---------------------------------------------------------------------
      1          6           0       -3.957850   -1.008242   -0.159284
      2          6           0       -2.865230   -0.494843    0.723831
      3          6           0       -1.272801    1.337360    0.596790
      4          6           0        0.997975    2.290031   -0.033870
      5          6           0        2.045309    0.486092   -0.157195
      6          6           0        0.714148    0.094481    0.090882
      7          6           0        1.419751   -2.142869    0.074832
      8          6           0        3.123370   -0.464770   -0.104714
      9          1           0        1.166871   -3.201039    0.162678
     10          1           0       -0.540699   -1.517680    0.272862
     11          1           0        0.824146    3.288360    0.203800
     12          1           0       -1.711501    2.395629    0.215851
     13          1           0       -1.393671    1.104920    1.689110
     14          1           0       -3.257490    0.225309    1.456330
     15          1           0       -2.470410   -1.412081    1.141060
     16          1           0       -4.677050   -1.706802    0.401015
     17          1           0       -3.431550   -1.516761   -0.975926
     18          1           0       -4.021210    0.460207   -1.399160
     19          7           0        0.046085    1.279780    0.109553
     20          7           0        2.219649    1.825761   -0.227161
     21          7           0        0.389691   -1.213290    0.026073
     22          7           0        2.693440   -1.846559    0.063156
     23          8           0       -4.652570    0.055131   -0.784029
     24          8           0       -2.038320    0.286271   -0.092835
     25          8           0        4.296200   -0.219321   -0.267709
 ---------------------------------------------------------------------

 SCF Done:  E(RHF) =  -754.501833194     A.U. after    2 cycles

 The electronic state is 1-A.
 Alpha  occ. eigenvalues --  -21.09833 -21.08565 -21.01018 -15.83570 -15.82793
 Alpha  occ. eigenvalues --  -15.75201 -15.73447 -11.53574 -11.52363 -11.50638
 Alpha  occ. eigenvalues --  -11.50184 -11.48656 -11.46075 -11.43050 -11.40296
 Alpha  occ. eigenvalues --   -1.82711  -1.72285  -1.69083  -1.61790  -1.49498
 Alpha  occ. eigenvalues --   -1.35640  -1.30269  -1.14087  -1.12853  -1.02479
 Alpha  occ. eigenvalues --   -0.93992  -0.91284  -0.89195  -0.86214  -0.77177
 Alpha  occ. eigenvalues --   -0.74262  -0.72181  -0.71442  -0.70066  -0.67917
 Alpha  occ. eigenvalues --   -0.65612  -0.61434  -0.61320  -0.58715  -0.57592
 Alpha  occ. eigenvalues --   -0.57503  -0.55177  -0.53933  -0.49886  -0.47443
 Alpha  occ. eigenvalues --   -0.44254  -0.42764  -0.41565  -0.39030  -0.38026
 Alpha  occ. eigenvalues --   -0.37403  -0.35468  -0.33844  -0.26249  -0.26185
 Alpha virt. eigenvalues --    0.02207   0.03144   0.03658   0.03897   0.04202
 Alpha virt. eigenvalues --    0.04918   0.05010   0.06128   0.06580   0.07526
 Alpha virt. eigenvalues --    0.08617   0.09363   0.10194   0.10684   0.11172

 Mulliken charges:
               1
     1  C   -0.909264
     2  C   -1.873372
     3  C   -1.172662
     4  C    0.854514
     5  C    1.905750
     6  C    4.261500
     7  C    0.580703
     8  C    5.050168
     9  H    1.773412
    10  H    1.108821
    11  H    1.771119
    12  H    1.740233
    13  H    1.794905
    14  H    1.702326
    15  H    1.927803
    16  H    1.240177
    17  H    1.322563
    18  H    0.732543
    19  N   -3.802484
    20  N   -3.846506
    21  N   -3.718199
    22  N   -3.163536
    23  O   -2.572348
    24  O   -3.044304
    25  O   -3.663861
 Sum of Mulliken charges =   0.00000

 Dipole moment (field-independent basis, Debye):
    X=             -8.9318    Y=             -0.1140    Z=              1.5872  Tot=              9.0724

 Test job not archived.
 1\1\GINC-SE078\SP\RHF\Aug-CC-pVDZ\C8H10N4O3\OHZDE\08-Apr-2025\0\\#t hf
  aug-cc-pvdz iop(5/13=1,5/36=2,99/5=2) pseudo=read geom=check guess=(r
 ead,tcheck) scf=(maxcycle=1)\\title\\0,1\C,0,-3.95785,-1.00824,-0.1592
 84\C,0,-2.86523,-0.494842,0.723831\C,0,-1.2728,1.33736,0.59679\C,0,0.9
 97976,2.29003,-0.0338702\C,0,2.04531,0.486091,-0.157195\C,0,0.714148,0
 .0944808,0.0908825\C,0,1.41975,-2.14287,0.0748318\C,0,3.12337,-0.46477
 1,-0.104714\H,0,1.16687,-3.20104,0.162678\H,0,-0.540699,-1.51768,0.272
 862\H,0,0.824148,3.28836,0.2038\H,0,-1.7115,2.39563,0.215851\H,0,-1.39

 Normal termination of Gaussian 16 at Tue Apr  8 20:07:08 2025.
