 Gaussian 16, Revision C.01,

 ----------------------------------------------------------------------
 #t hf aug-cc-pvdz symm=none int=(grid=ultrafine) guess=(read,tcheck) s
 table=(opt,rrhf)
 ----------------------------------------------------------------------
 -----
 title
 -----
 Symbolic Z-matrix:
 Charge =  0 Multiplicity = 1

 SCF Done:  E(RHF) =  -456.263707159     A.U. after   11 cycles
 Normal termination of Gaussian 16 at Tue Apr  8 21:07:42 2025.
 Gaussian 16:  ES64L-G16RevC.01  3-Jul-2019

 ----------------------------------------------------------------------
 #t hf aug-cc-pvdz iop(5/13=1,5/36=2,99/5=2) pseudo=read geom=check gue
 ss=(read,tcheck) scf=(maxcycle=1)
 ----------------------------------------------------------------------
 -----
 title
 -----
 Structure from the checkpoint file:  "ANI1ccx_1844_conf163_mol1.chk"
 Charge =  0 Multiplicity = 1

                         Standard orientation:
 ---------------------------------------------------------------------
 Center     Atomic      Atomic             Coordinates (Angstroms)
 Number     Number       Type             X           Y           Z
 ---------------------------------------------------------------------
      1          1           0       -0.630876   -2.020772    1.739280
      2          1           0       -2.210159    0.056818   -0.195086
      3          1           0       -2.956608   -1.037204   -0.947646
      4          1           0        1.288649    1.708000    0.426323
      5          1           0        0.345898    1.796989    1.672460
      6          1           0       -0.943611    2.030628   -0.249217
      7          1           0       -1.240038   -1.788083    0.340622
      8          1           0       -2.322582    2.439647   -0.705737
      9          1           0        2.336243   -2.330839   -0.473145
     10          1           0        0.905151   -1.838501   -0.177551
     11          1           0        2.341201   -0.217184   -0.372042
     12          1           0        3.048760    1.097011   -0.805016
     13          8           0        0.573577    2.293279    0.762592
     14          8           0        1.676562   -1.673060   -0.793453
     15          8           0       -2.679159   -0.765233   -0.025609
     16          8           0       -1.755071    1.696107   -0.714657
     17          8           0       -0.434432   -2.216122    0.780114
     18          8           0        2.623270    0.677965   -0.040643
 ---------------------------------------------------------------------

 SCF Done:  E(RHF) =  -458.249468767     A.U. after    2 cycles

 The electronic state is 1-A.
 Alpha  occ. eigenvalues --  -21.09035 -21.08993 -21.08798 -21.08157 -21.07517
 Alpha  occ. eigenvalues --  -21.07339  -1.68911  -1.67747  -1.66552  -1.64489
 Alpha  occ. eigenvalues --   -1.63597  -1.62083  -0.64527  -0.64083  -0.63648
 Alpha  occ. eigenvalues --   -0.63156  -0.62111  -0.60810  -0.53305  -0.50876
 Alpha  occ. eigenvalues --   -0.50124  -0.45104  -0.44215  -0.42246  -0.36199
 Alpha  occ. eigenvalues --   -0.35554  -0.34590  -0.34135  -0.33762  -0.33518
 Alpha virt. eigenvalues --    0.03803   0.04761   0.05139   0.05531   0.06250
 Alpha virt. eigenvalues --    0.07060   0.08642   0.09086   0.09757   0.10146
 Alpha virt. eigenvalues --    0.10615   0.11449   0.18321   0.18989   0.19499

 Mulliken charges:
               1
     1  H    0.898407
     2  H    1.689995
     3  H    0.704154
     4  H    1.666201
     5  H    0.729550
     6  H    1.371442
     7  H    1.435488
     8  H    0.855066
     9  H    0.745994
    10  H    1.643762
    11  H    1.582222
    12  H    0.777468
    13  O   -2.363640
    14  O   -2.290540
    15  O   -2.187066
    16  O   -2.341862
    17  O   -2.638816
    18  O   -2.277824
 Sum of Mulliken charges =  -0.00000

 Dipole moment (field-independent basis, Debye):
    X=             -0.3287    Y=             -0.1429    Z=             -0.0688  Tot=              0.3650

 Test job not archived.
 1\1\GINC-SE461\SP\RHF\Aug-CC-pVDZ\H12O6\OHZDE\08-Apr-2025\0\\#t hf aug
 -cc-pvdz iop(5/13=1,5/36=2,99/5=2) pseudo=read geom=check guess=(read,
 tcheck) scf=(maxcycle=1)\\title\\0,1\H,0,-0.630878,-2.02077,1.73928\H,
 0,-2.21016,0.0568217,-0.195086\H,0,-2.95661,-1.0372,-0.947646\H,0,1.28
 865,1.708,0.426323\H,0,0.345899,1.79699,1.67246\H,0,-0.94361,2.03063,-
 0.249217\H,0,-1.24004,-1.78808,0.340622\H,0,-2.32258,2.43965,-0.705737
 \H,0,2.33624,-2.33084,-0.473145\H,0,0.905149,-1.8385,-0.177551\H,0,2.3
 412,-0.217185,-0.372042\H,0,3.04876,1.09701,-0.805016\O,0,0.573578,2.2

 Normal termination of Gaussian 16 at Tue Apr  8 21:07:47 2025.
