 Gaussian 16, Revision C.01,

 ----------------------------------------------------------------------
 #t hf aug-cc-pvdz symm=none int=(grid=ultrafine) guess=(read,tcheck) s
 table=(opt,rrhf)
 ----------------------------------------------------------------------
 -----
 title
 -----
 Symbolic Z-matrix:
 Charge =  0 Multiplicity = 1

 SCF Done:  E(RHF) =  -448.368008881     A.U. after   15 cycles
 Normal termination of Gaussian 16 at Tue Apr  8 21:50:59 2025.
 Gaussian 16:  ES64L-G16RevC.01  3-Jul-2019

 ----------------------------------------------------------------------
 #t hf aug-cc-pvdz iop(5/13=1,5/36=2,99/5=2) pseudo=read geom=check gue
 ss=(read,tcheck) scf=(maxcycle=1)
 ----------------------------------------------------------------------
 -----
 title
 -----
 Structure from the checkpoint file:  "ANI1ccx_656_conf2_mol2.chk"
 Charge =  0 Multiplicity = 1

                         Standard orientation:
 ---------------------------------------------------------------------
 Center     Atomic      Atomic             Coordinates (Angstroms)
 Number     Number       Type             X           Y           Z
 ---------------------------------------------------------------------
      1          6           0        1.357650    0.013755   -0.026732
      2          6           0       -0.796962    0.768144    0.039257
      3          6           0       -0.823128   -0.791529   -0.002663
      4          1           0        0.883949    2.078922    0.165932
      5          1           0        0.859097   -2.062288    0.058653
      6          7           0        0.546039    1.116441    0.018405
      7          7           0        0.538634   -1.136549   -0.047961
      8          8           0        2.531610   -0.025503    0.005583
      9          8           0       -1.718203    1.547016   -0.046038
     10          8           0       -1.783546   -1.498774    0.030847
 ---------------------------------------------------------------------

 SCF Done:  E(RHF) =  -450.226460415     A.U. after    2 cycles

 The electronic state is 1-A.
 Alpha  occ. eigenvalues --  -21.10335 -21.09930 -21.08474 -15.83265 -15.82855
 Alpha  occ. eigenvalues --  -11.58155 -11.56772 -11.53204  -1.80558  -1.77285
 Alpha  occ. eigenvalues --   -1.73932  -1.52984  -1.36739  -1.02716  -0.93250
 Alpha  occ. eigenvalues --   -0.84395  -0.72512  -0.70136  -0.69903  -0.59516
 Alpha  occ. eigenvalues --   -0.57586  -0.54261  -0.53683  -0.53223  -0.41280
 Alpha  occ. eigenvalues --   -0.37298  -0.36133  -0.33445  -0.31174
 Alpha virt. eigenvalues --    0.03231   0.05162   0.07728   0.09296   0.09465
 Alpha virt. eigenvalues --    0.09635   0.09931   0.10653   0.12171   0.12532
 Alpha virt. eigenvalues --    0.13022   0.13836   0.14037   0.16020   0.16415

 Mulliken charges:
               1
     1  C    5.141102
     2  C    3.728585
     3  C    3.814138
     4  H    0.743231
     5  H    0.737915
     6  N   -2.409811
     7  N   -2.329821
     8  O   -3.117808
     9  O   -3.160187
    10  O   -3.147345
 Sum of Mulliken charges =  -0.00000

 Dipole moment (field-independent basis, Debye):
    X=              1.0601    Y=              0.0636    Z=              0.3159  Tot=              1.1080

 Test job not archived.
 1\1\GINC-SE363\SP\RHF\Aug-CC-pVDZ\C3H2N2O3\OHZDE\08-Apr-2025\0\\#t hf
 aug-cc-pvdz iop(5/13=1,5/36=2,99/5=2) pseudo=read geom=check guess=(re
 ad,tcheck) scf=(maxcycle=1)\\title\\0,1\C,0,1.35765,0.0137522,-0.02673
 23\C,0,-0.79696,0.768146,0.0392566\C,0,-0.82313,-0.791527,-0.00266265\
 H,0,0.883954,2.07892,0.165932\H,0,0.859092,-2.06229,0.0586531\N,0,0.54
 6041,1.11644,0.0184045\N,0,0.538631,-1.13655,-0.0479612\O,0,2.53161,-0
 .0255089,0.00558307\O,0,-1.7182,1.54702,-0.0460376\O,0,-1.78355,-1.498
 77,0.0308472\\Version=ES64L-G16RevC.01\State=1-A\HF=-450.2264604\RMSD=

 Normal termination of Gaussian 16 at Tue Apr  8 21:51:03 2025.
