 Gaussian 16, Revision C.01,

 ----------------------------------------------------------------------
 #t hf aug-cc-pvdz symm=none int=(grid=ultrafine) guess=(read,tcheck) s
 table=(opt,rrhf)
 ----------------------------------------------------------------------
 -----
 title
 -----
 Symbolic Z-matrix:
 Charge =  0 Multiplicity = 1

 SCF Done:  E(RHF) =  -456.239528442     A.U. after   11 cycles
 Normal termination of Gaussian 16 at Tue Apr  8 21:09:45 2025.
 Gaussian 16:  ES64L-G16RevC.01  3-Jul-2019

 ----------------------------------------------------------------------
 #t hf aug-cc-pvdz iop(5/13=1,5/36=2,99/5=2) pseudo=read geom=check gue
 ss=(read,tcheck) scf=(maxcycle=1)
 ----------------------------------------------------------------------
 -----
 title
 -----
 Structure from the checkpoint file:  "ANI1ccx_1844_conf501_mol1.chk"
 Charge =  0 Multiplicity = 1

                         Standard orientation:
 ---------------------------------------------------------------------
 Center     Atomic      Atomic             Coordinates (Angstroms)
 Number     Number       Type             X           Y           Z
 ---------------------------------------------------------------------
      1          1           0       -3.575949   -1.332668    0.752692
      2          1           0       -0.085972    1.391201   -0.113194
      3          1           0        1.378482    1.218151   -0.806241
      4          1           0       -2.253758    2.277172    0.786212
      5          1           0        2.619471   -0.962226    2.114880
      6          1           0        1.594591    0.036053    1.073180
      7          1           0       -2.419228    0.857414    0.056860
      8          1           0        3.241911   -0.242238   -1.820840
      9          1           0       -0.263308   -0.672977    0.502373
     10          1           0       -0.038948   -1.141169   -0.892209
     11          1           0       -2.480039   -1.444868   -0.180944
     12          1           0        2.793631   -0.622077   -0.376707
     13          8           0       -1.869678    1.722512    0.023682
     14          8           0       -3.324679   -0.999725   -0.130791
     15          8           0       -0.668053   -1.217419   -0.176678
     16          8           0        2.564401   -0.248200   -1.157560
     17          8           0        2.385581   -0.468610    1.291470
     18          8           0        0.848567    1.291221    0.012871
 ---------------------------------------------------------------------

 SCF Done:  E(RHF) =  -458.188382745     A.U. after    2 cycles

 The electronic state is 1-A.
 Alpha  occ. eigenvalues --  -21.09994 -21.09054 -21.08830 -21.08344 -21.07256
 Alpha  occ. eigenvalues --  -21.06079  -1.69734  -1.68625  -1.65469  -1.65110
 Alpha  occ. eigenvalues --   -1.64102  -1.62845  -0.69932  -0.66115  -0.65764
 Alpha  occ. eigenvalues --   -0.63344  -0.62347  -0.60986  -0.51277  -0.49156
 Alpha  occ. eigenvalues --   -0.45900  -0.44520  -0.43249  -0.38643  -0.37630
 Alpha  occ. eigenvalues --   -0.35615  -0.35042  -0.34174  -0.34003  -0.32175
 Alpha virt. eigenvalues --    0.03770   0.04263   0.04872   0.05635   0.07035
 Alpha virt. eigenvalues --    0.07533   0.08126   0.09023   0.09524   0.10189
 Alpha virt. eigenvalues --    0.10608   0.11592   0.18487   0.19245   0.20214

 Mulliken charges:
               1
     1  H    0.757300
     2  H    1.615028
     3  H    1.162624
     4  H    0.785147
     5  H    0.945237
     6  H    1.650893
     7  H    1.317101
     8  H    0.986857
     9  H    1.116075
    10  H    0.957978
    11  H    1.353546
    12  H    1.450266
    13  O   -2.302465
    14  O   -1.931551
    15  O   -2.453575
    16  O   -2.300502
    17  O   -2.552696
    18  O   -2.557264
 Sum of Mulliken charges =  -0.00000

 Dipole moment (field-independent basis, Debye):
    X=              0.5434    Y=             -0.4581    Z=              0.7944  Tot=              1.0659

 Test job not archived.
 1\1\GINC-SE329\SP\RHF\Aug-CC-pVDZ\H12O6\OHZDE\08-Apr-2025\0\\#t hf aug
 -cc-pvdz iop(5/13=1,5/36=2,99/5=2) pseudo=read geom=check guess=(read,
 tcheck) scf=(maxcycle=1)\\title\\0,1\H,0,-3.57595,-1.33267,0.752692\H,
 0,-0.0859741,1.3912,-0.113194\H,0,1.37848,1.21815,-0.806241\H,0,-2.253
 76,2.27717,0.786212\H,0,2.61947,-0.962226,2.11488\H,0,1.59459,0.036052
 5,1.07318\H,0,-2.41923,0.857412,0.0568605\H,0,3.24191,-0.242238,-1.820
 84\H,0,-0.263309,-0.672978,0.502373\H,0,-0.0389494,-1.14117,-0.892209\
 H,0,-2.48004,-1.44487,-0.180944\H,0,2.79363,-0.622077,-0.376707\O,0,-1

 Normal termination of Gaussian 16 at Tue Apr  8 21:09:50 2025.
