 Gaussian 16, Revision C.01,

 ----------------------------------------------------------------------
 #t hf aug-cc-pvdz symm=none int=(grid=ultrafine) guess=(read,tcheck) s
 table=(opt,rrhf)
 ----------------------------------------------------------------------
 -----
 title
 -----
 Symbolic Z-matrix:
 Charge =  0 Multiplicity = 1

 SCF Done:  E(RHF) =  -509.533097661     A.U. after   14 cycles
 Normal termination of Gaussian 16 at Tue Apr  8 22:14:00 2025.
 Gaussian 16:  ES64L-G16RevC.01  3-Jul-2019

 ----------------------------------------------------------------------
 #t hf aug-cc-pvdz iop(5/13=1,5/36=2,99/5=2) pseudo=read geom=check gue
 ss=(read,tcheck) scf=(maxcycle=1)
 ----------------------------------------------------------------------
 -----
 title
 -----
 Structure from the checkpoint file:  "ANI1ccx_939_conf55_mol1.chk"
 Charge =  0 Multiplicity = 1

                         Standard orientation:
 ---------------------------------------------------------------------
 Center     Atomic      Atomic             Coordinates (Angstroms)
 Number     Number       Type             X           Y           Z
 ---------------------------------------------------------------------
      1          6           0       -0.716314    0.721858   -0.758021
      2          6           0       -1.332820   -0.289942    0.278693
      3          6           0        0.587037    0.060972   -1.222410
      4          6           0        1.500850   -0.369760   -0.115950
      5          1           0       -1.201560    1.936041    0.733843
      6          1           0        0.341660    2.113951    0.228707
      7          1           0       -1.435980    0.882632   -1.633820
      8          1           0        0.487095   -0.818954   -1.877660
      9          1           0        1.224100    0.850844   -1.732320
     10          1           0        2.282650    0.577707    1.501830
     11          1           0       -2.269669   -1.850479    0.184214
     12          7           0       -0.608140    1.949061   -0.100103
     13          8           0       -1.254930   -0.247431    1.499200
     14          8           0        1.858020   -1.504188    0.082903
     15          8           0        1.822610    0.723467    0.648386
     16          8           0       -1.851180   -1.231089   -0.455236
 ---------------------------------------------------------------------

 SCF Done:  E(RHF) =  -511.720786673     A.U. after    2 cycles

 The electronic state is 1-A.
 Alpha  occ. eigenvalues --  -21.14590 -21.12450 -21.06795 -21.06743 -15.72529
 Alpha  occ. eigenvalues --  -11.54461 -11.53418 -11.47945 -11.42072  -1.85828
 Alpha  occ. eigenvalues --   -1.82218  -1.67247  -1.66824  -1.37754  -1.15108
 Alpha  occ. eigenvalues --   -0.98348  -0.83520  -0.78567  -0.70282  -0.68994
 Alpha  occ. eigenvalues --   -0.65086  -0.63086  -0.60236  -0.57706  -0.56413
 Alpha  occ. eigenvalues --   -0.54659  -0.51501  -0.50445  -0.45819  -0.44430
 Alpha  occ. eigenvalues --   -0.36842  -0.35442  -0.34019  -0.31402  -0.30013
 Alpha virt. eigenvalues --    0.03664   0.04973   0.05144   0.05760   0.06026
 Alpha virt. eigenvalues --    0.06912   0.07620   0.09636   0.11176   0.11664
 Alpha virt. eigenvalues --    0.12326   0.12778   0.13490   0.14240   0.14463

 Mulliken charges:
               1
     1  C   -0.901502
     2  C    6.932713
     3  C   -4.086734
     4  C    6.740334
     5  H    0.573464
     6  H    0.632452
     7  H    1.684378
     8  H    1.161166
     9  H    1.338567
    10  H    1.028948
    11  H    0.776158
    12  N   -2.782436
    13  O   -3.151906
    14  O   -3.285428
    15  O   -3.358522
    16  O   -3.301651
 Sum of Mulliken charges =  -0.00000

 Dipole moment (field-independent basis, Debye):
    X=             -0.0713    Y=             -0.0012    Z=             -0.0055  Tot=              0.0715

 Test job not archived.
 1\1\GINC-SE457\SP\RHF\Aug-CC-pVDZ\C4H7N1O4\OHZDE\08-Apr-2025\0\\#t hf
 aug-cc-pvdz iop(5/13=1,5/36=2,99/5=2) pseudo=read geom=check guess=(re
 ad,tcheck) scf=(maxcycle=1)\\title\\0,1\C,0,-0.716314,0.721857,-0.7580
 21\C,0,-1.33282,-0.289943,0.278693\C,0,0.587037,0.0609702,-1.22241\C,0
 ,1.50085,-0.369762,-0.11595\H,0,-1.20156,1.93604,0.733843\H,0,0.34166,
 2.11395,0.228707\H,0,-1.43598,0.882631,-1.63382\H,0,0.487095,-0.818955
 ,-1.87766\H,0,1.2241,0.850842,-1.73232\H,0,2.28265,0.577705,1.50183\H,
 0,-2.26967,-1.85048,0.184214\N,0,-0.60814,1.94906,-0.100103\O,0,-1.254

 Normal termination of Gaussian 16 at Tue Apr  8 22:14:07 2025.
