 Gaussian 16, Revision C.01,

 ----------------------------------------------------------------------
 #t hf aug-cc-pvdz symm=none int=(grid=ultrafine) guess=(read,tcheck) s
 table=(opt,rrhf)
 ----------------------------------------------------------------------
 -----
 title
 -----
 Symbolic Z-matrix:
 Charge =  0 Multiplicity = 1

 SCF Done:  E(RHF) =  -486.381329909     A.U. after   14 cycles
 Normal termination of Gaussian 16 at Tue Apr  8 21:45:59 2025.
 Gaussian 16:  ES64L-G16RevC.01  3-Jul-2019

 ----------------------------------------------------------------------
 #t hf aug-cc-pvdz iop(5/13=1,5/36=2,99/5=2) pseudo=read geom=check gue
 ss=(read,tcheck) scf=(maxcycle=1)
 ----------------------------------------------------------------------
 -----
 title
 -----
 Structure from the checkpoint file:  "ANI1ccx_517_conf2_mol1.chk"
 Charge =  0 Multiplicity = 1

                         Standard orientation:
 ---------------------------------------------------------------------
 Center     Atomic      Atomic             Coordinates (Angstroms)
 Number     Number       Type             X           Y           Z
 ---------------------------------------------------------------------
      1          6           0       -0.707505    0.334913   -0.036626
      2          6           0        0.688915   -0.293546   -0.042457
      3          1           0       -2.912460    0.750043    0.122229
      4          1           0       -1.469450   -1.580659    0.050085
      5          1           0        1.524100    1.615601   -0.107289
      6          1           0        2.855820   -0.807434    0.160437
      7          7           0       -1.655800   -0.594482   -0.098340
      8          7           0        1.658880    0.613145    0.028963
      9          8           0       -2.963280   -0.246995    0.115889
     10          8           0       -0.864488    1.556541   -0.044406
     11          8           0        0.874677   -1.516469   -0.038059
     12          8           0        2.964590    0.162374    0.058410
 ---------------------------------------------------------------------

 SCF Done:  E(RHF) =  -488.407904043     A.U. after    2 cycles

 The electronic state is 1-A.
 Alpha  occ. eigenvalues --  -21.13587 -21.13407 -21.07123 -21.06663 -15.83904
 Alpha  occ. eigenvalues --  -15.83787 -11.56369 -11.51560  -1.86865  -1.84183
 Alpha  occ. eigenvalues --   -1.72937  -1.71173  -1.30601  -1.28688  -0.95726
 Alpha  occ. eigenvalues --   -0.85516  -0.80988  -0.66754  -0.65888  -0.64267
 Alpha  occ. eigenvalues --   -0.60097  -0.58713  -0.52821  -0.51172  -0.48041
 Alpha  occ. eigenvalues --   -0.45895  -0.42037  -0.38882  -0.30866  -0.29958
 Alpha  occ. eigenvalues --   -0.27960
 Alpha virt. eigenvalues --    0.04026   0.06005   0.06140   0.06472   0.10055
 Alpha virt. eigenvalues --    0.11055   0.11548   0.11864   0.12092   0.12566
 Alpha virt. eigenvalues --    0.14986   0.16108   0.16560   0.16994   0.17825

 Mulliken charges:
               1
     1  C    4.953975
     2  C    4.967537
     3  H    0.818212
     4  H    0.859905
     5  H    0.885368
     6  H    0.822391
     7  N   -0.575460
     8  N   -0.704818
     9  O   -2.671393
    10  O   -3.382362
    11  O   -3.365402
    12  O   -2.607954
 Sum of Mulliken charges =   0.00000

 Dipole moment (field-independent basis, Debye):
    X=             -0.0085    Y=              0.0195    Z=              0.2025  Tot=              0.2037

 Test job not archived.
 1\1\GINC-SE343\SP\RHF\Aug-CC-pVDZ\C2H4N2O4\OHZDE\08-Apr-2025\0\\#t hf
 aug-cc-pvdz iop(5/13=1,5/36=2,99/5=2) pseudo=read geom=check guess=(re
 ad,tcheck) scf=(maxcycle=1)\\title\\0,1\C,0,-0.707505,0.334912,-0.0366
 263\C,0,0.688915,-0.293547,-0.0424566\H,0,-2.91246,0.750042,0.122229\H
 ,0,-1.46945,-1.58066,0.0500848\H,0,1.5241,1.6156,-0.107289\H,0,2.85582
 ,-0.807435,0.160437\N,0,-1.6558,-0.594483,-0.0983405\N,0,1.65888,0.613
 144,0.0289633\O,0,-2.96328,-0.246996,0.115889\O,0,-0.864488,1.55654,-0
 .0444059\O,0,0.874677,-1.51647,-0.0380591\O,0,2.96459,0.162373,0.05841

 Normal termination of Gaussian 16 at Tue Apr  8 21:46:04 2025.
