 Gaussian 16, Revision C.01,

 ----------------------------------------------------------------------
 #t hf aug-cc-pvdz symm=none int=(grid=ultrafine) guess=(read,tcheck) s
 table=(opt,rrhf)
 ----------------------------------------------------------------------
 -----
 title
 -----
 Symbolic Z-matrix:
 Charge =  0 Multiplicity = 1

 SCF Done:  E(RHF) =  -484.053539591     A.U. after   16 cycles
 Normal termination of Gaussian 16 at Tue Apr  8 21:48:55 2025.
 Gaussian 16:  ES64L-G16RevC.01  3-Jul-2019

 ----------------------------------------------------------------------
 #t hf aug-cc-pvdz iop(5/13=1,5/36=2,99/5=2) pseudo=read geom=check gue
 ss=(read,tcheck) scf=(maxcycle=1)
 ----------------------------------------------------------------------
 -----
 title
 -----
 Structure from the checkpoint file:  "ANI1ccx_606_conf4_mol1.chk"
 Charge =  0 Multiplicity = 1

                         Standard orientation:
 ---------------------------------------------------------------------
 Center     Atomic      Atomic             Coordinates (Angstroms)
 Number     Number       Type             X           Y           Z
 ---------------------------------------------------------------------
      1          6           0       -1.217469   -0.385979   -0.001133
      2          6           0        1.218861   -0.307069    0.005189
      3          7           0       -1.109612    1.029038   -0.268099
      4          7           0       -0.071601    1.631980   -0.136482
      5          8           0       -2.219358   -0.911510    0.205985
      6          8           0        1.023108    0.975359    0.396719
      7          8           0        2.206002   -0.892538   -0.099684
      8          8           0        0.022766   -0.979914   -0.152054
 ---------------------------------------------------------------------

 SCF Done:  E(RHF) =  -486.001986965     A.U. after    2 cycles

 The electronic state is 1-A.
 Alpha  occ. eigenvalues --  -21.18994 -21.17465 -21.14497 -21.12467 -15.94012
 Alpha  occ. eigenvalues --  -15.86878 -11.62330 -11.60705  -2.03789  -1.88532
 Alpha  occ. eigenvalues --   -1.81655  -1.73695  -1.56019  -1.09946  -0.97942
 Alpha  occ. eigenvalues --   -0.81323  -0.75526  -0.74483  -0.67344  -0.61828
 Alpha  occ. eigenvalues --   -0.60176  -0.59849  -0.55699  -0.50946  -0.47320
 Alpha  occ. eigenvalues --   -0.40269  -0.39208  -0.36584  -0.35498
 Alpha virt. eigenvalues --    0.04860   0.06640   0.09420   0.09638   0.10365
 Alpha virt. eigenvalues --    0.10417   0.10755   0.11063   0.12500   0.13778
 Alpha virt. eigenvalues --    0.14337   0.14794   0.18346   0.19421   0.19964

 Mulliken charges:
               1
     1  C    5.459130
     2  C    5.679950
     3  N   -0.655759
     4  N    0.708517
     5  O   -2.816882
     6  O   -2.798469
     7  O   -2.851505
     8  O   -2.724980
 Sum of Mulliken charges =  -0.00000

 Dipole moment (field-independent basis, Debye):
    X=              0.3555    Y=             -0.2864    Z=              0.4175  Tot=              0.6187

 Test job not archived.
 1\1\GINC-SE460\SP\RHF\Aug-CC-pVDZ\C2N2O4\OHZDE\08-Apr-2025\0\\#t hf au
 g-cc-pvdz iop(5/13=1,5/36=2,99/5=2) pseudo=read geom=check guess=(read
 ,tcheck) scf=(maxcycle=1)\\title\\0,1\C,0,-1.21747,-0.385977,-0.001133
 02\C,0,1.21886,-0.307071,0.00518909\N,0,-1.10961,1.02904,-0.268099\N,0
 ,-0.0715983,1.63198,-0.136482\O,0,-2.21936,-0.911506,0.205985\O,0,1.02
 311,0.975358,0.396719\O,0,2.206,-0.892542,-0.0996835\O,0,0.0227647,-0.
 979914,-0.152054\\Version=ES64L-G16RevC.01\State=1-A\HF=-486.001987\RM
 SD=8.577e-02\Dipole=0.1398503,-0.1126858,0.1642736\Quadrupole=-1.67143

 Normal termination of Gaussian 16 at Tue Apr  8 21:48:59 2025.
