 Gaussian 16, Revision C.01,

 ----------------------------------------------------------------------
 #t hf aug-cc-pvdz symm=none int=(grid=ultrafine) guess=(read,tcheck) s
 table=(opt,rrhf)
 ----------------------------------------------------------------------
 -----
 title
 -----
 Symbolic Z-matrix:
 Charge =  0 Multiplicity = 1

 SCF Done:  E(RHF) =  -259.155882275     A.U. after   13 cycles
 Normal termination of Gaussian 16 at Tue Apr  8 21:40:35 2025.
 Gaussian 16:  ES64L-G16RevC.01  3-Jul-2019

 ----------------------------------------------------------------------
 #t hf aug-cc-pvdz iop(5/13=1,5/36=2,99/5=2) pseudo=read geom=check gue
 ss=(read,tcheck) scf=(maxcycle=1)
 ----------------------------------------------------------------------
 -----
 title
 -----
 Structure from the checkpoint file:  "ANI1ccx_430_conf31_mol1.chk"
 Charge =  0 Multiplicity = 1

                         Standard orientation:
 ---------------------------------------------------------------------
 Center     Atomic      Atomic             Coordinates (Angstroms)
 Number     Number       Type             X           Y           Z
 ---------------------------------------------------------------------
      1          6           0        0.498817    0.125199   -0.029655
      2          1           0       -1.947489    0.396392    0.886728
      3          1           0       -2.059569    0.488618   -0.707100
      4          1           0       -0.551395   -1.729590   -0.224859
      5          1           0        1.730140   -1.568631   -0.021188
      6          1           0        2.498461    0.016746   -0.027866
      7          1           0       -0.430907    1.783890    0.018834
      8          7           0       -1.894339   -0.182961    0.035733
      9          7           0       -0.592689   -0.714809   -0.035685
     10          7           0        1.669391   -0.557243    0.067036
     11          7           0        0.498760    1.435210   -0.030887
 ---------------------------------------------------------------------

 SCF Done:  E(RHF) =  -260.359446560     A.U. after    2 cycles

 The electronic state is 1-A.
 Alpha  occ. eigenvalues --  -15.77599 -15.77018 -15.76535 -15.68954 -11.47542
 Alpha  occ. eigenvalues --   -1.53727  -1.37690  -1.22406  -1.12438  -0.83465
 Alpha  occ. eigenvalues --   -0.73854  -0.68684  -0.67650  -0.60970  -0.56167
 Alpha  occ. eigenvalues --   -0.53547  -0.40866  -0.38629  -0.35837  -0.30868
 Alpha virt. eigenvalues --    0.03480   0.04812   0.05399   0.06658   0.07152
 Alpha virt. eigenvalues --    0.07672   0.11942   0.13044   0.14217   0.15396
 Alpha virt. eigenvalues --    0.16762   0.17141   0.17557   0.18325   0.18871

 Mulliken charges:
               1
     1  C    4.755412
     2  H    0.622473
     3  H    0.630386
     4  H    0.844091
     5  H    0.650528
     6  H    0.601057
     7  H    0.562190
     8  N   -1.696281
     9  N   -1.569290
    10  N   -2.717174
    11  N   -2.683391
 Sum of Mulliken charges =  -0.00000

 Dipole moment (field-independent basis, Debye):
    X=             -0.1963    Y=             -2.7356    Z=             -0.3314  Tot=              2.7626

 Test job not archived.
 1\1\GINC-SE048\SP\RHF\Aug-CC-pVDZ\C1H6N4\OHZDE\08-Apr-2025\0\\#t hf au
 g-cc-pvdz iop(5/13=1,5/36=2,99/5=2) pseudo=read geom=check guess=(read
 ,tcheck) scf=(maxcycle=1)\\title\\0,1\C,0,0.498816,0.125199,-0.0296548
 \H,0,-1.94749,0.396391,0.886728\H,0,-2.05957,0.488617,-0.7071\H,0,-0.5
 51395,-1.72959,-0.224859\H,0,1.73014,-1.56863,-0.0211884\H,0,2.49846,0
 .0167477,-0.0278661\H,0,-0.430909,1.78389,0.0188341\N,0,-1.89434,-0.18
 2962,0.035733\N,0,-0.592689,-0.714809,-0.0356848\N,0,1.66939,-0.557242
 ,0.0670355\N,0,0.498758,1.43521,-0.0308866\\Version=ES64L-G16RevC.01\S

 Normal termination of Gaussian 16 at Tue Apr  8 21:40:38 2025.
