 Gaussian 16, Revision C.01,

 ----------------------------------------------------------------------
 #t hf aug-cc-pvdz symm=none int=(grid=ultrafine) guess=(read,tcheck) s
 table=(opt,rrhf)
 ----------------------------------------------------------------------
 -----
 title
 -----
 Symbolic Z-matrix:
 Charge =  0 Multiplicity = 1

 SCF Done:  E(RHF) =  -725.300164681     A.U. after   15 cycles
 Normal termination of Gaussian 16 at Tue Apr  8 20:58:19 2025.
 Gaussian 16:  ES64L-G16RevC.01  3-Jul-2019

 ----------------------------------------------------------------------
 #t hf aug-cc-pvdz iop(5/13=1,5/36=2,99/5=2) pseudo=read geom=check gue
 ss=(read,tcheck) scf=(maxcycle=1)
 ----------------------------------------------------------------------
 -----
 title
 -----
 Structure from the checkpoint file:  "ANI1ccx_174_conf1_mol2.chk"
 Charge =  0 Multiplicity = 1

                         Standard orientation:
 ---------------------------------------------------------------------
 Center     Atomic      Atomic             Coordinates (Angstroms)
 Number     Number       Type             X           Y           Z
 ---------------------------------------------------------------------
      1          6           0        2.646830   -3.205641   -0.049167
      2          6           0       -2.958709   -0.977068   -0.711580
      3          6           0       -1.336569   -0.542186    1.296210
      4          6           0        0.546636    0.519288    0.209073
      5          6           0        0.196221    1.849069    0.453166
      6          6           0       -2.690649   -0.244879    0.623486
      7          6           0        2.338762    2.675989   -0.511251
      8          6           0        2.625171    1.331679   -0.800448
      9          6           0        1.767671    0.269422   -0.339916
     10          6           0        2.329891   -1.923971    0.552664
     11          6           0        1.118942    2.879699    0.166618
     12          1           0       -1.335929   -1.513080    1.846920
     13          1           0       -4.316459   -1.017899   -2.063520
     14          1           0       -2.182359   -0.814959   -1.409950
     15          1           0       -3.064729   -2.064250   -0.503742
     16          1           0       -3.373169    1.416190   -0.147683
     17          1           0       -3.591489   -0.640774    1.170600
     18          1           0       -1.013719    0.387240    1.955860
     19          1           0       -0.686324    2.188410    1.053280
     20          1           0        3.118601   -1.597341    1.216630
     21          1           0        3.122112    3.402439   -0.821616
     22          1           0        3.553591    0.919135   -1.137520
     23          1           0        1.343021   -1.907271    1.026980
     24          1           0        1.977940   -3.512611   -0.985852
     25          1           0        2.623370   -4.089361    0.703899
     26          1           0        3.715170   -2.940511   -0.443913
     27          1           0        0.899899    3.871459    0.643522
     28          8           0       -2.709219    1.164090    0.499036
     29          8           0        2.209491   -1.021891   -0.561751
     30          8           0       -0.302081   -0.594185    0.358039
     31          8           0       -4.235029   -0.532417   -1.224950
 ---------------------------------------------------------------------

 SCF Done:  E(RHF) =  -728.608703789     A.U. after    2 cycles

 The electronic state is 1-A.
 Alpha  occ. eigenvalues --  -21.08084 -21.06865 -21.06404 -21.04316 -11.53408
 Alpha  occ. eigenvalues --  -11.48550 -11.46364 -11.45781 -11.45111 -11.44173
 Alpha  occ. eigenvalues --  -11.41649 -11.40739 -11.40396 -11.37378 -11.36850
 Alpha  occ. eigenvalues --   -1.80675  -1.75417  -1.72685  -1.68979  -1.29811
 Alpha  occ. eigenvalues --   -1.13850  -1.12643  -1.07332  -1.03772  -0.96941
 Alpha  occ. eigenvalues --   -0.86996  -0.86432  -0.82516  -0.80651  -0.70963
 Alpha  occ. eigenvalues --   -0.69614  -0.66677  -0.65574  -0.65117  -0.63357
 Alpha  occ. eigenvalues --   -0.60197  -0.59635  -0.57099  -0.56882  -0.55806
 Alpha  occ. eigenvalues --   -0.53299  -0.51238  -0.50908  -0.49381  -0.47251
 Alpha  occ. eigenvalues --   -0.45538  -0.45263  -0.43996  -0.41448  -0.41252
 Alpha  occ. eigenvalues --   -0.39521  -0.36179  -0.33399  -0.32814  -0.32118
 Alpha  occ. eigenvalues --   -0.28540  -0.25495
 Alpha virt. eigenvalues --    0.03763   0.04059   0.04410   0.04837   0.05245
 Alpha virt. eigenvalues --    0.05521   0.05904   0.06414   0.06566   0.06711
 Alpha virt. eigenvalues --    0.07462   0.07899   0.08076   0.08755   0.10010

 Mulliken charges:
               1
     1  C   -3.986814
     2  C   -0.942362
     3  C   -2.397674
     4  C    6.369689
     5  C   -2.665995
     6  C   -0.161081
     7  C   -2.282034
     8  C   -3.217123
     9  C    4.320863
    10  C   -2.755241
    11  C   -0.097277
    12  H    1.656257
    13  H    0.791362
    14  H    1.800397
    15  H    1.452869
    16  H    0.904838
    17  H    1.593112
    18  H    1.668020
    19  H    2.315994
    20  H    1.637672
    21  H    1.441533
    22  H    1.588663
    23  H    2.195596
    24  H    1.226465
    25  H    1.105834
    26  H    1.088121
    27  H    1.303481
    28  O   -3.413912
    29  O   -5.128040
    30  O   -4.675929
    31  O   -2.737286
 Sum of Mulliken charges =   0.00000

 Dipole moment (field-independent basis, Debye):
    X=             -0.9423    Y=             -0.9748    Z=              0.3417  Tot=              1.3982

 Test job not archived.
 1\1\GINC-SE044\SP\RHF\Aug-CC-pVDZ\C11H16O4\OHZDE\08-Apr-2025\0\\#t hf
 aug-cc-pvdz iop(5/13=1,5/36=2,99/5=2) pseudo=read geom=check guess=(re
 ad,tcheck) scf=(maxcycle=1)\\title\\0,1\C,0,2.64683,-3.20564,-0.049166
 5\C,0,-2.95871,-0.977068,-0.71158\C,0,-1.33657,-0.542186,1.29621\C,0,0
 .546635,0.519289,0.209073\C,0,0.196219,1.84907,0.453166\C,0,-2.69065,-
 0.244879,0.623486\C,0,2.33876,2.67599,-0.511251\C,0,2.62517,1.33168,-0
 .800448\C,0,1.76767,0.269423,-0.339916\C,0,2.32989,-1.92397,0.552664\C
 ,0,1.11894,2.8797,0.166618\H,0,-1.33593,-1.51308,1.84692\H,0,-4.31646,

 Normal termination of Gaussian 16 at Tue Apr  8 20:58:56 2025.
