 Gaussian 16, Revision C.01,

 ----------------------------------------------------------------------
 #t hf aug-cc-pvdz symm=none int=(grid=ultrafine) guess=(read,tcheck) s
 table=(opt,rrhf)
 ----------------------------------------------------------------------
 -----
 title
 -----
 Symbolic Z-matrix:
 Charge =  0 Multiplicity = 1

 SCF Done:  E(RHF) =  -311.842414843     A.U. after   15 cycles
 Normal termination of Gaussian 16 at Tue Apr  8 21:37:43 2025.
 Gaussian 16:  ES64L-G16RevC.01  3-Jul-2019

 ----------------------------------------------------------------------
 #t hf aug-cc-pvdz iop(5/13=1,5/36=2,99/5=2) pseudo=read geom=check gue
 ss=(read,tcheck) scf=(maxcycle=1)
 ----------------------------------------------------------------------
 -----
 title
 -----
 Structure from the checkpoint file:  "ANI1ccx_392_conf8_mol1.chk"
 Charge =  0 Multiplicity = 1

                         Standard orientation:
 ---------------------------------------------------------------------
 Center     Atomic      Atomic             Coordinates (Angstroms)
 Number     Number       Type             X           Y           Z
 ---------------------------------------------------------------------
      1          6           0       -0.599607   -0.007777   -0.059708
      2          1           0       -2.431761    0.852502    0.089530
      3          1           0       -2.496320   -0.843912   -0.018596
      4          1           0        2.122720   -1.084378    0.036196
      5          7           0       -1.967970   -0.027995    0.049716
      6          7           0        0.113897    1.107791   -0.032843
      7          7           0        1.344929    0.738891    0.009423
      8          7           0        1.297450   -0.551098    0.060206
      9          7           0        0.126408   -1.107239   -0.050627
 ---------------------------------------------------------------------

 SCF Done:  E(RHF) =  -313.237726353     A.U. after    2 cycles

 The electronic state is 1-A.
 Alpha  occ. eigenvalues --  -15.85943 -15.81945 -15.77385 -15.76599 -15.75369
 Alpha  occ. eigenvalues --  -11.45942  -1.79646  -1.40423  -1.40191  -1.22603
 Alpha  occ. eigenvalues --   -0.93959  -0.85596  -0.77086  -0.70849  -0.68779
 Alpha  occ. eigenvalues --   -0.59961  -0.53542  -0.48706  -0.44633  -0.41633
 Alpha  occ. eigenvalues --   -0.41011  -0.30097
 Alpha virt. eigenvalues --    0.03872   0.04674   0.06369   0.11240   0.11657
 Alpha virt. eigenvalues --    0.12193   0.13839   0.14534   0.14900   0.15259
 Alpha virt. eigenvalues --    0.16949   0.17768   0.18040   0.19558   0.19644

 Mulliken charges:
               1
     1  C    4.758355
     2  H    0.656895
     3  H    0.708618
     4  H    0.976929
     5  N   -2.776899
     6  N   -1.584824
     7  N   -0.483378
     8  N   -0.120180
     9  N   -2.135516
 Sum of Mulliken charges =   0.00000

 Dipole moment (field-independent basis, Debye):
    X=             -0.5994    Y=             -1.8471    Z=              0.0346  Tot=              1.9422

 Test job not archived.
 1\1\GINC-SE453\SP\RHF\Aug-CC-pVDZ\C1H3N5\OHZDE\08-Apr-2025\0\\#t hf au
 g-cc-pvdz iop(5/13=1,5/36=2,99/5=2) pseudo=read geom=check guess=(read
 ,tcheck) scf=(maxcycle=1)\\title\\0,1\C,0,-0.599607,-0.00777748,-0.059
 7078\H,0,-2.43176,0.852503,0.0895299\H,0,-2.49632,-0.843911,-0.0185965
 \H,0,2.12272,-1.08438,0.0361955\N,0,-1.96797,-0.027994,0.0497157\N,0,0
 .113898,1.10779,-0.0328435\N,0,1.34493,0.73889,0.00942284\N,0,1.29745,
 -0.551099,0.0602058\N,0,0.126408,-1.10724,-0.0506269\\Version=ES64L-G1
 6RevC.01\State=1-A\HF=-313.2377264\RMSD=9.539e-02\Dipole=-0.2358061,-0

 Normal termination of Gaussian 16 at Tue Apr  8 21:37:45 2025.
