 Gaussian 16, Revision C.01,

 ----------------------------------------------------------------------
 #t hf aug-cc-pvdz symm=none int=(grid=ultrafine) guess=(read,tcheck) s
 table=(opt,rrhf)
 ----------------------------------------------------------------------
 -----
 title
 -----
 Symbolic Z-matrix:
 Charge =  0 Multiplicity = 1

 SCF Done:  E(RHF) =  -456.258617946     A.U. after   11 cycles
 Normal termination of Gaussian 16 at Tue Apr  8 21:07:40 2025.
 Gaussian 16:  ES64L-G16RevC.01  3-Jul-2019

 ----------------------------------------------------------------------
 #t hf aug-cc-pvdz iop(5/13=1,5/36=2,99/5=2) pseudo=read geom=check gue
 ss=(read,tcheck) scf=(maxcycle=1)
 ----------------------------------------------------------------------
 -----
 title
 -----
 Structure from the checkpoint file:  "ANI1ccx_1844_conf158_mol1.chk"
 Charge =  0 Multiplicity = 1

                         Standard orientation:
 ---------------------------------------------------------------------
 Center     Atomic      Atomic             Coordinates (Angstroms)
 Number     Number       Type             X           Y           Z
 ---------------------------------------------------------------------
      1          1           0        0.691527   -1.859419    1.633140
      2          1           0       -1.535848   -1.223021   -0.308759
      3          1           0       -1.596756   -2.729971   -0.456167
      4          1           0       -0.328710    1.909270    0.115519
      5          1           0       -0.845036    2.145060    1.529300
      6          1           0       -2.110840    0.827160    0.246505
      7          1           0        0.304655   -1.946969    0.145311
      8          1           0       -2.963069    0.157361   -0.937733
      9          1           0        3.182091   -0.302110   -0.832486
     10          1           0        2.234022   -0.769536    0.269442
     11          1           0        1.728010    1.214642   -0.467305
     12          1           0        1.459348    2.725952   -0.459572
     13          8           0       -1.172511    2.009119    0.612202
     14          8           0        2.781771    0.008689   -0.040642
     15          8           0       -1.079677   -2.001610   -0.776136
     16          8           0       -2.683279   -0.000373    0.054040
     17          8           0        1.110503   -1.936398    0.772862
     18          8           0        1.015769    1.902022   -0.681974
 ---------------------------------------------------------------------

 SCF Done:  E(RHF) =  -458.253681679     A.U. after    2 cycles

 The electronic state is 1-A.
 Alpha  occ. eigenvalues --  -21.08946 -21.08650 -21.08523 -21.08101 -21.07892
 Alpha  occ. eigenvalues --  -21.06014  -1.70470  -1.68593  -1.67727  -1.64534
 Alpha  occ. eigenvalues --   -1.64071  -1.61090  -0.65941  -0.64912  -0.64225
 Alpha  occ. eigenvalues --   -0.63884  -0.63687  -0.62056  -0.53083  -0.51253
 Alpha  occ. eigenvalues --   -0.49959  -0.46410  -0.44059  -0.42707  -0.35655
 Alpha  occ. eigenvalues --   -0.35169  -0.34466  -0.34085  -0.33143  -0.31967
 Alpha virt. eigenvalues --    0.03724   0.04764   0.05187   0.05537   0.06479
 Alpha virt. eigenvalues --    0.06879   0.08379   0.08771   0.09705   0.10095
 Alpha virt. eigenvalues --    0.10923   0.11220   0.18145   0.19071   0.19752

 Mulliken charges:
               1
     1  H    0.925993
     2  H    1.588253
     3  H    0.749086
     4  H    1.804380
     5  H    0.853249
     6  H    1.792553
     7  H    1.556874
     8  H    0.684729
     9  H    0.815865
    10  H    1.525478
    11  H    1.580798
    12  H    0.752327
    13  O   -2.659013
    14  O   -2.304092
    15  O   -2.294832
    16  O   -2.272484
    17  O   -2.614204
    18  O   -2.484958
 Sum of Mulliken charges =  -0.00000

 Dipole moment (field-independent basis, Debye):
    X=              0.5656    Y=              0.1027    Z=              0.4036  Tot=              0.7024

 Test job not archived.
 1\1\GINC-SE364\SP\RHF\Aug-CC-pVDZ\H12O6\OHZDE\08-Apr-2025\0\\#t hf aug
 -cc-pvdz iop(5/13=1,5/36=2,99/5=2) pseudo=read geom=check guess=(read,
 tcheck) scf=(maxcycle=1)\\title\\0,1\H,0,0.691524,-1.85942,1.63314\H,0
 ,-1.53585,-1.22302,-0.308759\H,0,-1.59676,-2.72997,-0.456167\H,0,-0.32
 8709,1.90927,0.115519\H,0,-0.845035,2.14506,1.5293\H,0,-2.11084,0.8271
 61,0.246505\H,0,0.304652,-1.94697,0.145311\H,0,-2.96307,0.157363,-0.93
 7733\H,0,3.18209,-0.302114,-0.832486\H,0,2.23402,-0.769539,0.269442\H,
 0,1.72801,1.21464,-0.467305\H,0,1.45935,2.72595,-0.459572\O,0,-1.17251

 Normal termination of Gaussian 16 at Tue Apr  8 21:07:44 2025.
