 Gaussian 16, Revision C.01,

 ----------------------------------------------------------------------
 #t hf aug-cc-pvdz symm=none int=(grid=ultrafine) guess=(read,tcheck) s
 table=(opt,rrhf)
 ----------------------------------------------------------------------
 -----
 title
 -----
 Symbolic Z-matrix:
 Charge =  0 Multiplicity = 1

 SCF Done:  E(RHF) =  -239.963904431     A.U. after   12 cycles
 Normal termination of Gaussian 16 at Tue Apr  8 21:13:21 2025.
 Gaussian 16:  ES64L-G16RevC.01  3-Jul-2019

 ----------------------------------------------------------------------
 #t hf aug-cc-pvdz iop(5/13=1,5/36=2,99/5=2) pseudo=read geom=check gue
 ss=(read,tcheck) scf=(maxcycle=1)
 ----------------------------------------------------------------------
 -----
 title
 -----
 Structure from the checkpoint file:  "ANI1ccx_1874_conf4_mol1.chk"
 Charge =  0 Multiplicity = 1

                         Standard orientation:
 ---------------------------------------------------------------------
 Center     Atomic      Atomic             Coordinates (Angstroms)
 Number     Number       Type             X           Y           Z
 ---------------------------------------------------------------------
      1          1           0        0.888822    1.036540    0.601707
      2          1           0        2.311729   -0.793174    0.726844
      3          1           0        0.792240   -1.089010    0.216937
      4          7           0       -2.056941    0.484606    0.103747
      5          7           0       -1.831711   -0.582238   -0.108086
      6          7           0        1.659499   -0.639874   -0.054897
      7          8           0        1.451409    0.751024   -0.141354
 ---------------------------------------------------------------------

 SCF Done:  E(RHF) =  -240.980444760     A.U. after    2 cycles

 The electronic state is 1-A.
 Alpha  occ. eigenvalues --  -21.08889 -15.88803 -15.88611 -15.77838  -1.76140
 Alpha  occ. eigenvalues --   -1.57209  -1.15662  -0.80528  -0.67792  -0.64587
 Alpha  occ. eigenvalues --   -0.59170  -0.58581  -0.58412  -0.47295  -0.38717
 Alpha  occ. eigenvalues --   -0.32744
 Alpha virt. eigenvalues --    0.04497   0.05933   0.07026   0.11323   0.12455
 Alpha virt. eigenvalues --    0.13665   0.13964   0.14855   0.16174   0.16818
 Alpha virt. eigenvalues --    0.18920   0.20413   0.21813   0.22818   0.23772

 Mulliken charges:
               1
     1  H    0.665256
     2  H    0.697880
     3  H    0.708386
     4  N    0.114159
     5  N   -0.092371
     6  N   -0.161056
     7  O   -1.932255
 Sum of Mulliken charges =  -0.00000

 Dipole moment (field-independent basis, Debye):
    X=             -0.8519    Y=             -0.3002    Z=              1.6877  Tot=              1.9142

 Test job not archived.
 1\1\GINC-SE083\SP\RHF\Aug-CC-pVDZ\H3N3O1\OHZDE\08-Apr-2025\0\\#t hf au
 g-cc-pvdz iop(5/13=1,5/36=2,99/5=2) pseudo=read geom=check guess=(read
 ,tcheck) scf=(maxcycle=1)\\title\\0,1\H,0,0.888822,1.03654,0.601707\H,
 0,2.31173,-0.793174,0.726844\H,0,0.792241,-1.08901,0.216937\N,0,-2.056
 94,0.484605,0.103747\N,0,-1.83171,-0.582239,-0.108086\N,0,1.6595,-0.63
 9874,-0.0548971\O,0,1.45141,0.751024,-0.141354\\Version=ES64L-G16RevC.
 01\State=1-A\HF=-240.9804448\RMSD=8.974e-02\Dipole=-0.3351626,-0.11809
 82,0.6639979\Quadrupole=-0.3208616,0.0395142,0.2813474,-0.3958765,2.16

 Normal termination of Gaussian 16 at Tue Apr  8 21:13:23 2025.
