 Gaussian 16, Revision C.01,

 ----------------------------------------------------------------------
 #t hf aug-cc-pvdz symm=none int=(grid=ultrafine) guess=(read,tcheck) s
 table=(opt,rrhf)
 ----------------------------------------------------------------------
 -----
 title
 -----
 Symbolic Z-matrix:
 Charge =  0 Multiplicity = 1

 SCF Done:  E(RHF) =  -433.495041340     A.U. after   15 cycles
 Normal termination of Gaussian 16 at Tue Apr  8 22:09:32 2025.
 Gaussian 16:  ES64L-G16RevC.01  3-Jul-2019

 ----------------------------------------------------------------------
 #t hf aug-cc-pvdz iop(5/13=1,5/36=2,99/5=2) pseudo=read geom=check gue
 ss=(read,tcheck) scf=(maxcycle=1)
 ----------------------------------------------------------------------
 -----
 title
 -----
 Structure from the checkpoint file:  "ANI1ccx_898_conf1_mol2.chk"
 Charge =  0 Multiplicity = 1

                         Standard orientation:
 ---------------------------------------------------------------------
 Center     Atomic      Atomic             Coordinates (Angstroms)
 Number     Number       Type             X           Y           Z
 ---------------------------------------------------------------------
      1          6           0        1.106830   -0.523467    0.000294
      2          6           0        1.348487    0.962477   -0.303282
      3          6           0        0.215439    1.593952    0.337647
      4          6           0       -1.288130   -0.281403    0.042176
      5          1           0        2.384137    1.218176    0.082864
      6          1           0        1.377487    1.203464   -1.431940
      7          1           0        0.198441    1.428572    1.377650
      8          1           0        0.184263    2.659602    0.262509
      9          1           0       -0.345470   -1.928429    0.534518
     10          7           0       -0.145322   -0.942170    0.394874
     11          8           0        2.022512   -1.322325   -0.097000
     12          8           0       -1.091893    1.094459   -0.166704
     13          8           0       -2.315289   -0.834078   -0.242637
 ---------------------------------------------------------------------

 SCF Done:  E(RHF) =  -435.358131730     A.U. after    2 cycles

 The electronic state is 1-A.
 Alpha  occ. eigenvalues --  -21.10926 -21.06576 -21.06217 -15.81586 -11.55118
 Alpha  occ. eigenvalues --  -11.54253 -11.49948 -11.43027  -1.84973  -1.73530
 Alpha  occ. eigenvalues --   -1.68974  -1.42558  -1.21625  -0.97577  -0.91169
 Alpha  occ. eigenvalues --   -0.82447  -0.71283  -0.69416  -0.65392  -0.62087
 Alpha  occ. eigenvalues --   -0.59443  -0.58394  -0.52361  -0.51170  -0.48122
 Alpha  occ. eigenvalues --   -0.43655  -0.37008  -0.34038  -0.32141  -0.30467
 Alpha virt. eigenvalues --    0.02880   0.04751   0.05099   0.05358   0.06296
 Alpha virt. eigenvalues --    0.09140   0.09693   0.10363   0.11157   0.12143
 Alpha virt. eigenvalues --    0.12863   0.13345   0.13899   0.14198   0.14287

 Mulliken charges:
               1
     1  C    4.839135
     2  C   -3.573391
     3  C   -1.410031
     4  C    5.732805
     5  H    1.198051
     6  H    1.346879
     7  H    1.585696
     8  H    1.267920
     9  H    0.686475
    10  N   -2.568043
    11  O   -3.251528
    12  O   -2.782613
    13  O   -3.071356
 Sum of Mulliken charges =  -0.00000

 Dipole moment (field-independent basis, Debye):
    X=              1.2234    Y=              1.9878    Z=              0.5527  Tot=              2.3986

 Test job not archived.
 1\1\GINC-SE364\SP\RHF\Aug-CC-pVDZ\C4H5N1O3\OHZDE\08-Apr-2025\0\\#t hf
 aug-cc-pvdz iop(5/13=1,5/36=2,99/5=2) pseudo=read geom=check guess=(re
 ad,tcheck) scf=(maxcycle=1)\\title\\0,1\C,0,1.10683,-0.523471,0.000293
 86\C,0,1.34849,0.962473,-0.303282\C,0,0.215443,1.59395,0.337647\C,0,-1
 .28813,-0.281402,0.0421761\H,0,2.38414,1.21817,0.0828639\H,0,1.37749,1
 .20346,-1.43194\H,0,0.198445,1.42857,1.37765\H,0,0.184269,2.6596,0.262
 509\H,0,-0.345473,-1.92843,0.534518\N,0,-0.145323,-0.942171,0.394874\O
 ,0,2.02251,-1.32233,-0.0970002\O,0,-1.09189,1.09446,-0.166704\O,0,-2.3

 Normal termination of Gaussian 16 at Tue Apr  8 22:09:37 2025.
