 Gaussian 16, Revision C.01,

 ----------------------------------------------------------------------
 #t hf aug-cc-pvdz symm=none int=(grid=ultrafine) guess=(read,tcheck) s
 table=(opt,rrhf)
 ----------------------------------------------------------------------
 -----
 title
 -----
 Symbolic Z-matrix:
 Charge =  0 Multiplicity = 1

 SCF Done:  E(RHF) =  -380.147989507     A.U. after   12 cycles
 Normal termination of Gaussian 16 at Tue Apr  8 21:06:26 2025.
 Gaussian 16:  ES64L-G16RevC.01  3-Jul-2019

 ----------------------------------------------------------------------
 #t hf aug-cc-pvdz iop(5/13=1,5/36=2,99/5=2) pseudo=read geom=check gue
 ss=(read,tcheck) scf=(maxcycle=1)
 ----------------------------------------------------------------------
 -----
 title
 -----
 Structure from the checkpoint file:  "ANI1ccx_1843_conf578_mol1.chk"
 Charge =  0 Multiplicity = 1

                         Standard orientation:
 ---------------------------------------------------------------------
 Center     Atomic      Atomic             Coordinates (Angstroms)
 Number     Number       Type             X           Y           Z
 ---------------------------------------------------------------------
      1          1           0        0.585571   -1.331680    0.925449
      2          1           0       -0.667432   -1.843521    1.800230
      3          1           0        1.718511   -0.510108   -0.225823
      4          1           0        1.416562   -1.592179   -1.454880
      5          1           0        2.352019    1.689302    0.390261
      6          1           0        0.944759    1.606101   -0.243056
      7          1           0       -1.462320    0.935696    0.000073
      8          1           0       -0.554803    1.030619    1.282450
      9          1           0       -3.400509   -0.270580   -0.555843
     10          1           0       -1.704529   -0.613653   -0.405745
     11          8           0       -0.250820   -0.985005    1.234290
     12          8           0        1.754252   -1.567459   -0.470208
     13          8           0        1.888509    1.386902   -0.462954
     14          8           0       -0.801732    1.605339    0.505301
     15          8           0       -2.493689   -0.327277   -0.995567
 ---------------------------------------------------------------------

 SCF Done:  E(RHF) =  -381.818612015     A.U. after    2 cycles

 The electronic state is 1-A.
 Alpha  occ. eigenvalues --  -21.10792 -21.09898 -21.08773 -21.07518 -21.07311
 Alpha  occ. eigenvalues --   -1.67214  -1.65540  -1.65105  -1.62435  -1.60966
 Alpha  occ. eigenvalues --   -0.66954  -0.65071  -0.61565  -0.59735  -0.58596
 Alpha  occ. eigenvalues --   -0.53328  -0.49066  -0.46712  -0.44904  -0.43368
 Alpha  occ. eigenvalues --   -0.38474  -0.35584  -0.35300  -0.33423  -0.33279
 Alpha virt. eigenvalues --    0.03088   0.04709   0.04975   0.06038   0.07264
 Alpha virt. eigenvalues --    0.08048   0.08804   0.09189   0.10735   0.11287
 Alpha virt. eigenvalues --    0.17545   0.17859   0.19608   0.20111   0.20848

 Mulliken charges:
               1
     1  H    1.444354
     2  H    0.850277
     3  H    1.281522
     4  H    0.790853
     5  H    0.761685
     6  H    1.351975
     7  H    1.165444
     8  H    1.188006
     9  H    0.832351
    10  H    1.336308
    11  O   -2.430009
    12  O   -2.071979
    13  O   -2.080913
    14  O   -2.357300
    15  O   -2.062574
 Sum of Mulliken charges =  -0.00000

 Dipole moment (field-independent basis, Debye):
    X=             -0.7215    Y=             -0.8863    Z=              1.0658  Tot=              1.5626

 Test job not archived.
 1\1\GINC-SE366\SP\RHF\Aug-CC-pVDZ\H10O5\OHZDE\08-Apr-2025\0\\#t hf aug
 -cc-pvdz iop(5/13=1,5/36=2,99/5=2) pseudo=read geom=check guess=(read,
 tcheck) scf=(maxcycle=1)\\title\\0,1\H,0,0.585569,-1.33168,0.925449\H,
 0,-0.667435,-1.84352,1.80023\H,0,1.71851,-0.510109,-0.225823\H,0,1.416
 56,-1.59218,-1.45488\H,0,2.35202,1.6893,0.390261\H,0,0.94476,1.6061,-0
 .243056\H,0,-1.46232,0.935698,0.00007331\H,0,-0.554803,1.03062,1.28245
 \H,0,-3.40051,-0.270576,-0.555843\H,0,-1.70453,-0.613651,-0.405745\O,0
 ,-0.250822,-0.985004,1.23429\O,0,1.75425,-1.56746,-0.470208\O,0,1.8885

 Normal termination of Gaussian 16 at Tue Apr  8 21:06:28 2025.
