 Gaussian 16, Revision C.01,

 ----------------------------------------------------------------------
 #t hf aug-cc-pvdz symm=none int=(grid=ultrafine) guess=(read,tcheck) s
 table=(opt,rrhf)
 ----------------------------------------------------------------------
 -----
 title
 -----
 Symbolic Z-matrix:
 Charge =  0 Multiplicity = 1

 SCF Done:  E(RHF) =  -334.012598991     A.U. after   14 cycles
 Normal termination of Gaussian 16 at Tue Apr  8 21:40:52 2025.
 Gaussian 16:  ES64L-G16RevC.01  3-Jul-2019

 ----------------------------------------------------------------------
 #t hf aug-cc-pvdz iop(5/13=1,5/36=2,99/5=2) pseudo=read geom=check gue
 ss=(read,tcheck) scf=(maxcycle=1)
 ----------------------------------------------------------------------
 -----
 title
 -----
 Structure from the checkpoint file:  "ANI1ccx_431_conf10_mol2.chk"
 Charge =  0 Multiplicity = 1

                         Standard orientation:
 ---------------------------------------------------------------------
 Center     Atomic      Atomic             Coordinates (Angstroms)
 Number     Number       Type             X           Y           Z
 ---------------------------------------------------------------------
      1          6           0        0.447657   -0.592392    0.012239
      2          1           0       -1.861987    0.335212    1.206570
      3          1           0       -2.149779    0.862589   -0.333788
      4          1           0       -1.149856   -1.682052   -0.460138
      5          1           0        2.043189    0.506162    0.288362
      6          1           0       -0.133980    2.259984    0.351832
      7          1           0        0.308241    1.747599   -1.163530
      8          7           0       -1.942616    0.068173    0.221921
      9          7           0       -0.925908   -0.699061   -0.343594
     10          7           0        1.034822    0.600113    0.316564
     11          7           0        0.591192    1.837399   -0.207381
     12          8           0        1.119476   -1.640189    0.015586
 ---------------------------------------------------------------------

 SCF Done:  E(RHF) =  -335.511714852     A.U. after    2 cycles

 The electronic state is 1-A.
 Alpha  occ. eigenvalues --  -21.01800 -15.78982 -15.78444 -15.78278 -15.77767
 Alpha  occ. eigenvalues --  -11.50142  -1.71106  -1.50174  -1.46580  -1.17237
 Alpha  occ. eigenvalues --   -1.13097  -0.85279  -0.71980  -0.69910  -0.68643
 Alpha  occ. eigenvalues --   -0.66808  -0.61850  -0.54778  -0.51922  -0.41305
 Alpha  occ. eigenvalues --   -0.40005  -0.37932  -0.31477  -0.28750
 Alpha virt. eigenvalues --    0.03272   0.05018   0.05318   0.05687   0.06768
 Alpha virt. eigenvalues --    0.07291   0.12013   0.12157   0.13008   0.14962
 Alpha virt. eigenvalues --    0.15354   0.16706   0.16885   0.17702   0.18496

 Mulliken charges:
               1
     1  C    5.341638
     2  H    0.614948
     3  H    0.738937
     4  H    0.676445
     5  H    0.641612
     6  H    0.735260
     7  H    0.619024
     8  N   -1.587138
     9  N   -1.560711
    10  N   -1.671032
    11  N   -1.696039
    12  O   -2.852944
 Sum of Mulliken charges =  -0.00000

 Dipole moment (field-independent basis, Debye):
    X=             -1.6230    Y=              2.4414    Z=             -0.0444  Tot=              2.9320

 Test job not archived.
 1\1\GINC-SE186\SP\RHF\Aug-CC-pVDZ\C1H6N4O1\OHZDE\08-Apr-2025\0\\#t hf
 aug-cc-pvdz iop(5/13=1,5/36=2,99/5=2) pseudo=read geom=check guess=(re
 ad,tcheck) scf=(maxcycle=1)\\title\\0,1\C,0,0.447676,-0.592376,0.01223
 85\H,0,-1.862,0.335149,1.20657\H,0,-2.14981,0.862517,-0.333788\H,0,-1.
 1498,-1.68209,-0.460138\H,0,2.04317,0.506232,0.288362\H,0,-0.134058,2.
 25998,0.351832\H,0,0.30818,1.74761,-1.16353\N,0,-1.94262,0.0681076,0.2
 21921\N,0,-0.925886,-0.699092,-0.343594\N,0,1.0348,0.600149,0.316564\N
 ,0,0.591128,1.83742,-0.207381\O,0,1.11953,-1.64015,0.0155859\\Version=

 Normal termination of Gaussian 16 at Tue Apr  8 21:40:57 2025.
