 Gaussian 16, Revision C.01,

 ----------------------------------------------------------------------
 #t hf aug-cc-pvdz symm=none int=(grid=ultrafine) guess=(read,tcheck) s
 table=(opt,rrhf)
 ----------------------------------------------------------------------
 -----
 title
 -----
 Symbolic Z-matrix:
 Charge =  0 Multiplicity = 1

 SCF Done:  E(RHF) =  -466.635280844     A.U. after   13 cycles
 Normal termination of Gaussian 16 at Tue Apr  8 21:47:13 2025.
 Gaussian 16:  ES64L-G16RevC.01  3-Jul-2019

 ----------------------------------------------------------------------
 #t hf aug-cc-pvdz iop(5/13=1,5/36=2,99/5=2) pseudo=read geom=check gue
 ss=(read,tcheck) scf=(maxcycle=1)
 ----------------------------------------------------------------------
 -----
 title
 -----
 Structure from the checkpoint file:  "ANI1ccx_540_conf2_mol1.chk"
 Charge =  0 Multiplicity = 1

                         Standard orientation:
 ---------------------------------------------------------------------
 Center     Atomic      Atomic             Coordinates (Angstroms)
 Number     Number       Type             X           Y           Z
 ---------------------------------------------------------------------
      1          6           0       -1.494170   -0.411187   -0.034658
      2          6           0        0.735875    0.601523   -0.005783
      3          1           0       -3.034169    0.947052    0.201468
      4          1           0       -1.437759    1.620071   -0.308234
      5          1           0        0.229670   -1.368600    0.067329
      6          1           0        2.753831    0.777847   -0.529294
      7          1           0        2.765470   -1.364871    0.619911
      8          7           0       -2.021959    0.882069    0.009636
      9          7           0       -0.139420   -0.470865   -0.051336
     10          7           0        2.067780    0.225334    0.150466
     11          8           0       -2.124980   -1.396399    0.026002
     12          8           0        0.416571    1.758510    0.022993
     13          8           0        2.199400   -1.138271   -0.120231
 ---------------------------------------------------------------------

 SCF Done:  E(RHF) =  -468.614916085     A.U. after    2 cycles

 The electronic state is 1-A.
 Alpha  occ. eigenvalues --  -21.14134 -21.05516 -21.02567 -15.82228 -15.79043
 Alpha  occ. eigenvalues --  -15.75266 -11.53957 -11.51445  -1.86149  -1.76159
 Alpha  occ. eigenvalues --   -1.73903  -1.42860  -1.31167  -1.24066  -0.92703
 Alpha  occ. eigenvalues --   -0.82366  -0.74810  -0.69946  -0.68988  -0.66651
 Alpha  occ. eigenvalues --   -0.61927  -0.60211  -0.52655  -0.51550  -0.50384
 Alpha  occ. eigenvalues --   -0.42428  -0.37984  -0.35782  -0.32765  -0.30813
 Alpha  occ. eigenvalues --   -0.30418
 Alpha virt. eigenvalues --    0.03148   0.04729   0.05552   0.06926   0.07690
 Alpha virt. eigenvalues --    0.10299   0.10487   0.11939   0.12505   0.13358
 Alpha virt. eigenvalues --    0.14080   0.15192   0.15735   0.16046   0.16748

 Mulliken charges:
               1
     1  C    5.074908
     2  C    5.073304
     3  H    0.616857
     4  H    0.752636
     5  H    0.622215
     6  H    0.541915
     7  H    0.808456
     8  N   -2.558378
     9  N   -2.015698
    10  N   -0.626970
    11  O   -3.064247
    12  O   -2.879494
    13  O   -2.345505
 Sum of Mulliken charges =  -0.00000

 Dipole moment (field-independent basis, Debye):
    X=              2.6765    Y=              0.0924    Z=             -0.2185  Tot=              2.6870

 Test job not archived.
 1\1\GINC-SE328\SP\RHF\Aug-CC-pVDZ\C2H5N3O3\OHZDE\08-Apr-2025\0\\#t hf
 aug-cc-pvdz iop(5/13=1,5/36=2,99/5=2) pseudo=read geom=check guess=(re
 ad,tcheck) scf=(maxcycle=1)\\title\\0,1\C,0,-1.49417,-0.411188,-0.0346
 576\C,0,0.735874,0.601523,-0.00578325\H,0,-3.03417,0.947051,0.201468\H
 ,0,-1.43776,1.62007,-0.308234\H,0,0.22967,-1.3686,0.067329\H,0,2.75383
 ,0.777848,-0.529294\H,0,2.76547,-1.36487,0.619911\N,0,-2.02196,0.88206
 8,0.00963597\N,0,-0.13942,-0.470865,-0.051336\N,0,2.06778,0.225335,0.1
 50466\O,0,-2.12498,-1.3964,0.0260018\O,0,0.41657,1.75851,0.022993\O,0,

 Normal termination of Gaussian 16 at Tue Apr  8 21:47:17 2025.
