 Gaussian 16, Revision C.01,

 ----------------------------------------------------------------------
 #t hf aug-cc-pvdz symm=none int=(grid=ultrafine) guess=(read,tcheck) s
 table=(opt,rrhf)
 ----------------------------------------------------------------------
 -----
 title
 -----
 Symbolic Z-matrix:
 Charge =  0 Multiplicity = 1

 SCF Done:  E(RHF) =  -491.028158411     A.U. after   15 cycles

 1\1\GINC-SE097\Stability\RHF\Aug-CC-pVDZ\C7H14N4\OHZDE\08-Apr-2025\0\\
 #t hf aug-cc-pvdz symm=none int=(grid=ultrafine) guess=(read,tcheck) s
 table=(opt,rrhf)\\title\\0,1\C,0,1.47649,-0.597576,2.04779\C,0,2.03001
 ,0.172624,0.827036\C,0,1.32268,-0.231064,-0.467912\C,0,1.79381,0.67659
 9,-1.6262\C,0,1.58308,-1.69457,-0.759009\C,0,-0.854385,0.817674,-0.054
 9937\C,0,-2.78378,-0.581002,-0.0170705\H,0,-2.8393,1.35749,-0.431409\H
 ,0,0.480031,2.27663,0.37766\H,0,-1.04886,2.46751,1.05645\H,0,1.1062,-2
 .27658,0.0554665\H,0,1.00563,-1.97221,-1.63287\H,0,2.68311,-1.84739,-0

 Normal termination of Gaussian 16 at Tue Apr  8 19:54:54 2025.
 Gaussian 16:  ES64L-G16RevC.01  3-Jul-2019

 ----------------------------------------------------------------------
 #t hf aug-cc-pvdz iop(5/13=1,5/36=2,99/5=2) pseudo=read geom=check gue
 ss=(read,tcheck) scf=(maxcycle=1)
 ----------------------------------------------------------------------
 -----
 title
 -----
 Structure from the checkpoint file:  "ANI1ccx_1436_conf3_mol1.chk"
 Charge =  0 Multiplicity = 1

                         Standard orientation:
 ---------------------------------------------------------------------
 Center     Atomic      Atomic             Coordinates (Angstroms)
 Number     Number       Type             X           Y           Z
 ---------------------------------------------------------------------
      1          6           0        1.476491   -0.597576    2.047790
      2          6           0        2.030011    0.172624    0.827036
      3          6           0        1.322681   -0.231064   -0.467912
      4          6           0        1.793811    0.676599   -1.626200
      5          6           0        1.583081   -1.694570   -0.759009
      6          6           0       -0.854384    0.817673   -0.054994
      7          6           0       -2.783779   -0.581003   -0.017071
      8          1           0       -2.839299    1.357489   -0.431409
      9          1           0        0.480032    2.276630    0.377660
     10          1           0       -1.048859    2.467509    1.056450
     11          1           0        1.106202   -2.276580    0.055466
     12          1           0        1.005632   -1.972210   -1.632870
     13          1           0        2.683111   -1.847390   -0.840913
     14          1           0        1.358921    1.734820   -1.472630
     15          1           0        2.934621    0.766437   -1.688040
     16          1           0        3.078291    0.026401    0.579794
     17          1           0        1.885241    1.242130    1.051000
     18          1           0        1.892961   -1.639780    2.099780
     19          1           0        0.312286   -0.771510    1.906670
     20          1           0        1.684001   -0.066886    3.082500
     21          1           0        1.388051    0.230771   -2.570300
     22          7           0       -2.273989    0.651076    0.090508
     23          7           0       -0.155306   -0.147699   -0.423799
     24          7           0       -0.537996    2.179539    0.243738
     25          7           0       -3.222519   -1.669191   -0.092018
 ---------------------------------------------------------------------

 SCF Done:  E(RHF) =  -493.395225396     A.U. after    2 cycles

 The electronic state is 1-A.
 Alpha  occ. eigenvalues --  -15.81366 -15.78917 -15.74934 -15.71268 -11.52188
 Alpha  occ. eigenvalues --  -11.46231 -11.45805 -11.43144 -11.40336 -11.38755
 Alpha  occ. eigenvalues --  -11.35977  -1.53590  -1.39117  -1.33388  -1.24702
 Alpha  occ. eigenvalues --   -1.19660  -1.08709  -1.00927  -0.91324  -0.89080
 Alpha  occ. eigenvalues --   -0.81418  -0.74730  -0.71032  -0.65967  -0.64172
 Alpha  occ. eigenvalues --   -0.63844  -0.60861  -0.58782  -0.57827  -0.55492
 Alpha  occ. eigenvalues --   -0.53074  -0.51259  -0.51107  -0.49313  -0.49151
 Alpha  occ. eigenvalues --   -0.48879  -0.44026  -0.42448  -0.42032  -0.37623
 Alpha  occ. eigenvalues --   -0.34785  -0.33688
 Alpha virt. eigenvalues --    0.03321   0.04438   0.04617   0.04799   0.05383
 Alpha virt. eigenvalues --    0.05569   0.05921   0.06512   0.07154   0.07754
 Alpha virt. eigenvalues --    0.08382   0.08665   0.09016   0.10323   0.10892

 Mulliken charges:
               1
     1  C   -4.014972
     2  C   -3.514296
     3  C    7.483500
     4  C   -5.316196
     5  C   -5.362989
     6  C    3.986220
     7  C    3.131327
     8  H    0.745150
     9  H    0.750536
    10  H    0.629614
    11  H    1.223257
    12  H    1.280286
    13  H    1.084086
    14  H    1.084968
    15  H    1.080982
    16  H    1.340199
    17  H    1.534904
    18  H    1.287735
    19  H    1.405480
    20  H    1.054305
    21  H    1.257444
    22  N   -3.024984
    23  N   -3.537175
    24  N   -2.933899
    25  N   -2.655484
 Sum of Mulliken charges =   0.00000

 Dipole moment (field-independent basis, Debye):
    X=              2.6563    Y=              4.3190    Z=              0.7301  Tot=              5.1228

 Test job not archived.
 1\1\GINC-SE097\SP\RHF\Aug-CC-pVDZ\C7H14N4\OHZDE\08-Apr-2025\0\\#t hf a
 ug-cc-pvdz iop(5/13=1,5/36=2,99/5=2) pseudo=read geom=check guess=(rea
 d,tcheck) scf=(maxcycle=1)\\title\\0,1\C,0,1.47649,-0.597576,2.04779\C
 ,0,2.03001,0.172624,0.827036\C,0,1.32268,-0.231064,-0.467912\C,0,1.793
 81,0.676599,-1.6262\C,0,1.58308,-1.69457,-0.759009\C,0,-0.854385,0.817
 674,-0.0549937\C,0,-2.78378,-0.581002,-0.0170705\H,0,-2.8393,1.35749,-
 0.431409\H,0,0.480031,2.27663,0.37766\H,0,-1.04886,2.46751,1.05645\H,0
 ,1.1062,-2.27658,0.0554665\H,0,1.00563,-1.97221,-1.63287\H,0,2.68311,-

 Normal termination of Gaussian 16 at Tue Apr  8 19:55:13 2025.
