 Gaussian 16, Revision C.01,

 ----------------------------------------------------------------------
 #t hf aug-cc-pvdz symm=none int=(grid=ultrafine) guess=(read,tcheck) s
 table=(opt,rrhf)
 ----------------------------------------------------------------------
 -----
 title
 -----
 Symbolic Z-matrix:
 Charge =  0 Multiplicity = 1

 SCF Done:  E(RHF) =  -537.876301471     A.U. after   15 cycles
 Normal termination of Gaussian 16 at Tue Apr  8 22:19:34 2025.
 Gaussian 16:  ES64L-G16RevC.01  3-Jul-2019

 ----------------------------------------------------------------------
 #t hf aug-cc-pvdz iop(5/13=1,5/36=2,99/5=2) pseudo=read geom=check gue
 ss=(read,tcheck) scf=(maxcycle=1)
 ----------------------------------------------------------------------
 -----
 title
 -----
 Structure from the checkpoint file:  "ANI1ccx_988_conf10_mol2.chk"
 Charge =  0 Multiplicity = 1

                         Standard orientation:
 ---------------------------------------------------------------------
 Center     Atomic      Atomic             Coordinates (Angstroms)
 Number     Number       Type             X           Y           Z
 ---------------------------------------------------------------------
      1          6           0        2.169880   -0.427684   -0.001672
      2          6           0        0.794506    1.607960    0.594356
      3          6           0       -0.636832    1.793070    0.063107
      4          6           0       -1.449590    0.530737   -0.072497
      5          1           0       -0.175966   -1.088320    0.745861
      6          1           0       -0.602008    2.190510   -0.954116
      7          1           0       -1.207610    2.506690    0.636017
      8          1           0        1.178530    2.616980    0.733133
      9          1           0        0.765303    1.098610    1.560320
     10          1           0        2.118960   -2.042320    0.945294
     11          1           0        3.621530   -1.719410   -0.754132
     12          1           0        3.861850   -0.059319   -1.088910
     13          1           0        1.982340    1.330270   -1.083530
     14          7           0       -2.113340   -1.539740    0.135050
     15          7           0        3.197580   -0.785426   -0.868884
     16          7           0        1.610650   -1.145880    0.922818
     17          7           0        1.720000    0.870241   -0.225465
     18          7           0       -2.667020    0.444832   -0.533916
     19          7           0       -3.008460   -0.842285   -0.432502
     20          7           0       -1.140940   -0.695772    0.397227
 ---------------------------------------------------------------------

 SCF Done:  E(RHF) =  -540.349817050     A.U. after    2 cycles

 The electronic state is 1-A.
 Alpha  occ. eigenvalues --  -15.80338 -15.78604 -15.77922 -15.76985 -15.75038
 Alpha  occ. eigenvalues --  -15.72989 -15.72242 -11.52001 -11.48662 -11.45557
 Alpha  occ. eigenvalues --  -11.40073  -1.73457  -1.52465  -1.35705  -1.34283
 Alpha  occ. eigenvalues --   -1.28151  -1.26856  -1.13191  -0.96847  -0.85861
 Alpha  occ. eigenvalues --   -0.84388  -0.82944  -0.75707  -0.72343  -0.68965
 Alpha  occ. eigenvalues --   -0.67513  -0.64039  -0.62304  -0.61414  -0.58367
 Alpha  occ. eigenvalues --   -0.54786  -0.53026  -0.51902  -0.46948  -0.43111
 Alpha  occ. eigenvalues --   -0.39145  -0.38828  -0.38077  -0.36765  -0.34716
 Alpha  occ. eigenvalues --   -0.34051
 Alpha virt. eigenvalues --    0.02094   0.03521   0.04150   0.04978   0.05738
 Alpha virt. eigenvalues --    0.05996   0.06776   0.07344   0.08830   0.09623
 Alpha virt. eigenvalues --    0.10748   0.11510   0.12921   0.13267   0.13954

 Mulliken charges:
               1
     1  C    4.618360
     2  C   -2.447403
     3  C   -2.520209
     4  C    3.856218
     5  H    1.188738
     6  H    1.421724
     7  H    1.250730
     8  H    1.055149
     9  H    1.868029
    10  H    0.589576
    11  H    0.557640
    12  H    0.642984
    13  H    0.646048
    14  N   -0.409036
    15  N   -2.749622
    16  N   -2.746093
    17  N   -2.164045
    18  N   -2.233077
    19  N   -0.334512
    20  N   -2.091200
 Sum of Mulliken charges =   0.00000

 Dipole moment (field-independent basis, Debye):
    X=              9.1539    Y=              2.4943    Z=             -0.1825  Tot=              9.4894

 Test job not archived.
 1\1\GINC-SE364\SP\RHF\Aug-CC-pVDZ\C4H9N7\OHZDE\08-Apr-2025\0\\#t hf au
 g-cc-pvdz iop(5/13=1,5/36=2,99/5=2) pseudo=read geom=check guess=(read
 ,tcheck) scf=(maxcycle=1)\\title\\0,1\C,0,2.16988,-0.427684,-0.0016717
 5\C,0,0.794506,1.60796,0.594356\C,0,-0.636832,1.79307,0.0631068\C,0,-1
 .44959,0.530737,-0.0724965\H,0,-0.175966,-1.08832,0.745861\H,0,-0.6020
 08,2.19051,-0.954116\H,0,-1.20761,2.50669,0.636017\H,0,1.17853,2.61698
 ,0.733133\H,0,0.765303,1.09861,1.56032\H,0,2.11896,-2.04232,0.945294\H
 ,0,3.62153,-1.71941,-0.754132\H,0,3.86185,-0.0593193,-1.08891\H,0,1.98

 Normal termination of Gaussian 16 at Tue Apr  8 22:19:45 2025.
