 Gaussian 16, Revision C.01,

 ----------------------------------------------------------------------
 #t hf aug-cc-pvdz symm=none int=(grid=ultrafine) guess=(read,tcheck) s
 table=(opt,rrhf)
 ----------------------------------------------------------------------
 -----
 title
 -----
 Symbolic Z-matrix:
 Charge =  0 Multiplicity = 1

 SCF Done:  E(RHF) =  -380.147079050     A.U. after   12 cycles
 Normal termination of Gaussian 16 at Tue Apr  8 21:06:26 2025.
 Gaussian 16:  ES64L-G16RevC.01  3-Jul-2019

 ----------------------------------------------------------------------
 #t hf aug-cc-pvdz iop(5/13=1,5/36=2,99/5=2) pseudo=read geom=check gue
 ss=(read,tcheck) scf=(maxcycle=1)
 ----------------------------------------------------------------------
 -----
 title
 -----
 Structure from the checkpoint file:  "ANI1ccx_1843_conf574_mol1.chk"
 Charge =  0 Multiplicity = 1

                         Standard orientation:
 ---------------------------------------------------------------------
 Center     Atomic      Atomic             Coordinates (Angstroms)
 Number     Number       Type             X           Y           Z
 ---------------------------------------------------------------------
      1          1           0       -1.763011   -0.448377   -0.413430
      2          1           0       -1.986896   -1.787965   -1.200810
      3          1           0       -0.727558    1.813171    0.064780
      4          1           0       -2.134082    2.377466   -0.047697
      5          1           0        1.373125    1.696454    1.198410
      6          1           0        0.640887    0.508152    0.787355
      7          1           0        0.976864   -1.236904    0.574190
      8          1           0       -0.598147   -1.525459    0.612011
      9          1           0        3.172959   -0.478577   -1.231540
     10          1           0        1.929261    0.412070   -0.716892
     11          8           0       -1.749834   -1.386996   -0.284276
     12          8           0       -1.570895    1.498934   -0.383739
     13          8           0        0.945151    1.351306    0.411548
     14          8           0        0.174955   -1.100752    1.123030
     15          8           0        2.090198   -0.528746   -0.819860
 ---------------------------------------------------------------------

 SCF Done:  E(RHF) =  -381.807207059     A.U. after    2 cycles

 The electronic state is 1-A.
 Alpha  occ. eigenvalues --  -21.09477 -21.09080 -21.07949 -21.07573 -21.02444
 Alpha  occ. eigenvalues --   -1.70481  -1.68592  -1.62489  -1.61295  -1.59525
 Alpha  occ. eigenvalues --   -0.67031  -0.64350  -0.62420  -0.60531  -0.57900
 Alpha  occ. eigenvalues --   -0.51649  -0.49814  -0.47733  -0.44482  -0.41072
 Alpha  occ. eigenvalues --   -0.36231  -0.34760  -0.33254  -0.32712  -0.29962
 Alpha virt. eigenvalues --    0.03607   0.04693   0.05277   0.05413   0.07748
 Alpha virt. eigenvalues --    0.08246   0.09403   0.09711   0.10590   0.11437
 Alpha virt. eigenvalues --    0.19011   0.19637   0.20573   0.21433   0.21937

 Mulliken charges:
               1
     1  H    1.372409
     2  H    0.811367
     3  H    1.338156
     4  H    0.789084
     5  H    0.542599
     6  H    1.831643
     7  H    1.125352
     8  H    1.625892
     9  H    0.725542
    10  H    1.261950
    11  O   -2.523790
    12  O   -2.066232
    13  O   -2.437011
    14  O   -2.442182
    15  O   -1.954781
 Sum of Mulliken charges =  -0.00000

 Dipole moment (field-independent basis, Debye):
    X=              0.1580    Y=              0.9486    Z=             -0.6453  Tot=              1.1581

 Test job not archived.
 1\1\GINC-SE368\SP\RHF\Aug-CC-pVDZ\H10O5\OHZDE\08-Apr-2025\0\\#t hf aug
 -cc-pvdz iop(5/13=1,5/36=2,99/5=2) pseudo=read geom=check guess=(read,
 tcheck) scf=(maxcycle=1)\\title\\0,1\H,0,-1.76301,-0.448381,-0.41343\H
 ,0,-1.98689,-1.78797,-1.20081\H,0,-0.727564,1.81317,0.0647796\H,0,-2.1
 3409,2.37746,-0.0476966\H,0,1.37312,1.69646,1.19841\H,0,0.640885,0.508
 155,0.787355\H,0,0.976868,-1.2369,0.57419\H,0,-0.598142,-1.52546,0.612
 011\H,0,3.17296,-0.478566,-1.23154\H,0,1.92926,0.412077,-0.716892\O,0,
 -1.74983,-1.387,-0.284276\O,0,-1.5709,1.49893,-0.383739\O,0,0.945147,1

 Normal termination of Gaussian 16 at Tue Apr  8 21:06:28 2025.
