 Gaussian 16, Revision C.01,

 ----------------------------------------------------------------------
 #t hf aug-cc-pvdz symm=none int=(grid=ultrafine) guess=(read,tcheck) s
 table=(opt,rrhf)
 ----------------------------------------------------------------------
 -----
 title
 -----
 Symbolic Z-matrix:
 Charge =  0 Multiplicity = 1

 SCF Done:  E(RHF) =  -556.260474912     A.U. after   17 cycles
 Normal termination of Gaussian 16 at Tue Apr  8 19:32:11 2025.
 Gaussian 16:  ES64L-G16RevC.01  3-Jul-2019

 ----------------------------------------------------------------------
 #t hf aug-cc-pvdz iop(5/13=1,5/36=2,99/5=2) pseudo=read geom=check gue
 ss=(read,tcheck) scf=(maxcycle=1)
 ----------------------------------------------------------------------
 -----
 title
 -----
 Structure from the checkpoint file:  "ANI1ccx_1294_conf3_mol2.chk"
 Charge =  0 Multiplicity = 1

                         Standard orientation:
 ---------------------------------------------------------------------
 Center     Atomic      Atomic             Coordinates (Angstroms)
 Number     Number       Type             X           Y           Z
 ---------------------------------------------------------------------
      1          6           0        0.863357    1.272570   -0.041056
      2          6           0        2.677370   -0.150744    0.110426
      3          6           0        0.685179   -1.162820    0.000650
      4          6           0       -1.340330   -0.293953   -0.135345
      5          6           0       -2.633600    0.410897    0.040295
      6          6           0        0.029142    0.121431    0.009607
      7          1           0       -0.629524    2.649550   -0.090458
      8          1           0        1.071209    3.224891   -0.005791
      9          1           0        3.773430   -0.236619    0.181541
     10          1           0       -2.193729   -2.177171   -0.244006
     11          7           0        0.377165    2.483680   -0.119433
     12          7           0        2.182130    1.100771   -0.048777
     13          7           0        2.038561   -1.316059    0.151176
     14          7           0       -0.160803   -2.216910   -0.021569
     15          7           0       -1.349149   -1.646571   -0.158889
     16          7           0       -3.617630    0.931524    0.233384
 ---------------------------------------------------------------------

 SCF Done:  E(RHF) =  -558.757483043     A.U. after    2 cycles

 The electronic state is 1-A.
 Alpha  occ. eigenvalues --  -15.87894 -15.81270 -15.80059 -15.78073 -15.73547
 Alpha  occ. eigenvalues --  -15.73034 -11.56588 -11.55300 -11.49469 -11.48260
 Alpha  occ. eigenvalues --  -11.45178 -11.43690  -1.67113  -1.52263  -1.40856
 Alpha  occ. eigenvalues --   -1.35659  -1.28370  -1.20685  -1.18619  -0.99388
 Alpha  occ. eigenvalues --   -0.93288  -0.88514  -0.81266  -0.74093  -0.72572
 Alpha  occ. eigenvalues --   -0.67849  -0.67129  -0.62690  -0.61550  -0.59218
 Alpha  occ. eigenvalues --   -0.57432  -0.55364  -0.52659  -0.50275  -0.48986
 Alpha  occ. eigenvalues --   -0.45490  -0.41238  -0.38381  -0.37460  -0.35904
 Alpha  occ. eigenvalues --   -0.29268
 Alpha virt. eigenvalues --    0.02850   0.04827   0.05361   0.06095   0.07145
 Alpha virt. eigenvalues --    0.07824   0.08785   0.09989   0.10674   0.10988
 Alpha virt. eigenvalues --    0.11131   0.11644   0.12136   0.12442   0.12949

 Mulliken charges:
               1
     1  C    5.056106
     2  C    0.764152
     3  C    4.894121
     4  C    2.401138
     5  C    1.695920
     6  C   -0.220559
     7  H    0.609657
     8  H    0.833246
     9  H    1.747753
    10  H    0.981394
    11  N   -3.693680
    12  N   -3.750462
    13  N   -3.633158
    14  N   -2.408314
    15  N   -2.546685
    16  N   -2.730630
 Sum of Mulliken charges =   0.00000

 Dipole moment (field-independent basis, Debye):
    X=             -1.6534    Y=              1.7713    Z=             -0.4020  Tot=              2.4562

 Test job not archived.
 1\1\GINC-SE041\SP\RHF\Aug-CC-pVDZ\C6H4N6\OHZDE\08-Apr-2025\0\\#t hf au
 g-cc-pvdz iop(5/13=1,5/36=2,99/5=2) pseudo=read geom=check guess=(read
 ,tcheck) scf=(maxcycle=1)\\title\\0,1\C,0,0.863358,1.27257,-0.0410558\
 C,0,2.67737,-0.150745,0.110426\C,0,0.685178,-1.16282,0.00065032\C,0,-1
 .34033,-0.293952,-0.135345\C,0,-2.6336,0.410898,0.0402953\C,0,0.029142
 1,0.121431,0.00960736\H,0,-0.629523,2.64955,-0.0904578\H,0,1.07121,3.2
 2489,-0.0057913\H,0,3.77343,-0.236621,0.181541\H,0,-2.19373,-2.17717,-
 0.244006\N,0,0.377166,2.48368,-0.119433\N,0,2.18213,1.10077,-0.0487773

 Normal termination of Gaussian 16 at Tue Apr  8 19:32:24 2025.
