 Gaussian 16, Revision C.01,

 ----------------------------------------------------------------------
 #t hf aug-cc-pvdz symm=none int=(grid=ultrafine) guess=(read,tcheck) s
 table=(opt,rrhf)
 ----------------------------------------------------------------------
 -----
 title
 -----
 Symbolic Z-matrix:
 Charge =  0 Multiplicity = 1

 SCF Done:  E(RHF) =  -504.974028729     A.U. after   15 cycles
 Normal termination of Gaussian 16 at Tue Apr  8 21:42:14 2025.
 Gaussian 16:  ES64L-G16RevC.01  3-Jul-2019

 ----------------------------------------------------------------------
 #t hf aug-cc-pvdz iop(5/13=1,5/36=2,99/5=2) pseudo=read geom=check gue
 ss=(read,tcheck) scf=(maxcycle=1)
 ----------------------------------------------------------------------
 -----
 title
 -----
 Structure from the checkpoint file:  "ANI1ccx_471_conf39_mol1.chk"
 Charge =  0 Multiplicity = 1

                         Standard orientation:
 ---------------------------------------------------------------------
 Center     Atomic      Atomic             Coordinates (Angstroms)
 Number     Number       Type             X           Y           Z
 ---------------------------------------------------------------------
      1          6           0       -1.379409   -0.110982    0.045302
      2          6           0        0.854825   -0.719837   -0.047515
      3          1           0        1.104419    1.766652    1.415750
      4          7           0        0.760637    0.626776   -0.472478
      5          8           0        1.543829    1.457032    0.283903
      6          8           0       -0.667936    1.014600   -0.378336
      7          8           0       -2.523609    0.018929    0.254544
      8          8           0       -0.577068   -1.231890   -0.002581
      9          8           0        1.814612   -1.404818    0.080579
 ---------------------------------------------------------------------

 SCF Done:  E(RHF) =  -507.040024274     A.U. after    2 cycles

 The electronic state is 1-A.
 Alpha  occ. eigenvalues --  -21.18017 -21.17439 -21.16761 -21.14643 -21.10958
 Alpha  occ. eigenvalues --  -15.90308 -11.62222 -11.59416  -2.00202  -1.84038
 Alpha  occ. eigenvalues --   -1.81603  -1.72937  -1.70786  -1.24316  -0.88597
 Alpha  occ. eigenvalues --   -0.87142  -0.73170  -0.70854  -0.65601  -0.62507
 Alpha  occ. eigenvalues --   -0.59990  -0.58394  -0.54340  -0.49326  -0.44212
 Alpha  occ. eigenvalues --   -0.43492  -0.39334  -0.37799  -0.34523  -0.33276
 Alpha virt. eigenvalues --    0.02510   0.07105   0.09484   0.09643   0.09759
 Alpha virt. eigenvalues --    0.10659   0.11096   0.11384   0.11699   0.14545
 Alpha virt. eigenvalues --    0.15548   0.16271   0.16451   0.18608   0.19629

 Mulliken charges:
               1
     1  C    5.614977
     2  C    5.238939
     3  H    0.490170
     4  N    1.434408
     5  O   -2.230100
     6  O   -2.252585
     7  O   -2.885476
     8  O   -2.584374
     9  O   -2.825958
 Sum of Mulliken charges =   0.00000

 Dipole moment (field-independent basis, Debye):
    X=              0.9213    Y=              0.6509    Z=              0.3854  Tot=              1.1921

 Test job not archived.
 1\1\GINC-SE460\SP\RHF\Aug-CC-pVDZ\C2H1N1O5\OHZDE\08-Apr-2025\0\\#t hf
 aug-cc-pvdz iop(5/13=1,5/36=2,99/5=2) pseudo=read geom=check guess=(re
 ad,tcheck) scf=(maxcycle=1)\\title\\0,1\C,0,-1.37941,-0.110982,0.04530
 17\C,0,0.854824,-0.719839,-0.047515\H,0,1.10442,1.76665,1.41575\N,0,0.
 760637,0.626775,-0.472478\O,0,1.54383,1.45703,0.283903\O,0,-0.667936,1
 .0146,-0.378336\O,0,-2.52361,0.0189302,0.254544\O,0,-0.57707,-1.23189,
 -0.00258098\O,0,1.81461,-1.40482,0.0805786\\Version=ES64L-G16RevC.01\S
 tate=1-A\HF=-507.0400243\RMSD=5.565e-02\Dipole=0.3624811,0.2560972,0.1

 Normal termination of Gaussian 16 at Tue Apr  8 21:42:17 2025.
