 Gaussian 16, Revision C.01,

 ----------------------------------------------------------------------
 #t hf aug-cc-pvdz symm=none int=(grid=ultrafine) guess=(read,tcheck) s
 table=(opt,rrhf)
 ----------------------------------------------------------------------
 -----
 title
 -----
 Symbolic Z-matrix:
 Charge =  0 Multiplicity = 1

 SCF Done:  E(RHF) =  -509.538181497     A.U. after   14 cycles
 Normal termination of Gaussian 16 at Tue Apr  8 22:14:04 2025.
 Gaussian 16:  ES64L-G16RevC.01  3-Jul-2019

 ----------------------------------------------------------------------
 #t hf aug-cc-pvdz iop(5/13=1,5/36=2,99/5=2) pseudo=read geom=check gue
 ss=(read,tcheck) scf=(maxcycle=1)
 ----------------------------------------------------------------------
 -----
 title
 -----
 Structure from the checkpoint file:  "ANI1ccx_939_conf34_mol1.chk"
 Charge =  0 Multiplicity = 1

                         Standard orientation:
 ---------------------------------------------------------------------
 Center     Atomic      Atomic             Coordinates (Angstroms)
 Number     Number       Type             X           Y           Z
 ---------------------------------------------------------------------
      1          6           0       -0.734082    0.617139   -0.757268
      2          6           0       -1.352881   -0.387815    0.224073
      3          6           0        0.703391    0.077404   -1.165580
      4          6           0        1.535499   -0.232776    0.041129
      5          1           0       -1.475287    2.413892   -0.291690
      6          1           0       -0.118335    2.094720    0.572224
      7          1           0       -1.341720    0.535088   -1.705810
      8          1           0        0.594943   -0.885122   -1.723170
      9          1           0        1.273220    0.776142   -1.753540
     10          1           0        1.915491    0.854572    1.730330
     11          1           0       -1.768784   -2.197368    0.208732
     12          7           0       -0.624755    1.986901   -0.323842
     13          8           0       -1.608241   -0.260054    1.382160
     14          8           0        2.260458   -1.207204    0.098021
     15          8           0        1.370520    0.788554    0.887230
     16          8           0       -1.474963   -1.564288   -0.470450
 ---------------------------------------------------------------------

 SCF Done:  E(RHF) =  -511.730257601     A.U. after    2 cycles

 The electronic state is 1-A.
 Alpha  occ. eigenvalues --  -21.13150 -21.12615 -21.07287 -21.06062 -15.73835
 Alpha  occ. eigenvalues --  -11.54193 -11.53656 -11.47005 -11.40717  -1.83897
 Alpha  occ. eigenvalues --   -1.82599  -1.67098  -1.66842  -1.35955  -1.14543
 Alpha  occ. eigenvalues --   -0.99361  -0.83309  -0.78036  -0.71670  -0.66947
 Alpha  occ. eigenvalues --   -0.64017  -0.62288  -0.59541  -0.58989  -0.57406
 Alpha  occ. eigenvalues --   -0.53023  -0.50631  -0.49732  -0.47835  -0.42866
 Alpha  occ. eigenvalues --   -0.36979  -0.36490  -0.33957  -0.30124  -0.29891
 Alpha virt. eigenvalues --    0.03611   0.04874   0.05011   0.05407   0.06124
 Alpha virt. eigenvalues --    0.06992   0.08393   0.09716   0.10459   0.11402
 Alpha virt. eigenvalues --    0.12690   0.12914   0.13457   0.14371   0.14808

 Mulliken charges:
               1
     1  C   -0.394569
     2  C    6.614687
     3  C   -4.288523
     4  C    6.544210
     5  H    0.600349
     6  H    0.645069
     7  H    1.741323
     8  H    1.285830
     9  H    1.405998
    10  H    0.974823
    11  H    0.817072
    12  N   -3.114806
    13  O   -3.320362
    14  O   -3.227083
    15  O   -3.256473
    16  O   -3.027545
 Sum of Mulliken charges =  -0.00000

 Dipole moment (field-independent basis, Debye):
    X=             -0.6576    Y=              0.8604    Z=             -0.0229  Tot=              1.0832

 Test job not archived.
 1\1\GINC-SE232\SP\RHF\Aug-CC-pVDZ\C4H7N1O4\OHZDE\08-Apr-2025\0\\#t hf
 aug-cc-pvdz iop(5/13=1,5/36=2,99/5=2) pseudo=read geom=check guess=(re
 ad,tcheck) scf=(maxcycle=1)\\title\\0,1\C,0,-0.734082,0.617138,-0.7572
 68\C,0,-1.35288,-0.387817,0.224073\C,0,0.703392,0.0774058,-1.16558\C,0
 ,1.5355,-0.232773,0.0411287\H,0,-1.47529,2.41389,-0.29169\H,0,-0.11833
 7,2.09472,0.572224\H,0,-1.34172,0.535086,-1.70581\H,0,0.594945,-0.8851
 21,-1.72317\H,0,1.27322,0.776144,-1.75354\H,0,1.91549,0.854575,1.73033
 \H,0,-1.76878,-2.19737,0.208732\N,0,-0.624757,1.9869,-0.323842\O,0,-1.

 Normal termination of Gaussian 16 at Tue Apr  8 22:14:11 2025.
