 Gaussian 16, Revision C.01,

 ----------------------------------------------------------------------
 #t hf aug-cc-pvdz symm=none int=(grid=ultrafine) guess=(read,tcheck) s
 table=(opt,rrhf)
 ----------------------------------------------------------------------
 -----
 title
 -----
 Symbolic Z-matrix:
 Charge =  0 Multiplicity = 1

 SCF Done:  E(RHF) =  -443.094979472     A.U. after   18 cycles
 Normal termination of Gaussian 16 at Tue Apr  8 21:49:56 2025.
 Gaussian 16:  ES64L-G16RevC.01  3-Jul-2019

 ----------------------------------------------------------------------
 #t hf aug-cc-pvdz iop(5/13=1,5/36=2,99/5=2) pseudo=read geom=check gue
 ss=(read,tcheck) scf=(maxcycle=1)
 ----------------------------------------------------------------------
 -----
 title
 -----
 Structure from the checkpoint file:  "ANI1ccx_609_conf12_mol2.chk"
 Charge =  0 Multiplicity = 1

                         Standard orientation:
 ---------------------------------------------------------------------
 Center     Atomic      Atomic             Coordinates (Angstroms)
 Number     Number       Type             X           Y           Z
 ---------------------------------------------------------------------
      1          6           0       -0.002265   -0.679425   -0.025101
      2          6           0        0.005110    0.759197   -0.003181
      3          7           0        2.149759   -0.349218    0.027247
      4          7           0        1.265560   -1.126241    0.001759
      5          7           0       -1.258650   -1.146802   -0.009627
      6          7           0       -2.138431   -0.336065    0.011042
      7          8           0       -1.169711    1.250978    0.015915
      8          8           0        1.151619    1.277729   -0.021322
 ---------------------------------------------------------------------

 SCF Done:  E(RHF) =  -444.962582871     A.U. after    2 cycles

 The electronic state is 1-A.
 Alpha  occ. eigenvalues --  -21.10195 -21.09573 -15.94459 -15.93560 -15.92932
 Alpha  occ. eigenvalues --  -15.91948 -11.53708 -11.48205  -1.86234  -1.72861
 Alpha  occ. eigenvalues --   -1.64967  -1.58268  -1.23484  -0.99514  -0.92596
 Alpha  occ. eigenvalues --   -0.79509  -0.72707  -0.71583  -0.64488  -0.63112
 Alpha  occ. eigenvalues --   -0.62672  -0.54308  -0.53366  -0.50124  -0.38192
 Alpha  occ. eigenvalues --   -0.36588  -0.34605  -0.34180
 Alpha virt. eigenvalues --    0.05047   0.07600   0.08593   0.09235   0.09610
 Alpha virt. eigenvalues --    0.10204   0.11156   0.11955   0.12258   0.13311
 Alpha virt. eigenvalues --    0.13823   0.15628   0.16195   0.17176   0.17739

 Mulliken charges:
               1
     1  C    2.464959
     2  C    6.511182
     3  N   -1.302322
     4  N   -0.565658
     5  N   -0.755403
     6  N   -1.156785
     7  O   -2.563859
     8  O   -2.632113
 Sum of Mulliken charges =  -0.00000

 Dipole moment (field-independent basis, Debye):
    X=              0.1971    Y=             -0.2356    Z=             -0.0044  Tot=              0.3072

 Test job not archived.
 1\1\GINC-SE044\SP\RHF\Aug-CC-pVDZ\C2N4O2\OHZDE\08-Apr-2025\0\\#t hf au
 g-cc-pvdz iop(5/13=1,5/36=2,99/5=2) pseudo=read geom=check guess=(read
 ,tcheck) scf=(maxcycle=1)\\title\\0,1\C,0,-0.00226461,-0.679423,-0.025
 1008\C,0,0.00511108,0.759199,-0.0031813\N,0,2.14976,-0.349217,0.027246
 6\N,0,1.26556,-1.12624,0.00175855\N,0,-1.25865,-1.1468,-0.00962651\N,0
 ,-2.13843,-0.336063,0.0110417\O,0,-1.16971,1.25098,0.0159155\O,0,1.151
 62,1.27773,-0.0213217\\Version=ES64L-G16RevC.01\State=1-A\HF=-444.9625
 829\RMSD=2.503e-01\Dipole=0.07753,-0.0927042,-0.0017417\Quadrupole=-2.

 Normal termination of Gaussian 16 at Tue Apr  8 21:49:59 2025.
