 Gaussian 16, Revision C.01,

 ----------------------------------------------------------------------
 #t hf aug-cc-pvdz symm=none int=(grid=ultrafine) guess=(read,tcheck) s
 table=(opt,rrhf)
 ----------------------------------------------------------------------
 -----
 title
 -----
 Symbolic Z-matrix:
 Charge =  0 Multiplicity = 1

 SCF Done:  E(RHF) =  -304.170615564     A.U. after   11 cycles
 Normal termination of Gaussian 16 at Tue Apr  8 21:15:26 2025.
 Gaussian 16:  ES64L-G16RevC.01  3-Jul-2019

 ----------------------------------------------------------------------
 #t hf aug-cc-pvdz iop(5/13=1,5/36=2,99/5=2) pseudo=read geom=check gue
 ss=(read,tcheck) scf=(maxcycle=1)
 ----------------------------------------------------------------------
 -----
 title
 -----
 Structure from the checkpoint file:  "ANI1ccx_1904_conf30_mol1.chk"
 Charge =  0 Multiplicity = 1

                         Standard orientation:
 ---------------------------------------------------------------------
 Center     Atomic      Atomic             Coordinates (Angstroms)
 Number     Number       Type             X           Y           Z
 ---------------------------------------------------------------------
      1          1           0       -1.007827    0.782916   -0.239843
      2          1           0       -2.524628    0.681910   -0.513931
      3          1           0        0.175265   -0.740936   -1.488449
      4          1           0        0.923545   -1.112475   -0.218571
      5          1           0        1.134813    0.794018   -0.242286
      6          1           0        1.124469    2.279815    0.166568
      7          1           0        0.165869   -0.043414    1.585791
      8          1           0       -0.809862   -0.948674    0.776680
      9          8           0       -1.673250    0.142069   -0.568171
     10          8           0        1.095046   -0.791470   -1.139989
     11          8           0        0.705572    1.431146    0.360174
     12          8           0       -0.025072   -0.993390    1.369741
 ---------------------------------------------------------------------

 SCF Done:  E(RHF) =  -305.486408114     A.U. after    2 cycles

 The electronic state is 1-A.
 Alpha  occ. eigenvalues --  -21.10874 -21.10704 -21.07736 -21.07433  -1.69936
 Alpha  occ. eigenvalues --   -1.67343  -1.65418  -1.63951  -0.67527  -0.65568
 Alpha  occ. eigenvalues --   -0.62907  -0.60388  -0.51318  -0.51165  -0.48642
 Alpha  occ. eigenvalues --   -0.43894  -0.37901  -0.36361  -0.34842  -0.32513
 Alpha virt. eigenvalues --    0.03242   0.04315   0.06985   0.07297   0.07897
 Alpha virt. eigenvalues --    0.08501   0.08747   0.09912   0.17931   0.19426
 Alpha virt. eigenvalues --    0.20233   0.21034   0.22392   0.23356   0.24473

 Mulliken charges:
               1
     1  H    1.344024
     2  H    0.832950
     3  H    0.826324
     4  H    1.293356
     5  H    1.249081
     6  H    0.968864
     7  H    1.036180
     8  H    1.197103
     9  O   -1.994530
    10  O   -2.229136
    11  O   -2.283306
    12  O   -2.240908
 Sum of Mulliken charges =  -0.00000

 Dipole moment (field-independent basis, Debye):
    X=             -0.7157    Y=              1.9012    Z=             -0.2449  Tot=              2.0461

 Test job not archived.
 1\1\GINC-SE072\SP\RHF\Aug-CC-pVDZ\H8O4\OHZDE\08-Apr-2025\0\\#t hf aug-
 cc-pvdz iop(5/13=1,5/36=2,99/5=2) pseudo=read geom=check guess=(read,t
 check) scf=(maxcycle=1)\\title\\0,1\H,0,-1.00783,0.782912,-0.239844\H,
 0,-2.52463,0.681899,-0.513932\H,0,0.175269,-0.740935,-1.48845\H,0,0.92
 3551,-1.11247,-0.218572\H,0,1.13481,0.794023,-0.242287\H,0,1.12446,2.2
 7982,0.166567\H,0,0.16587,-0.0434124,1.58579\H,0,-0.809857,-0.948677,0
 .776679\O,0,-1.67325,0.142062,-0.568172\O,0,1.09505,-0.791465,-1.13999
 \O,0,0.705566,1.43115,0.360173\O,0,-0.025067,-0.99339,1.36974\\Version

 Normal termination of Gaussian 16 at Tue Apr  8 21:15:29 2025.
