 Gaussian 16, Revision C.01,

 ----------------------------------------------------------------------
 #t hf aug-cc-pvdz symm=none int=(grid=ultrafine) guess=(read,tcheck) s
 table=(opt,rrhf)
 ----------------------------------------------------------------------
 -----
 title
 -----
 Symbolic Z-matrix:
 Charge =  0 Multiplicity = 1

 SCF Done:  E(RHF) =  -696.560693041     A.U. after   14 cycles
 Normal termination of Gaussian 16 at Tue Apr  8 19:30:05 2025.
 Gaussian 16:  ES64L-G16RevC.01  3-Jul-2019

 ----------------------------------------------------------------------
 #t hf aug-cc-pvdz iop(5/13=1,5/36=2,99/5=2) pseudo=read geom=check gue
 ss=(read,tcheck) scf=(maxcycle=1)
 ----------------------------------------------------------------------
 -----
 title
 -----
 Structure from the checkpoint file:  "ANI1ccx_1205_conf26_mol2.chk"
 Charge =  0 Multiplicity = 1

                         Standard orientation:
 ---------------------------------------------------------------------
 Center     Atomic      Atomic             Coordinates (Angstroms)
 Number     Number       Type             X           Y           Z
 ---------------------------------------------------------------------
      1          6           0        0.820666    0.978221   -0.722698
      2          6           0        0.309424    1.158191    0.711660
      3          6           0        2.119400    0.139829   -0.672487
      4          6           0        1.862331   -1.242079   -0.086031
      5          6           0       -2.125890    0.804412    0.031531
      6          6           0       -2.659310   -0.606607   -0.213206
      7          1           0       -0.984028   -1.286830    0.517124
      8          1           0       -2.994570    1.373979    0.399756
      9          1           0       -1.888320    1.225370   -0.958717
     10          1           0       -1.209980    1.098490    1.955300
     11          1           0        3.890771   -1.774838   -0.167564
     12          1           0        2.794811   -2.969319    0.382829
     13          1           0        2.572800    0.010032   -1.674630
     14          1           0        2.921890    0.643901   -0.055892
     15          1           0        0.149833    0.462500   -1.438030
     16          1           0        0.255731    2.818221   -1.235170
     17          1           0        1.740799    2.772111   -0.674733
     18          7           0        1.116919    2.281701   -1.303860
     19          7           0        2.924041   -2.076879   -0.063681
     20          7           0       -1.010900    0.947565    0.971583
     21          8           0        1.021980    1.535181    1.630960
     22          8           0        0.764044   -1.589839    0.342409
     23          8           0       -3.721250   -0.823567   -0.780706
     24          8           0       -1.867259   -1.600790    0.235939
 ---------------------------------------------------------------------

 SCF Done:  E(RHF) =  -699.622097295     A.U. after    2 cycles

 The electronic state is 1-A.
 Alpha  occ. eigenvalues --  -21.09402 -21.05249 -21.03986 -21.03964 -15.80349
 Alpha  occ. eigenvalues --  -15.78136 -15.76309 -11.55197 -11.54671 -11.53065
 Alpha  occ. eigenvalues --  -11.48812 -11.44856 -11.42875  -1.79909  -1.74409
 Alpha  occ. eigenvalues --   -1.72581  -1.63422  -1.41998  -1.38357  -1.36187
 Alpha  occ. eigenvalues --   -1.14703  -1.08461  -0.98420  -0.85312  -0.80148
 Alpha  occ. eigenvalues --   -0.79640  -0.73909  -0.72356  -0.69775  -0.68323
 Alpha  occ. eigenvalues --   -0.67436  -0.65080  -0.62742  -0.59416  -0.56856
 Alpha  occ. eigenvalues --   -0.54579  -0.52405  -0.51350  -0.50293  -0.49498
 Alpha  occ. eigenvalues --   -0.48792  -0.48100  -0.42770  -0.40085  -0.36001
 Alpha  occ. eigenvalues --   -0.33948  -0.32865  -0.31083  -0.30689  -0.27627
 Alpha virt. eigenvalues --    0.02654   0.04129   0.04432   0.04942   0.05342
 Alpha virt. eigenvalues --    0.05913   0.06266   0.06948   0.08206   0.08365
 Alpha virt. eigenvalues --    0.09546   0.09895   0.11122   0.11601   0.11944

 Mulliken charges:
               1
     1  C    1.077611
     2  C    5.847983
     3  C   -3.664280
     4  C    5.463845
     5  C   -3.805863
     6  C    6.226404
     7  H    1.801637
     8  H    1.237408
     9  H    1.614019
    10  H    0.606126
    11  H    0.791490
    12  H    0.749189
    13  H    1.300084
    14  H    1.336797
    15  H    1.911625
    16  H    0.544054
    17  H    0.543541
    18  N   -3.496621
    19  N   -3.479774
    20  N   -2.294510
    21  O   -3.958639
    22  O   -3.653060
    23  O   -3.283633
    24  O   -3.415433
 Sum of Mulliken charges =  -0.00000

 Dipole moment (field-independent basis, Debye):
    X=              4.1396    Y=              0.3074    Z=              0.6289  Tot=              4.1983

 Test job not archived.
 1\1\GINC-SE224\SP\RHF\Aug-CC-pVDZ\C6H11N3O4\OHZDE\08-Apr-2025\0\\#t hf
  aug-cc-pvdz iop(5/13=1,5/36=2,99/5=2) pseudo=read geom=check guess=(r
 ead,tcheck) scf=(maxcycle=1)\\title\\0,1\C,0,0.820666,0.97822,-0.72269
 8\C,0,0.309424,1.15819,0.71166\C,0,2.1194,0.139828,-0.672487\C,0,1.862
 33,-1.24208,-0.0860314\C,0,-2.12589,0.804412,0.0315314\C,0,-2.65931,-0
 .606607,-0.213206\H,0,-0.984029,-1.28683,0.517124\H,0,-2.99457,1.37398
 ,0.399756\H,0,-1.88832,1.22537,-0.958717\H,0,-1.20998,1.09849,1.9553\H
 ,0,3.89077,-1.77484,-0.167564\H,0,2.79481,-2.96932,0.382829\H,0,2.5728

 Normal termination of Gaussian 16 at Tue Apr  8 19:30:25 2025.
