 Gaussian 16, Revision C.01,

 ----------------------------------------------------------------------
 #t hf aug-cc-pvdz symm=none int=(grid=ultrafine) guess=(read,tcheck) s
 table=(opt,rrhf)
 ----------------------------------------------------------------------
 -----
 title
 -----
 Symbolic Z-matrix:
 Charge =  0 Multiplicity = 1

 SCF Done:  E(RHF) =  -451.829358658     A.U. after   13 cycles
 Normal termination of Gaussian 16 at Tue Apr  8 21:57:30 2025.
 Gaussian 16:  ES64L-G16RevC.01  3-Jul-2019

 ----------------------------------------------------------------------
 #t hf aug-cc-pvdz iop(5/13=1,5/36=2,99/5=2) pseudo=read geom=check gue
 ss=(read,tcheck) scf=(maxcycle=1)
 ----------------------------------------------------------------------
 -----
 title
 -----
 Structure from the checkpoint file:  "ANI1ccx_764_conf6_mol1.chk"
 Charge =  0 Multiplicity = 1

                         Standard orientation:
 ---------------------------------------------------------------------
 Center     Atomic      Atomic             Coordinates (Angstroms)
 Number     Number       Type             X           Y           Z
 ---------------------------------------------------------------------
      1          6           0       -2.007151   -0.561073    0.589044
      2          6           0       -0.034045    0.740569    0.113221
      3          6           0        2.259779   -0.206300    0.344908
      4          1           0       -2.209062    0.267320   -1.059460
      5          1           0       -2.206400   -1.528311    1.062410
      6          1           0       -2.477642    0.291676    1.130600
      7          1           0       -0.112353   -0.945072    1.346420
      8          1           0        1.611417    1.735332   -0.221580
      9          1           0        3.238528    0.271422    0.431792
     10          1           0        2.088309   -0.797685    1.273040
     11          1           0        1.347180   -1.448718   -0.810009
     12          7           0       -0.564182   -0.465958    0.576999
     13          7           0        1.339998    0.905196    0.308789
     14          8           0       -2.507471   -0.595039   -0.704857
     15          8           0       -0.734611    1.565990   -0.437951
     16          8           0        2.239309   -1.065927   -0.811789
 ---------------------------------------------------------------------

 SCF Done:  E(RHF) =  -453.802695784     A.U. after    2 cycles

 The electronic state is 1-A.
 Alpha  occ. eigenvalues --  -21.08794 -21.06268 -21.04482 -15.77269 -15.77169
 Alpha  occ. eigenvalues --  -11.52322 -11.46267 -11.43960  -1.76349  -1.72457
 Alpha  occ. eigenvalues --   -1.71116  -1.42304  -1.34433  -1.00786  -0.95744
 Alpha  occ. eigenvalues --   -0.81300  -0.75691  -0.69741  -0.68059  -0.64574
 Alpha  occ. eigenvalues --   -0.61508  -0.58149  -0.55173  -0.54250  -0.52603
 Alpha  occ. eigenvalues --   -0.46747  -0.43452  -0.37291  -0.35504  -0.33058
 Alpha  occ. eigenvalues --   -0.32191  -0.31088
 Alpha virt. eigenvalues --    0.03232   0.04472   0.05035   0.05850   0.06543
 Alpha virt. eigenvalues --    0.06773   0.07894   0.08313   0.10357   0.11307
 Alpha virt. eigenvalues --    0.12325   0.12637   0.14325   0.14540   0.14982

 Mulliken charges:
               1
     1  C   -0.631518
     2  C    5.481499
     3  C   -0.414481
     4  H    0.844055
     5  H    1.495774
     6  H    1.374914
     7  H    0.655072
     8  H    0.412692
     9  H    1.388237
    10  H    1.585097
    11  H    0.932501
    12  N   -2.385270
    13  N   -2.590733
    14  O   -2.540889
    15  O   -2.976877
    16  O   -2.630072
 Sum of Mulliken charges =   0.00000

 Dipole moment (field-independent basis, Debye):
    X=              1.5806    Y=             -0.7665    Z=              1.6764  Tot=              2.4282

 Test job not archived.
 1\1\GINC-SE343\SP\RHF\Aug-CC-pVDZ\C3H8N2O3\OHZDE\08-Apr-2025\0\\#t hf
 aug-cc-pvdz iop(5/13=1,5/36=2,99/5=2) pseudo=read geom=check guess=(re
 ad,tcheck) scf=(maxcycle=1)\\title\\0,1\C,0,-2.00715,-0.561072,0.58904
 4\C,0,-0.0340433,0.740568,0.113221\C,0,2.25978,-0.206303,0.344908\H,0,
 -2.20906,0.267321,-1.05946\H,0,-2.2064,-1.52831,1.06241\H,0,-2.47764,0
 .291677,1.1306\H,0,-0.112352,-0.945073,1.34642\H,0,1.61142,1.73533,-0.
 22158\H,0,3.23853,0.271419,0.431792\H,0,2.08831,-0.797687,1.27304\H,0,
 1.34718,-1.44872,-0.810009\N,0,-0.564181,-0.465958,0.576999\N,0,1.34,0

 Normal termination of Gaussian 16 at Tue Apr  8 21:57:36 2025.
