 Gaussian 16, Revision C.01,

 ----------------------------------------------------------------------
 #t hf aug-cc-pvdz symm=none int=(grid=ultrafine) guess=(read,tcheck) s
 table=(opt,rrhf)
 ----------------------------------------------------------------------
 -----
 title
 -----
 Symbolic Z-matrix:
 Charge =  0 Multiplicity = 1

 SCF Done:  E(RHF) =  -390.252402121     A.U. after   16 cycles
 Normal termination of Gaussian 16 at Tue Apr  8 22:01:05 2025.
 Gaussian 16:  ES64L-G16RevC.01  3-Jul-2019

 ----------------------------------------------------------------------
 #t hf aug-cc-pvdz iop(5/13=1,5/36=2,99/5=2) pseudo=read geom=check gue
 ss=(read,tcheck) scf=(maxcycle=1)
 ----------------------------------------------------------------------
 -----
 title
 -----
 Structure from the checkpoint file:  "ANI1ccx_847_conf2_mol2.chk"
 Charge =  0 Multiplicity = 1

                         Standard orientation:
 ---------------------------------------------------------------------
 Center     Atomic      Atomic             Coordinates (Angstroms)
 Number     Number       Type             X           Y           Z
 ---------------------------------------------------------------------
      1          6           0       -1.494620   -0.291344    0.003347
      2          6           0       -1.120191    1.208869    0.015243
      3          6           0        0.636745   -0.031151    0.010951
      4          6           0        2.063800   -0.211362    0.006735
      5          1           0       -1.827671    2.017479    0.007656
      6          7           0        0.155516    1.337610   -0.010329
      7          7           0       -0.215542   -0.978340    0.038457
      8          7           0        3.210140   -0.326069   -0.024749
      9          8           0       -2.592190   -0.787495   -0.031119
 ---------------------------------------------------------------------

 SCF Done:  E(RHF) =  -391.919708952     A.U. after    2 cycles

 The electronic state is 1-A.
 Alpha  occ. eigenvalues --  -21.13358 -15.81872 -15.81808 -15.80274 -11.57002
 Alpha  occ. eigenvalues --  -11.56553 -11.50438 -11.47789  -1.77709  -1.58432
 Alpha  occ. eigenvalues --   -1.34957  -1.32727  -1.10690  -0.91852  -0.85203
 Alpha  occ. eigenvalues --   -0.76143  -0.66119  -0.65985  -0.59730  -0.55880
 Alpha  occ. eigenvalues --   -0.52107  -0.51933  -0.48914  -0.47440  -0.44950
 Alpha  occ. eigenvalues --   -0.41695  -0.34705
 Alpha virt. eigenvalues --   -0.00025   0.02744   0.07032   0.07993   0.09278
 Alpha virt. eigenvalues --    0.09443   0.10151   0.10971   0.11130   0.12172
 Alpha virt. eigenvalues --    0.12700   0.13285   0.14479   0.14731   0.15366

 Mulliken charges:
               1
     1  C    4.562889
     2  C    0.010861
     3  C    4.065572
     4  C    1.594052
     5  H    1.567453
     6  N   -3.123027
     7  N   -3.056653
     8  N   -2.534735
     9  O   -3.086412
 Sum of Mulliken charges =   0.00000

 Dipole moment (field-independent basis, Debye):
    X=             -3.2469    Y=              1.5276    Z=              0.0386  Tot=              3.5885

 Test job not archived.
 1\1\GINC-SE334\SP\RHF\Aug-CC-pVDZ\C4H1N3O1\OHZDE\08-Apr-2025\0\\#t hf
 aug-cc-pvdz iop(5/13=1,5/36=2,99/5=2) pseudo=read geom=check guess=(re
 ad,tcheck) scf=(maxcycle=1)\\title\\0,1\C,0,-1.49462,-0.291343,0.00334
 711\C,0,-1.12019,1.20887,0.0152428\C,0,0.636745,-0.0311507,0.0109505\C
 ,0,2.0638,-0.211362,0.00673491\H,0,-1.82767,2.01748,0.00765641\N,0,0.1
 55517,1.33761,-0.0103293\N,0,-0.215542,-0.978339,0.0384567\N,0,3.21014
 ,-0.32607,-0.0247493\O,0,-2.59219,-0.787493,-0.0311194\\Version=ES64L-
 G16RevC.01\State=1-A\HF=-391.919709\RMSD=5.963e-01\Dipole=-1.2774158,0

 Normal termination of Gaussian 16 at Tue Apr  8 22:01:08 2025.
