 Gaussian 16, Revision C.01,

 ----------------------------------------------------------------------
 #t hf aug-cc-pvdz symm=none int=(grid=ultrafine) guess=(read,tcheck) s
 table=(opt,rrhf)
 ----------------------------------------------------------------------
 -----
 title
 -----
 Symbolic Z-matrix:
 Charge =  0 Multiplicity = 1

 SCF Done:  E(RHF) =  -482.293569539     A.U. after   18 cycles
 Normal termination of Gaussian 16 at Tue Apr  8 21:51:06 2025.
 Gaussian 16:  ES64L-G16RevC.01  3-Jul-2019

 ----------------------------------------------------------------------
 #t hf aug-cc-pvdz iop(5/13=1,5/36=2,99/5=2) pseudo=read geom=check gue
 ss=(read,tcheck) scf=(maxcycle=1)
 ----------------------------------------------------------------------
 -----
 title
 -----
 Structure from the checkpoint file:  "ANI1ccx_660_conf1_mol2.chk"
 Charge =  0 Multiplicity = 1

                         Standard orientation:
 ---------------------------------------------------------------------
 Center     Atomic      Atomic             Coordinates (Angstroms)
 Number     Number       Type             X           Y           Z
 ---------------------------------------------------------------------
      1          6           0       -1.428180   -0.429757    0.008699
      2          6           0        0.659563   -0.293566    0.114624
      3          6           0        0.216866    1.105291    0.019919
      4          1           0       -3.262081   -0.146601   -0.193991
      5          1           0       -1.853684    1.672318    0.068721
      6          7           0       -0.410331   -1.214430    0.102179
      7          7           0        1.911200   -0.688032   -0.009653
      8          7           0        2.992171   -1.011484   -0.091930
      9          7           0       -1.180042    0.907748   -0.020630
     10          8           0       -2.663080   -0.887199   -0.062952
     11          8           0        0.817490    2.165432   -0.011292
 ---------------------------------------------------------------------

 SCF Done:  E(RHF) =  -484.347236111     A.U. after    2 cycles

 The electronic state is 1-A.
 Alpha  occ. eigenvalues --  -21.15957 -21.05318 -15.95121 -15.88880 -15.81784
 Alpha  occ. eigenvalues --  -15.74307 -11.54441 -11.52391 -11.46642  -1.84257
 Alpha  occ. eigenvalues --   -1.72759  -1.63426  -1.52590  -1.32523  -1.16317
 Alpha  occ. eigenvalues --   -0.96214  -0.87655  -0.78313  -0.71382  -0.69477
 Alpha  occ. eigenvalues --   -0.66867  -0.63628  -0.62471  -0.57250  -0.55705
 Alpha  occ. eigenvalues --   -0.51462  -0.49139  -0.44959  -0.42525  -0.38403
 Alpha  occ. eigenvalues --   -0.30539  -0.25063
 Alpha virt. eigenvalues --    0.02258   0.05187   0.08108   0.09309   0.09798
 Alpha virt. eigenvalues --    0.10219   0.10303   0.10821   0.11280   0.12198
 Alpha virt. eigenvalues --    0.12903   0.13391   0.13742   0.14585   0.15248

 Mulliken charges:
               1
     1  C    5.897859
     2  C    2.110697
     3  C    4.275186
     4  H    0.584358
     5  H    0.713309
     6  N   -3.196293
     7  N    0.611931
     8  N   -1.937562
     9  N   -2.372783
    10  O   -3.100816
    11  O   -3.585886
 Sum of Mulliken charges =  -0.00000

 Dipole moment (field-independent basis, Debye):
    X=             -3.3608    Y=              1.1034    Z=             -0.1959  Tot=              3.5427

 Test job not archived.
 1\1\GINC-SE334\SP\RHF\Aug-CC-pVDZ\C3H2N4O2\OHZDE\08-Apr-2025\0\\#t hf
 aug-cc-pvdz iop(5/13=1,5/36=2,99/5=2) pseudo=read geom=check guess=(re
 ad,tcheck) scf=(maxcycle=1)\\title\\0,1\C,0,-1.42818,-0.429755,0.00869
 914\C,0,0.659564,-0.293568,0.114624\C,0,0.216869,1.10529,0.0199193\H,0
 ,-3.26208,-0.146596,-0.193991\H,0,-1.85368,1.67232,0.0687209\N,0,-0.41
 0332,-1.21443,0.102179\N,0,1.9112,-0.688036,-0.00965307\N,0,2.99217,-1
 .01149,-0.0919304\N,0,-1.18004,0.907749,-0.0206296\O,0,-2.66308,-0.887
 195,-0.0629516\O,0,0.817495,2.16543,-0.0112919\\Version=ES64L-G16RevC.

 Normal termination of Gaussian 16 at Tue Apr  8 21:51:11 2025.
