 Gaussian 16, Revision C.01,

 ----------------------------------------------------------------------
 #t hf aug-cc-pvdz symm=none int=(grid=ultrafine) guess=(read,tcheck) s
 table=(opt,rrhf)
 ----------------------------------------------------------------------
 -----
 title
 -----
 Symbolic Z-matrix:
 Charge =  0 Multiplicity = 1

 SCF Done:  E(RHF) =  -648.975553562     A.U. after   14 cycles
 Normal termination of Gaussian 16 at Tue Apr  8 22:15:50 2025.
 Gaussian 16:  ES64L-G16RevC.01  3-Jul-2019

 ----------------------------------------------------------------------
 #t hf aug-cc-pvdz iop(5/13=1,5/36=2,99/5=2) pseudo=read geom=check gue
 ss=(read,tcheck) scf=(maxcycle=1)
 ----------------------------------------------------------------------
 -----
 title
 -----
 Structure from the checkpoint file:  "ANI1ccx_84_conf1_mol1.chk"
 Charge =  0 Multiplicity = 1

                         Standard orientation:
 ---------------------------------------------------------------------
 Center     Atomic      Atomic             Coordinates (Angstroms)
 Number     Number       Type             X           Y           Z
 ---------------------------------------------------------------------
      1          6           0       -3.545322   -2.225398   -0.273779
      2          6           0        2.216929   -0.473309   -0.904237
      3          6           0        1.198280    0.657971   -0.605239
      4          6           0        1.558240    1.523939    0.531744
      5          6           0        0.520671    2.578349    0.898445
      6          6           0        2.419838   -1.564552    0.139586
      7          6           0       -1.081800    1.531670   -1.036490
      8          6           0       -0.759086   -0.371023    0.529886
      9          6           0       -3.178301   -0.756079   -0.260797
     10          6           0       -0.556698    2.811510   -0.257018
     11          1           0        0.961121    3.492169    1.203540
     12          1           0        3.899998   -2.751962    0.469716
     13          1           0        2.560559   -1.022052    1.155310
     14          1           0        1.647028   -2.280381    0.258142
     15          1           0        3.171969   -0.051618   -1.049170
     16          1           0        1.823239   -0.876421   -1.819940
     17          1           0        1.224730    1.105579   -1.665450
     18          1           0        1.665260    0.928865    1.468440
     19          1           0        2.510250    1.945318    0.292488
     20          1           0       -0.043560    2.215910    1.762500
     21          1           0       -2.144750    1.392331   -0.886192
     22          1           0       -1.331449    3.311751    0.265695
     23          1           0       -0.922128    1.733230   -2.106760
     24          1           0       -2.255271   -1.000109    1.574570
     25          1           0       -2.828111   -0.425480   -1.248250
     26          1           0       -3.981831   -0.141436   -0.010259
     27          1           0       -3.969022   -2.604338    0.758412
     28          1           0       -4.303062   -2.537638   -0.961635
     29          1           0       -2.629972   -2.739899   -0.480313
     30          1           0       -0.147411    3.528820   -1.034850
     31          7           0       -2.105861   -0.514015    0.724633
     32          7           0       -0.352914    0.287258   -0.588940
     33          8           0        0.092908   -0.782294    1.344540
     34          8           0        3.600508   -2.206932   -0.278092
 ---------------------------------------------------------------------

 SCF Done:  E(RHF) =  -652.100476328     A.U. after    2 cycles

 The electronic state is 1-A.
 Alpha  occ. eigenvalues --  -21.04313 -20.99404 -15.74845 -15.72689 -11.49769
 Alpha  occ. eigenvalues --  -11.48361 -11.46007 -11.44772 -11.43094 -11.42213
 Alpha  occ. eigenvalues --  -11.38602 -11.38173 -11.36972 -11.34800  -1.70376
 Alpha  occ. eigenvalues --   -1.68830  -1.43565  -1.37460  -1.21004  -1.15497
 Alpha  occ. eigenvalues --   -1.11999  -1.05988  -0.96808  -0.91820  -0.90563
 Alpha  occ. eigenvalues --   -0.83833  -0.83120  -0.73183  -0.67422  -0.66985
 Alpha  occ. eigenvalues --   -0.65819  -0.63826  -0.63105  -0.61115  -0.60489
 Alpha  occ. eigenvalues --   -0.59147  -0.57984  -0.54853  -0.54210  -0.52762
 Alpha  occ. eigenvalues --   -0.51607  -0.51106  -0.49093  -0.48261  -0.48179
 Alpha  occ. eigenvalues --   -0.45291  -0.44438  -0.42759  -0.41704  -0.39800
 Alpha  occ. eigenvalues --   -0.37448  -0.32511  -0.30063  -0.29082  -0.26904
 Alpha virt. eigenvalues --    0.03614   0.04501   0.04593   0.04850   0.04907
 Alpha virt. eigenvalues --    0.05313   0.05997   0.06148   0.06317   0.06791
 Alpha virt. eigenvalues --    0.07190   0.07348   0.07631   0.07889   0.08703

 Mulliken charges:
               1
     1  C   -3.545206
     2  C   -4.308752
     3  C    2.646780
     4  C   -2.883667
     5  C   -3.602795
     6  C   -1.519951
     7  C   -3.893673
     8  C    7.319044
     9  C   -3.694457
    10  C   -2.535593
    11  H    1.242896
    12  H    0.764240
    13  H    1.507016
    14  H    1.559209
    15  H    1.342866
    16  H    1.375644
    17  H    1.713867
    18  H    1.776521
    19  H    1.390041
    20  H    1.469864
    21  H    2.115863
    22  H    1.284795
    23  H    1.347450
    24  H    0.728398
    25  H    2.006161
    26  H    1.671514
    27  H    1.209020
    28  H    1.165020
    29  H    1.406037
    30  H    1.298191
    31  N   -3.155282
    32  N   -2.424089
    33  O   -3.646467
    34  O   -3.130504
 Sum of Mulliken charges =  -0.00000

 Dipole moment (field-independent basis, Debye):
    X=             -2.4818    Y=              0.9916    Z=             -0.6138  Tot=              2.7421

 Test job not archived.
 1\1\GINC-SE058\SP\RHF\Aug-CC-pVDZ\C10H20N2O2\OHZDE\08-Apr-2025\0\\#t h
 f aug-cc-pvdz iop(5/13=1,5/36=2,99/5=2) pseudo=read geom=check guess=(
 read,tcheck) scf=(maxcycle=1)\\title\\0,1\C,0,-3.54532,-2.2254,-0.2737
 79\C,0,2.21693,-0.473308,-0.904237\C,0,1.19828,0.657972,-0.605239\C,0,
 1.55824,1.52394,0.531744\C,0,0.52067,2.57835,0.898445\C,0,2.41984,-1.5
 6455,0.139586\C,0,-1.0818,1.53167,-1.03649\C,0,-0.759085,-0.371023,0.5
 29886\C,0,-3.1783,-0.756081,-0.260797\C,0,-0.556699,2.81151,-0.257018\
 H,0,0.96112,3.49217,1.20354\H,0,3.9,-2.75196,0.469716\H,0,2.56056,-1.0

 Normal termination of Gaussian 16 at Tue Apr  8 22:16:34 2025.
