 Gaussian 16, Revision C.01,

 ----------------------------------------------------------------------
 #t hf aug-cc-pvdz symm=none int=(grid=ultrafine) guess=(read,tcheck) s
 table=(opt,rrhf)
 ----------------------------------------------------------------------
 -----
 title
 -----
 Symbolic Z-matrix:
 Charge =  0 Multiplicity = 1

 SCF Done:  E(RHF) =  -490.255903585     A.U. after   15 cycles
 Normal termination of Gaussian 16 at Tue Apr  8 21:53:06 2025.
 Gaussian 16:  ES64L-G16RevC.01  3-Jul-2019

 ----------------------------------------------------------------------
 #t hf aug-cc-pvdz iop(5/13=1,5/36=2,99/5=2) pseudo=read geom=check gue
 ss=(read,tcheck) scf=(maxcycle=1)
 ----------------------------------------------------------------------
 -----
 title
 -----
 Structure from the checkpoint file:  "ANI1ccx_703_conf47_mol1.chk"
 Charge =  0 Multiplicity = 1

                         Standard orientation:
 ---------------------------------------------------------------------
 Center     Atomic      Atomic             Coordinates (Angstroms)
 Number     Number       Type             X           Y           Z
 ---------------------------------------------------------------------
      1          6           0        0.038455   -0.082471    0.768826
      2          6           0        1.368129    0.334845    0.025362
      3          6           0       -1.152000    0.085150   -0.107310
      4          1           0       -0.703688   -1.697280    0.047943
      5          1           0       -0.245287    0.449893    1.737120
      6          1           0        2.333630   -0.394220   -1.385270
      7          1           0       -2.865412    1.251357   -0.426407
      8          8           0       -0.025641   -1.515879    0.842088
      9          8           0        1.766841   -0.773032   -0.680886
     10          8           0        1.844428    1.517953    0.078341
     11          8           0       -1.932162    1.365489   -0.004656
     12          8           0       -1.659309   -0.798893   -0.746719
 ---------------------------------------------------------------------

 SCF Done:  E(RHF) =  -492.309535280     A.U. after    2 cycles

 The electronic state is 1-A.
 Alpha  occ. eigenvalues --  -21.16060 -21.12575 -21.11850 -21.09242 -21.06387
 Alpha  occ. eigenvalues --  -11.59731 -11.57455 -11.49624  -1.86833  -1.81799
 Alpha  occ. eigenvalues --   -1.70177  -1.66691  -1.65865  -1.11746  -0.90331
 Alpha  occ. eigenvalues --   -0.78085  -0.73312  -0.67127  -0.64591  -0.63118
 Alpha  occ. eigenvalues --   -0.58268  -0.54600  -0.52769  -0.49283  -0.47238
 Alpha  occ. eigenvalues --   -0.42221  -0.38912  -0.36421  -0.34813  -0.33175
 Alpha  occ. eigenvalues --   -0.29834
 Alpha virt. eigenvalues --    0.03251   0.04765   0.06191   0.07168   0.09414
 Alpha virt. eigenvalues --    0.09728   0.10339   0.11264   0.11552   0.12304
 Alpha virt. eigenvalues --    0.13000   0.13327   0.15046   0.16163   0.16558

 Mulliken charges:
               1
     1  C   -0.348047
     2  C    5.505648
     3  C    4.218818
     4  H    0.859487
     5  H    1.554449
     6  H    0.827594
     7  H    0.762960
     8  O   -2.598503
     9  O   -2.691036
    10  O   -2.789539
    11  O   -2.496354
    12  O   -2.805479
 Sum of Mulliken charges =   0.00000

 Dipole moment (field-independent basis, Debye):
    X=             -0.8391    Y=             -0.3304    Z=             -0.9006  Tot=              1.2745

 Test job not archived.
 1\1\GINC-SE074\SP\RHF\Aug-CC-pVDZ\C3H4O5\OHZDE\08-Apr-2025\0\\#t hf au
 g-cc-pvdz iop(5/13=1,5/36=2,99/5=2) pseudo=read geom=check guess=(read
 ,tcheck) scf=(maxcycle=1)\\title\\0,1\C,0,0.0384551,-0.0824716,0.76882
 6\C,0,1.36813,0.334842,0.025362\C,0,-1.152,0.0851504,-0.10731\H,0,-0.7
 0369,-1.69728,0.0479429\H,0,-0.245286,0.449892,1.73712\H,0,2.33363,-0.
 394224,-1.38527\H,0,-2.86541,1.25136,-0.426407\O,0,-0.0256433,-1.51588
 ,0.842088\O,0,1.76684,-0.773035,-0.680886\O,0,1.84443,1.51795,0.078341
 2\O,0,-1.93216,1.36549,-0.00465641\O,0,-1.65931,-0.798892,-0.746719\\V

 Normal termination of Gaussian 16 at Tue Apr  8 21:53:11 2025.
