 Gaussian 16, Revision C.01,

 ----------------------------------------------------------------------
 #t hf aug-cc-pvdz symm=none int=(grid=ultrafine) guess=(read,tcheck) s
 table=(opt,rrhf)
 ----------------------------------------------------------------------
 -----
 title
 -----
 Symbolic Z-matrix:
 Charge =  0 Multiplicity = 1

 SCF Done:  E(RHF) =  -503.615650708     A.U. after   15 cycles
 Normal termination of Gaussian 16 at Tue Apr  8 19:36:58 2025.
 Gaussian 16:  ES64L-G16RevC.01  3-Jul-2019

 ----------------------------------------------------------------------
 #t hf aug-cc-pvdz iop(5/13=1,5/36=2,99/5=2) pseudo=read geom=check gue
 ss=(read,tcheck) scf=(maxcycle=1)
 ----------------------------------------------------------------------
 -----
 title
 -----
 Structure from the checkpoint file:  "ANI1ccx_1339_conf1_mol2.chk"
 Charge =  0 Multiplicity = 1

                         Standard orientation:
 ---------------------------------------------------------------------
 Center     Atomic      Atomic             Coordinates (Angstroms)
 Number     Number       Type             X           Y           Z
 ---------------------------------------------------------------------
      1          6           0        3.334450   -0.635084    0.022487
      2          6           0        0.958590   -0.094389   -0.006652
      3          6           0        0.242869    2.100660    0.017678
      4          6           0       -1.322031    0.552583   -0.019168
      5          6           0       -2.282370   -1.426212    0.010682
      6          6           0       -0.400207   -0.471095    0.001493
      7          1           0       -3.078820   -2.154882   -0.001358
      8          1           0       -3.430561    0.391870   -0.012948
      9          1           0        0.555943    3.148250    0.044746
     10          1           0        3.534649    0.132470   -0.752093
     11          1           0        3.949110   -1.511229   -0.199366
     12          1           0        3.598779   -0.228977    1.013850
     13          1           0        1.693960   -1.985390   -0.042352
     14          7           0       -2.547621   -0.080419    0.002798
     15          7           0        1.949430   -1.006240   -0.036396
     16          7           0        1.252559    1.217740   -0.004325
     17          7           0       -1.068002    1.870389   -0.010947
     18          7           0       -1.016490   -1.708741    0.018926
 ---------------------------------------------------------------------

 SCF Done:  E(RHF) =  -505.918229151     A.U. after    2 cycles

 The electronic state is 1-A.
 Alpha  occ. eigenvalues --  -15.80443 -15.76095 -15.73595 -15.72601 -15.71537
 Alpha  occ. eigenvalues --  -11.52429 -11.48827 -11.44909 -11.43847 -11.39743
 Alpha  occ. eigenvalues --  -11.39048  -1.61002  -1.48322  -1.40584  -1.30133
 Alpha  occ. eigenvalues --   -1.25062  -1.12184  -1.00981  -0.91373  -0.87888
 Alpha  occ. eigenvalues --   -0.85671  -0.76841  -0.69360  -0.65184  -0.65045
 Alpha  occ. eigenvalues --   -0.62594  -0.60991  -0.59948  -0.55265  -0.54811
 Alpha  occ. eigenvalues --   -0.52915  -0.52521  -0.46664  -0.45183  -0.38794
 Alpha  occ. eigenvalues --   -0.37512  -0.34418  -0.33700  -0.27337
 Alpha virt. eigenvalues --    0.03292   0.04564   0.05439   0.05884   0.06265
 Alpha virt. eigenvalues --    0.06954   0.07762   0.09552   0.09995   0.10257
 Alpha virt. eigenvalues --    0.11207   0.11594   0.12672   0.13347   0.13640

 Mulliken charges:
               1
     1  C   -3.873753
     2  C    5.694976
     3  C    0.429177
     4  C    3.518115
     5  C    0.985682
     6  C    2.510102
     7  H    1.734352
     8  H    0.913118
     9  H    1.705391
    10  H    1.377076
    11  H    1.446888
    12  H    1.364678
    13  H    0.632731
    14  N   -3.490530
    15  N   -3.661091
    16  N   -3.727535
    17  N   -3.713779
    18  N   -3.845597
 Sum of Mulliken charges =   0.00000

 Dipole moment (field-independent basis, Debye):
    X=             -1.1575    Y=             -1.8266    Z=             -0.0178  Tot=              2.1626

 Test job not archived.
 1\1\GINC-SE048\SP\RHF\Aug-CC-pVDZ\C6H7N5\OHZDE\08-Apr-2025\0\\#t hf au
 g-cc-pvdz iop(5/13=1,5/36=2,99/5=2) pseudo=read geom=check guess=(read
 ,tcheck) scf=(maxcycle=1)\\title\\0,1\C,0,3.33445,-0.635085,0.0224867\
 C,0,0.958591,-0.0943894,-0.00665216\C,0,0.242871,2.10066,0.0176783\C,0
 ,-1.32203,0.552584,-0.0191677\C,0,-2.28237,-1.42621,0.0106824\C,0,-0.4
 00206,-0.471094,0.00149264\H,0,-3.07882,-2.15488,-0.00135766\H,0,-3.43
 056,0.391872,-0.0129485\H,0,0.555945,3.14825,0.0447459\H,0,3.53465,0.1
 32469,-0.752093\H,0,3.94911,-1.51123,-0.199366\H,0,3.59878,-0.228978,1

 Normal termination of Gaussian 16 at Tue Apr  8 19:37:08 2025.
