 Gaussian 16, Revision C.01,

 ----------------------------------------------------------------------
 #t hf aug-cc-pvdz symm=none int=(grid=ultrafine) guess=(read,tcheck) s
 table=(opt,rrhf)
 ----------------------------------------------------------------------
 -----
 title
 -----
 Symbolic Z-matrix:
 Charge =  0 Multiplicity = 1

 SCF Done:  E(RHF) =  -260.253088005     A.U. after   13 cycles
 Normal termination of Gaussian 16 at Tue Apr  8 21:40:50 2025.
 Gaussian 16:  ES64L-G16RevC.01  3-Jul-2019

 ----------------------------------------------------------------------
 #t hf aug-cc-pvdz iop(5/13=1,5/36=2,99/5=2) pseudo=read geom=check gue
 ss=(read,tcheck) scf=(maxcycle=1)
 ----------------------------------------------------------------------
 -----
 title
 -----
 Structure from the checkpoint file:  "ANI1ccx_449_conf3_mol2.chk"
 Charge =  0 Multiplicity = 1

                         Standard orientation:
 ---------------------------------------------------------------------
 Center     Atomic      Atomic             Coordinates (Angstroms)
 Number     Number       Type             X           Y           Z
 ---------------------------------------------------------------------
      1          6           0        0.967077   -0.187864   -0.312788
      2          1           0       -3.955840    0.749520    0.033058
      3          1           0       -2.478760    1.345550   -0.259541
      4          1           0       -1.632080   -0.276709    0.849377
      5          1           0       -2.494940   -1.343150   -0.067111
      6          1           0        2.722350    1.322730    0.408024
      7          1           0        3.959920    0.298271   -0.019920
      8          1           0        0.292079   -0.816321   -0.875483
      9          1           0        0.521021    0.702183    0.197024
     10          7           0       -3.056850    0.513655   -0.363950
     11          7           0       -2.571240   -0.520275    0.525720
     12          7           0        3.043070    0.349873    0.381319
     13          7           0        2.194130   -0.465381   -0.312903
 ---------------------------------------------------------------------

 SCF Done:  E(RHF) =  -261.482223936     A.U. after    2 cycles

 The electronic state is 1-A.
 Alpha  occ. eigenvalues --  -15.77726 -15.77146 -15.75354 -15.74837 -11.40827
 Alpha  occ. eigenvalues --   -1.50483  -1.42775  -1.16075  -1.07367  -0.85425
 Alpha  occ. eigenvalues --   -0.71083  -0.69289  -0.65341  -0.61577  -0.57169
 Alpha  occ. eigenvalues --   -0.56301  -0.53487  -0.44616  -0.40025  -0.33216
 Alpha  occ. eigenvalues --   -0.32539
 Alpha virt. eigenvalues --    0.03615   0.04681   0.05473   0.05822   0.06434
 Alpha virt. eigenvalues --    0.07005   0.08631   0.10258   0.11867   0.13659
 Alpha virt. eigenvalues --    0.15416   0.15679   0.16055   0.17179   0.17988

 Mulliken charges:
               1
     1  C   -1.298231
     2  H    0.725971
     3  H    0.605443
     4  H    0.736410
     5  H    0.745546
     6  H    0.550242
     7  H    0.739311
     8  H    1.436344
     9  H    1.547433
    10  N   -1.299380
    11  N   -1.542548
    12  N   -1.488914
    13  N   -1.457627
 Sum of Mulliken charges =  -0.00000

 Dipole moment (field-independent basis, Debye):
    X=              0.9741    Y=              2.1568    Z=              0.0013  Tot=              2.3666

 Test job not archived.
 1\1\GINC-SE331\SP\RHF\Aug-CC-pVDZ\C1H8N4\OHZDE\08-Apr-2025\0\\#t hf au
 g-cc-pvdz iop(5/13=1,5/36=2,99/5=2) pseudo=read geom=check guess=(read
 ,tcheck) scf=(maxcycle=1)\\title\\0,1\C,0,0.967077,-0.187864,-0.312788
 \H,0,-3.95584,0.74952,0.0330578\H,0,-2.47876,1.34555,-0.259541\H,0,-1.
 63208,-0.276709,0.849377\H,0,-2.49494,-1.34315,-0.0671108\H,0,2.72235,
 1.32273,0.408024\H,0,3.95992,0.298271,-0.0199196\H,0,0.292079,-0.81632
 1,-0.875483\H,0,0.521021,0.702183,0.197024\N,0,-3.05685,0.513655,-0.36
 395\N,0,-2.57124,-0.520275,0.52572\N,0,3.04307,0.349873,0.381319\N,0,2

 Normal termination of Gaussian 16 at Tue Apr  8 21:40:53 2025.
