 Gaussian 16, Revision C.01,

 ----------------------------------------------------------------------
 #t hf aug-cc-pvdz symm=none int=(grid=ultrafine) guess=(read,tcheck) s
 table=(opt,rrhf)
 ----------------------------------------------------------------------
 -----
 title
 -----
 Symbolic Z-matrix:
 Charge =  0 Multiplicity = 1

 SCF Done:  E(RHF) =  -871.358401745     A.U. after   14 cycles
 Normal termination of Gaussian 16 at Tue Apr  8 22:05:05 2025.
 Gaussian 16:  ES64L-G16RevC.01  3-Jul-2019

 ----------------------------------------------------------------------
 #t hf aug-cc-pvdz iop(5/13=1,5/36=2,99/5=2) pseudo=read geom=check gue
 ss=(read,tcheck) scf=(maxcycle=1)
 ----------------------------------------------------------------------
 -----
 title
 -----
 Structure from the checkpoint file:  "ANI1ccx_53_conf2_mol2.chk"
 Charge =  0 Multiplicity = 1

                         Standard orientation:
 ---------------------------------------------------------------------
 Center     Atomic      Atomic             Coordinates (Angstroms)
 Number     Number       Type             X           Y           Z
 ---------------------------------------------------------------------
      1          6           0       -2.572231   -0.792017    0.058667
      2          6           0        1.817168    2.007110   -0.090253
      3          6           0        2.011139   -0.161536   -1.408900
      4          6           0        1.689989   -1.458230    0.666935
      5          6           0        1.131099   -1.209190   -0.713925
      6          6           0        2.691439    0.984608   -0.689656
      7          6           0       -2.979272    1.548889   -0.458403
      8          6           0       -3.169521    0.134618   -1.027890
      9          6           0       -1.222381   -1.467681   -0.304503
     10          6           0       -3.140742    1.254609    1.028550
     11          1           0        1.116919   -2.112900   -1.278510
     12          1           0        2.865799   -2.554250    1.572420
     13          1           0        1.680678    3.530860    0.720067
     14          1           0        3.403188    1.481750   -1.363050
     15          1           0        3.370799    0.637355    0.110256
     16          1           0        2.874769   -0.728380   -1.830500
     17          1           0        1.495929    0.244232   -2.277220
     18          1           0       -0.409428    0.268893   -0.877849
     19          1           0       -4.225902    1.185449    1.270440
     20          1           0       -3.750962    2.201879   -0.826190
     21          1           0       -2.009252    1.973699   -0.763354
     22          1           0       -2.613861   -0.038640   -1.941100
     23          1           0       -4.218371   -0.158613   -1.189190
     24          1           0       -3.191651   -1.652221    0.253791
     25          1           0       -1.459381    0.292924    1.299660
     26          1           0       -2.870662    2.090119    1.704860
     27          7           0       -2.438291    0.033814    1.280890
     28          7           0       -0.202967   -0.655139   -0.558493
     29          8           0        2.486148    3.051930    0.409368
     30          8           0       -1.121291   -2.686331   -0.396281
     31          8           0        1.546909   -0.773341    1.646300
     32          8           0        0.614315    1.960749   -0.053840
     33          8           0        2.585179   -2.473000    0.643822
 ---------------------------------------------------------------------

 SCF Done:  E(RHF) =  -875.242303225     A.U. after    2 cycles

 The electronic state is 1-A.
 Alpha  occ. eigenvalues --  -21.14067 -21.12971 -21.06980 -21.06358 -21.01660
 Alpha  occ. eigenvalues --  -15.75497 -15.70827 -11.56982 -11.55639 -11.52405
 Alpha  occ. eigenvalues --  -11.50437 -11.46608 -11.46291 -11.42236 -11.42018
 Alpha  occ. eigenvalues --  -11.39262 -11.35880  -1.86511  -1.84201  -1.70214
 Alpha  occ. eigenvalues --   -1.67554  -1.66205  -1.44947  -1.40967  -1.24157
 Alpha  occ. eigenvalues --   -1.13781  -1.11687  -1.06698  -0.96481  -0.88285
 Alpha  occ. eigenvalues --   -0.85087  -0.82549  -0.79431  -0.77245  -0.71639
 Alpha  occ. eigenvalues --   -0.70860  -0.68500  -0.66988  -0.65529  -0.64622
 Alpha  occ. eigenvalues --   -0.63076  -0.60710  -0.59544  -0.58658  -0.57948
 Alpha  occ. eigenvalues --   -0.55297  -0.53979  -0.52653  -0.52190  -0.50504
 Alpha  occ. eigenvalues --   -0.48399  -0.47921  -0.47236  -0.45962  -0.45496
 Alpha  occ. eigenvalues --   -0.45202  -0.44796  -0.42538  -0.36293  -0.34683
 Alpha  occ. eigenvalues --   -0.33048  -0.32809  -0.30950  -0.30365  -0.27221
 Alpha virt. eigenvalues --    0.03385   0.04039   0.04378   0.04599   0.04877
 Alpha virt. eigenvalues --    0.05612   0.05663   0.06280   0.06384   0.06523
 Alpha virt. eigenvalues --    0.07064   0.07887   0.08372   0.08763   0.09949

 Mulliken charges:
               1
     1  C   -2.327084
     2  C    6.177679
     3  C   -3.127837
     4  C    8.058647
     5  C   -1.793310
     6  C   -3.313391
     7  C   -3.283728
     8  C   -3.414084
     9  C    6.602569
    10  C   -2.735771
    11  H    2.002695
    12  H    0.735548
    13  H    0.784000
    14  H    1.314563
    15  H    1.490542
    16  H    1.190609
    17  H    1.394714
    18  H    1.225969
    19  H    1.533344
    20  H    1.262343
    21  H    1.884217
    22  H    1.660571
    23  H    1.248115
    24  H    1.512050
    25  H    0.794207
    26  H    1.490113
    27  N   -2.565499
    28  N   -2.437957
    29  O   -3.360459
    30  O   -4.053403
    31  O   -3.440796
    32  O   -3.084267
    33  O   -3.424906
 Sum of Mulliken charges =  -0.00000

 Dipole moment (field-independent basis, Debye):
    X=              2.6003    Y=              2.9271    Z=             -1.6787  Tot=              4.2600

 Test job not archived.
 1\1\GINC-SE252\SP\RHF\Aug-CC-pVDZ\C10H16N2O5\OHZDE\08-Apr-2025\0\\#t h
 f aug-cc-pvdz iop(5/13=1,5/36=2,99/5=2) pseudo=read geom=check guess=(
 read,tcheck) scf=(maxcycle=1)\\title\\0,1\C,0,-2.57223,-0.792016,0.058
 6669\C,0,1.81717,2.00711,-0.0902533\C,0,2.01114,-0.161536,-1.4089\C,0,
 1.68999,-1.45823,0.666935\C,0,1.1311,-1.20919,-0.713925\C,0,2.69144,0.
 984608,-0.689656\C,0,-2.97927,1.54889,-0.458403\C,0,-3.16952,0.134619,
 -1.02789\C,0,-1.22238,-1.46768,-0.304503\C,0,-3.14074,1.25461,1.02855\
 H,0,1.11692,-2.1129,-1.27851\H,0,2.8658,-2.55425,1.57242\H,0,1.68068,3

 Normal termination of Gaussian 16 at Tue Apr  8 22:05:55 2025.
