 Gaussian 16, Revision C.01,

 ----------------------------------------------------------------------
 #t hf aug-cc-pvdz symm=none int=(grid=ultrafine) guess=(read,tcheck) s
 table=(opt,rrhf)
 ----------------------------------------------------------------------
 -----
 title
 -----
 Symbolic Z-matrix:
 Charge =  0 Multiplicity = 1

 SCF Done:  E(RHF) =  -428.587218035     A.U. after   13 cycles
 Normal termination of Gaussian 16 at Tue Apr  8 21:39:55 2025.
 Gaussian 16:  ES64L-G16RevC.01  3-Jul-2019

 ----------------------------------------------------------------------
 #t hf aug-cc-pvdz iop(5/13=1,5/36=2,99/5=2) pseudo=read geom=check gue
 ss=(read,tcheck) scf=(maxcycle=1)
 ----------------------------------------------------------------------
 -----
 title
 -----
 Structure from the checkpoint file:  "ANI1ccx_419_conf1_mol2.chk"
 Charge =  0 Multiplicity = 1

                         Standard orientation:
 ---------------------------------------------------------------------
 Center     Atomic      Atomic             Coordinates (Angstroms)
 Number     Number       Type             X           Y           Z
 ---------------------------------------------------------------------
      1          6           0       -0.135732   -0.300053    0.054265
      2          1           0        1.936759    1.312892   -0.044596
      3          1           0       -0.707242    1.581579   -0.298694
      4          1           0       -1.619408   -1.608242    0.277906
      5          1           0       -2.975010    0.484535    0.324316
      6          1           0        2.537782   -1.581837   -0.155498
      7          7           0        0.117420    1.001680   -0.376231
      8          7           0       -1.449889   -0.618456    0.442015
      9          7           0        0.723428   -1.245919    0.116470
     10          8           0        1.127878    1.641641    0.376749
     11          8           0       -2.388200    0.098693   -0.340953
     12          8           0        1.998421   -0.784052   -0.248896
 ---------------------------------------------------------------------

 SCF Done:  E(RHF) =  -430.400778557     A.U. after    2 cycles

 The electronic state is 1-A.
 Alpha  occ. eigenvalues --  -21.12388 -21.09699 -21.09563 -15.80429 -15.78819
 Alpha  occ. eigenvalues --  -15.75925 -11.47119  -1.83079  -1.79157  -1.76309
 Alpha  occ. eigenvalues --   -1.38346  -1.19745  -1.14172  -0.81709  -0.74049
 Alpha  occ. eigenvalues --   -0.67483  -0.65689  -0.61439  -0.57816  -0.55761
 Alpha  occ. eigenvalues --   -0.53813  -0.52857  -0.41989  -0.40222  -0.38298
 Alpha  occ. eigenvalues --   -0.35967  -0.30728  -0.26125
 Alpha virt. eigenvalues --    0.03872   0.05256   0.05870   0.06749   0.07426
 Alpha virt. eigenvalues --    0.11303   0.12750   0.13424   0.14647   0.15534
 Alpha virt. eigenvalues --    0.15810   0.17746   0.18426   0.18959   0.19330

 Mulliken charges:
               1
     1  C    4.706266
     2  H    0.845046
     3  H    0.850946
     4  H    0.699088
     5  H    0.768421
     6  H    0.928093
     7  N   -0.691398
     8  N   -0.585707
     9  N   -0.450890
    10  O   -2.201644
    11  O   -2.207352
    12  O   -2.660868
 Sum of Mulliken charges =  -0.00000

 Dipole moment (field-independent basis, Debye):
    X=             -1.0739    Y=              0.5980    Z=             -0.0129  Tot=              1.2292

 Test job not archived.
 1\1\GINC-SE127\SP\RHF\Aug-CC-pVDZ\C1H5N3O3\OHZDE\08-Apr-2025\0\\#t hf
 aug-cc-pvdz iop(5/13=1,5/36=2,99/5=2) pseudo=read geom=check guess=(re
 ad,tcheck) scf=(maxcycle=1)\\title\\0,1\C,0,-0.135732,-0.300053,0.0542
 652\H,0,1.93676,1.31289,-0.0445956\H,0,-0.707241,1.58158,-0.298694\H,0
 ,-1.61941,-1.60824,0.277906\H,0,-2.97501,0.484538,0.324316\H,0,2.53778
 ,-1.58184,-0.155498\N,0,0.117421,1.00168,-0.376231\N,0,-1.44989,-0.618
 455,0.442015\N,0,0.723427,-1.24592,0.11647\O,0,1.12788,1.64164,0.37674
 9\O,0,-2.3882,0.0986954,-0.340953\O,0,1.99842,-0.784054,-0.248896\\Ver

 Normal termination of Gaussian 16 at Tue Apr  8 21:39:59 2025.
