 Gaussian 16, Revision C.01,

 ----------------------------------------------------------------------
 #t hf aug-cc-pvdz symm=none int=(grid=ultrafine) guess=(read,tcheck) s
 table=(opt,rrhf)
 ----------------------------------------------------------------------
 -----
 title
 -----
 Symbolic Z-matrix:
 Charge =  0 Multiplicity = 1

 SCF Done:  E(RHF) =  -949.069975682     A.U. after   16 cycles
 Normal termination of Gaussian 16 at Tue Apr  8 21:50:49 2025.
 Gaussian 16:  ES64L-G16RevC.01  3-Jul-2019

 ----------------------------------------------------------------------
 #t hf aug-cc-pvdz iop(5/13=1,5/36=2,99/5=2) pseudo=read geom=check gue
 ss=(read,tcheck) scf=(maxcycle=1)
 ----------------------------------------------------------------------
 -----
 title
 -----
 Structure from the checkpoint file:  "ANI1ccx_350_conf1_mol2.chk"
 Charge =  0 Multiplicity = 1

                         Standard orientation:
 ---------------------------------------------------------------------
 Center     Atomic      Atomic             Coordinates (Angstroms)
 Number     Number       Type             X           Y           Z
 ---------------------------------------------------------------------
      1          6           0       -0.125351   -0.215348    0.793736
      2          6           0       -3.426610   -1.538520   -0.492815
      3          6           0       -4.121890   -0.898242   -1.671770
      4          6           0       -2.472760    1.739400    0.306472
      5          6           0       -2.476270    0.669044   -0.844909
      6          6           0        4.836620    0.397569   -0.383559
      7          6           0        4.658440   -0.983452   -0.198516
      8          6           0       -3.844230    0.609463   -1.577510
      9          6           0        3.371350   -1.541710   -0.308196
     10          6           0        2.452870    0.757554   -0.275666
     11          6           0        2.227080   -0.639422   -0.299539
     12          6           0        0.772579   -1.000930   -0.347328
     13          6           0       -1.407150   -0.944994    0.770185
     14          6           0        3.748360    1.230750   -0.386591
     15          1           0       -1.679560    0.968188   -1.476270
     16          1           0       -3.243950    1.810330    2.034420
     17          1           0       -4.047980   -1.527010    0.403896
     18          1           0       -2.978670   -2.514790   -0.503908
     19          1           0       -3.685860   -1.291720   -2.678610
     20          1           0       -5.216460   -1.095890   -1.699340
     21          1           0       -3.756810    1.090320   -2.589490
     22          1           0       -4.708060    1.103050   -1.157910
     23          1           0        6.589460    0.233393   -0.629300
     24          1           0        0.663959   -2.075550   -0.083653
     25          1           0        3.956770    2.338520   -0.475298
     26          1           0        3.234800   -2.602320   -0.330480
     27          1           0        1.635710    1.472680   -0.168305
     28          1           0        0.197669   -0.909351   -1.283890
     29          1           0       -0.232185    0.798959    0.490295
     30          1           0        1.425850   -0.402929    2.139830
     31          1           0        0.075882   -1.119150    2.601930
     32          1           0        5.448920   -1.713480   -0.259450
     33          7           0        0.443130   -0.295913    2.143230
     34          7           0       -2.276260   -0.628208   -0.223749
     35          8           0       -1.517130    2.480980    0.475890
     36          8           0       -1.725320   -1.857080    1.558230
     37          8           0        6.025550    1.029640   -0.455808
     38          8           0       -3.533820    1.603790    1.137340
 ---------------------------------------------------------------------

 SCF Done:  E(RHF) =  -953.408539935     A.U. after    2 cycles

 The electronic state is 1-A.
 Alpha  occ. eigenvalues --  -21.13707 -21.10706 -21.07015 -21.02267 -15.74667
 Alpha  occ. eigenvalues --  -15.71817 -11.55739 -11.54145 -11.52002 -11.51426
 Alpha  occ. eigenvalues --  -11.46971 -11.46780 -11.46109 -11.44666 -11.43232
 Alpha  occ. eigenvalues --  -11.42407 -11.41146 -11.41072 -11.38957 -11.37172
 Alpha  occ. eigenvalues --   -1.83218  -1.77004  -1.70643  -1.67288  -1.47503
 Alpha  occ. eigenvalues --   -1.35913  -1.30179  -1.20021  -1.13223  -1.12380
 Alpha  occ. eigenvalues --   -1.10104  -1.04362  -0.96364  -0.91513  -0.88398
 Alpha  occ. eigenvalues --   -0.86327  -0.84151  -0.82066  -0.76576  -0.73207
 Alpha  occ. eigenvalues --   -0.69678  -0.68623  -0.65808  -0.64059  -0.63879
 Alpha  occ. eigenvalues --   -0.62564  -0.61305  -0.61094  -0.59461  -0.58881
 Alpha  occ. eigenvalues --   -0.58644  -0.56007  -0.55230  -0.54538  -0.53243
 Alpha  occ. eigenvalues --   -0.52689  -0.52232  -0.49423  -0.48609  -0.47680
 Alpha  occ. eigenvalues --   -0.47004  -0.46163  -0.44475  -0.43928  -0.43032
 Alpha  occ. eigenvalues --   -0.42067  -0.41054  -0.35866  -0.33972  -0.33412
 Alpha  occ. eigenvalues --   -0.32037  -0.29273  -0.28057  -0.26188
 Alpha virt. eigenvalues --    0.03395   0.03988   0.04686   0.04802   0.05066
 Alpha virt. eigenvalues --    0.05435   0.05687   0.05755   0.06151   0.07033
 Alpha virt. eigenvalues --    0.07092   0.07414   0.07877   0.08152   0.09146

 Mulliken charges:
               1
     1  C   -3.096119
     2  C   -2.926998
     3  C   -3.185580
     4  C    7.522054
     5  C   -3.242736
     6  C    4.405200
     7  C   -3.477968
     8  C   -2.810087
     9  C   -3.066764
    10  C   -0.820243
    11  C    4.151402
    12  C   -5.427598
    13  C    9.017525
    14  C   -2.264604
    15  H    1.930187
    16  H    0.853302
    17  H    1.654447
    18  H    1.890286
    19  H    1.207063
    20  H    1.254641
    21  H    1.335590
    22  H    1.370280
    23  H    0.786139
    24  H    1.369181
    25  H    1.702346
    26  H    1.623440
    27  H    2.272382
    28  H    1.335020
    29  H    2.783122
    30  H    0.672375
    31  H    0.503147
    32  H    1.517149
    33  N   -3.395685
    34  N   -2.015781
    35  O   -3.520561
    36  O   -4.167928
    37  O   -4.157817
    38  O   -3.579809
 Sum of Mulliken charges =   0.00000

 Dipole moment (field-independent basis, Debye):
    X=             -0.7744    Y=             -0.4724    Z=             -2.1865  Tot=              2.3672

 Test job not archived.
 1\1\GINC-SE105\SP\RHF\Aug-CC-pVDZ\C14H18N2O4\OHZDE\08-Apr-2025\0\\#t h
 f aug-cc-pvdz iop(5/13=1,5/36=2,99/5=2) pseudo=read geom=check guess=(
 read,tcheck) scf=(maxcycle=1)\\title\\0,1\C,0,-0.125351,-0.215348,0.79
 3736\C,0,-3.42661,-1.53852,-0.492815\C,0,-4.12189,-0.898242,-1.67177\C
 ,0,-2.47276,1.7394,0.306472\C,0,-2.47627,0.669044,-0.844909\C,0,4.8366
 2,0.397569,-0.383559\C,0,4.65844,-0.983452,-0.198516\C,0,-3.84423,0.60
 9463,-1.57751\C,0,3.37135,-1.54171,-0.308196\C,0,2.45287,0.757554,-0.2
 75666\C,0,2.22708,-0.639422,-0.299539\C,0,0.772579,-1.00093,-0.347328\

 Normal termination of Gaussian 16 at Tue Apr  8 21:52:05 2025.
