 Gaussian 16, Revision C.01,

 ----------------------------------------------------------------------
 #t hf aug-cc-pvdz symm=none int=(grid=ultrafine) guess=(read,tcheck) s
 table=(opt,rrhf)
 ----------------------------------------------------------------------
 -----
 title
 -----
 Symbolic Z-matrix:
 Charge =  0 Multiplicity = 1

 SCF Done:  E(RHF) =  -830.306222332     A.U. after   14 cycles
 Normal termination of Gaussian 16 at Tue Apr  8 19:51:33 2025.
 Gaussian 16:  ES64L-G16RevC.01  3-Jul-2019

 ----------------------------------------------------------------------
 #t hf aug-cc-pvdz iop(5/13=1,5/36=2,99/5=2) pseudo=read geom=check gue
 ss=(read,tcheck) scf=(maxcycle=1)
 ----------------------------------------------------------------------
 -----
 title
 -----
 Structure from the checkpoint file:  "ANI1ccx_1406_conf13_mol2.chk"
 Charge =  0 Multiplicity = 1

                         Standard orientation:
 ---------------------------------------------------------------------
 Center     Atomic      Atomic             Coordinates (Angstroms)
 Number     Number       Type             X           Y           Z
 ---------------------------------------------------------------------
      1          6           0        2.647840   -0.556796    0.410520
      2          6           0        1.430390   -0.659583   -0.516280
      3          6           0        3.149399    0.892034    0.500558
      4          6           0       -0.811513    0.197198   -0.887884
      5          6           0       -1.523451    1.473059   -0.584875
      6          6           0       -1.659239   -1.052161   -0.642180
      7          6           0       -2.310829   -1.075582    0.704586
      8          1           0       -3.167832    2.371617   -1.015420
      9          1           0       -3.462008   -2.017563    1.774620
     10          1           0       -1.064309   -1.962441   -0.744285
     11          1           0       -2.450769   -1.186262   -1.374520
     12          1           0       -0.631496    0.230856   -1.983590
     13          1           0        0.404544    0.771937    0.646553
     14          1           0        4.142929    0.886436    1.001330
     15          1           0        3.148939    1.310623   -0.560744
     16          1           0        2.396610   -0.780862    1.471300
     17          1           0        3.793801   -0.978657   -1.096090
     18          1           0        3.457402   -2.281257   -0.208915
     19          1           0        2.234768    2.526092    1.060200
     20          7           0        3.747441   -1.322377   -0.111370
     21          7           0        0.404426    0.150292   -0.159409
     22          8           0       -3.077178   -2.120623    0.867350
     23          8           0        1.447711   -1.336719   -1.521790
     24          8           0        2.159938    1.600002    1.253530
     25          8           0       -1.014332    2.350479    0.068388
     26          8           0       -2.178790   -0.249005    1.588430
     27          8           0       -2.762501    1.506498   -1.128620
 ---------------------------------------------------------------------

 SCF Done:  E(RHF) =  -833.894427425     A.U. after    2 cycles

 The electronic state is 1-A.
 Alpha  occ. eigenvalues --  -21.14025 -21.13510 -21.07686 -21.06409 -21.05363
 Alpha  occ. eigenvalues --  -21.03151 -15.75225 -15.72904 -11.55778 -11.54175
 Alpha  occ. eigenvalues --  -11.52432 -11.48938 -11.47314 -11.42118 -11.40568
 Alpha  occ. eigenvalues --   -1.85954  -1.83883  -1.73711  -1.70947  -1.67645
 Alpha  occ. eigenvalues --   -1.65593  -1.42294  -1.35131  -1.18806  -1.07010
 Alpha  occ. eigenvalues --   -1.02486  -0.90831  -0.84192  -0.81388  -0.77450
 Alpha  occ. eigenvalues --   -0.73148  -0.69825  -0.67357  -0.65457  -0.64426
 Alpha  occ. eigenvalues --   -0.63668  -0.61457  -0.61052  -0.60255  -0.58640
 Alpha  occ. eigenvalues --   -0.56836  -0.54105  -0.52486  -0.50762  -0.49745
 Alpha  occ. eigenvalues --   -0.48693  -0.46682  -0.45181  -0.44866  -0.41859
 Alpha  occ. eigenvalues --   -0.37007  -0.36291  -0.34671  -0.34019  -0.31493
 Alpha  occ. eigenvalues --   -0.30955  -0.30185  -0.29039
 Alpha virt. eigenvalues --    0.03707   0.04446   0.04989   0.05365   0.05718
 Alpha virt. eigenvalues --    0.06164   0.06440   0.06513   0.07050   0.07398
 Alpha virt. eigenvalues --    0.08517   0.09992   0.10790   0.11022   0.11214

 Mulliken charges:
               1
     1  C   -2.727109
     2  C    7.810129
     3  C   -0.950805
     4  C   -2.721574
     5  C    7.764366
     6  C   -4.066703
     7  C    6.099654
     8  H    0.960846
     9  H    0.829313
    10  H    1.592002
    11  H    1.330158
    12  H    2.074209
    13  H    1.128027
    14  H    1.359327
    15  H    1.474686
    16  H    2.011156
    17  H    0.593524
    18  H    0.588008
    19  H    0.832497
    20  N   -2.858570
    21  N   -3.471409
    22  O   -3.267369
    23  O   -3.759960
    24  O   -2.727227
    25  O   -3.220874
    26  O   -3.038628
    27  O   -3.637674
 Sum of Mulliken charges =  -0.00000

 Dipole moment (field-independent basis, Debye):
    X=             -2.0554    Y=              0.6620    Z=             -0.1355  Tot=              2.1636

 Test job not archived.
 1\1\GINC-SE048\SP\RHF\Aug-CC-pVDZ\C7H12N2O6\OHZDE\08-Apr-2025\0\\#t hf
  aug-cc-pvdz iop(5/13=1,5/36=2,99/5=2) pseudo=read geom=check guess=(r
 ead,tcheck) scf=(maxcycle=1)\\title\\0,1\C,0,2.64784,-0.556798,0.41052
 \C,0,1.43039,-0.659584,-0.51628\C,0,3.1494,0.892031,0.500558\C,0,-0.81
 1513,0.197199,-0.887884\C,0,-1.52345,1.47306,-0.584875\C,0,-1.65924,-1
 .05216,-0.64218\C,0,-2.31083,-1.07558,0.704586\H,0,-3.16783,2.37162,-1
 .01542\H,0,-3.46201,-2.01756,1.77462\H,0,-1.06431,-1.96244,-0.744285\H
 ,0,-2.45077,-1.18626,-1.37452\H,0,-0.631496,0.230857,-1.98359\H,0,0.40

 Normal termination of Gaussian 16 at Tue Apr  8 19:52:02 2025.
