 Gaussian 16, Revision C.01,

 ----------------------------------------------------------------------
 #t hf aug-cc-pvdz symm=none int=(grid=ultrafine) guess=(read,tcheck) s
 table=(opt,rrhf)
 ----------------------------------------------------------------------
 -----
 title
 -----
 Symbolic Z-matrix:
 Charge =  0 Multiplicity = 1

 SCF Done:  E(RHF) =  -351.492883508     A.U. after   15 cycles
 Normal termination of Gaussian 16 at Tue Apr  8 21:33:33 2025.
 Gaussian 16:  ES64L-G16RevC.01  3-Jul-2019

 ----------------------------------------------------------------------
 #t hf aug-cc-pvdz iop(5/13=1,5/36=2,99/5=2) pseudo=read geom=check gue
 ss=(read,tcheck) scf=(maxcycle=1)
 ----------------------------------------------------------------------
 -----
 title
 -----
 Structure from the checkpoint file:  "ANI1ccx_371_conf10_mol2.chk"
 Charge =  0 Multiplicity = 1

                         Standard orientation:
 ---------------------------------------------------------------------
 Center     Atomic      Atomic             Coordinates (Angstroms)
 Number     Number       Type             X           Y           Z
 ---------------------------------------------------------------------
      1          6           0        0.777060   -0.003833    0.004663
      2          1           0        0.070347    2.031271   -0.003123
      3          7           0       -0.118747    1.039441    0.004818
      4          7           0       -1.384420    0.592013   -0.003907
      5          7           0       -1.371260   -0.655319   -0.002400
      6          8           0        1.973830   -0.015983   -0.004897
      7          8           0       -0.050295   -1.089169    0.003093
 ---------------------------------------------------------------------

 SCF Done:  E(RHF) =  -352.942064390     A.U. after    2 cycles

 The electronic state is 1-A.
 Alpha  occ. eigenvalues --  -21.16449 -21.07779 -15.87996 -15.87460 -15.85683
 Alpha  occ. eigenvalues --  -11.56840  -1.99871  -1.73371  -1.60263  -1.36092
 Alpha  occ. eigenvalues --   -0.95656  -0.93422  -0.76806  -0.73711  -0.61876
 Alpha  occ. eigenvalues --   -0.57014  -0.53576  -0.51547  -0.47813  -0.46135
 Alpha  occ. eigenvalues --   -0.33066  -0.31917
 Alpha virt. eigenvalues --    0.03137   0.09428   0.10580   0.10647   0.11717
 Alpha virt. eigenvalues --    0.12403   0.12611   0.13037   0.15937   0.16775
 Alpha virt. eigenvalues --    0.17585   0.18080   0.19921   0.20014   0.22792

 Mulliken charges:
               1
     1  C    5.302955
     2  H    0.835025
     3  N   -1.765881
     4  N    0.546031
     5  N    0.322789
     6  O   -2.774765
     7  O   -2.466154
 Sum of Mulliken charges =  -0.00000

 Dipole moment (field-independent basis, Debye):
    X=             -0.3544    Y=              1.9697    Z=             -0.0001  Tot=              2.0014

 Test job not archived.
 1\1\GINC-SE127\SP\RHF\Aug-CC-pVDZ\C1H1N3O2\OHZDE\08-Apr-2025\0\\#t hf
 aug-cc-pvdz iop(5/13=1,5/36=2,99/5=2) pseudo=read geom=check guess=(re
 ad,tcheck) scf=(maxcycle=1)\\title\\0,1\C,0,-0.77706,-0.00383295,-0.00
 466277\H,0,-0.0703458,2.03127,0.00312273\N,0,0.118748,1.03944,-0.00481
 847\N,0,1.38442,0.592012,0.00390733\N,0,1.37126,-0.65532,0.00240003\O,
 0,-1.97383,-0.0159825,0.00489723\O,0,0.0502951,-1.08917,-0.00309327\\V
 ersion=ES64L-G16RevC.01\State=1-A\HF=-352.9420644\RMSD=9.316e-02\Dipol
 e=0.1394294,0.7749536,0.0000512\Quadrupole=-5.2870361,3.8936951,1.3933

 Normal termination of Gaussian 16 at Tue Apr  8 21:33:35 2025.
