 Gaussian 16, Revision C.01,

 ----------------------------------------------------------------------
 #t hf aug-cc-pvdz symm=none int=(grid=ultrafine) guess=(read,tcheck) s
 table=(opt,rrhf)
 ----------------------------------------------------------------------
 -----
 title
 -----
 Symbolic Z-matrix:
 Charge =  0 Multiplicity = 1

 SCF Done:  E(RHF) =  -541.266378392     A.U. after   15 cycles
 Normal termination of Gaussian 16 at Tue Apr  8 22:04:13 2025.
 Gaussian 16:  ES64L-G16RevC.01  3-Jul-2019

 ----------------------------------------------------------------------
 #t hf aug-cc-pvdz iop(5/13=1,5/36=2,99/5=2) pseudo=read geom=check gue
 ss=(read,tcheck) scf=(maxcycle=1)
 ----------------------------------------------------------------------
 -----
 title
 -----
 Structure from the checkpoint file:  "ANI1ccx_869_conf13_mol2.chk"
 Charge =  0 Multiplicity = 1

                         Standard orientation:
 ---------------------------------------------------------------------
 Center     Atomic      Atomic             Coordinates (Angstroms)
 Number     Number       Type             X           Y           Z
 ---------------------------------------------------------------------
      1          6           0       -1.200010    0.143994   -0.022742
      2          6           0       -0.331203    1.349759   -0.043097
      3          6           0        1.682771   -0.161715    0.034427
      4          6           0       -0.565341   -1.233661   -0.024884
      5          1           0       -2.845228   -0.687550    0.007991
      6          1           0        1.654957    1.838903    0.095266
      7          1           0        1.190285   -2.243208   -0.093833
      8          7           0       -2.470070    0.258503    0.054260
      9          7           0        1.031729    1.063301    0.043296
     10          7           0        0.813929   -1.283179   -0.046441
     11          8           0       -0.714290    2.496578   -0.032006
     12          8           0        2.888961   -0.261873    0.008950
     13          8           0       -1.317976   -2.205803    0.019374
 ---------------------------------------------------------------------

 SCF Done:  E(RHF) =  -543.544032688     A.U. after    2 cycles

 The electronic state is 1-A.
 Alpha  occ. eigenvalues --  -21.09276 -21.08928 -21.08638 -15.84324 -15.83362
 Alpha  occ. eigenvalues --  -15.81799 -11.58487 -11.57528 -11.57032 -11.48469
 Alpha  occ. eigenvalues --   -1.79011  -1.76556  -1.74890  -1.49194  -1.39518
 Alpha  occ. eigenvalues --   -1.39015  -1.07712  -0.94959  -0.93904  -0.81102
 Alpha  occ. eigenvalues --   -0.76949  -0.69140  -0.67780  -0.63130  -0.60885
 Alpha  occ. eigenvalues --   -0.58043  -0.56168  -0.55001  -0.54833  -0.45520
 Alpha  occ. eigenvalues --   -0.42742  -0.38111  -0.37819  -0.37302  -0.35230
 Alpha  occ. eigenvalues --   -0.31109
 Alpha virt. eigenvalues --    0.03190   0.03833   0.05687   0.06336   0.07631
 Alpha virt. eigenvalues --    0.08873   0.09166   0.10017   0.11343   0.12151
 Alpha virt. eigenvalues --    0.12792   0.12912   0.13301   0.13731   0.14628

 Mulliken charges:
               1
     1  C    1.412866
     2  C    6.115455
     3  C    4.461342
     4  C    4.567651
     5  H    0.797631
     6  H    0.566221
     7  H    0.661712
     8  N   -3.366746
     9  N   -2.450148
    10  N   -2.550441
    11  O   -3.639660
    12  O   -3.097489
    13  O   -3.478393
 Sum of Mulliken charges =   0.00000

 Dipole moment (field-independent basis, Debye):
    X=              0.9018    Y=             -1.2666    Z=             -0.0433  Tot=              1.5554

 Test job not archived.
 1\1\GINC-SE365\SP\RHF\Aug-CC-pVDZ\C4H3N3O3\OHZDE\08-Apr-2025\0\\#t hf
 aug-cc-pvdz iop(5/13=1,5/36=2,99/5=2) pseudo=read geom=check guess=(re
 ad,tcheck) scf=(maxcycle=1)\\title\\0,1\C,0,-1.20001,0.143996,-0.02274
 21\C,0,-0.331201,1.34976,-0.043097\C,0,1.68277,-0.161718,0.0344273\C,0
 ,-0.565344,-1.23366,-0.024884\H,0,-2.84523,-0.687545,0.00799089\H,0,1.
 65496,1.8389,0.0952658\H,0,1.19028,-2.24321,-0.093833\N,0,-2.47007,0.2
 58508,0.0542597\N,0,1.03173,1.0633,0.043296\N,0,0.813926,-1.28318,-0.0
 464407\O,0,-0.714286,2.49658,-0.0320057\O,0,2.88896,-0.261878,0.008949

 Normal termination of Gaussian 16 at Tue Apr  8 22:04:18 2025.
