 Gaussian 16, Revision C.01,

 ----------------------------------------------------------------------
 #t hf aug-cc-pvdz symm=none int=(grid=ultrafine) guess=(read,tcheck) s
 table=(opt,rrhf)
 ----------------------------------------------------------------------
 -----
 title
 -----
 Symbolic Z-matrix:
 Charge =  0 Multiplicity = 1

 SCF Done:  E(RHF) =  -795.598328614     A.U. after   14 cycles
 Normal termination of Gaussian 16 at Tue Apr  8 20:35:53 2025.
 Gaussian 16:  ES64L-G16RevC.01  3-Jul-2019

 ----------------------------------------------------------------------
 #t hf aug-cc-pvdz iop(5/13=1,5/36=2,99/5=2) pseudo=read geom=check gue
 ss=(read,tcheck) scf=(maxcycle=1)
 ----------------------------------------------------------------------
 -----
 title
 -----
 Structure from the checkpoint file:  "ANI1ccx_1619_conf14_mol2.chk"
 Charge =  0 Multiplicity = 1

                         Standard orientation:
 ---------------------------------------------------------------------
 Center     Atomic      Atomic             Coordinates (Angstroms)
 Number     Number       Type             X           Y           Z
 ---------------------------------------------------------------------
      1          6           0       -2.070160   -0.316022   -0.524137
      2          6           0       -0.759879    0.417274   -0.022974
      3          6           0       -3.240420   -0.035492    0.476131
      4          6           0       -3.836630    1.352091    0.375032
      5          6           0        1.665740    0.060966    0.244696
      6          6           0        2.317740    1.408880   -0.275940
      7          6           0        2.657820   -1.090930   -0.080461
      8          6           0        3.731610   -1.222070    1.006580
      9          1           0        0.550925    2.203931   -0.066206
     10          1           0        3.239410   -1.406630    1.961700
     11          1           0        4.422320   -2.040770    0.791992
     12          1           0        4.301510   -0.307554    1.088070
     13          1           0        2.568020   -3.043070   -0.201462
     14          1           0        3.025800   -0.946323   -1.107850
     15          1           0        1.475880    0.245631    1.321540
     16          1           0        0.155620   -1.198939   -0.545576
     17          1           0       -3.198210    2.185591    0.691166
     18          1           0       -4.169350    1.530661   -0.660952
     19          1           0       -4.755860    1.478282    0.961618
     20          1           0       -4.804190   -0.725669   -0.562800
     21          1           0       -3.020740   -0.215187    1.531070
     22          1           0       -2.263240    0.155929   -1.507250
     23          1           0       -2.639620   -2.248109   -0.290041
     24          1           0       -1.757840   -1.989169   -1.661960
     25          7           0       -1.837520   -1.763949   -0.669232
     26          7           0        0.351647   -0.227757   -0.357745
     27          8           0       -0.783672    1.505561    0.534199
     28          8           0       -4.303820   -1.043049    0.199281
     29          8           0        3.510700    1.534350   -0.507389
     30          8           0        1.921680   -2.345379   -0.079530
     31          8           0        1.464580    2.450411   -0.365031
 ---------------------------------------------------------------------

 SCF Done:  E(RHF) =  -799.158345355     A.U. after    2 cycles

 The electronic state is 1-A.
 Alpha  occ. eigenvalues --  -21.08629 -21.08030 -21.07883 -21.05131 -21.04211
 Alpha  occ. eigenvalues --  -15.77637 -15.75210 -11.54462 -11.53546 -11.50806
 Alpha  occ. eigenvalues --  -11.50239 -11.45357 -11.45038 -11.38793 -11.38408
 Alpha  occ. eigenvalues --   -1.80458  -1.74827  -1.72413  -1.70830  -1.63515
 Alpha  occ. eigenvalues --   -1.43606  -1.34535  -1.17048  -1.14740  -1.05750
 Alpha  occ. eigenvalues --   -1.00328  -0.88910  -0.88243  -0.81833  -0.77188
 Alpha  occ. eigenvalues --   -0.74107  -0.71115  -0.69499  -0.65724  -0.64717
 Alpha  occ. eigenvalues --   -0.63950  -0.60282  -0.60060  -0.58205  -0.57664
 Alpha  occ. eigenvalues --   -0.56308  -0.53738  -0.52890  -0.52542  -0.50964
 Alpha  occ. eigenvalues --   -0.50441  -0.48958  -0.48731  -0.48114  -0.44148
 Alpha  occ. eigenvalues --   -0.41297  -0.40867  -0.39114  -0.34974  -0.33729
 Alpha  occ. eigenvalues --   -0.33332  -0.31611  -0.29086  -0.28392
 Alpha virt. eigenvalues --    0.03425   0.03928   0.04265   0.04688   0.05014
 Alpha virt. eigenvalues --    0.05632   0.05829   0.06065   0.06324   0.06575
 Alpha virt. eigenvalues --    0.07549   0.07809   0.07935   0.09309   0.09742

 Mulliken charges:
               1
     1  C   -1.532322
     2  C    6.281040
     3  C    0.435002
     4  C   -3.871341
     5  C   -2.194535
     6  C    5.932661
     7  C    0.564747
     8  C   -3.884445
     9  H    1.697306
    10  H    1.205533
    11  H    1.233084
    12  H    1.339643
    13  H    0.832297
    14  H    1.757898
    15  H    2.174272
    16  H    0.927292
    17  H    1.548660
    18  H    1.173773
    19  H    1.163962
    20  H    0.757362
    21  H    1.826882
    22  H    1.887597
    23  H    0.784763
    24  H    0.514823
    25  N   -3.113160
    26  N   -2.889334
    27  O   -3.845192
    28  O   -2.941063
    29  O   -3.112051
    30  O   -3.151132
    31  O   -3.504022
 Sum of Mulliken charges =   0.00000

 Dipole moment (field-independent basis, Debye):
    X=             -2.8455    Y=             -3.1820    Z=             -0.5343  Tot=              4.3020

 Test job not archived.
 1\1\GINC-SE074\SP\RHF\Aug-CC-pVDZ\C8H16N2O5\OHZDE\08-Apr-2025\0\\#t hf
  aug-cc-pvdz iop(5/13=1,5/36=2,99/5=2) pseudo=read geom=check guess=(r
 ead,tcheck) scf=(maxcycle=1)\\title\\0,1\C,0,-2.07016,-0.316023,-0.524
 137\C,0,-0.759879,0.417273,-0.0229743\C,0,-3.24042,-0.0354936,0.476131
 \C,0,-3.83663,1.35209,0.375032\C,0,1.66574,0.0609651,0.244696\C,0,2.31
 774,1.40888,-0.27594\C,0,2.65782,-1.09093,-0.0804605\C,0,3.73161,-1.22
 207,1.00658\H,0,0.550925,2.20393,-0.0662055\H,0,3.23941,-1.40663,1.961
 7\H,0,4.42232,-2.04077,0.791992\H,0,4.30151,-0.307554,1.08807\H,0,2.56

 Normal termination of Gaussian 16 at Tue Apr  8 20:36:28 2025.
