 Gaussian 16, Revision C.01,

 ----------------------------------------------------------------------
 #t hf aug-cc-pvdz symm=none int=(grid=ultrafine) guess=(read,tcheck) s
 table=(opt,rrhf)
 ----------------------------------------------------------------------
 -----
 title
 -----
 Symbolic Z-matrix:
 Charge =  0 Multiplicity = 1

 SCF Done:  E(RHF) =  -532.289428428     A.U. after   11 cycles
 Normal termination of Gaussian 16 at Tue Apr  8 21:11:11 2025.
 Gaussian 16:  ES64L-G16RevC.01  3-Jul-2019

 ----------------------------------------------------------------------
 #t hf aug-cc-pvdz iop(5/13=1,5/36=2,99/5=2) pseudo=read geom=check gue
 ss=(read,tcheck) scf=(maxcycle=1)
 ----------------------------------------------------------------------
 -----
 title
 -----
 Structure from the checkpoint file:  "ANI1ccx_1845_conf207_mol1.chk"
 Charge =  0 Multiplicity = 1

                         Standard orientation:
 ---------------------------------------------------------------------
 Center     Atomic      Atomic             Coordinates (Angstroms)
 Number     Number       Type             X           Y           Z
 ---------------------------------------------------------------------
      1          1           0        3.782450   -1.295541   -0.739737
      2          1           0        1.125240    1.341469    0.098631
      3          1           0        0.233569    0.226332   -0.706888
      4          1           0        3.146330    0.670817    0.139326
      5          1           0        2.932050    1.979929    1.167130
      6          1           0        2.159860   -1.238781   -0.508549
      7          1           0        0.030387   -2.284871   -1.477600
      8          1           0       -0.395288   -0.059664    1.451630
      9          1           0       -0.148082   -1.452701   -0.067477
     10          1           0       -2.266040    1.936869   -1.535670
     11          1           0       -1.489000    1.766929   -0.181592
     12          1           0       -3.144350    0.139095   -0.256143
     13          1           0       -4.039950   -0.751843    0.488590
     14          1           0       -1.766240   -0.626212    1.112560
     15          8           0        3.047860   -1.010061   -0.111647
     16          8           0       -0.868733   -0.929204    1.404810
     17          8           0        2.816240    1.585439    0.263047
     18          8           0       -2.452260    1.683349   -0.548639
     19          8           0        0.212292    1.020199   -0.046381
     20          8           0        0.396876   -1.602771   -0.883061
     21          8           0       -3.172390   -0.790931    0.048844
 ---------------------------------------------------------------------

 SCF Done:  E(RHF) =  -534.604562906     A.U. after    2 cycles

 The electronic state is 1-A.
 Alpha  occ. eigenvalues --  -21.08985 -21.08791 -21.08199 -21.07834 -21.07471
 Alpha  occ. eigenvalues --  -21.05877 -21.05292  -1.69018  -1.67123  -1.66531
 Alpha  occ. eigenvalues --   -1.65223  -1.63890  -1.62569  -1.61168  -0.68258
 Alpha  occ. eigenvalues --   -0.66035  -0.64733  -0.63260  -0.62883  -0.61033
 Alpha  occ. eigenvalues --   -0.60292  -0.52129  -0.50439  -0.47832  -0.46977
 Alpha  occ. eigenvalues --   -0.45350  -0.43522  -0.40081  -0.36331  -0.35179
 Alpha  occ. eigenvalues --   -0.35072  -0.34525  -0.33827  -0.32747  -0.30849
 Alpha virt. eigenvalues --    0.03774   0.04572   0.04955   0.05293   0.05686
 Alpha virt. eigenvalues --    0.07365   0.08144   0.08242   0.09258   0.09433
 Alpha virt. eigenvalues --    0.10618   0.11095   0.11869   0.12618   0.18382

 Mulliken charges:
               1
     1  H    0.817505
     2  H    1.651191
     3  H    1.355672
     4  H    1.463459
     5  H    0.823567
     6  H    1.456841
     7  H    0.933318
     8  H    1.158477
     9  H    1.650127
    10  H    0.764489
    11  H    1.413138
    12  H    1.498628
    13  H    0.775563
    14  H    1.262549
    15  O   -2.278406
    16  O   -2.358862
    17  O   -2.223687
    18  O   -2.358322
    19  O   -3.051964
    20  O   -2.626140
    21  O   -2.127143
 Sum of Mulliken charges =  -0.00000

 Dipole moment (field-independent basis, Debye):
    X=              0.4245    Y=             -0.3920    Z=             -0.9425  Tot=              1.1055

 Test job not archived.
 1\1\GINC-SE087\SP\RHF\Aug-CC-pVDZ\H14O7\OHZDE\08-Apr-2025\0\\#t hf aug
 -cc-pvdz iop(5/13=1,5/36=2,99/5=2) pseudo=read geom=check guess=(read,
 tcheck) scf=(maxcycle=1)\\title\\0,1\H,0,3.78245,-1.29554,-0.739737\H,
 0,1.12524,1.34147,0.0986307\H,0,0.233569,0.226333,-0.706888\H,0,3.1463
 3,0.670818,0.139326\H,0,2.93205,1.97993,1.16713\H,0,2.15986,-1.23878,-
 0.508549\H,0,0.030387,-2.28487,-1.4776\H,0,-0.395288,-0.0596636,1.4516
 3\H,0,-0.148082,-1.4527,-0.0674773\H,0,-2.26604,1.93687,-1.53567\H,0,-
 1.489,1.76693,-0.181592\H,0,-3.14435,0.139096,-0.256143\H,0,-4.03995,-

 Normal termination of Gaussian 16 at Tue Apr  8 21:11:18 2025.
