 Gaussian 16, Revision C.01,

 ----------------------------------------------------------------------
 #t hf aug-cc-pvdz symm=none int=(grid=ultrafine) guess=(read,tcheck) s
 table=(opt,rrhf)
 ----------------------------------------------------------------------
 -----
 title
 -----
 Symbolic Z-matrix:
 Charge =  0 Multiplicity = 1

 SCF Done:  E(RHF) =  -380.173155619     A.U. after   12 cycles
 Normal termination of Gaussian 16 at Tue Apr  8 21:06:27 2025.
 Gaussian 16:  ES64L-G16RevC.01  3-Jul-2019

 ----------------------------------------------------------------------
 #t hf aug-cc-pvdz iop(5/13=1,5/36=2,99/5=2) pseudo=read geom=check gue
 ss=(read,tcheck) scf=(maxcycle=1)
 ----------------------------------------------------------------------
 -----
 title
 -----
 Structure from the checkpoint file:  "ANI1ccx_1843_conf438_mol1.chk"
 Charge =  0 Multiplicity = 1

                         Standard orientation:
 ---------------------------------------------------------------------
 Center     Atomic      Atomic             Coordinates (Angstroms)
 Number     Number       Type             X           Y           Z
 ---------------------------------------------------------------------
      1          1           0       -1.870660   -0.579648   -0.672700
      2          1           0       -2.297130   -1.821731    0.099849
      3          1           0       -1.223640    1.204319   -0.189824
      4          1           0       -2.564460    1.300139    0.390088
      5          1           0        0.417364    2.163949    1.287089
      6          1           0        0.555424    0.532205    1.033999
      7          1           0        1.472740   -1.123802    0.396088
      8          1           0       -0.100537   -1.291451    0.617170
      9          1           0        3.218690   -0.029276   -0.388852
     10          1           0        1.811560    0.623311   -0.551691
     11          8           0       -1.519590   -1.521541   -0.320574
     12          8           0       -2.175570    1.088029   -0.495155
     13          8           0        0.585969    1.403019    0.580367
     14          8           0        0.744711   -1.032472    1.074039
     15          8           0        2.437060   -0.059287   -1.091331
 ---------------------------------------------------------------------

 SCF Done:  E(RHF) =  -381.843386920     A.U. after    2 cycles

 The electronic state is 1-A.
 Alpha  occ. eigenvalues --  -21.11219 -21.09458 -21.08675 -21.07363 -21.06776
 Alpha  occ. eigenvalues --   -1.69957  -1.68196  -1.65760  -1.62734  -1.60995
 Alpha  occ. eigenvalues --   -0.67107  -0.64818  -0.64028  -0.60970  -0.58469
 Alpha  occ. eigenvalues --   -0.53607  -0.50804  -0.49339  -0.46108  -0.44051
 Alpha  occ. eigenvalues --   -0.37013  -0.35862  -0.34609  -0.33572  -0.32413
 Alpha virt. eigenvalues --    0.02790   0.04435   0.05528   0.05973   0.07509
 Alpha virt. eigenvalues --    0.08090   0.08616   0.09136   0.10615   0.11569
 Alpha virt. eigenvalues --    0.17119   0.18174   0.19860   0.20606   0.20957

 Mulliken charges:
               1
     1  H    1.206043
     2  H    0.893466
     3  H    1.358735
     4  H    0.814801
     5  H    0.828329
     6  H    1.755446
     7  H    1.026590
     8  H    1.448667
     9  H    0.742950
    10  H    1.188304
    11  O   -2.253187
    12  O   -2.256524
    13  O   -2.277246
    14  O   -2.626046
    15  O   -1.850329
 Sum of Mulliken charges =  -0.00000

 Dipole moment (field-independent basis, Debye):
    X=             -1.2150    Y=              0.7534    Z=              1.3705  Tot=              1.9805

 Test job not archived.
 1\1\GINC-SE030\SP\RHF\Aug-CC-pVDZ\H10O5\OHZDE\08-Apr-2025\0\\#t hf aug
 -cc-pvdz iop(5/13=1,5/36=2,99/5=2) pseudo=read geom=check guess=(read,
 tcheck) scf=(maxcycle=1)\\title\\0,1\H,0,-1.87066,-0.579647,-0.672699\
 H,0,-2.29713,-1.82173,0.0998492\H,0,-1.22364,1.20432,-0.189823\H,0,-2.
 56446,1.30014,0.390089\H,0,0.417363,2.16395,1.28709\H,0,0.555424,0.532
 206,1.034\H,0,1.47274,-1.1238,0.396089\H,0,-0.100537,-1.29145,0.617171
 \H,0,3.21869,-0.0292739,-0.388851\H,0,1.81156,0.623313,-0.55169\O,0,-1
 .51959,-1.52154,-0.320573\O,0,-2.17557,1.08803,-0.495154\O,0,0.585969,

 Normal termination of Gaussian 16 at Tue Apr  8 21:06:31 2025.
