 Gaussian 16, Revision C.01,

 ----------------------------------------------------------------------
 #t hf aug-cc-pvdz symm=none int=(grid=ultrafine) guess=(read,tcheck) s
 table=(opt,rrhf)
 ----------------------------------------------------------------------
 -----
 title
 -----
 Symbolic Z-matrix:
 Charge =  0 Multiplicity = 1

 SCF Done:  E(RHF) =  -555.333603343     A.U. after   16 cycles
 Normal termination of Gaussian 16 at Tue Apr  8 22:08:15 2025.
 Gaussian 16:  ES64L-G16RevC.01  3-Jul-2019

 ----------------------------------------------------------------------
 #t hf aug-cc-pvdz iop(5/13=1,5/36=2,99/5=2) pseudo=read geom=check gue
 ss=(read,tcheck) scf=(maxcycle=1)
 ----------------------------------------------------------------------
 -----
 title
 -----
 Structure from the checkpoint file:  "ANI1ccx_886_conf10_mol2.chk"
 Charge =  0 Multiplicity = 1

                         Standard orientation:
 ---------------------------------------------------------------------
 Center     Atomic      Atomic             Coordinates (Angstroms)
 Number     Number       Type             X           Y           Z
 ---------------------------------------------------------------------
      1          6           0       -1.289528    0.740441   -0.007995
      2          6           0        0.933562    0.705833   -0.039086
      3          6           0        0.936085   -0.709115    0.021442
      4          6           0       -1.285530   -0.750555   -0.013069
      5          1           0       -3.212738    0.924978    0.593226
      6          1           0       -2.446637    2.375361    0.146515
      7          1           0       -2.439891   -2.359209   -0.148018
      8          1           0       -3.211380   -0.925631   -0.591987
      9          7           0       -2.510168    1.369131    0.021924
     10          7           0       -0.214321    1.458109   -0.045883
     11          7           0        2.175812    1.142907   -0.052529
     12          7           0        2.172580   -1.135683    0.064369
     13          7           0       -0.209061   -1.466561    0.032925
     14          7           0       -2.521200   -1.358859    0.003399
     15          8           0        2.910951    0.000198    0.007884
 ---------------------------------------------------------------------

 SCF Done:  E(RHF) =  -557.793719195     A.U. after    2 cycles

 The electronic state is 1-A.
 Alpha  occ. eigenvalues --  -21.14120 -15.81065 -15.80876 -15.80025 -15.79555
 Alpha  occ. eigenvalues --  -15.77500 -15.77179 -11.57386 -11.49983 -11.48498
 Alpha  occ. eigenvalues --  -11.42944  -1.96596  -1.57717  -1.44185  -1.39897
 Alpha  occ. eigenvalues --   -1.35090  -1.25674  -1.21876  -0.99262  -0.89430
 Alpha  occ. eigenvalues --   -0.89295  -0.78791  -0.71703  -0.69828  -0.68405
 Alpha  occ. eigenvalues --   -0.67501  -0.66437  -0.60880  -0.56848  -0.54148
 Alpha  occ. eigenvalues --   -0.52827  -0.49865  -0.44919  -0.44647  -0.43742
 Alpha  occ. eigenvalues --   -0.41154  -0.36190  -0.34044  -0.30079
 Alpha virt. eigenvalues --    0.02536   0.03906   0.05460   0.05587   0.07878
 Alpha virt. eigenvalues --    0.08050   0.09745   0.09957   0.10532   0.12380
 Alpha virt. eigenvalues --    0.12473   0.12599   0.13520   0.13721   0.14734

 Mulliken charges:
               1
     1  C    4.454458
     2  C    4.008055
     3  C    3.993036
     4  C    4.606844
     5  H    0.551448
     6  H    0.749945
     7  H    0.718261
     8  H    0.543600
     9  N   -3.367916
    10  N   -3.814594
    11  N   -1.431196
    12  N   -1.438433
    13  N   -3.804563
    14  N   -3.328843
    15  O   -2.440101
 Sum of Mulliken charges =   0.00000

 Dipole moment (field-independent basis, Debye):
    X=             -5.7324    Y=              0.0020    Z=             -0.0404  Tot=              5.7325

 Test job not archived.
 1\1\GINC-SE073\SP\RHF\Aug-CC-pVDZ\C4H4N6O1\OHZDE\08-Apr-2025\0\\#t hf
 aug-cc-pvdz iop(5/13=1,5/36=2,99/5=2) pseudo=read geom=check guess=(re
 ad,tcheck) scf=(maxcycle=1)\\title\\0,1\C,0,-1.28953,0.740441,-0.00799
 481\C,0,0.93356,0.705835,-0.0390858\C,0,0.936085,-0.709113,0.0214425\C
 ,0,-1.28553,-0.750555,-0.0130692\H,0,-3.21274,0.924977,0.593226\H,0,-2
 .44664,2.37536,0.146515\H,0,-2.43989,-2.35921,-0.148018\H,0,-3.21138,-
 0.925632,-0.591987\N,0,-2.51017,1.36913,0.0219236\N,0,-0.214323,1.4581
 1,-0.0458832\N,0,2.17581,1.14291,-0.0525285\N,0,2.17258,-1.13568,0.064

 Normal termination of Gaussian 16 at Tue Apr  8 22:08:23 2025.
