 Gaussian 16, Revision C.01,

 ----------------------------------------------------------------------
 #t hf aug-cc-pvdz symm=none int=(grid=ultrafine) guess=(read,tcheck) s
 table=(opt,rrhf)
 ----------------------------------------------------------------------
 -----
 title
 -----
 Symbolic Z-matrix:
 Charge =  0 Multiplicity = 1

 SCF Done:  E(RHF) =  -656.186202207     A.U. after   17 cycles

 1\1\GINC-SE099\Stability\RHF\Aug-CC-pVDZ\C10H9N5\OHZDE\08-Apr-2025\0\\
 #t hf aug-cc-pvdz symm=none int=(grid=ultrafine) guess=(read,tcheck) s
 table=(opt,rrhf)\\title\\0,1\C,0,3.69081,-1.28897,0.197365\C,0,1.1853,
 -1.06239,-0.065621\C,0,-1.19425,-0.863253,-0.0812229\C,0,-2.36806,-1.6
 494,0.0211722\C,0,-3.56579,-0.996781,0.104812\C,0,-3.60387,0.411619,0.
 076451\C,0,-2.46877,1.123,-0.0904671\C,0,-1.22214,0.495198,-0.139006\C
 ,0,0.585591,2.49232,0.0495353\C,0,1.18768,0.418674,-0.121841\H,0,-0.04
 95859,3.35293,0.288121\H,0,-2.4344,2.21335,-0.023758\H,0,-4.57085,0.89

 Normal termination of Gaussian 16 at Tue Apr  8 19:37:12 2025.
 Gaussian 16:  ES64L-G16RevC.01  3-Jul-2019

 ----------------------------------------------------------------------
 #t hf aug-cc-pvdz iop(5/13=1,5/36=2,99/5=2) pseudo=read geom=check gue
 ss=(read,tcheck) scf=(maxcycle=1)
 ----------------------------------------------------------------------
 -----
 title
 -----
 Structure from the checkpoint file:  "ANI1ccx_130_conf1_mol2.chk"
 Charge =  0 Multiplicity = 1

                         Standard orientation:
 ---------------------------------------------------------------------
 Center     Atomic      Atomic             Coordinates (Angstroms)
 Number     Number       Type             X           Y           Z
 ---------------------------------------------------------------------
      1          6           0        3.690810   -1.288971    0.197365
      2          6           0        1.185300   -1.062391   -0.065621
      3          6           0       -1.194250   -0.863254   -0.081223
      4          6           0       -2.368060   -1.649400    0.021172
      5          6           0       -3.565790   -0.996781    0.104812
      6          6           0       -3.603870    0.411619    0.076451
      7          6           0       -2.468770    1.123000   -0.090467
      8          6           0       -1.222140    0.495197   -0.139006
      9          6           0        0.585591    2.492319    0.049535
     10          6           0        1.187680    0.418673   -0.121841
     11          1           0       -0.049586    3.352929    0.288121
     12          1           0       -2.434400    2.213350   -0.023758
     13          1           0       -4.570850    0.897606    0.319342
     14          1           0       -4.460590   -1.504270    0.290737
     15          1           0        3.720690   -0.780931    1.167880
     16          1           0        2.126450   -2.758471   -0.306145
     17          1           0        4.356710   -2.201251    0.253788
     18          1           0        4.149740   -0.621743   -0.502212
     19          1           0       -2.201760   -2.705280    0.070585
     20          7           0        1.859650    2.488489    0.129218
     21          7           0        2.356340   -1.783351   -0.132828
     22          7           0        0.036364   -1.646121    0.039971
     23          7           0        0.057226    1.213629   -0.138315
     24          7           0        2.262510    1.102779   -0.078818
 ---------------------------------------------------------------------

 SCF Done:  E(RHF) =  -659.230359600     A.U. after    2 cycles

 The electronic state is 1-A.
 Alpha  occ. eigenvalues --  -15.81495 -15.76362 -15.76035 -15.74842 -15.72858
 Alpha  occ. eigenvalues --  -11.55740 -11.54551 -11.48081 -11.47101 -11.46364
 Alpha  occ. eigenvalues --  -11.44347 -11.43037 -11.42449 -11.40028 -11.38698
 Alpha  occ. eigenvalues --   -1.65027  -1.47779  -1.41473  -1.31655  -1.28492
 Alpha  occ. eigenvalues --   -1.21670  -1.11067  -1.10593  -0.99683  -0.92701
 Alpha  occ. eigenvalues --   -0.91397  -0.88080  -0.84239  -0.76490  -0.74459
 Alpha  occ. eigenvalues --   -0.69344  -0.67059  -0.65090  -0.63264  -0.60940
 Alpha  occ. eigenvalues --   -0.60846  -0.59897  -0.58056  -0.56529  -0.55179
 Alpha  occ. eigenvalues --   -0.53079  -0.50698  -0.48933  -0.47007  -0.42924
 Alpha  occ. eigenvalues --   -0.42692  -0.40445  -0.38219  -0.37024  -0.35978
 Alpha  occ. eigenvalues --   -0.32520  -0.27484
 Alpha virt. eigenvalues --    0.03083   0.04663   0.04874   0.05221   0.06162
 Alpha virt. eigenvalues --    0.06439   0.07062   0.07399   0.07908   0.08806
 Alpha virt. eigenvalues --    0.08973   0.10113   0.10906   0.10977   0.11308

 Mulliken charges:
               1
     1  C   -3.944621
     2  C    5.798697
     3  C    2.194343
     4  C   -4.207680
     5  C   -0.984819
     6  C   -1.803634
     7  C    1.502867
     8  C    2.600380
     9  C    0.714668
    10  C    3.661118
    11  H    1.759247
    12  H    1.757416
    13  H    1.437737
    14  H    1.553179
    15  H    1.445615
    16  H    0.749631
    17  H    1.368012
    18  H    1.432369
    19  H    1.631832
    20  N   -2.031605
    21  N   -3.812921
    22  N   -5.334958
    23  N   -4.750052
    24  N   -2.736825
 Sum of Mulliken charges =   0.00000

 Dipole moment (field-independent basis, Debye):
    X=             -2.1010    Y=             -0.9020    Z=              0.4108  Tot=              2.3231

 Test job not archived.
 1\1\GINC-SE099\SP\RHF\Aug-CC-pVDZ\C10H9N5\OHZDE\08-Apr-2025\0\\#t hf a
 ug-cc-pvdz iop(5/13=1,5/36=2,99/5=2) pseudo=read geom=check guess=(rea
 d,tcheck) scf=(maxcycle=1)\\title\\0,1\C,0,3.69081,-1.28897,0.197365\C
 ,0,1.1853,-1.06239,-0.065621\C,0,-1.19425,-0.863253,-0.0812229\C,0,-2.
 36806,-1.6494,0.0211722\C,0,-3.56579,-0.996781,0.104812\C,0,-3.60387,0
 .411619,0.076451\C,0,-2.46877,1.123,-0.0904671\C,0,-1.22214,0.495198,-
 0.139006\C,0,0.585591,2.49232,0.0495353\C,0,1.18768,0.418674,-0.121841
 \H,0,-0.0495859,3.35293,0.288121\H,0,-2.4344,2.21335,-0.023758\H,0,-4.

 Normal termination of Gaussian 16 at Tue Apr  8 19:37:37 2025.
