 Gaussian 16, Revision C.01,

 ----------------------------------------------------------------------
 #t hf aug-cc-pvdz symm=none int=(grid=ultrafine) guess=(read,tcheck) s
 table=(opt,rrhf)
 ----------------------------------------------------------------------
 -----
 title
 -----
 Symbolic Z-matrix:
 Charge =  0 Multiplicity = 1

 SCF Done:  E(RHF) =  -489.404618330     A.U. after   16 cycles
 Normal termination of Gaussian 16 at Tue Apr  8 19:31:29 2025.
 Gaussian 16:  ES64L-G16RevC.01  3-Jul-2019

 ----------------------------------------------------------------------
 #t hf aug-cc-pvdz iop(5/13=1,5/36=2,99/5=2) pseudo=read geom=check gue
 ss=(read,tcheck) scf=(maxcycle=1)
 ----------------------------------------------------------------------
 -----
 title
 -----
 Structure from the checkpoint file:  "ANI1ccx_1315_conf1_mol1.chk"
 Charge =  0 Multiplicity = 1

                         Standard orientation:
 ---------------------------------------------------------------------
 Center     Atomic      Atomic             Coordinates (Angstroms)
 Number     Number       Type             X           Y           Z
 ---------------------------------------------------------------------
      1          6           0        2.042691   -0.052188    0.011387
      2          6           0        1.419320    1.183070    0.086773
      3          6           0        0.047091    1.274820    0.054994
      4          6           0       -0.685906    0.091045   -0.070738
      5          6           0        1.207831   -1.187630   -0.009479
      6          6           0       -2.177750    0.089593   -0.012085
      7          1           0        3.922121   -0.955086    0.159881
      8          1           0        3.926060    0.755728    0.217518
      9          1           0        2.097920    2.023451    0.006621
     10          1           0       -0.361019    2.263340    0.117603
     11          1           0        1.708331   -2.177230   -0.100950
     12          1           0       -1.889129   -1.742091    0.187921
     13          7           0        3.416641   -0.094891   -0.072347
     14          7           0       -0.111720   -1.110030   -0.096571
     15          8           0       -2.684299   -1.144101    0.126275
     16          8           0       -2.773000    1.128359   -0.097684
 ---------------------------------------------------------------------

 SCF Done:  E(RHF) =  -491.576556511     A.U. after    2 cycles

 The electronic state is 1-A.
 Alpha  occ. eigenvalues --  -21.10230 -21.03915 -15.78801 -15.77427 -11.52670
 Alpha  occ. eigenvalues --  -11.51614 -11.47724 -11.45030 -11.44320 -11.40081
 Alpha  occ. eigenvalues --   -1.80929  -1.65311  -1.49571  -1.37395  -1.19122
 Alpha  occ. eigenvalues --   -1.12036  -0.93584  -0.92852  -0.80682  -0.74460
 Alpha  occ. eigenvalues --   -0.70890  -0.68924  -0.63807  -0.61879  -0.60307
 Alpha  occ. eigenvalues --   -0.59147  -0.54513  -0.52225  -0.50345  -0.46722
 Alpha  occ. eigenvalues --   -0.44704  -0.39464  -0.38655  -0.32928  -0.29717
 Alpha  occ. eigenvalues --   -0.28669
 Alpha virt. eigenvalues --    0.02483   0.04183   0.04260   0.06536   0.07044
 Alpha virt. eigenvalues --    0.08132   0.08499   0.09082   0.10112   0.10370
 Alpha virt. eigenvalues --    0.11677   0.12029   0.12187   0.12594   0.13341

 Mulliken charges:
               1
     1  C    2.506883
     2  C   -0.837553
     3  C   -0.775777
     4  C    1.568250
     5  C   -0.655471
     6  C    4.903414
     7  H    0.681542
     8  H    0.629449
     9  H    1.582343
    10  H    1.759060
    11  H    1.625431
    12  H    1.164167
    13  N   -3.988031
    14  N   -3.670638
    15  O   -3.199606
    16  O   -3.293465
 Sum of Mulliken charges =   0.00000

 Dipole moment (field-independent basis, Debye):
    X=              5.7635    Y=             -0.0871    Z=              0.7008  Tot=              5.8066

 Test job not archived.
 1\1\GINC-SE127\SP\RHF\Aug-CC-pVDZ\C6H6N2O2\OHZDE\08-Apr-2025\0\\#t hf
 aug-cc-pvdz iop(5/13=1,5/36=2,99/5=2) pseudo=read geom=check guess=(re
 ad,tcheck) scf=(maxcycle=1)\\title\\0,1\C,0,2.04269,-0.0521886,0.01138
 67\C,0,1.41932,1.18307,0.0867732\C,0,0.0470909,1.27482,0.0549939\C,0,-
 0.685906,0.0910455,-0.0707378\C,0,1.20783,-1.18763,-0.00947941\C,0,-2.
 17775,0.089594,-0.0120853\H,0,3.92212,-0.955087,0.159881\H,0,3.92606,0
 .755727,0.217518\H,0,2.09792,2.02345,0.00662092\H,0,-0.361019,2.26334,
 0.117603\H,0,1.70833,-2.17723,-0.10095\H,0,-1.88913,-1.74209,0.187921\

 Normal termination of Gaussian 16 at Tue Apr  8 19:31:46 2025.
