 Gaussian 16, Revision C.01,

 ----------------------------------------------------------------------
 #t hf aug-cc-pvdz symm=none int=(grid=ultrafine) guess=(read,tcheck) s
 table=(opt,rrhf)
 ----------------------------------------------------------------------
 -----
 title
 -----
 Symbolic Z-matrix:
 Charge =  0 Multiplicity = 1

 SCF Done:  E(RHF) =  -239.966037994     A.U. after   13 cycles
 Normal termination of Gaussian 16 at Tue Apr  8 21:13:21 2025.
 Gaussian 16:  ES64L-G16RevC.01  3-Jul-2019

 ----------------------------------------------------------------------
 #t hf aug-cc-pvdz iop(5/13=1,5/36=2,99/5=2) pseudo=read geom=check gue
 ss=(read,tcheck) scf=(maxcycle=1)
 ----------------------------------------------------------------------
 -----
 title
 -----
 Structure from the checkpoint file:  "ANI1ccx_1874_conf9_mol1.chk"
 Charge =  0 Multiplicity = 1

                         Standard orientation:
 ---------------------------------------------------------------------
 Center     Atomic      Atomic             Coordinates (Angstroms)
 Number     Number       Type             X           Y           Z
 ---------------------------------------------------------------------
      1          1           0        0.530400    1.007310   -0.199838
      2          1           0        2.459701   -0.813626   -0.380473
      3          1           0        1.587521   -0.939810    1.019860
      4          7           0       -1.809519   -0.192668   -0.535005
      5          7           0       -2.027939    0.095856    0.498927
      6          7           0        1.510461   -0.629586    0.007342
      7          8           0        1.463921    0.728864   -0.029799
 ---------------------------------------------------------------------

 SCF Done:  E(RHF) =  -240.988206483     A.U. after    2 cycles

 The electronic state is 1-A.
 Alpha  occ. eigenvalues --  -21.08117 -15.87800 -15.87663 -15.77072  -1.78545
 Alpha  occ. eigenvalues --   -1.57316  -1.13474  -0.79274  -0.66956  -0.60345
 Alpha  occ. eigenvalues --   -0.58669  -0.58449  -0.57958  -0.55955  -0.36793
 Alpha  occ. eigenvalues --   -0.30708
 Alpha virt. eigenvalues --    0.04781   0.06380   0.06739   0.11011   0.13197
 Alpha virt. eigenvalues --    0.13614   0.14042   0.15174   0.16458   0.17673
 Alpha virt. eigenvalues --    0.18662   0.21331   0.22286   0.22502   0.24127

 Mulliken charges:
               1
     1  H    0.861518
     2  H    0.746751
     3  H    0.686798
     4  N    0.077157
     5  N   -0.050353
     6  N    0.032108
     7  O   -2.353979
 Sum of Mulliken charges =  -0.00000

 Dipole moment (field-independent basis, Debye):
    X=              0.2969    Y=             -0.3391    Z=              0.4690  Tot=              0.6505

 Test job not archived.
 1\1\GINC-SE150\SP\RHF\Aug-CC-pVDZ\H3N3O1\OHZDE\08-Apr-2025\0\\#t hf au
 g-cc-pvdz iop(5/13=1,5/36=2,99/5=2) pseudo=read geom=check guess=(read
 ,tcheck) scf=(maxcycle=1)\\title\\0,1\H,0,0.530399,1.00731,-0.199838\H
 ,0,2.4597,-0.813626,-0.380473\H,0,1.58752,-0.93981,1.01986\N,0,-1.8095
 2,-0.192668,-0.535005\N,0,-2.02794,0.0958563,0.498927\N,0,1.51046,-0.6
 29586,0.00734147\O,0,1.46392,0.728864,-0.0297994\\Version=ES64L-G16Rev
 C.01\State=1-A\HF=-240.9882065\RMSD=9.430e-02\Dipole=0.1167982,-0.1334
 108,0.1845302\Quadrupole=1.713143,-0.8862379,-0.826905,-2.1029361,0.39

 Normal termination of Gaussian 16 at Tue Apr  8 21:13:23 2025.
