 Gaussian 16, Revision C.01,

 ----------------------------------------------------------------------
 #t hf aug-cc-pvdz symm=none int=(grid=ultrafine) guess=(read,tcheck) s
 table=(opt,rrhf)
 ----------------------------------------------------------------------
 -----
 title
 -----
 Symbolic Z-matrix:
 Charge =  0 Multiplicity = 1

 SCF Done:  E(RHF) =  -218.966530478     A.U. after   13 cycles
 Normal termination of Gaussian 16 at Tue Apr  8 21:12:18 2025.
 Gaussian 16:  ES64L-G16RevC.01  3-Jul-2019

 ----------------------------------------------------------------------
 #t hf aug-cc-pvdz iop(5/13=1,5/36=2,99/5=2) pseudo=read geom=check gue
 ss=(read,tcheck) scf=(maxcycle=1)
 ----------------------------------------------------------------------
 -----
 title
 -----
 Structure from the checkpoint file:  "ANI1ccx_1861_conf12_mol2.chk"
 Charge =  0 Multiplicity = 1

                         Standard orientation:
 ---------------------------------------------------------------------
 Center     Atomic      Atomic             Coordinates (Angstroms)
 Number     Number       Type             X           Y           Z
 ---------------------------------------------------------------------
      1          1           0       -2.711510    1.011450    0.225043
      2          1           0       -0.807255    0.394501    0.464882
      3          7           0       -2.605990    0.028423   -0.100990
      4          7           0       -1.423800   -0.346207    0.040165
      5          7           0        2.517270   -0.432639    0.021586
      6          7           0        2.015200    0.549573   -0.059322
 ---------------------------------------------------------------------

 SCF Done:  E(RHF) =  -219.894157901     A.U. after    2 cycles

 The electronic state is 1-A.
 Alpha  occ. eigenvalues --  -15.88252 -15.88006 -15.81807 -15.81216  -1.56905
 Alpha  occ. eigenvalues --   -1.50315  -0.96148  -0.79883  -0.72877  -0.58824
 Alpha  occ. eigenvalues --   -0.58234  -0.58151  -0.52644  -0.49380  -0.37695
 Alpha virt. eigenvalues --    0.04178   0.06732   0.10490   0.11331   0.12571
 Alpha virt. eigenvalues --    0.13148   0.14669   0.15081   0.15954   0.17442
 Alpha virt. eigenvalues --    0.18187   0.19107   0.20746   0.21722   0.22077

 Mulliken charges:
               1
     1  H    0.691738
     2  H    0.640473
     3  N   -0.744973
     4  N   -0.610660
     5  N    0.027713
     6  N   -0.004291
 Sum of Mulliken charges =   0.00000

 Dipole moment (field-independent basis, Debye):
    X=              0.6808    Y=              2.0799    Z=              0.8955  Tot=              2.3646

 Test job not archived.
 1\1\GINC-SE184\SP\RHF\Aug-CC-pVDZ\H2N4\OHZDE\08-Apr-2025\0\\#t hf aug-
 cc-pvdz iop(5/13=1,5/36=2,99/5=2) pseudo=read geom=check guess=(read,t
 check) scf=(maxcycle=1)\\title\\0,1\H,0,-2.71151,1.01145,0.225043\H,0,
 -0.807255,0.394501,0.464882\N,0,-2.60599,0.0284231,-0.10099\N,0,-1.423
 8,-0.346207,0.0401655\N,0,2.51727,-0.432639,0.0215858\N,0,2.0152,0.549
 573,-0.0593219\\Version=ES64L-G16RevC.01\State=1-A\HF=-219.8941579\RMS
 D=1.154e-01\Dipole=0.2678524,0.8182794,0.3522983\Quadrupole=-1.0557801
 ,0.2985781,0.757202,-2.9785098,-1.4033298,0.1399218\PG=C01 [X(H2N4)]\\

 Normal termination of Gaussian 16 at Tue Apr  8 21:12:20 2025.
