 Gaussian 16, Revision C.01,

 ----------------------------------------------------------------------
 #t hf aug-cc-pvdz symm=none int=(grid=ultrafine) guess=(read,tcheck) s
 table=(opt,rrhf)
 ----------------------------------------------------------------------
 -----
 title
 -----
 Symbolic Z-matrix:
 Charge =  0 Multiplicity = 1

 SCF Done:  E(RHF) =  -380.225484454     A.U. after   11 cycles
 Normal termination of Gaussian 16 at Tue Apr  8 21:07:27 2025.
 Gaussian 16:  ES64L-G16RevC.01  3-Jul-2019

 ----------------------------------------------------------------------
 #t hf aug-cc-pvdz iop(5/13=1,5/36=2,99/5=2) pseudo=read geom=check gue
 ss=(read,tcheck) scf=(maxcycle=1)
 ----------------------------------------------------------------------
 -----
 title
 -----
 Structure from the checkpoint file:  "ANI1ccx_1843_conf73_mol1.chk"
 Charge =  0 Multiplicity = 1

                         Standard orientation:
 ---------------------------------------------------------------------
 Center     Atomic      Atomic             Coordinates (Angstroms)
 Number     Number       Type             X           Y           Z
 ---------------------------------------------------------------------
      1          1           0        0.932690    1.818383   -0.001893
      2          1           0        2.123433    2.010257    0.915061
      3          1           0       -1.562454    1.284963    0.042919
      4          1           0       -1.270320    2.742634   -0.518984
      5          1           0       -3.074278   -0.264240   -0.704464
      6          1           0       -1.797786   -0.732444    0.026720
      7          1           0        0.363824   -1.840679    0.089870
      8          1           0       -0.794168   -2.487594    0.954252
      9          1           0        2.081892   -0.309992    0.001685
     10          1           0        2.617676   -1.409011   -0.904141
     11          8           0        1.849675    1.475146    0.143556
     12          8           0       -0.773063    1.957496   -0.117454
     13          8           0       -2.551189   -0.110942    0.094144
     14          8           0       -0.552524   -2.153183    0.033391
     15          8           0        2.074536   -1.270053   -0.141264
 ---------------------------------------------------------------------

 SCF Done:  E(RHF) =  -381.872902621     A.U. after    2 cycles

 The electronic state is 1-A.
 Alpha  occ. eigenvalues --  -21.09775 -21.07940 -21.07876 -21.07434 -21.07290
 Alpha  occ. eigenvalues --   -1.68457  -1.66810  -1.65352  -1.63334  -1.62098
 Alpha  occ. eigenvalues --   -0.65083  -0.63715  -0.62861  -0.62632  -0.61043
 Alpha  occ. eigenvalues --   -0.51718  -0.50225  -0.45885  -0.44391  -0.40752
 Alpha  occ. eigenvalues --   -0.36030  -0.34688  -0.34472  -0.34206  -0.33626
 Alpha virt. eigenvalues --    0.03715   0.05115   0.05310   0.06103   0.06301
 Alpha virt. eigenvalues --    0.08415   0.09402   0.09501   0.10881   0.11316
 Alpha virt. eigenvalues --    0.18864   0.19301   0.20825   0.21300   0.21688

 Mulliken charges:
               1
     1  H    1.574289
     2  H    0.816540
     3  H    1.406228
     4  H    0.801830
     5  H    0.720057
     6  H    1.457711
     7  H    1.513452
     8  H    0.747397
     9  H    1.450162
    10  H    0.829029
    11  O   -2.277175
    12  O   -2.389203
    13  O   -2.202539
    14  O   -2.161412
    15  O   -2.286366
 Sum of Mulliken charges =  -0.00000

 Dipole moment (field-independent basis, Debye):
    X=             -0.4573    Y=              0.5170    Z=             -0.3417  Tot=              0.7702

 Test job not archived.
 1\1\GINC-SE090\SP\RHF\Aug-CC-pVDZ\H10O5\OHZDE\08-Apr-2025\0\\#t hf aug
 -cc-pvdz iop(5/13=1,5/36=2,99/5=2) pseudo=read geom=check guess=(read,
 tcheck) scf=(maxcycle=1)\\title\\0,1\H,0,0.932696,1.81838,-0.0018927\H
 ,0,2.12344,2.01025,0.915061\H,0,-1.56245,1.28497,0.0429194\H,0,-1.2703
 1,2.74264,-0.518984\H,0,-3.07428,-0.264227,-0.704464\H,0,-1.79779,-0.7
 32436,0.0267203\H,0,0.363816,-1.84068,0.0898699\H,0,-0.794179,-2.48759
 ,0.954252\H,0,2.08189,-0.309999,0.00168525\H,0,2.61767,-1.40902,-0.904
 141\O,0,1.84968,1.47514,0.143556\O,0,-0.773056,1.9575,-0.117454\O,0,-2

 Normal termination of Gaussian 16 at Tue Apr  8 21:07:30 2025.
