 Gaussian 16, Revision C.01,

 ----------------------------------------------------------------------
 #t hf aug-cc-pvdz symm=none int=(grid=ultrafine) guess=(read,tcheck) s
 table=(opt,rrhf)
 ----------------------------------------------------------------------
 -----
 title
 -----
 Symbolic Z-matrix:
 Charge =  0 Multiplicity = 1

 SCF Done:  E(RHF) =  -350.926049310     A.U. after   14 cycles
 Normal termination of Gaussian 16 at Tue Apr  8 21:46:56 2025.
 Gaussian 16:  ES64L-G16RevC.01  3-Jul-2019

 ----------------------------------------------------------------------
 #t hf aug-cc-pvdz iop(5/13=1,5/36=2,99/5=2) pseudo=read geom=check gue
 ss=(read,tcheck) scf=(maxcycle=1)
 ----------------------------------------------------------------------
 -----
 title
 -----
 Structure from the checkpoint file:  "ANI1ccx_542_conf4_mol2.chk"
 Charge =  0 Multiplicity = 1

                         Standard orientation:
 ---------------------------------------------------------------------
 Center     Atomic      Atomic             Coordinates (Angstroms)
 Number     Number       Type             X           Y           Z
 ---------------------------------------------------------------------
      1          6           0       -1.080430   -0.030445    0.006183
      2          6           0        1.074110   -0.026435   -0.012403
      3          1           0       -3.036460    0.275177    0.144573
      4          1           0       -2.645980   -1.134960   -0.674961
      5          1           0        2.655030   -0.920089    0.830107
      6          1           0        3.053420    0.237013   -0.211488
      7          1           0        0.029630   -1.868430   -0.097200
      8          7           0       -2.379500   -0.498456    0.096346
      9          7           0       -0.702405    1.208160   -0.026608
     10          7           0        0.693983    1.220780    0.013856
     11          7           0        2.388220   -0.522198   -0.082279
     12          7           0       -0.002828   -0.872203    0.005299
 ---------------------------------------------------------------------

 SCF Done:  E(RHF) =  -352.511810860     A.U. after    2 cycles

 The electronic state is 1-A.
 Alpha  occ. eigenvalues --  -15.80169 -15.77600 -15.77527 -15.72364 -15.71700
 Alpha  occ. eigenvalues --  -11.47343 -11.44242  -1.64078  -1.38996  -1.34815
 Alpha  occ. eigenvalues --   -1.29688  -1.10595  -0.85409  -0.84507  -0.73254
 Alpha  occ. eigenvalues --   -0.69020  -0.67222  -0.61088  -0.59539  -0.56535
 Alpha  occ. eigenvalues --   -0.47794  -0.43259  -0.41240  -0.38944  -0.36527
 Alpha  occ. eigenvalues --   -0.28625
 Alpha virt. eigenvalues --    0.02957   0.04297   0.05154   0.06206   0.07014
 Alpha virt. eigenvalues --    0.10767   0.10884   0.12008   0.12759   0.13905
 Alpha virt. eigenvalues --    0.14611   0.15234   0.16991   0.17621   0.17832

 Mulliken charges:
               1
     1  C    4.292402
     2  C    4.242816
     3  H    0.578923
     4  H    0.545047
     5  H    0.527226
     6  H    0.592114
     7  H    0.792568
     8  N   -2.820389
     9  N   -1.810967
    10  N   -1.812224
    11  N   -2.782574
    12  N   -2.344943
 Sum of Mulliken charges =  -0.00000

 Dipole moment (field-independent basis, Debye):
    X=             -0.1572    Y=             -4.2876    Z=             -0.1143  Tot=              4.2920

 Test job not archived.
 1\1\GINC-SE453\SP\RHF\Aug-CC-pVDZ\C2H5N5\OHZDE\08-Apr-2025\0\\#t hf au
 g-cc-pvdz iop(5/13=1,5/36=2,99/5=2) pseudo=read geom=check guess=(read
 ,tcheck) scf=(maxcycle=1)\\title\\0,1\C,0,-1.08043,-0.030445,0.0061829
 \C,0,1.07411,-0.0264347,-0.0124027\H,0,-3.03646,0.275177,0.144573\H,0,
 -2.64598,-1.13496,-0.674961\H,0,2.65503,-0.920089,0.830107\H,0,3.05342
 ,0.237014,-0.211488\H,0,0.0296303,-1.86843,-0.0971999\N,0,-2.3795,-0.4
 98456,0.0963455\N,0,-0.702405,1.20816,-0.0266085\N,0,0.693983,1.22078,
 0.0138556\N,0,2.38822,-0.522198,-0.0822792\N,0,-0.00282805,-0.872203,0

 Normal termination of Gaussian 16 at Tue Apr  8 21:47:00 2025.
