 Gaussian 16, Revision C.01,

 ----------------------------------------------------------------------
 #t hf aug-cc-pvdz symm=none int=(grid=ultrafine) guess=(read,tcheck) s
 table=(opt,rrhf)
 ----------------------------------------------------------------------
 -----
 title
 -----
 Symbolic Z-matrix:
 Charge =  0 Multiplicity = 1

 SCF Done:  E(RHF) =  -539.052989626     A.U. after   16 cycles
 Normal termination of Gaussian 16 at Tue Apr  8 21:42:57 2025.
 Gaussian 16:  ES64L-G16RevC.01  3-Jul-2019

 ----------------------------------------------------------------------
 #t hf aug-cc-pvdz iop(5/13=1,5/36=2,99/5=2) pseudo=read geom=check gue
 ss=(read,tcheck) scf=(maxcycle=1)
 ----------------------------------------------------------------------
 -----
 title
 -----
 Structure from the checkpoint file:  "ANI1ccx_475_conf2_mol1.chk"
 Charge =  0 Multiplicity = 1

                         Standard orientation:
 ---------------------------------------------------------------------
 Center     Atomic      Atomic             Coordinates (Angstroms)
 Number     Number       Type             X           Y           Z
 ---------------------------------------------------------------------
      1          6           0        1.655370   -0.285534    0.033343
      2          6           0       -1.895260   -0.124941    0.103946
      3          1           0        3.405700    0.590359    0.161507
      4          7           0        0.309426    0.080032   -0.062306
      5          7           0       -0.167249    1.329011   -0.233634
      6          7           0       -1.456000    1.229271   -0.161810
      7          8           0        2.432870    0.861177    0.311068
      8          8           0        2.136230   -1.403989   -0.252606
      9          8           0       -2.960970   -0.660191    0.110270
     10          8           0       -0.704330   -0.871460    0.108645
 ---------------------------------------------------------------------

 SCF Done:  E(RHF) =  -541.267203447     A.U. after    2 cycles

 The electronic state is 1-A.
 Alpha  occ. eigenvalues --  -21.19756 -21.16881 -21.11401 -21.10991 -15.93588
 Alpha  occ. eigenvalues --  -15.90486 -15.84221 -11.61782 -11.58211  -2.00016
 Alpha  occ. eigenvalues --   -1.83980  -1.75122  -1.69063  -1.61655  -1.37683
 Alpha  occ. eigenvalues --   -1.06381  -0.91416  -0.87090  -0.76020  -0.71724
 Alpha  occ. eigenvalues --   -0.66646  -0.63497  -0.60770  -0.57497  -0.54215
 Alpha  occ. eigenvalues --   -0.52859  -0.51001  -0.48630  -0.47410  -0.38615
 Alpha  occ. eigenvalues --   -0.35360  -0.34980  -0.32371
 Alpha virt. eigenvalues --    0.03238   0.05931   0.07716   0.09701   0.10214
 Alpha virt. eigenvalues --    0.10710   0.11003   0.11370   0.12279   0.12620
 Alpha virt. eigenvalues --    0.14574   0.14977   0.16830   0.16878   0.17836

 Mulliken charges:
               1
     1  C    5.325710
     2  C    5.117550
     3  H    0.767605
     4  N    0.624017
     5  N   -0.132889
     6  N   -1.268705
     7  O   -2.325026
     8  O   -2.497265
     9  O   -2.688176
    10  O   -2.922821
 Sum of Mulliken charges =  -0.00000

 Dipole moment (field-independent basis, Debye):
    X=              2.8996    Y=             -0.1411    Z=              0.3130  Tot=              2.9198

 Test job not archived.
 1\1\GINC-SE339\SP\RHF\Aug-CC-pVDZ\C2H1N3O4\OHZDE\08-Apr-2025\0\\#t hf
 aug-cc-pvdz iop(5/13=1,5/36=2,99/5=2) pseudo=read geom=check guess=(re
 ad,tcheck) scf=(maxcycle=1)\\title\\0,1\C,0,1.65537,-0.285535,0.033343
 1\C,0,-1.89526,-0.124942,0.103946\H,0,3.4057,0.590357,0.161507\N,0,0.3
 09426,0.0800306,-0.0623064\N,0,-0.167249,1.32901,-0.233634\N,0,-1.456,
 1.22927,-0.16181\O,0,2.43287,0.861176,0.311068\O,0,2.13623,-1.40399,-0
 .252606\O,0,-2.96097,-0.660192,0.11027\O,0,-0.70433,-0.871461,0.108645
 \\Version=ES64L-G16RevC.01\State=1-A\HF=-541.2672034\RMSD=7.357e-02\Di

 Normal termination of Gaussian 16 at Tue Apr  8 21:43:01 2025.
