 Gaussian 16, Revision C.01,

 ----------------------------------------------------------------------
 #t hf aug-cc-pvdz symm=none int=(grid=ultrafine) guess=(read,tcheck) s
 table=(opt,rrhf)
 ----------------------------------------------------------------------
 -----
 title
 -----
 Symbolic Z-matrix:
 Charge =  0 Multiplicity = 1

 SCF Done:  E(RHF) =  -432.535976218     A.U. after   15 cycles
 Normal termination of Gaussian 16 at Tue Apr  8 21:46:58 2025.
 Gaussian 16:  ES64L-G16RevC.01  3-Jul-2019

 ----------------------------------------------------------------------
 #t hf aug-cc-pvdz iop(5/13=1,5/36=2,99/5=2) pseudo=read geom=check gue
 ss=(read,tcheck) scf=(maxcycle=1)
 ----------------------------------------------------------------------
 -----
 title
 -----
 Structure from the checkpoint file:  "ANI1ccx_535_conf2_mol1.chk"
 Charge =  0 Multiplicity = 1

                         Standard orientation:
 ---------------------------------------------------------------------
 Center     Atomic      Atomic             Coordinates (Angstroms)
 Number     Number       Type             X           Y           Z
 ---------------------------------------------------------------------
      1          6           0       -1.550550   -0.300520    0.043116
      2          6           0        0.080292    1.238670    0.173360
      3          1           0        4.142780    0.383514   -0.187505
      4          1           0        2.718180   -0.330508    0.000741
      5          1           0        0.052690   -1.751930    0.424819
      6          1           0        0.114180    1.328570    1.241110
      7          1           0        0.350276    2.089740   -0.373075
      8          7           0       -0.350609   -0.922057    0.011615
      9          8           0        3.662940   -0.443146    0.018234
     10          8           0       -2.642650   -0.762566   -0.012331
     11          8           0        0.742443    0.055128   -0.182055
     12          8           0       -1.275520    1.038849   -0.134629
 ---------------------------------------------------------------------

 SCF Done:  E(RHF) =  -434.324428694     A.U. after    2 cycles

 The electronic state is 1-A.
 Alpha  occ. eigenvalues --  -21.13686 -21.11576 -21.08828 -21.06649 -15.84078
 Alpha  occ. eigenvalues --  -11.56514 -11.49338  -1.96545  -1.77743  -1.69283
 Alpha  occ. eigenvalues --   -1.65107  -1.32193  -0.99613  -0.89846  -0.76324
 Alpha  occ. eigenvalues --   -0.71872  -0.65157  -0.63018  -0.59837  -0.58617
 Alpha  occ. eigenvalues --   -0.52709  -0.48383  -0.45089  -0.41988  -0.35282
 Alpha  occ. eigenvalues --   -0.34720  -0.32552  -0.31356
 Alpha virt. eigenvalues --    0.02936   0.04691   0.04761   0.05365   0.08563
 Alpha virt. eigenvalues --    0.09115   0.10420   0.11301   0.12160   0.13057
 Alpha virt. eigenvalues --    0.13473   0.15237   0.15925   0.16550   0.17283

 Mulliken charges:
               1
     1  C    5.819913
     2  C   -0.478056
     3  H    0.819855
     4  H    1.419291
     5  H    0.792945
     6  H    1.584762
     7  H    1.568737
     8  N   -0.949404
     9  O   -2.147977
    10  O   -3.085200
    11  O   -2.582763
    12  O   -2.762102
 Sum of Mulliken charges =   0.00000

 Dipole moment (field-independent basis, Debye):
    X=              1.5583    Y=              1.5164    Z=              0.4596  Tot=              2.2224

 Test job not archived.
 1\1\GINC-SE221\SP\RHF\Aug-CC-pVDZ\C2H5N1O4\OHZDE\08-Apr-2025\0\\#t hf
 aug-cc-pvdz iop(5/13=1,5/36=2,99/5=2) pseudo=read geom=check guess=(re
 ad,tcheck) scf=(maxcycle=1)\\title\\0,1\C,0,-1.55055,-0.300519,0.04311
 56\C,0,0.0802924,1.23867,0.17336\H,0,4.14278,0.383513,-0.187505\H,0,2.
 71818,-0.330509,0.00074112\H,0,0.0526898,-1.75193,0.424819\H,0,0.11418
 ,1.32857,1.24111\H,0,0.350277,2.08974,-0.373075\N,0,-0.350609,-0.92205
 7,0.0116152\O,0,3.66294,-0.443147,0.0182342\O,0,-2.64265,-0.762565,-0.
 0123315\O,0,0.742443,0.0551278,-0.182055\O,0,-1.27552,1.03885,-0.13462

 Normal termination of Gaussian 16 at Tue Apr  8 21:47:02 2025.
