 Gaussian 16, Revision C.01,

 ----------------------------------------------------------------------
 #t hf aug-cc-pvdz symm=none int=(grid=ultrafine) guess=(read,tcheck) s
 table=(opt,rrhf)
 ----------------------------------------------------------------------
 -----
 title
 -----
 Symbolic Z-matrix:
 Charge =  0 Multiplicity = 1

 SCF Done:  E(RHF) =  -456.264633128     A.U. after   11 cycles
 Normal termination of Gaussian 16 at Tue Apr  8 21:07:37 2025.
 Gaussian 16:  ES64L-G16RevC.01  3-Jul-2019

 ----------------------------------------------------------------------
 #t hf aug-cc-pvdz iop(5/13=1,5/36=2,99/5=2) pseudo=read geom=check gue
 ss=(read,tcheck) scf=(maxcycle=1)
 ----------------------------------------------------------------------
 -----
 title
 -----
 Structure from the checkpoint file:  "ANI1ccx_1844_conf139_mol1.chk"
 Charge =  0 Multiplicity = 1

                         Standard orientation:
 ---------------------------------------------------------------------
 Center     Atomic      Atomic             Coordinates (Angstroms)
 Number     Number       Type             X           Y           Z
 ---------------------------------------------------------------------
      1          1           0        1.994259    1.119250    0.011350
      2          1           0        0.071773    2.204270   -0.015882
      3          1           0       -1.056590    2.946638   -0.735600
      4          1           0       -3.127714    0.476725    0.945670
      5          1           0       -2.035191    1.154588    0.042750
      6          1           0        0.923014   -2.813391    0.949076
      7          1           0        1.922086    2.367099    0.858660
      8          1           0       -0.027637   -2.313281   -0.083587
      9          1           0       -2.024515   -2.339942   -0.950518
     10          1           0       -1.928778   -1.124671    0.048414
     11          1           0        1.957073   -1.178771   -0.017728
     12          1           0        3.258517   -0.595726   -0.663510
     13          8           0       -2.767424    0.483014   -0.007585
     14          8           0       -1.644978   -2.065728   -0.039996
     15          8           0       -0.912232    2.442870    0.038869
     16          8           0        0.935251   -2.454741    0.008644
     17          8           0        1.770109    2.067047   -0.091615
     18          8           0        2.628486   -0.460311    0.043047
 ---------------------------------------------------------------------

 SCF Done:  E(RHF) =  -458.254530576     A.U. after    2 cycles

 The electronic state is 1-A.
 Alpha  occ. eigenvalues --  -21.08852 -21.08337 -21.08216 -21.07891 -21.07731
 Alpha  occ. eigenvalues --  -21.07543  -1.69372  -1.67834  -1.66970  -1.64045
 Alpha  occ. eigenvalues --   -1.63509  -1.62543  -0.66015  -0.64460  -0.63605
 Alpha  occ. eigenvalues --   -0.62412  -0.61995  -0.61888  -0.53524  -0.51311
 Alpha  occ. eigenvalues --   -0.50328  -0.45083  -0.44071  -0.41660  -0.35447
 Alpha  occ. eigenvalues --   -0.35033  -0.34547  -0.34418  -0.34323  -0.32981
 Alpha virt. eigenvalues --    0.04023   0.05086   0.05220   0.05872   0.06153
 Alpha virt. eigenvalues --    0.06317   0.09083   0.09312   0.09482   0.10649
 Alpha virt. eigenvalues --    0.10969   0.11046   0.17094   0.19009   0.20390

 Mulliken charges:
               1
     1  H    1.649637
     2  H    1.543354
     3  H    0.758017
     4  H    0.690339
     5  H    1.620520
     6  H    0.744138
     7  H    0.673957
     8  H    1.633187
     9  H    0.722036
    10  H    1.500704
    11  H    1.685594
    12  H    0.760173
    13  O   -2.174914
    14  O   -2.388574
    15  O   -2.378218
    16  O   -2.455830
    17  O   -2.223075
    18  O   -2.361046
 Sum of Mulliken charges =  -0.00000

 Dipole moment (field-independent basis, Debye):
    X=             -0.0992    Y=             -0.2056    Z=             -0.1697  Tot=              0.2845

 Test job not archived.
 1\1\GINC-SE365\SP\RHF\Aug-CC-pVDZ\H12O6\OHZDE\08-Apr-2025\0\\#t hf aug
 -cc-pvdz iop(5/13=1,5/36=2,99/5=2) pseudo=read geom=check guess=(read,
 tcheck) scf=(maxcycle=1)\\title\\0,1\H,0,1.99427,1.11923,0.0113503\H,0
 ,0.0717952,2.20427,-0.0158819\H,0,-1.05656,2.94665,-0.7356\H,0,-3.1277
 1,0.476758,0.94567\H,0,-2.03518,1.15461,0.0427495\H,0,0.922984,-2.8134
 ,0.949076\H,0,1.92211,2.36708,0.85866\H,0,-0.0276614,-2.31328,-0.08358
 72\H,0,-2.02454,-2.33992,-0.950518\H,0,-1.92879,-1.12465,0.0484138\H,0
 ,1.95706,-1.17879,-0.0177277\H,0,3.25851,-0.595759,-0.66351\O,0,-2.767

 Normal termination of Gaussian 16 at Tue Apr  8 21:07:41 2025.
