 Gaussian 16, Revision C.01,

 ----------------------------------------------------------------------
 #t hf aug-cc-pvdz symm=none int=(grid=ultrafine) guess=(read,tcheck) s
 table=(opt,rrhf)
 ----------------------------------------------------------------------
 -----
 title
 -----
 Symbolic Z-matrix:
 Charge =  0 Multiplicity = 1

 SCF Done:  E(RHF) =  -979.134184089     A.U. after   14 cycles
 Normal termination of Gaussian 16 at Tue Apr  8 21:48:05 2025.
 Gaussian 16:  ES64L-G16RevC.01  3-Jul-2019

 ----------------------------------------------------------------------
 #t hf aug-cc-pvdz iop(5/13=1,5/36=2,99/5=2) pseudo=read geom=check gue
 ss=(read,tcheck) scf=(maxcycle=1)
 ----------------------------------------------------------------------
 -----
 title
 -----
 Structure from the checkpoint file:  "ANI1ccx_36_conf17_mol2.chk"
 Charge =  0 Multiplicity = 1

                         Standard orientation:
 ---------------------------------------------------------------------
 Center     Atomic      Atomic             Coordinates (Angstroms)
 Number     Number       Type             X           Y           Z
 ---------------------------------------------------------------------
      1          6           0       -3.046031   -0.511187    0.135833
      2          6           0        2.070442    2.629209    0.253873
      3          6           0        1.902240    0.690992   -0.627608
      4          6           0        1.268119   -0.436344   -1.439150
      5          6           0        1.498978   -2.117031    0.471346
      6          6           0        3.079330    0.717619   -0.038037
      7          6           0       -1.875439    1.678152    0.233134
      8          6           0       -3.209319    0.986346   -0.050302
      9          6           0       -1.833241   -1.081388   -0.641436
     10          6           0        0.562612   -1.509170   -0.574761
     11          1           0        2.014319   -0.967723   -2.050080
     12          1           0        3.077037   -3.181962    0.637111
     13          1           0        3.946312    2.322177    1.089720
     14          1           0        1.738383    3.592659    0.683128
     15          1           0        3.910420   -0.002313    0.057761
     16          1           0        0.567171   -0.018866   -2.190280
     17          1           0        0.273290   -2.352120   -1.234600
     18          1           0       -0.574206   -0.613757    0.917724
     19          1           0       -0.389495    2.338601   -0.680578
     20          1           0       -3.969889    1.427764    0.622907
     21          1           0       -3.511069    1.171833   -1.085700
     22          1           0       -3.966581   -1.001756   -0.246584
     23          1           0       -2.344521   -0.329442    2.091170
     24          1           0       -2.857232   -1.880287    1.739130
     25          7           0       -2.994931   -0.884772    1.560740
     26          7           0       -0.652633   -1.074989    0.011416
     27          7           0        1.238121    1.898839   -0.474613
     28          7           0        3.184691    1.957538    0.552711
     29          8           0       -1.974791   -1.516208   -1.765070
     30          8           0       -1.299259    1.628251    1.272020
     31          8           0       -1.354598    2.222271   -0.873783
     32          8           0        1.363778   -2.047121    1.649330
     33          8           0        2.534017   -2.795232   -0.062487
 ---------------------------------------------------------------------

 SCF Done:  E(RHF) =  -983.457837206     A.U. after    2 cycles

 The electronic state is 1-A.
 Alpha  occ. eigenvalues --  -21.13315 -21.07705 -21.06599 -21.03806 -21.01896
 Alpha  occ. eigenvalues --  -15.82409 -15.75583 -15.73511 -15.72242 -11.55829
 Alpha  occ. eigenvalues --  -11.52870 -11.52139 -11.49820 -11.47644 -11.45943
 Alpha  occ. eigenvalues --  -11.45426 -11.44256 -11.40605 -11.39828  -1.84932
 Alpha  occ. eigenvalues --   -1.81199  -1.70653  -1.67061  -1.64685  -1.59775
 Alpha  occ. eigenvalues --   -1.42399  -1.33752  -1.29931  -1.18023  -1.13213
 Alpha  occ. eigenvalues --   -1.09355  -0.98986  -0.94258  -0.87340  -0.83941
 Alpha  occ. eigenvalues --   -0.81602  -0.80324  -0.76384  -0.75345  -0.69851
 Alpha  occ. eigenvalues --   -0.68487  -0.66828  -0.64359  -0.63672  -0.62055
 Alpha  occ. eigenvalues --   -0.61484  -0.60372  -0.60061  -0.59088  -0.58076
 Alpha  occ. eigenvalues --   -0.56570  -0.54886  -0.53592  -0.52614  -0.50539
 Alpha  occ. eigenvalues --   -0.50231  -0.48801  -0.46808  -0.46343  -0.45360
 Alpha  occ. eigenvalues --   -0.45014  -0.38955  -0.37543  -0.36811  -0.35586
 Alpha  occ. eigenvalues --   -0.33845  -0.32447  -0.31080  -0.29757  -0.28135
 Alpha  occ. eigenvalues --   -0.26095
 Alpha virt. eigenvalues --    0.02720   0.03863   0.04535   0.05063   0.05673
 Alpha virt. eigenvalues --    0.05982   0.06378   0.06762   0.07087   0.07303
 Alpha virt. eigenvalues --    0.07962   0.08118   0.09232   0.09331   0.10130

 Mulliken charges:
               1
     1  C   -1.296039
     2  C    0.707224
     3  C    5.592451
     4  C   -4.152378
     5  C    7.822172
     6  C   -2.467650
     7  C    7.520532
     8  C   -4.326664
     9  C    6.463502
    10  C   -1.486054
    11  H    1.164566
    12  H    0.978463
    13  H    0.957766
    14  H    1.807335
    15  H    1.293775
    16  H    1.498346
    17  H    1.927570
    18  H    0.873580
    19  H    1.584457
    20  H    1.283538
    21  H    1.435465
    22  H    1.628572
    23  H    0.671913
    24  H    0.654249
    25  N   -3.171977
    26  N   -2.674321
    27  N   -3.985205
    28  N   -3.469360
    29  O   -4.119825
    30  O   -3.558944
    31  O   -4.039619
    32  O   -3.469606
    33  O   -3.647835
 Sum of Mulliken charges =  -0.00000

 Dipole moment (field-independent basis, Debye):
    X=              6.2939    Y=              1.3515    Z=              1.4442  Tot=              6.5974

 Test job not archived.
 1\1\GINC-SE342\SP\RHF\Aug-CC-pVDZ\C10H14N4O5\OHZDE\08-Apr-2025\0\\#t h
 f aug-cc-pvdz iop(5/13=1,5/36=2,99/5=2) pseudo=read geom=check guess=(
 read,tcheck) scf=(maxcycle=1)\\title\\0,1\C,0,-3.04603,-0.51119,0.1358
 33\C,0,2.07044,2.62921,0.253873\C,0,1.90224,0.690993,-0.627608\C,0,1.2
 6812,-0.436343,-1.43915\C,0,1.49898,-2.11703,0.471346\C,0,3.07933,0.71
 7621,-0.0380364\C,0,-1.87544,1.67815,0.233134\C,0,-3.20932,0.986343,-0
 .0503019\C,0,-1.83324,-1.08139,-0.641436\C,0,0.562613,-1.50917,-0.5747
 61\H,0,2.01432,-0.967722,-2.05008\H,0,3.07704,-3.18196,0.637111\H,0,3.

 Normal termination of Gaussian 16 at Tue Apr  8 21:49:03 2025.
