 Gaussian 16, Revision C.01,

 ----------------------------------------------------------------------
 #t hf aug-cc-pvdz symm=none int=(grid=ultrafine) guess=(read,tcheck) s
 table=(opt,rrhf)
 ----------------------------------------------------------------------
 -----
 title
 -----
 Symbolic Z-matrix:
 Charge =  0 Multiplicity = 1

 SCF Done:  E(RHF) =  -428.572608388     A.U. after   14 cycles
 Normal termination of Gaussian 16 at Tue Apr  8 21:39:52 2025.
 Gaussian 16:  ES64L-G16RevC.01  3-Jul-2019

 ----------------------------------------------------------------------
 #t hf aug-cc-pvdz iop(5/13=1,5/36=2,99/5=2) pseudo=read geom=check gue
 ss=(read,tcheck) scf=(maxcycle=1)
 ----------------------------------------------------------------------
 -----
 title
 -----
 Structure from the checkpoint file:  "ANI1ccx_419_conf7_mol1.chk"
 Charge =  0 Multiplicity = 1

                         Standard orientation:
 ---------------------------------------------------------------------
 Center     Atomic      Atomic             Coordinates (Angstroms)
 Number     Number       Type             X           Y           Z
 ---------------------------------------------------------------------
      1          6           0       -0.122107   -0.348985    0.045576
      2          1           0        1.788311    1.527950   -0.112381
      3          1           0       -0.788223    1.475771   -0.185676
      4          1           0       -1.499780   -1.638119    0.187433
      5          1           0       -2.889269    0.513029    0.304389
      6          1           0        2.643820   -1.490420   -0.013691
      7          7           0        0.013684    0.935074   -0.349251
      8          7           0       -1.422060   -0.673107    0.436343
      9          7           0        0.852233   -1.194240    0.130449
     10          8           0        0.972697    1.722850    0.342207
     11          8           0       -2.355280    0.015006   -0.337442
     12          8           0        2.053930   -0.708905   -0.251804
 ---------------------------------------------------------------------

 SCF Done:  E(RHF) =  -430.395060549     A.U. after    2 cycles

 The electronic state is 1-A.
 Alpha  occ. eigenvalues --  -21.12415 -21.09951 -21.09790 -15.80598 -15.78518
 Alpha  occ. eigenvalues --  -15.75269 -11.46556  -1.84768  -1.80766  -1.77358
 Alpha  occ. eigenvalues --   -1.39034  -1.20400  -1.13955  -0.82037  -0.74684
 Alpha  occ. eigenvalues --   -0.67897  -0.66611  -0.61526  -0.58893  -0.56370
 Alpha  occ. eigenvalues --   -0.54400  -0.52663  -0.42809  -0.40461  -0.37943
 Alpha  occ. eigenvalues --   -0.35845  -0.30934  -0.25056
 Alpha virt. eigenvalues --    0.03903   0.05233   0.05978   0.06682   0.07524
 Alpha virt. eigenvalues --    0.11151   0.12622   0.13465   0.14747   0.15310
 Alpha virt. eigenvalues --    0.15874   0.17816   0.18402   0.19039   0.19512

 Mulliken charges:
               1
     1  C    4.875511
     2  H    0.824115
     3  H    0.847593
     4  H    0.659781
     5  H    0.764887
     6  H    0.847914
     7  N   -0.706392
     8  N   -0.529600
     9  N   -0.297138
    10  O   -2.271252
    11  O   -2.300629
    12  O   -2.714789
 Sum of Mulliken charges =  -0.00000

 Dipole moment (field-independent basis, Debye):
    X=             -1.0328    Y=              0.7201    Z=             -0.0011  Tot=              1.2591

 Test job not archived.
 1\1\GINC-SE250\SP\RHF\Aug-CC-pVDZ\C1H5N3O3\OHZDE\08-Apr-2025\0\\#t hf
 aug-cc-pvdz iop(5/13=1,5/36=2,99/5=2) pseudo=read geom=check guess=(re
 ad,tcheck) scf=(maxcycle=1)\\title\\0,1\C,0,-0.122107,-0.348985,0.0455
 761\H,0,1.78831,1.52795,-0.112381\H,0,-0.788224,1.47577,-0.185676\H,0,
 -1.49978,-1.63812,0.187433\H,0,-2.88927,0.513028,0.304389\H,0,2.64382,
 -1.49042,-0.0136909\N,0,0.0136835,0.935074,-0.349251\N,0,-1.42206,-0.6
 73108,0.436343\N,0,0.852233,-1.19424,0.130449\O,0,0.972696,1.72285,0.3
 42207\O,0,-2.35528,0.015005,-0.337442\O,0,2.05393,-0.708905,-0.251804\

 Normal termination of Gaussian 16 at Tue Apr  8 21:39:56 2025.
