 Gaussian 16, Revision C.01,

 ----------------------------------------------------------------------
 #t hf aug-cc-pvdz symm=none int=(grid=ultrafine) guess=(read,tcheck) s
 table=(opt,rrhf)
 ----------------------------------------------------------------------
 -----
 title
 -----
 Symbolic Z-matrix:
 Charge =  0 Multiplicity = 1

 SCF Done:  E(RHF) =  -403.496197771     A.U. after   16 cycles
 Normal termination of Gaussian 16 at Tue Apr  8 21:43:55 2025.
 Gaussian 16:  ES64L-G16RevC.01  3-Jul-2019

 ----------------------------------------------------------------------
 #t hf aug-cc-pvdz iop(5/13=1,5/36=2,99/5=2) pseudo=read geom=check gue
 ss=(read,tcheck) scf=(maxcycle=1)
 ----------------------------------------------------------------------
 -----
 title
 -----
 Structure from the checkpoint file:  "ANI1ccx_490_conf1_mol1.chk"
 Charge =  0 Multiplicity = 1

                         Standard orientation:
 ---------------------------------------------------------------------
 Center     Atomic      Atomic             Coordinates (Angstroms)
 Number     Number       Type             X           Y           Z
 ---------------------------------------------------------------------
      1          6           0       -0.003308   -0.712358    0.095750
      2          6           0        0.012112    0.687104    0.080576
      3          1           0        1.933149   -1.761660    0.056460
      4          1           0       -1.783622    1.863259    0.034646
      5          7           0       -2.075421   -0.141911   -0.092483
      6          7           0       -1.290641   -1.185641    0.052622
      7          7           0        1.335539   -0.971196   -0.078094
      8          7           0        2.039619    0.142461   -0.038966
      9          7           0        1.261128    1.150050    0.016805
     10          7           0       -1.299131    1.013369   -0.024035
 ---------------------------------------------------------------------

 SCF Done:  E(RHF) =  -405.275840127     A.U. after    2 cycles

 The electronic state is 1-A.
 Alpha  occ. eigenvalues --  -15.85157 -15.84600 -15.83350 -15.82778 -15.80189
 Alpha  occ. eigenvalues --  -15.78535 -11.48487 -11.43715  -1.75930  -1.64473
 Alpha  occ. eigenvalues --   -1.37798  -1.31126  -1.21215  -0.96361  -0.90781
 Alpha  occ. eigenvalues --   -0.88347  -0.77276  -0.71452  -0.66799  -0.60357
 Alpha  occ. eigenvalues --   -0.58991  -0.53045  -0.51153  -0.47185  -0.41123
 Alpha  occ. eigenvalues --   -0.39628  -0.35700  -0.33754
 Alpha virt. eigenvalues --    0.03458   0.04918   0.08863   0.09707   0.10841
 Alpha virt. eigenvalues --    0.11369   0.11588   0.11818   0.12067   0.13727
 Alpha virt. eigenvalues --    0.15250   0.15701   0.16597   0.17379   0.17543

 Mulliken charges:
               1
     1  C    3.289977
     2  C    3.916179
     3  H    0.907486
     4  H    0.945723
     5  N   -0.509002
     6  N   -1.855587
     7  N   -1.879584
     8  N   -0.503664
     9  N   -2.078731
    10  N   -2.232797
 Sum of Mulliken charges =   0.00000

 Dipole moment (field-independent basis, Debye):
    X=              0.1391    Y=              0.0058    Z=              0.1475  Tot=              0.2028

 Test job not archived.
 1\1\GINC-SE071\SP\RHF\Aug-CC-pVDZ\C2H2N6\OHZDE\08-Apr-2025\0\\#t hf au
 g-cc-pvdz iop(5/13=1,5/36=2,99/5=2) pseudo=read geom=check guess=(read
 ,tcheck) scf=(maxcycle=1)\\title\\0,1\C,0,-0.00330682,-0.712358,0.0957
 501\C,0,0.0121129,0.687104,0.0805757\H,0,1.93315,-1.76166,0.0564598\H,
 0,-1.78362,1.86326,0.0346463\N,0,-2.07542,-0.14191,-0.0924829\N,0,-1.2
 9064,-1.18564,0.0526216\N,0,1.33554,-0.971196,-0.0780936\N,0,2.03962,0
 .142461,-0.0389663\N,0,1.26113,1.15005,0.0168051\N,0,-1.29913,1.01337,
 -0.0240355\\Version=ES64L-G16RevC.01\State=1-A\HF=-405.2758401\RMSD=3.

 Normal termination of Gaussian 16 at Tue Apr  8 21:43:59 2025.
