 Gaussian 16, Revision C.01,

 ----------------------------------------------------------------------
 #t hf aug-cc-pvdz symm=none int=(grid=ultrafine) guess=(read,tcheck) s
 table=(opt,rrhf)
 ----------------------------------------------------------------------
 -----
 title
 -----
 Symbolic Z-matrix:
 Charge =  0 Multiplicity = 1

 SCF Done:  E(RHF) =  -456.250898423     A.U. after   12 cycles
 Normal termination of Gaussian 16 at Tue Apr  8 21:08:45 2025.
 Gaussian 16:  ES64L-G16RevC.01  3-Jul-2019

 ----------------------------------------------------------------------
 #t hf aug-cc-pvdz iop(5/13=1,5/36=2,99/5=2) pseudo=read geom=check gue
 ss=(read,tcheck) scf=(maxcycle=1)
 ----------------------------------------------------------------------
 -----
 title
 -----
 Structure from the checkpoint file:  "ANI1ccx_1844_conf180_mol1.chk"
 Charge =  0 Multiplicity = 1

                         Standard orientation:
 ---------------------------------------------------------------------
 Center     Atomic      Atomic             Coordinates (Angstroms)
 Number     Number       Type             X           Y           Z
 ---------------------------------------------------------------------
      1          1           0       -2.632939   -0.226492   -0.327986
      2          1           0        2.583599    1.247001   -1.424640
      3          1           0        2.495810    0.065535   -0.495409
      4          1           0       -2.380361    1.769067   -1.098910
      5          1           0       -1.346181    1.534128    0.057109
      6          1           0        0.346867    2.353099    1.289820
      7          1           0       -3.313138   -1.770734   -0.311135
      8          1           0        1.136979    1.519270    0.140663
      9          1           0       -0.040834   -0.307669    1.220810
     10          1           0       -1.078258   -1.302462    0.528171
     11          1           0        1.253372   -1.576590    0.029870
     12          1           0        2.721092   -2.018588    0.304143
     13          8           0       -2.284741    1.297307   -0.253777
     14          8           0       -0.186388   -1.274761    0.999288
     15          8           0        2.499269    1.052231   -0.497255
     16          8           0        0.269405    1.548309    0.686335
     17          8           0       -2.440828   -1.240573   -0.569156
     18          8           0        2.175032   -1.543209   -0.354499
 ---------------------------------------------------------------------

 SCF Done:  E(RHF) =  -458.249335811     A.U. after    2 cycles

 The electronic state is 1-A.
 Alpha  occ. eigenvalues --  -21.09237 -21.09023 -21.08464 -21.07649 -21.04941
 Alpha  occ. eigenvalues --  -21.04419  -1.70258  -1.68108  -1.65666  -1.64285
 Alpha  occ. eigenvalues --   -1.61850  -1.58900  -0.66810  -0.65213  -0.64199
 Alpha  occ. eigenvalues --   -0.63267  -0.62616  -0.60433  -0.53573  -0.49821
 Alpha  occ. eigenvalues --   -0.47083  -0.45759  -0.43289  -0.39658  -0.35915
 Alpha  occ. eigenvalues --   -0.34998  -0.34501  -0.34163  -0.32016  -0.31504
 Alpha virt. eigenvalues --    0.03610   0.04931   0.04982   0.05697   0.05960
 Alpha virt. eigenvalues --    0.07773   0.08382   0.08942   0.09833   0.10164
 Alpha virt. eigenvalues --    0.11309   0.11761   0.17683   0.19060   0.20171

 Mulliken charges:
               1
     1  H    1.535104
     2  H    0.755073
     3  H    1.568150
     4  H    0.768839
     5  H    1.599092
     6  H    0.898052
     7  H    0.830097
     8  H    1.863320
     9  H    1.232416
    10  H    1.496061
    11  H    1.525902
    12  H    0.762570
    13  O   -2.424465
    14  O   -2.731724
    15  O   -2.356635
    16  O   -2.902356
    17  O   -2.076505
    18  O   -2.342990
 Sum of Mulliken charges =  -0.00000

 Dipole moment (field-independent basis, Debye):
    X=              0.5165    Y=              1.6302    Z=             -0.5150  Tot=              1.7859

 Test job not archived.
 1\1\GINC-SE036\SP\RHF\Aug-CC-pVDZ\H12O6\OHZDE\08-Apr-2025\0\\#t hf aug
 -cc-pvdz iop(5/13=1,5/36=2,99/5=2) pseudo=read geom=check guess=(read,
 tcheck) scf=(maxcycle=1)\\title\\0,1\H,0,-2.63294,-0.226489,-0.327986\
 H,0,2.5836,1.247,-1.42464\H,0,2.49581,0.065534,-0.495409\H,0,-2.38036,
 1.76907,-1.09891\H,0,-1.34618,1.53413,0.057109\H,0,0.346869,2.3531,1.2
 8982\H,0,-3.31314,-1.77073,-0.311135\H,0,1.13698,1.51927,0.140663\H,0,
 -0.0408344,-0.307668,1.22081\H,0,-1.07826,-1.30246,0.528171\H,0,1.2533
 7,-1.57659,0.0298701\H,0,2.72109,-2.01859,0.304143\O,0,-2.28474,1.2973

 Normal termination of Gaussian 16 at Tue Apr  8 21:08:50 2025.
