 Gaussian 16, Revision C.01,

 ----------------------------------------------------------------------
 #t hf aug-cc-pvdz symm=none int=(grid=ultrafine) guess=(read,tcheck) s
 table=(opt,rrhf)
 ----------------------------------------------------------------------
 -----
 title
 -----
 Symbolic Z-matrix:
 Charge =  0 Multiplicity = 1

 SCF Done:  E(RHF) =  -451.165013939     A.U. after   14 cycles
 Normal termination of Gaussian 16 at Tue Apr  8 21:13:27 2025.
 Gaussian 16:  ES64L-G16RevC.01  3-Jul-2019

 ----------------------------------------------------------------------
 #t hf aug-cc-pvdz iop(5/13=1,5/36=2,99/5=2) pseudo=read geom=check gue
 ss=(read,tcheck) scf=(maxcycle=1)
 ----------------------------------------------------------------------
 -----
 title
 -----
 Structure from the checkpoint file:  "ANI1ccx_1886_conf3_mol2.chk"
 Charge =  0 Multiplicity = 1

                         Standard orientation:
 ---------------------------------------------------------------------
 Center     Atomic      Atomic             Coordinates (Angstroms)
 Number     Number       Type             X           Y           Z
 ---------------------------------------------------------------------
      1          1           0       -1.419099    0.217569   -1.099080
      2          1           0       -3.175349    0.708338    1.095560
      3          1           0        1.886511   -1.374669   -0.148357
      4          1           0        2.931641    1.346171   -0.743601
      5          8           0       -1.349639   -0.201703   -0.221056
      6          8           0       -2.702479   -0.638998   -0.075989
      7          8           0       -3.467879    0.493895    0.189489
      8          8           0        2.791101   -1.041599   -0.084922
      9          8           0        2.591441    0.164489    0.613453
     10          8           0        2.109491    1.111741   -0.309040
 ---------------------------------------------------------------------

 SCF Done:  E(RHF) =  -452.964184187     A.U. after    2 cycles

 The electronic state is 1-A.
 Alpha  occ. eigenvalues --  -21.15575 -21.15325 -21.14148 -21.14030 -21.13915
 Alpha  occ. eigenvalues --  -21.13669  -2.08315  -2.08245  -1.70078  -1.69808
 Alpha  occ. eigenvalues --   -1.27909  -1.27718  -0.69504  -0.69311  -0.58823
 Alpha  occ. eigenvalues --   -0.57855  -0.57214  -0.56352  -0.55118  -0.54934
 Alpha  occ. eigenvalues --   -0.36301  -0.35753  -0.34779  -0.33599  -0.31608
 Alpha  occ. eigenvalues --   -0.30801
 Alpha virt. eigenvalues --    0.04761   0.05574   0.06668   0.06875   0.12983
 Alpha virt. eigenvalues --    0.13797   0.15400   0.17535   0.18207   0.19265
 Alpha virt. eigenvalues --    0.19651   0.20230   0.21269   0.22360   0.23020

 Mulliken charges:
               1
     1  H    0.981826
     2  H    0.939588
     3  H    0.993303
     4  H    1.000913
     5  O   -1.252258
     6  O    0.368732
     7  O   -1.054527
     8  O   -1.126045
     9  O    0.281917
    10  O   -1.133449
 Sum of Mulliken charges =   0.00000

 Dipole moment (field-independent basis, Debye):
    X=              0.0895    Y=              0.7526    Z=             -0.6260  Tot=              0.9830

 Test job not archived.
 1\1\GINC-SE097\SP\RHF\Aug-CC-pVDZ\H4O6\OHZDE\08-Apr-2025\0\\#t hf aug-
 cc-pvdz iop(5/13=1,5/36=2,99/5=2) pseudo=read geom=check guess=(read,t
 check) scf=(maxcycle=1)\\title\\0,1\H,0,-1.4191,0.217569,-1.09908\H,0,
 -3.17535,0.708338,1.09556\H,0,1.88651,-1.37467,-0.148357\H,0,2.93164,1
 .34617,-0.743601\O,0,-1.34964,-0.201703,-0.221056\O,0,-2.70248,-0.6389
 98,-0.0759891\O,0,-3.46788,0.493895,0.189489\O,0,2.7911,-1.0416,-0.084
 9217\O,0,2.59144,0.164488,0.613453\O,0,2.10949,1.11174,-0.30904\\Versi
 on=ES64L-G16RevC.01\State=1-A\HF=-452.9641842\RMSD=3.457e-02\Dipole=0.

 Normal termination of Gaussian 16 at Tue Apr  8 21:13:29 2025.
