 Gaussian 16, Revision C.01,

 ----------------------------------------------------------------------
 #t hf aug-cc-pvdz symm=none int=(grid=ultrafine) guess=(read,tcheck) s
 table=(opt,rrhf)
 ----------------------------------------------------------------------
 -----
 title
 -----
 Symbolic Z-matrix:
 Charge =  0 Multiplicity = 1

 SCF Done:  E(RHF) =  -810.410434652     A.U. after   14 cycles
 Normal termination of Gaussian 16 at Tue Apr  8 19:55:11 2025.
 Gaussian 16:  ES64L-G16RevC.01  3-Jul-2019

 ----------------------------------------------------------------------
 #t hf aug-cc-pvdz iop(5/13=1,5/36=2,99/5=2) pseudo=read geom=check gue
 ss=(read,tcheck) scf=(maxcycle=1)
 ----------------------------------------------------------------------
 -----
 title
 -----
 Structure from the checkpoint file:  "ANI1ccx_1427_conf22_mol1.chk"
 Charge =  0 Multiplicity = 1

                         Standard orientation:
 ---------------------------------------------------------------------
 Center     Atomic      Atomic             Coordinates (Angstroms)
 Number     Number       Type             X           Y           Z
 ---------------------------------------------------------------------
      1          6           0       -2.536040   -0.263719    0.433419
      2          6           0       -1.149021    0.003707   -0.074459
      3          6           0       -3.505550   -0.741550   -0.823459
      4          6           0        1.197980   -0.516080   -0.030984
      5          6           0        2.151600   -1.724288    0.007976
      6          6           0        1.628029    0.549777    0.969567
      7          6           0        2.225679    1.619902    0.044802
      8          1           0        3.457870   -0.398355   -0.516784
      9          1           0        0.487929    2.553231    0.227434
     10          1           0        1.687678    3.327061   -0.892780
     11          1           0        0.877963    1.034541    1.610050
     12          1           0        2.445999    0.155203    1.555270
     13          1           0        1.134409   -0.046461   -0.995464
     14          1           0       -0.257571   -1.901839    0.300796
     15          1           0       -4.792841    0.462235   -0.279398
     16          1           0       -2.964090   -0.238896   -1.598760
     17          1           0       -3.326820   -1.836520   -1.030710
     18          1           0       -2.417220   -0.865963    1.306430
     19          1           0       -3.153091    1.798960    0.415557
     20          1           0       -3.130301    1.148290    1.988950
     21          7           0       -3.316331    0.934261    0.987741
     22          7           0       -0.141611   -0.934720    0.186824
     23          7           0        1.418188    2.658551   -0.185751
     24          8           0       -0.789071    1.087171   -0.467174
     25          8           0       -4.814750   -0.491623   -0.520757
     26          8           0        1.955730   -2.810648    0.421235
     27          8           0        3.325559    1.362022   -0.477053
     28          8           0        3.341570   -1.317498   -0.477932
 ---------------------------------------------------------------------

 SCF Done:  E(RHF) =  -813.969889612     A.U. after    2 cycles

 The electronic state is 1-A.
 Alpha  occ. eigenvalues --  -21.10130 -21.08028 -21.07096 -21.06104 -21.03921
 Alpha  occ. eigenvalues --  -15.79781 -15.78325 -15.76146 -11.57532 -11.56474
 Alpha  occ. eigenvalues --  -11.53887 -11.49282 -11.47176 -11.43373 -11.42474
 Alpha  occ. eigenvalues --   -1.83619  -1.77081  -1.73395  -1.71913  -1.67504
 Alpha  occ. eigenvalues --   -1.43908  -1.37935  -1.33143  -1.18774  -1.09043
 Alpha  occ. eigenvalues --   -1.00726  -0.92667  -0.83699  -0.83329  -0.81681
 Alpha  occ. eigenvalues --   -0.75321  -0.74177  -0.72589  -0.69835  -0.66616
 Alpha  occ. eigenvalues --   -0.64699  -0.63956  -0.61798  -0.59082  -0.58500
 Alpha  occ. eigenvalues --   -0.57230  -0.55166  -0.53429  -0.52706  -0.51036
 Alpha  occ. eigenvalues --   -0.50407  -0.49216  -0.48242  -0.44322  -0.42559
 Alpha  occ. eigenvalues --   -0.38999  -0.35737  -0.35303  -0.33598  -0.33168
 Alpha  occ. eigenvalues --   -0.31210  -0.30375  -0.29199
 Alpha virt. eigenvalues --    0.03052   0.03720   0.04114   0.04674   0.04974
 Alpha virt. eigenvalues --    0.05375   0.06288   0.06583   0.07168   0.07888
 Alpha virt. eigenvalues --    0.08303   0.08896   0.09040   0.09623   0.10932

 Mulliken charges:
               1
     1  C   -1.979092
     2  C    6.871667
     3  C   -0.231582
     4  C   -2.392628
     5  C    6.894581
     6  C   -3.704275
     7  C    6.199281
     8  H    1.660505
     9  H    0.900103
    10  H    0.817211
    11  H    1.295429
    12  H    1.453337
    13  H    2.493721
    14  H    0.779027
    15  H    0.823601
    16  H    1.274456
    17  H    1.400324
    18  H    1.734249
    19  H    0.601926
    20  H    0.614858
    21  N   -2.296155
    22  N   -3.919183
    23  N   -3.627883
    24  O   -3.862094
    25  O   -3.030629
    26  O   -3.576298
    27  O   -3.642748
    28  O   -3.551712
 Sum of Mulliken charges =  -0.00000

 Dipole moment (field-independent basis, Debye):
    X=             -2.2911    Y=              2.8672    Z=              0.8615  Tot=              3.7699

 Test job not archived.
 1\1\GINC-SE455\SP\RHF\Aug-CC-pVDZ\C7H13N3O5\OHZDE\08-Apr-2025\0\\#t hf
  aug-cc-pvdz iop(5/13=1,5/36=2,99/5=2) pseudo=read geom=check guess=(r
 ead,tcheck) scf=(maxcycle=1)\\title\\0,1\C,0,-2.53604,-0.263719,0.4334
 19\C,0,-1.14902,0.0037065,-0.0744584\C,0,-3.50555,-0.74155,-0.823459\C
 ,0,1.19798,-0.516081,-0.0309838\C,0,2.1516,-1.72429,0.00797642\C,0,1.6
 2803,0.549776,0.969567\C,0,2.22568,1.6199,0.0448018\H,0,3.45787,-0.398
 357,-0.516784\H,0,0.487931,2.55323,0.227434\H,0,1.68768,3.32706,-0.892
 78\H,0,0.877964,1.03454,1.61005\H,0,2.446,0.155201,1.55527\H,0,1.13441

 Normal termination of Gaussian 16 at Tue Apr  8 19:55:40 2025.
