 Gaussian 16, Revision C.01,

 ----------------------------------------------------------------------
 #t hf aug-cc-pvdz symm=none int=(grid=ultrafine) guess=(read,tcheck) s
 table=(opt,rrhf)
 ----------------------------------------------------------------------
 -----
 title
 -----
 Symbolic Z-matrix:
 Charge =  0 Multiplicity = 1

 SCF Done:  E(RHF) =  -376.949205201     A.U. after   13 cycles
 Normal termination of Gaussian 16 at Tue Apr  8 21:56:16 2025.
 Gaussian 16:  ES64L-G16RevC.01  3-Jul-2019

 ----------------------------------------------------------------------
 #t hf aug-cc-pvdz iop(5/13=1,5/36=2,99/5=2) pseudo=read geom=check gue
 ss=(read,tcheck) scf=(maxcycle=1)
 ----------------------------------------------------------------------
 -----
 title
 -----
 Structure from the checkpoint file:  "ANI1ccx_763_conf1_mol1.chk"
 Charge =  0 Multiplicity = 1

                         Standard orientation:
 ---------------------------------------------------------------------
 Center     Atomic      Atomic             Coordinates (Angstroms)
 Number     Number       Type             X           Y           Z
 ---------------------------------------------------------------------
      1          6           0        0.085090   -0.307681   -0.180750
      2          6           0        2.423671   -0.341109    0.129255
      3          6           0        1.820051    1.095479    0.248103
      4          1           0       -3.109509    0.350596    0.195713
      5          1           0       -4.468419   -0.590342    0.274103
      6          1           0        1.096081   -2.094531    0.101608
      7          1           0        3.106451   -0.523596    0.975949
      8          1           0        2.945701   -0.528027   -0.876541
      9          1           0        2.499201    1.832939   -0.237700
     10          1           0        1.666401    1.474919    1.257960
     11          1           0       -0.245611    1.573520   -0.208268
     12          7           0        1.163531   -1.097481    0.129115
     13          7           0        0.565020    0.969651   -0.470244
     14          8           0       -4.097479    0.336136    0.177981
     15          8           0       -1.097899   -0.746237   -0.212302
 ---------------------------------------------------------------------

 SCF Done:  E(RHF) =  -378.636642575     A.U. after    2 cycles

 The electronic state is 1-A.
 Alpha  occ. eigenvalues --  -21.05140 -21.02441 -15.77126 -15.76875 -11.50479
 Alpha  occ. eigenvalues --  -11.48278 -11.41855  -1.70070  -1.60391  -1.50604
 Alpha  occ. eigenvalues --   -1.31107  -1.09483  -0.91102  -0.84856  -0.71510
 Alpha  occ. eigenvalues --   -0.69378  -0.61028  -0.60003  -0.59350  -0.56520
 Alpha  occ. eigenvalues --   -0.53788  -0.50497  -0.48355  -0.40617  -0.37452
 Alpha  occ. eigenvalues --   -0.31677  -0.31153  -0.29708
 Alpha virt. eigenvalues --    0.02860   0.04582   0.05020   0.05212   0.05581
 Alpha virt. eigenvalues --    0.06527   0.07043   0.09752   0.10067   0.11252
 Alpha virt. eigenvalues --    0.11610   0.13073   0.13176   0.14244   0.15171

 Mulliken charges:
               1
     1  C    5.655304
     2  C   -2.348299
     3  C   -2.273657
     4  H    1.214983
     5  H    0.854962
     6  H    0.695060
     7  H    1.393831
     8  H    1.411666
     9  H    1.338838
    10  H    1.434031
    11  H    0.499644
    12  N   -2.308784
    13  N   -2.294421
    14  O   -2.057498
    15  O   -3.215661
 Sum of Mulliken charges =  -0.00000

 Dipole moment (field-independent basis, Debye):
    X=              4.6167    Y=             -0.1567    Z=              0.9417  Tot=              4.7144

 Test job not archived.
 1\1\GINC-SE366\SP\RHF\Aug-CC-pVDZ\C3H8N2O2\OHZDE\08-Apr-2025\0\\#t hf
 aug-cc-pvdz iop(5/13=1,5/36=2,99/5=2) pseudo=read geom=check guess=(re
 ad,tcheck) scf=(maxcycle=1)\\title\\0,1\C,0,0.0850894,-0.307681,-0.180
 75\C,0,2.42367,-0.341108,0.129255\C,0,1.82005,1.09548,0.248103\H,0,-3.
 10951,0.350596,0.195713\H,0,-4.46842,-0.590342,0.274103\H,0,1.09608,-2
 .09453,0.101608\H,0,3.10645,-0.523595,0.975949\H,0,2.9457,-0.528026,-0
 .876541\H,0,2.4992,1.83294,-0.2377\H,0,1.6664,1.47492,1.25796\H,0,-0.2
 45612,1.57352,-0.208268\N,0,1.16353,-1.09748,0.129115\N,0,0.565019,0.9

 Normal termination of Gaussian 16 at Tue Apr  8 21:56:20 2025.
