 Gaussian 16, Revision C.01,

 ----------------------------------------------------------------------
 #t hf aug-cc-pvdz symm=none int=(grid=ultrafine) guess=(read,tcheck) s
 table=(opt,rrhf)
 ----------------------------------------------------------------------
 -----
 title
 -----
 Symbolic Z-matrix:
 Charge =  0 Multiplicity = 1

 SCF Done:  E(RHF) =  -927.498460541     A.U. after   15 cycles
 Normal termination of Gaussian 16 at Tue Apr  8 22:18:14 2025.
 Gaussian 16:  ES64L-G16RevC.01  3-Jul-2019

 ----------------------------------------------------------------------
 #t hf aug-cc-pvdz iop(5/13=1,5/36=2,99/5=2) pseudo=read geom=check gue
 ss=(read,tcheck) scf=(maxcycle=1)
 ----------------------------------------------------------------------
 -----
 title
 -----
 Structure from the checkpoint file:  "ANI1ccx_79_conf5_mol1.chk"
 Charge =  0 Multiplicity = 1

                         Standard orientation:
 ---------------------------------------------------------------------
 Center     Atomic      Atomic             Coordinates (Angstroms)
 Number     Number       Type             X           Y           Z
 ---------------------------------------------------------------------
      1          6           0       -2.231231    0.068849    0.792488
      2          6           0        4.350919   -1.120739    0.745447
      3          6           0        3.160919   -0.351827    0.088942
      4          6           0        2.042889    0.047652    1.134260
      5          6           0        0.939577    2.109100   -0.030711
      6          6           0        5.317930   -1.727838   -0.231964
      7          6           0       -4.497921   -0.548110   -0.188055
      8          6           0       -3.545411   -0.663171    0.912989
      9          6           0       -1.245361   -0.858674    0.027180
     10          6           0        0.731130    0.668237    0.549126
     11          1           0        2.619049   -0.913936   -0.759783
     12          1           0       -0.810802    1.802790   -0.877014
     13          1           0        6.024529   -0.904449   -2.122920
     14          1           0        6.806309   -0.219439   -1.025140
     15          1           0        6.086580   -2.221188    0.321014
     16          1           0        4.805790   -2.293519   -0.991159
     17          1           0        4.971739   -0.493604    1.470760
     18          1           0        3.894860   -1.933679    1.290030
     19          1           0        3.431779    0.632384   -0.369594
     20          1           0        2.014469   -0.667006    1.985640
     21          1           0       -2.332481    2.167029    0.720778
     22          1           0        0.083356    0.943201    1.406790
     23          1           0        0.442546   -0.684602   -1.057490
     24          1           0       -5.858020   -1.529322   -1.083660
     25          1           0       -3.958271   -0.057765    1.776090
     26          1           0       -3.455570   -1.685421    1.266310
     27          1           0       -1.753661    0.244275    1.745250
     28          1           0       -3.002161    1.363829   -0.588685
     29          1           0        2.506049    0.906523    1.723270
     30          7           0       -2.264021    1.326049    0.123393
     31          7           0       -0.024551   -0.259433   -0.236183
     32          7           0        5.851829   -0.626530   -1.150180
     33          8           0       -5.304740   -1.625851   -0.230196
     34          8           0        1.822518    2.924791    0.211728
     35          8           0       -1.618180   -1.965880   -0.398410
     36          8           0       -4.561471    0.313294   -1.065390
     37          8           0       -0.038069    2.443950   -0.866213
 ---------------------------------------------------------------------

 SCF Done:  E(RHF) =  -931.682941635     A.U. after    2 cycles

 The electronic state is 1-A.
 Alpha  occ. eigenvalues --  -21.13278 -21.08502 -21.06833 -21.05302 -21.03687
 Alpha  occ. eigenvalues --  -15.77593 -15.75604 -15.71717 -11.56459 -11.54626
 Alpha  occ. eigenvalues --  -11.53731 -11.49559 -11.48589 -11.44298 -11.43808
 Alpha  occ. eigenvalues --  -11.43166 -11.39482 -11.36590  -1.84205  -1.80546
 Alpha  occ. eigenvalues --   -1.71402  -1.66199  -1.62640  -1.44194  -1.38187
 Alpha  occ. eigenvalues --   -1.31784  -1.19244  -1.17215  -1.10258  -1.01679
 Alpha  occ. eigenvalues --   -1.00023  -0.89204  -0.84938  -0.82625  -0.79577
 Alpha  occ. eigenvalues --   -0.77825  -0.75099  -0.71067  -0.69582  -0.66587
 Alpha  occ. eigenvalues --   -0.64906  -0.63998  -0.63465  -0.62539  -0.61542
 Alpha  occ. eigenvalues --   -0.59808  -0.58926  -0.57404  -0.55911  -0.54326
 Alpha  occ. eigenvalues --   -0.52205  -0.51558  -0.50687  -0.50357  -0.49928
 Alpha  occ. eigenvalues --   -0.47609  -0.47437  -0.46217  -0.45745  -0.45030
 Alpha  occ. eigenvalues --   -0.43325  -0.41933  -0.37606  -0.35414  -0.34547
 Alpha  occ. eigenvalues --   -0.34023  -0.31839  -0.30953  -0.29686  -0.27290
 Alpha virt. eigenvalues --    0.02970   0.04174   0.04372   0.04807   0.04847
 Alpha virt. eigenvalues --    0.05375   0.05511   0.05747   0.05917   0.06387
 Alpha virt. eigenvalues --    0.06838   0.07525   0.07967   0.08216   0.08821

 Mulliken charges:
               1
     1  C    0.250884
     2  C   -2.176620
     3  C   -3.189837
     4  C   -2.723149
     5  C    6.745861
     6  C   -3.666964
     7  C    5.819505
     8  C   -4.837159
     9  C    5.558845
    10  C   -2.387620
    11  H    1.619732
    12  H    1.680013
    13  H    0.590607
    14  H    0.653836
    15  H    1.198916
    16  H    1.660680
    17  H    1.393371
    18  H    1.538532
    19  H    1.578365
    20  H    1.646472
    21  H    0.507761
    22  H    2.421516
    23  H    0.624451
    24  H    0.830211
    25  H    1.300588
    26  H    1.344244
    27  H    1.760773
    28  H    0.781689
    29  H    1.288688
    30  N   -2.673779
    31  N   -2.053996
    32  N   -2.081099
    33  O   -3.143930
    34  O   -3.426261
    35  O   -3.507140
    36  O   -3.123495
    37  O   -3.804490
 Sum of Mulliken charges =  -0.00000

 Dipole moment (field-independent basis, Debye):
    X=             -1.0386    Y=             -2.4645    Z=              1.2565  Tot=              2.9548

 Test job not archived.
 1\1\GINC-SE044\SP\RHF\Aug-CC-pVDZ\C10H19N3O5\OHZDE\08-Apr-2025\0\\#t h
 f aug-cc-pvdz iop(5/13=1,5/36=2,99/5=2) pseudo=read geom=check guess=(
 read,tcheck) scf=(maxcycle=1)\\title\\0,1\C,0,-2.23123,0.06885,0.79248
 8\C,0,4.35092,-1.12074,0.745447\C,0,3.16092,-0.351828,0.0889424\C,0,2.
 04289,0.0476516,1.13426\C,0,0.939578,2.1091,-0.030711\C,0,5.31793,-1.7
 2784,-0.231964\C,0,-4.49792,-0.548109,-0.188055\C,0,-3.54541,-0.66317,
 0.912989\C,0,-1.24536,-0.858674,0.0271802\C,0,0.731131,0.668237,0.5491
 26\H,0,2.61905,-0.913937,-0.759783\H,0,-0.810801,1.80279,-0.877014\H,0

 Normal termination of Gaussian 16 at Tue Apr  8 22:19:11 2025.
