 Gaussian 16, Revision C.01,

 ----------------------------------------------------------------------
 #t hf aug-cc-pvdz symm=none int=(grid=ultrafine) guess=(read,tcheck) s
 table=(opt,rrhf)
 ----------------------------------------------------------------------
 -----
 title
 -----
 Symbolic Z-matrix:
 Charge =  0 Multiplicity = 1

 SCF Done:  E(RHF) =  -447.774944892     A.U. after   14 cycles
 Normal termination of Gaussian 16 at Tue Apr  8 21:49:30 2025.
 Gaussian 16:  ES64L-G16RevC.01  3-Jul-2019

 ----------------------------------------------------------------------
 #t hf aug-cc-pvdz iop(5/13=1,5/36=2,99/5=2) pseudo=read geom=check gue
 ss=(read,tcheck) scf=(maxcycle=1)
 ----------------------------------------------------------------------
 -----
 title
 -----
 Structure from the checkpoint file:  "ANI1ccx_586_conf7_mol1.chk"
 Charge =  0 Multiplicity = 1

                         Standard orientation:
 ---------------------------------------------------------------------
 Center     Atomic      Atomic             Coordinates (Angstroms)
 Number     Number       Type             X           Y           Z
 ---------------------------------------------------------------------
      1          6           0       -1.483090   -1.597272    0.526226
      2          6           0        0.290567    0.017877   -0.074735
      3          1           0       -1.594280   -1.319062    1.605540
      4          1           0       -0.814809   -2.449271    0.541464
      5          1           0       -2.406700   -1.947072    0.079212
      6          1           0       -2.806371    0.295536    0.158829
      7          1           0       -2.358871    0.406434   -1.414360
      8          1           0        1.010720   -1.628190   -0.967306
      9          1           0        2.514209    0.241953    0.152673
     10          1           0       -0.781914    2.159579    0.122467
     11          7           0       -1.041971   -0.427229   -0.240024
     12          7           0       -2.002251    0.610658   -0.445939
     13          7           0        1.145620   -1.111740   -0.087013
     14          7           0        0.846471    1.123690    0.117387
     15          8           0        2.515280   -0.721628   -0.136462
     16          8           0        0.204479    2.265229    0.336669
 ---------------------------------------------------------------------

 SCF Done:  E(RHF) =  -449.784743738     A.U. after    2 cycles

 The electronic state is 1-A.
 Alpha  occ. eigenvalues --  -21.08121 -21.06296 -15.80322 -15.77347 -15.77108
 Alpha  occ. eigenvalues --  -15.75186 -11.46948 -11.42054  -1.81092  -1.75277
 Alpha  occ. eigenvalues --   -1.54114  -1.32253  -1.18482  -1.13752  -0.99928
 Alpha  occ. eigenvalues --   -0.78441  -0.72697  -0.71740  -0.68118  -0.63470
 Alpha  occ. eigenvalues --   -0.61427  -0.59326  -0.57875  -0.54431  -0.50247
 Alpha  occ. eigenvalues --   -0.47627  -0.44529  -0.42341  -0.39109  -0.35152
 Alpha  occ. eigenvalues --   -0.27380  -0.25287
 Alpha virt. eigenvalues --    0.02606   0.04511   0.04859   0.05376   0.06440
 Alpha virt. eigenvalues --    0.06818   0.07546   0.07978   0.10261   0.12336
 Alpha virt. eigenvalues --    0.13240   0.14190   0.14671   0.15290   0.16081

 Mulliken charges:
               1
     1  C   -3.449888
     2  C    4.849411
     3  H    1.306225
     4  H    1.439484
     5  H    1.253495
     6  H    0.686236
     7  H    0.631953
     8  H    0.575724
     9  H    0.899647
    10  H    0.901278
    11  N   -1.373015
    12  N   -1.919297
    13  N   -0.336475
    14  N    0.010057
    15  O   -2.515388
    16  O   -2.959447
 Sum of Mulliken charges =  -0.00000

 Dipole moment (field-independent basis, Debye):
    X=             -4.1170    Y=             -1.7371    Z=             -0.8650  Tot=              4.5514

 Test job not archived.
 1\1\GINC-SE404\SP\RHF\Aug-CC-pVDZ\C2H8N4O2\OHZDE\08-Apr-2025\0\\#t hf
 aug-cc-pvdz iop(5/13=1,5/36=2,99/5=2) pseudo=read geom=check guess=(re
 ad,tcheck) scf=(maxcycle=1)\\title\\0,1\C,0,-1.48309,-1.59727,0.526226
 \C,0,0.290568,0.0178776,-0.0747351\H,0,-1.59428,-1.31906,1.60554\H,0,-
 0.81481,-2.44927,0.541464\H,0,-2.4067,-1.94707,0.0792122\H,0,-2.80637,
 0.295538,0.158829\H,0,-2.35887,0.406436,-1.41436\H,0,1.01072,-1.62819,
 -0.967306\H,0,2.51421,0.241952,0.152673\H,0,-0.781912,2.15958,0.122467
 \N,0,-1.04197,-0.427228,-0.240024\N,0,-2.00225,0.61066,-0.445939\N,0,1

 Normal termination of Gaussian 16 at Tue Apr  8 21:49:35 2025.
