 Gaussian 16, Revision C.01,

 ----------------------------------------------------------------------
 #t hf aug-cc-pvdz symm=none int=(grid=ultrafine) guess=(read,tcheck) s
 table=(opt,rrhf)
 ----------------------------------------------------------------------
 -----
 title
 -----
 Symbolic Z-matrix:
 Charge =  0 Multiplicity = 1

 SCF Done:  E(RHF) =  -528.723327612     A.U. after   14 cycles
 Normal termination of Gaussian 16 at Tue Apr  8 22:20:20 2025.
 Gaussian 16:  ES64L-G16RevC.01  3-Jul-2019

 ----------------------------------------------------------------------
 #t hf aug-cc-pvdz iop(5/13=1,5/36=2,99/5=2) pseudo=read geom=check gue
 ss=(read,tcheck) scf=(maxcycle=1)
 ----------------------------------------------------------------------
 -----
 title
 -----
 Structure from the checkpoint file:  "ANI1ccx_998_conf23_mol1.chk"
 Charge =  0 Multiplicity = 1

                         Standard orientation:
 ---------------------------------------------------------------------
 Center     Atomic      Atomic             Coordinates (Angstroms)
 Number     Number       Type             X           Y           Z
 ---------------------------------------------------------------------
      1          6           0        0.964456    0.120238    0.472075
      2          6           0        2.345940   -0.319562   -0.129415
      3          6           0       -0.030414   -0.873382    0.022486
      4          6           0       -1.409320   -0.859640    0.710863
      5          6           0       -2.558410   -0.046120    0.015278
      6          1           0        2.864900    1.505050    0.299710
      7          1           0       -2.767250    1.593821   -1.211810
      8          1           0       -1.688200   -1.872159    0.810917
      9          1           0       -1.287780   -0.428619    1.761040
     10          1           0       -1.315950    1.486141   -0.283015
     11          1           0        1.029850    2.188891    0.629787
     12          1           0        0.796054    1.673601   -0.854823
     13          1           0        1.142820    0.085988    1.567870
     14          1           0       -0.039931   -0.718471   -1.055550
     15          1           0        0.395286   -1.897539   -0.047962
     16          7           0        0.506344    1.482171    0.081101
     17          7           0       -2.313570    1.262231   -0.381161
     18          8           0       -3.601260   -0.616908   -0.218719
     19          8           0        2.528550   -1.366800   -0.664953
     20          8           0        3.278620    0.614118    0.125739
 ---------------------------------------------------------------------

 SCF Done:  E(RHF) =  -531.081989095     A.U. after    2 cycles

 The electronic state is 1-A.
 Alpha  occ. eigenvalues --  -21.14334 -21.07823 -21.01782 -15.79556 -15.75069
 Alpha  occ. eigenvalues --  -11.55351 -11.49853 -11.49390 -11.43693 -11.38779
 Alpha  occ. eigenvalues --   -1.84456  -1.69530  -1.68825  -1.40942  -1.32049
 Alpha  occ. eigenvalues --   -1.19623  -1.05405  -0.92129  -0.81166  -0.78864
 Alpha  occ. eigenvalues --   -0.74420  -0.72485  -0.68562  -0.64999  -0.61833
 Alpha  occ. eigenvalues --   -0.59207  -0.57473  -0.56175  -0.54709  -0.50634
 Alpha  occ. eigenvalues --   -0.49476  -0.48038  -0.47184  -0.43580  -0.43463
 Alpha  occ. eigenvalues --   -0.36507  -0.32344  -0.30615  -0.26720
 Alpha virt. eigenvalues --    0.02122   0.03870   0.03949   0.05026   0.05913
 Alpha virt. eigenvalues --    0.06299   0.06616   0.07012   0.08446   0.09159
 Alpha virt. eigenvalues --    0.10624   0.10879   0.11280   0.11840   0.12191

 Mulliken charges:
               1
     1  C   -1.981539
     2  C    6.310944
     3  C   -1.821263
     4  C   -4.096413
     5  C    5.251556
     6  H    1.093790
     7  H    0.655656
     8  H    1.280221
     9  H    1.448822
    10  H    1.034202
    11  H    0.460515
    12  H    0.545234
    13  H    1.812466
    14  H    1.641698
    15  H    1.244760
    16  N   -2.147798
    17  N   -3.057890
    18  O   -3.324227
    19  O   -3.126543
    20  O   -3.224191
 Sum of Mulliken charges =  -0.00000

 Dipole moment (field-independent basis, Debye):
    X=              2.9840    Y=              2.6404    Z=              0.1855  Tot=              3.9888

 Test job not archived.
 1\1\GINC-SE097\SP\RHF\Aug-CC-pVDZ\C5H10N2O3\OHZDE\08-Apr-2025\0\\#t hf
  aug-cc-pvdz iop(5/13=1,5/36=2,99/5=2) pseudo=read geom=check guess=(r
 ead,tcheck) scf=(maxcycle=1)\\title\\0,1\C,0,0.964456,0.120237,0.47207
 5\C,0,2.34594,-0.319562,-0.129415\C,0,-0.0304143,-0.873383,0.0224858\C
 ,0,-1.40932,-0.859641,0.710863\C,0,-2.55841,-0.0461209,0.0152783\H,0,2
 .8649,1.50505,0.29971\H,0,-2.76725,1.59382,-1.21181\H,0,-1.6882,-1.872
 16,0.810917\H,0,-1.28778,-0.42862,1.76104\H,0,-1.31595,1.48614,-0.2830
 15\H,0,1.02985,2.18889,0.629787\H,0,0.796054,1.6736,-0.854823\H,0,1.14

 Normal termination of Gaussian 16 at Tue Apr  8 22:20:31 2025.
