 Gaussian 16, Revision C.01,

 ----------------------------------------------------------------------
 #t hf aug-cc-pvdz symm=none int=(grid=ultrafine) guess=(read,tcheck) s
 table=(opt,rrhf)
 ----------------------------------------------------------------------
 -----
 title
 -----
 Symbolic Z-matrix:
 Charge =  0 Multiplicity = 1

 SCF Done:  E(RHF) =  -758.554601992     A.U. after   14 cycles
 Normal termination of Gaussian 16 at Tue Apr  8 21:03:17 2025.
 Gaussian 16:  ES64L-G16RevC.01  3-Jul-2019

 ----------------------------------------------------------------------
 #t hf aug-cc-pvdz iop(5/13=1,5/36=2,99/5=2) pseudo=read geom=check gue
 ss=(read,tcheck) scf=(maxcycle=1)
 ----------------------------------------------------------------------
 -----
 title
 -----
 Structure from the checkpoint file:  "ANI1ccx_1759_conf6_mol1.chk"
 Charge =  0 Multiplicity = 1

                         Standard orientation:
 ---------------------------------------------------------------------
 Center     Atomic      Atomic             Coordinates (Angstroms)
 Number     Number       Type             X           Y           Z
 ---------------------------------------------------------------------
      1          6           0       -1.751981    0.839672    0.251474
      2          6           0        2.624210    1.715430    0.563302
      3          6           0        2.724260    1.001270   -0.781944
      4          6           0        2.247859   -1.290470   -0.086111
      5          6           0        1.151740    1.558941    0.908616
      6          6           0       -3.683391   -0.475047   -0.816421
      7          6           0       -3.077671    0.006035    0.469104
      8          6           0       -0.623213   -0.032541   -0.140930
      9          6           0        1.733809   -0.065152   -0.721136
     10          1           0        3.664619    0.514800   -0.886190
     11          1           0        0.426804   -1.750379   -0.155577
     12          1           0        1.048670    1.189391    1.921610
     13          1           0        0.547131    2.508971    0.799109
     14          1           0        3.252630    1.219260    1.270910
     15          1           0        2.901690    2.816900    0.571374
     16          1           0        2.624630    1.711000   -1.614570
     17          1           0        1.376229   -0.191591   -1.710710
     18          1           0       -4.059991    0.302314   -1.464160
     19          1           0       -4.407301   -1.270488   -0.564149
     20          1           0       -2.093361   -1.580058    0.841881
     21          1           0       -3.794751    0.608152    1.014140
     22          1           0       -1.565020    1.270381    1.267610
     23          1           0       -2.910290    2.253752   -0.345530
     24          1           0       -1.310340    2.570821   -0.599866
     25          1           0       -3.009281   -1.044508   -1.449090
     26          7           0       -2.033220    1.844052   -0.728537
     27          7           0        0.619968    0.477769    0.044406
     28          8           0        3.415029   -1.437330    0.288199
     29          8           0       -0.805305   -1.125879   -0.690034
     30          8           0       -2.781591   -1.111328    1.340840
     31          8           0        1.312738   -2.191749    0.063040
 ---------------------------------------------------------------------

 SCF Done:  E(RHF) =  -761.990254838     A.U. after    2 cycles

 The electronic state is 1-A.
 Alpha  occ. eigenvalues --  -21.08329 -21.06892 -21.06438 -21.03521 -15.78262
 Alpha  occ. eigenvalues --  -15.77204 -11.59199 -11.53481 -11.50421 -11.48824
 Alpha  occ. eigenvalues --  -11.47108 -11.45552 -11.43013 -11.39076 -11.37215
 Alpha  occ. eigenvalues --   -1.83358  -1.77159  -1.70570  -1.63690  -1.51919
 Alpha  occ. eigenvalues --   -1.39609  -1.22934  -1.15190  -1.12859  -1.04802
 Alpha  occ. eigenvalues --   -0.96408  -0.89837  -0.88835  -0.81212  -0.78242
 Alpha  occ. eigenvalues --   -0.76844  -0.71383  -0.70479  -0.66969  -0.65303
 Alpha  occ. eigenvalues --   -0.64241  -0.63230  -0.59644  -0.59168  -0.57451
 Alpha  occ. eigenvalues --   -0.56513  -0.54772  -0.52876  -0.51055  -0.50425
 Alpha  occ. eigenvalues --   -0.49854  -0.49043  -0.48485  -0.46607  -0.45116
 Alpha  occ. eigenvalues --   -0.43487  -0.40996  -0.40278  -0.34760  -0.32240
 Alpha  occ. eigenvalues --   -0.31609  -0.30030  -0.28302
 Alpha virt. eigenvalues --    0.02807   0.03601   0.03795   0.04192   0.04906
 Alpha virt. eigenvalues --    0.05086   0.05940   0.06470   0.06742   0.07191
 Alpha virt. eigenvalues --    0.07234   0.08110   0.08228   0.08786   0.09261

 Mulliken charges:
               1
     1  C   -1.952632
     2  C   -2.999119
     3  C   -2.224479
     4  C    6.656039
     5  C   -3.221042
     6  C   -4.242048
     7  C    1.646651
     8  C    8.190386
     9  C   -3.380791
    10  H    1.326122
    11  H    2.161264
    12  H    1.691700
    13  H    1.632814
    14  H    1.299770
    15  H    1.208461
    16  H    1.160778
    17  H    2.203584
    18  H    1.339177
    19  H    1.199979
    20  H    0.950607
    21  H    1.551886
    22  H    1.855768
    23  H    0.568871
    24  H    0.634227
    25  H    1.337442
    26  N   -3.135088
    27  N   -2.846394
    28  O   -3.337338
    29  O   -3.975819
    30  O   -3.545160
    31  O   -3.755613
 Sum of Mulliken charges =   0.00000

 Dipole moment (field-independent basis, Debye):
    X=             -1.0255    Y=              4.5772    Z=             -0.0214  Tot=              4.6907

 Test job not archived.
 1\1\GINC-SE368\SP\RHF\Aug-CC-pVDZ\C9H16N2O4\OHZDE\08-Apr-2025\0\\#t hf
  aug-cc-pvdz iop(5/13=1,5/36=2,99/5=2) pseudo=read geom=check guess=(r
 ead,tcheck) scf=(maxcycle=1)\\title\\0,1\C,0,-1.75198,0.83967,0.251474
 \C,0,2.62421,1.71543,0.563302\C,0,2.72426,1.00127,-0.781944\C,0,2.2478
 6,-1.29047,-0.0861117\C,0,1.15174,1.55894,0.908616\C,0,-3.68339,-0.475
 049,-0.816421\C,0,-3.07767,0.006033,0.469104\C,0,-0.623212,-0.0325417,
 -0.14093\C,0,1.73381,-0.0651524,-0.721136\H,0,3.66462,0.5148,-0.88619\
 H,0,0.426805,-1.75038,-0.155577\H,0,1.04867,1.18939,1.92161\H,0,0.5471

 Normal termination of Gaussian 16 at Tue Apr  8 21:03:49 2025.
