 Gaussian 16, Revision C.01,

 ----------------------------------------------------------------------
 #t hf aug-cc-pvdz symm=none int=(grid=ultrafine) guess=(read,tcheck) s
 table=(opt,rrhf)
 ----------------------------------------------------------------------
 -----
 title
 -----
 Symbolic Z-matrix:
 Charge =  0 Multiplicity = 1

 SCF Done:  E(RHF) =  -456.243311193     A.U. after   11 cycles
 Normal termination of Gaussian 16 at Tue Apr  8 21:08:48 2025.
 Gaussian 16:  ES64L-G16RevC.01  3-Jul-2019

 ----------------------------------------------------------------------
 #t hf aug-cc-pvdz iop(5/13=1,5/36=2,99/5=2) pseudo=read geom=check gue
 ss=(read,tcheck) scf=(maxcycle=1)
 ----------------------------------------------------------------------
 -----
 title
 -----
 Structure from the checkpoint file:  "ANI1ccx_1844_conf344_mol1.chk"
 Charge =  0 Multiplicity = 1

                         Standard orientation:
 ---------------------------------------------------------------------
 Center     Atomic      Atomic             Coordinates (Angstroms)
 Number     Number       Type             X           Y           Z
 ---------------------------------------------------------------------
      1          1           0       -1.241644   -1.875758    1.619170
      2          1           0       -2.369371    0.794466   -0.111414
      3          1           0       -3.444002   -0.110895   -0.606480
      4          1           0        1.873270    1.006738    0.562280
      5          1           0        1.300241    2.088909    1.616140
      6          1           0       -0.295526    1.970631   -0.229921
      7          1           0       -1.887683   -1.263798    0.364767
      8          1           0       -1.523108    2.840552   -0.946943
      9          1           0        1.148215   -2.703741   -0.716808
     10          1           0        0.173542   -1.528090   -0.193130
     11          1           0        2.517727   -0.955586   -0.253565
     12          1           0        3.402999    0.348726   -0.691268
     13          8           0        1.346151    1.891399    0.640396
     14          8           0        0.856072   -1.775881   -0.888221
     15          8           0       -3.002351    0.099366    0.204541
     16          8           0       -1.066139    1.920011   -0.768657
     17          8           0       -1.191194   -1.954058    0.634582
     18          8           0        3.100628   -0.257356    0.125756
 ---------------------------------------------------------------------

 SCF Done:  E(RHF) =  -458.231089793     A.U. after    2 cycles

 The electronic state is 1-A.
 Alpha  occ. eigenvalues --  -21.09656 -21.08798 -21.08306 -21.07927 -21.07806
 Alpha  occ. eigenvalues --  -21.05645  -1.68603  -1.66231  -1.65724  -1.64090
 Alpha  occ. eigenvalues --   -1.62481  -1.61044  -0.65081  -0.63573  -0.63312
 Alpha  occ. eigenvalues --   -0.62819  -0.61770  -0.61014  -0.52295  -0.49505
 Alpha  occ. eigenvalues --   -0.48379  -0.45199  -0.42984  -0.41644  -0.35646
 Alpha  occ. eigenvalues --   -0.35092  -0.34662  -0.34324  -0.33743  -0.32256
 Alpha virt. eigenvalues --    0.03714   0.04745   0.05062   0.05697   0.06188
 Alpha virt. eigenvalues --    0.06772   0.08510   0.08851   0.09745   0.10664
 Alpha virt. eigenvalues --    0.11488   0.12053   0.18413   0.18868   0.19171

 Mulliken charges:
               1
     1  H    0.826299
     2  H    1.448199
     3  H    0.741319
     4  H    1.446733
     5  H    0.825609
     6  H    1.557057
     7  H    1.472871
     8  H    0.807457
     9  H    0.869109
    10  H    1.548622
    11  H    1.307714
    12  H    0.692153
    13  O   -2.370232
    14  O   -2.183946
    15  O   -2.124516
    16  O   -2.321505
    17  O   -2.477986
    18  O   -2.064957
 Sum of Mulliken charges =  -0.00000

 Dipole moment (field-independent basis, Debye):
    X=             -0.5473    Y=              0.5996    Z=              0.4200  Tot=              0.9140

 Test job not archived.
 1\1\GINC-SE079\SP\RHF\Aug-CC-pVDZ\H12O6\OHZDE\08-Apr-2025\0\\#t hf aug
 -cc-pvdz iop(5/13=1,5/36=2,99/5=2) pseudo=read geom=check guess=(read,
 tcheck) scf=(maxcycle=1)\\title\\0,1\H,0,-1.24164,-1.87576,1.61917\H,0
 ,-2.36937,0.794463,-0.111414\H,0,-3.444,-0.110899,-0.60648\H,0,1.87327
 ,1.00674,0.56228\H,0,1.30024,2.08891,1.61614\H,0,-0.295527,1.97063,-0.
 229921\H,0,-1.88768,-1.2638,0.364767\H,0,-1.52311,2.84055,-0.946943\H,
 0,1.14822,-2.70374,-0.716808\H,0,0.173545,-1.52809,-0.19313\H,0,2.5177
 3,-0.955583,-0.253565\H,0,3.403,0.34873,-0.691268\O,0,1.34615,1.8914,0

 Normal termination of Gaussian 16 at Tue Apr  8 21:08:52 2025.
