 Gaussian 16, Revision C.01,

 ----------------------------------------------------------------------
 #t hf aug-cc-pvdz symm=none int=(grid=ultrafine) guess=(read,tcheck) s
 table=(opt,rrhf)
 ----------------------------------------------------------------------
 -----
 title
 -----
 Symbolic Z-matrix:
 Charge =  0 Multiplicity = 1

 SCF Done:  E(RHF) =  -678.629513365     A.U. after   16 cycles
 Normal termination of Gaussian 16 at Tue Apr  8 20:25:36 2025.
 Gaussian 16:  ES64L-G16RevC.01  3-Jul-2019

 ----------------------------------------------------------------------
 #t hf aug-cc-pvdz iop(5/13=1,5/36=2,99/5=2) pseudo=read geom=check gue
 ss=(read,tcheck) scf=(maxcycle=1)
 ----------------------------------------------------------------------
 -----
 title
 -----
 Structure from the checkpoint file:  "ANI1ccx_1596_conf2_mol2.chk"
 Charge =  0 Multiplicity = 1

                         Standard orientation:
 ---------------------------------------------------------------------
 Center     Atomic      Atomic             Coordinates (Angstroms)
 Number     Number       Type             X           Y           Z
 ---------------------------------------------------------------------
      1          6           0        4.286219   -0.542386   -0.026636
      2          6           0        3.163518   -1.101873   -0.931325
      3          6           0        1.852428   -1.073262   -0.213789
      4          6           0        0.513415    0.383710    1.232150
      5          6           0       -1.416592   -1.279668    1.177870
      6          6           0       -2.709062   -1.504647   -0.728615
      7          6           0       -1.321850    0.544512   -0.414116
      8          6           0       -0.517829    2.731031   -0.234726
      9          1           0       -2.075050    0.018501   -2.109300
     10          1           0       -3.733092   -1.568056   -1.129520
     11          1           0       -2.140183   -2.391368   -1.016620
     12          1           0       -0.770174   -2.173209    0.993684
     13          1           0       -1.542772   -1.162858    2.263620
     14          1           0        0.440781    1.479390    1.407370
     15          1           0        0.649494   -0.258032    2.115600
     16          1           0        1.860528   -1.775922    0.621042
     17          1           0        3.235217   -2.192323   -1.176910
     18          1           0        3.132339   -0.535107   -1.886760
     19          1           0        5.282559   -0.506937   -0.551437
     20          1           0        4.412448   -1.187244    0.860171
     21          1           0        4.085890    0.477967    0.320605
     22          1           0        1.082358   -1.412281   -0.934460
     23          7           0       -0.774293   -0.045696    0.697915
     24          7           0       -2.172191   -0.251817   -1.127340
     25          7           0       -1.052129    1.738781   -0.964722
     26          7           0        0.009839    3.551070    0.433617
     27          8           0        1.569350    0.212564    0.308196
     28          8           0       -2.706902   -1.550487    0.664526
 ---------------------------------------------------------------------

 SCF Done:  E(RHF) =  -681.720847587     A.U. after    2 cycles

 The electronic state is 1-A.
 Alpha  occ. eigenvalues --  -21.10011 -21.05536 -15.78422 -15.77829 -15.74004
 Alpha  occ. eigenvalues --  -15.71715 -11.54916 -11.50918 -11.47907 -11.47511
 Alpha  occ. eigenvalues --  -11.46109 -11.43863 -11.40290 -11.36359  -1.83925
 Alpha  occ. eigenvalues --   -1.77701  -1.53980  -1.39799  -1.35361  -1.22367
 Alpha  occ. eigenvalues --   -1.19846  -1.07505  -1.01522  -0.99808  -0.95063
 Alpha  occ. eigenvalues --   -0.83982  -0.81259  -0.76524  -0.74556  -0.72775
 Alpha  occ. eigenvalues --   -0.68188  -0.66398  -0.65082  -0.63996  -0.63589
 Alpha  occ. eigenvalues --   -0.61079  -0.58773  -0.56842  -0.55846  -0.54079
 Alpha  occ. eigenvalues --   -0.51331  -0.49932  -0.47821  -0.47561  -0.46572
 Alpha  occ. eigenvalues --   -0.45153  -0.44050  -0.39167  -0.36076  -0.35373
 Alpha  occ. eigenvalues --   -0.34245  -0.31744  -0.30435
 Alpha virt. eigenvalues --    0.02883   0.03594   0.03984   0.04380   0.04634
 Alpha virt. eigenvalues --    0.05156   0.05862   0.06063   0.06651   0.07382
 Alpha virt. eigenvalues --    0.07828   0.08492   0.08531   0.08971   0.10372

 Mulliken charges:
               1
     1  C   -3.909835
     2  C   -3.286015
     3  C   -1.374219
     4  C   -1.046465
     5  C   -0.852661
     6  C   -1.342055
     7  C    5.182073
     8  C    2.671679
     9  H    0.700394
    10  H    1.601373
    11  H    1.641127
    12  H    1.804107
    13  H    1.648306
    14  H    1.768757
    15  H    1.983618
    16  H    1.831343
    17  H    1.129465
    18  H    1.299050
    19  H    1.174479
    20  H    1.279793
    21  H    1.481619
    22  H    1.801812
    23  N   -1.858408
    24  N   -3.324739
    25  N   -2.814388
    26  N   -2.462819
    27  O   -3.342751
    28  O   -3.384638
 Sum of Mulliken charges =  -0.00000

 Dipole moment (field-independent basis, Debye):
    X=             -1.3377    Y=             -7.5162    Z=             -0.3288  Tot=              7.6413

 Test job not archived.
 1\1\GINC-SE099\SP\RHF\Aug-CC-pVDZ\C8H14N4O2\OHZDE\08-Apr-2025\0\\#t hf
  aug-cc-pvdz iop(5/13=1,5/36=2,99/5=2) pseudo=read geom=check guess=(r
 ead,tcheck) scf=(maxcycle=1)\\title\\0,1\C,0,4.28622,-0.542382,-0.0266
 362\C,0,3.16352,-1.10187,-0.931325\C,0,1.85243,-1.07326,-0.213789\C,0,
 0.513415,0.38371,1.23215\C,0,-1.41659,-1.27967,1.17787\C,0,-2.70906,-1
 .50465,-0.728615\C,0,-1.32185,0.54451,-0.414116\C,0,-0.517831,2.73103,
 -0.234726\H,0,-2.07505,0.0184986,-2.1093\H,0,-3.73309,-1.56806,-1.1295
 2\H,0,-2.14018,-2.39137,-1.01662\H,0,-0.770171,-2.17321,0.993684\H,0,-

 Normal termination of Gaussian 16 at Tue Apr  8 20:26:05 2025.
