 Gaussian 16, Revision C.01,

 ----------------------------------------------------------------------
 #t hf aug-cc-pvdz symm=none int=(grid=ultrafine) guess=(read,tcheck) s
 table=(opt,rrhf)
 ----------------------------------------------------------------------
 -----
 title
 -----
 Symbolic Z-matrix:
 Charge =  0 Multiplicity = 1

 SCF Done:  E(RHF) =  -239.965703564     A.U. after   14 cycles
 Normal termination of Gaussian 16 at Tue Apr  8 21:13:20 2025.
 Gaussian 16:  ES64L-G16RevC.01  3-Jul-2019

 ----------------------------------------------------------------------
 #t hf aug-cc-pvdz iop(5/13=1,5/36=2,99/5=2) pseudo=read geom=check gue
 ss=(read,tcheck) scf=(maxcycle=1)
 ----------------------------------------------------------------------
 -----
 title
 -----
 Structure from the checkpoint file:  "ANI1ccx_1874_conf6_mol1.chk"
 Charge =  0 Multiplicity = 1

                         Standard orientation:
 ---------------------------------------------------------------------
 Center     Atomic      Atomic             Coordinates (Angstroms)
 Number     Number       Type             X           Y           Z
 ---------------------------------------------------------------------
      1          1           0        0.792018    0.564639    0.739256
      2          1           0        2.404800    0.926001   -0.661480
      3          1           0        3.027309   -0.050285    0.497052
      4          7           0       -2.139161    0.568203    0.041951
      5          7           0       -2.374411   -0.495850   -0.143280
      6          7           0        2.369439   -0.013161   -0.269729
      7          8           0        1.098099   -0.231838    0.252822
 ---------------------------------------------------------------------

 SCF Done:  E(RHF) =  -240.985862192     A.U. after    2 cycles

 The electronic state is 1-A.
 Alpha  occ. eigenvalues --  -21.08747 -15.87142 -15.86895 -15.77728  -1.76965
 Alpha  occ. eigenvalues --   -1.55812  -1.15439  -0.78754  -0.68181  -0.65072
 Alpha  occ. eigenvalues --   -0.57756  -0.57133  -0.57063  -0.47700  -0.38273
 Alpha  occ. eigenvalues --   -0.32686
 Alpha virt. eigenvalues --    0.03991   0.05936   0.06423   0.11228   0.13676
 Alpha virt. eigenvalues --    0.13738   0.14823   0.15116   0.15648   0.18157
 Alpha virt. eigenvalues --    0.18671   0.20614   0.21300   0.23235   0.24900

 Mulliken charges:
               1
     1  H    0.668941
     2  H    0.717200
     3  H    0.699747
     4  N   -0.071149
     5  N    0.086149
     6  N   -0.123141
     7  O   -1.977746
 Sum of Mulliken charges =  -0.00000

 Dipole moment (field-independent basis, Debye):
    X=              0.5471    Y=              1.6006    Z=              0.7940  Tot=              1.8686

 Test job not archived.
 1\1\GINC-SE092\SP\RHF\Aug-CC-pVDZ\H3N3O1\OHZDE\08-Apr-2025\0\\#t hf au
 g-cc-pvdz iop(5/13=1,5/36=2,99/5=2) pseudo=read geom=check guess=(read
 ,tcheck) scf=(maxcycle=1)\\title\\0,1\H,0,0.792019,0.564639,0.739256\H
 ,0,2.4048,0.926001,-0.66148\H,0,3.02731,-0.0502844,0.497052\N,0,-2.139
 16,0.568203,0.0419514\N,0,-2.37441,-0.49585,-0.14328\N,0,2.36944,-0.01
 31601,-0.269729\O,0,1.0981,-0.231838,0.252822\\Version=ES64L-G16RevC.0
 1\State=1-A\HF=-240.9858622\RMSD=8.923e-02\Dipole=0.2152409,0.6297331,
 0.3123878\Quadrupole=1.1949494,-0.573225,-0.6217244,2.101137,1.418703,

 Normal termination of Gaussian 16 at Tue Apr  8 21:13:22 2025.
