 Gaussian 16, Revision C.01,

 ----------------------------------------------------------------------
 #t hf aug-cc-pvdz symm=none int=(grid=ultrafine) guess=(read,tcheck) s
 table=(opt,rrhf)
 ----------------------------------------------------------------------
 -----
 title
 -----
 Symbolic Z-matrix:
 Charge =  0 Multiplicity = 1

 SCF Done:  E(RHF) =  -368.301817199     A.U. after   17 cycles
 Normal termination of Gaussian 16 at Tue Apr  8 21:49:36 2025.
 Gaussian 16:  ES64L-G16RevC.01  3-Jul-2019

 ----------------------------------------------------------------------
 #t hf aug-cc-pvdz iop(5/13=1,5/36=2,99/5=2) pseudo=read geom=check gue
 ss=(read,tcheck) scf=(maxcycle=1)
 ----------------------------------------------------------------------
 -----
 title
 -----
 Structure from the checkpoint file:  "ANI1ccx_608_conf3_mol2.chk"
 Charge =  0 Multiplicity = 1

                         Standard orientation:
 ---------------------------------------------------------------------
 Center     Atomic      Atomic             Coordinates (Angstroms)
 Number     Number       Type             X           Y           Z
 ---------------------------------------------------------------------
      1          6           0       -1.658920    0.081654   -0.048213
      2          6           0       -0.265086    0.137157   -0.053020
      3          7           0       -2.839540   -0.055118    0.064130
      4          7           0        0.522180    1.140220   -0.003361
      5          7           0        1.769160    0.587977    0.015470
      6          7           0        1.757830   -0.676722    0.052308
      7          8           0        0.384577   -1.035920   -0.036554
 ---------------------------------------------------------------------

 SCF Done:  E(RHF) =  -369.844900011     A.U. after    2 cycles

 The electronic state is 1-A.
 Alpha  occ. eigenvalues --  -21.20564 -15.90121 -15.87145 -15.84996 -15.83532
 Alpha  occ. eigenvalues --  -11.58447 -11.50325  -2.00802  -1.58907  -1.41250
 Alpha  occ. eigenvalues --   -1.33713  -1.03629  -0.94747  -0.81480  -0.73756
 Alpha  occ. eigenvalues --   -0.66434  -0.58549  -0.55572  -0.54901  -0.50470
 Alpha  occ. eigenvalues --   -0.47059  -0.45357  -0.44534  -0.43540
 Alpha virt. eigenvalues --    0.05516   0.06606   0.09242   0.10501   0.11011
 Alpha virt. eigenvalues --    0.11214   0.11402   0.12081   0.12366   0.12849
 Alpha virt. eigenvalues --    0.14321   0.16031   0.17103   0.18010   0.19665

 Mulliken charges:
               1
     1  C    1.573890
     2  C    4.774230
     3  N   -2.417010
     4  N   -2.260181
     5  N    0.690476
     6  N    0.434689
     7  O   -2.796094
 Sum of Mulliken charges =   0.00000

 Dipole moment (field-independent basis, Debye):
    X=              0.1403    Y=             -1.2718    Z=             -0.1543  Tot=              1.2888

 Test job not archived.
 1\1\GINC-SE227\SP\RHF\Aug-CC-pVDZ\C2N4O1\OHZDE\08-Apr-2025\0\\#t hf au
 g-cc-pvdz iop(5/13=1,5/36=2,99/5=2) pseudo=read geom=check guess=(read
 ,tcheck) scf=(maxcycle=1)\\title\\0,1\C,0,-1.65892,0.0816534,-0.048213
 1\C,0,-0.265086,0.137157,-0.0530204\N,0,-2.83954,-0.055119,0.0641302\N
 ,0,0.52218,1.14022,-0.00336107\N,0,1.76916,0.587977,0.0154704\N,0,1.75
 783,-0.676722,0.0523081\O,0,0.384577,-1.03592,-0.036554\\Version=ES64L
 -G16RevC.01\State=1-A\HF=-369.8449\RMSD=4.105e-01\Dipole=0.0552042,-0.
 5003832,-0.0607093\Quadrupole=-4.0864069,0.6261971,3.4602099,-0.752345

 Normal termination of Gaussian 16 at Tue Apr  8 21:49:39 2025.
