 Gaussian 16, Revision C.01,

 ----------------------------------------------------------------------
 #t hf aug-cc-pvdz symm=none int=(grid=ultrafine) guess=(read,tcheck) s
 table=(opt,rrhf)
 ----------------------------------------------------------------------
 -----
 title
 -----
 Symbolic Z-matrix:
 Charge =  0 Multiplicity = 1

 SCF Done:  E(RHF) =  -380.198660684     A.U. after   11 cycles
 Normal termination of Gaussian 16 at Tue Apr  8 21:04:24 2025.
 Gaussian 16:  ES64L-G16RevC.01  3-Jul-2019

 ----------------------------------------------------------------------
 #t hf aug-cc-pvdz iop(5/13=1,5/36=2,99/5=2) pseudo=read geom=check gue
 ss=(read,tcheck) scf=(maxcycle=1)
 ----------------------------------------------------------------------
 -----
 title
 -----
 Structure from the checkpoint file:  "ANI1ccx_1843_conf186_mol1.chk"
 Charge =  0 Multiplicity = 1

                         Standard orientation:
 ---------------------------------------------------------------------
 Center     Atomic      Atomic             Coordinates (Angstroms)
 Number     Number       Type             X           Y           Z
 ---------------------------------------------------------------------
      1          1           0       -1.493861    0.406789   -0.167880
      2          1           0       -2.372182    0.891656   -1.434670
      3          1           0       -0.696612   -0.895631    0.944789
      4          1           0       -1.772840   -0.468420    2.033810
      5          1           0       -0.827327   -1.398491   -0.961545
      6          1           0        0.639098   -1.365019   -0.236465
      7          1           0        1.770069    0.329242    0.016018
      8          1           0        2.544490   -0.426662   -0.979717
      9          1           0        0.319492    1.333100    0.853883
     10          1           0        0.235463    1.828460   -0.663974
     11          8           0       -1.492071    0.512824   -1.164880
     12          8           0       -0.996507   -0.033519    1.445830
     13          8           0       -0.303549   -1.790581   -0.262500
     14          8           0        2.210380   -0.523104   -0.092829
     15          8           0        0.788523    1.805001    0.148848
 ---------------------------------------------------------------------

 SCF Done:  E(RHF) =  -381.855506267     A.U. after    2 cycles

 The electronic state is 1-A.
 Alpha  occ. eigenvalues --  -21.09579 -21.09119 -21.08674 -21.08069 -21.07915
 Alpha  occ. eigenvalues --   -1.69682  -1.68038  -1.66307  -1.64785  -1.62696
 Alpha  occ. eigenvalues --   -0.67144  -0.66146  -0.65163  -0.62869  -0.61295
 Alpha  occ. eigenvalues --   -0.52122  -0.50353  -0.49062  -0.46944  -0.43273
 Alpha  occ. eigenvalues --   -0.36140  -0.35488  -0.35045  -0.33907  -0.32484
 Alpha virt. eigenvalues --    0.03407   0.04598   0.05296   0.06817   0.07153
 Alpha virt. eigenvalues --    0.08020   0.08711   0.08888   0.10263   0.11720
 Alpha virt. eigenvalues --    0.17218   0.19647   0.20396   0.20938   0.21956

 Mulliken charges:
               1
     1  H    1.676261
     2  H    0.760094
     3  H    1.520197
     4  H    0.775041
     5  H    1.110869
     6  H    1.343790
     7  H    1.464465
     8  H    0.751221
     9  H    1.238900
    10  H    1.064253
    11  O   -2.053521
    12  O   -2.248908
    13  O   -2.686807
    14  O   -2.164689
    15  O   -2.551166
 Sum of Mulliken charges =  -0.00000

 Dipole moment (field-independent basis, Debye):
    X=             -1.3274    Y=              0.4023    Z=             -0.7385  Tot=              1.5714

 Test job not archived.
 1\1\GINC-SE368\SP\RHF\Aug-CC-pVDZ\H10O5\OHZDE\08-Apr-2025\0\\#t hf aug
 -cc-pvdz iop(5/13=1,5/36=2,99/5=2) pseudo=read geom=check guess=(read,
 tcheck) scf=(maxcycle=1)\\title\\0,1\H,0,-1.49386,0.406791,-0.16788\H,
 0,-2.37218,0.891659,-1.43467\H,0,-0.696612,-0.89563,0.944789\H,0,-1.77
 284,-0.468418,2.03381\H,0,-0.827328,-1.39849,-0.961545\H,0,0.639097,-1
 .36502,-0.236465\H,0,1.77007,0.32924,0.0160178\H,0,2.54449,-0.426665,-
 0.979717\H,0,0.319494,1.3331,0.853883\H,0,0.235466,1.82846,-0.663974\O
 ,0,-1.49207,0.512826,-1.16488\O,0,-0.996506,-0.0335172,1.44583\O,0,-0.

 Normal termination of Gaussian 16 at Tue Apr  8 21:04:27 2025.
