 Gaussian 16, Revision C.01,

 ----------------------------------------------------------------------
 #t hf aug-cc-pvdz symm=none int=(grid=ultrafine) guess=(read,tcheck) s
 table=(opt,rrhf)
 ----------------------------------------------------------------------
 -----
 title
 -----
 Symbolic Z-matrix:
 Charge =  0 Multiplicity = 1

 SCF Done:  E(RHF) =  -555.302134303     A.U. after   16 cycles
 Normal termination of Gaussian 16 at Tue Apr  8 22:09:18 2025.
 Gaussian 16:  ES64L-G16RevC.01  3-Jul-2019

 ----------------------------------------------------------------------
 #t hf aug-cc-pvdz iop(5/13=1,5/36=2,99/5=2) pseudo=read geom=check gue
 ss=(read,tcheck) scf=(maxcycle=1)
 ----------------------------------------------------------------------
 -----
 title
 -----
 Structure from the checkpoint file:  "ANI1ccx_886_conf20_mol1.chk"
 Charge =  0 Multiplicity = 1

                         Standard orientation:
 ---------------------------------------------------------------------
 Center     Atomic      Atomic             Coordinates (Angstroms)
 Number     Number       Type             X           Y           Z
 ---------------------------------------------------------------------
      1          6           0       -1.320699   -0.707438   -0.066749
      2          6           0        0.921231   -0.707448    0.062667
      3          6           0        0.957882    0.667162    0.092503
      4          6           0       -1.276259    0.720011   -0.012648
      5          1           0       -2.705768   -2.365720   -0.160087
      6          1           0       -3.320549   -0.783224   -0.379197
      7          1           0       -2.420729    2.447260   -0.164255
      8          1           0       -3.235199    1.019140    0.419557
      9          7           0       -2.549949   -1.340330    0.087162
     10          7           0       -0.224205   -1.432410    0.009643
     11          7           0        2.181961   -1.113159    0.011282
     12          7           0        2.171041    1.089921    0.006461
     13          7           0       -0.176914    1.403210    0.094280
     14          7           0       -2.475519    1.372040   -0.104949
     15          8           0        2.938051   -0.000760   -0.112226
 ---------------------------------------------------------------------

 SCF Done:  E(RHF) =  -557.753268305     A.U. after    2 cycles

 The electronic state is 1-A.
 Alpha  occ. eigenvalues --  -21.15564 -15.80844 -15.80547 -15.79211 -15.78684
 Alpha  occ. eigenvalues --  -15.77169 -15.76858 -11.57433 -11.49118 -11.48350
 Alpha  occ. eigenvalues --  -11.42427  -1.98457  -1.58177  -1.42679  -1.40264
 Alpha  occ. eigenvalues --   -1.33990  -1.24677  -1.23094  -1.00504  -0.89399
 Alpha  occ. eigenvalues --   -0.89088  -0.78182  -0.72152  -0.69668  -0.69170
 Alpha  occ. eigenvalues --   -0.66846  -0.65578  -0.61469  -0.56268  -0.53185
 Alpha  occ. eigenvalues --   -0.52845  -0.48506  -0.46305  -0.45129  -0.43672
 Alpha  occ. eigenvalues --   -0.39439  -0.35806  -0.33079  -0.30686
 Alpha virt. eigenvalues --    0.02383   0.03747   0.05260   0.05731   0.07346
 Alpha virt. eigenvalues --    0.08263   0.09665   0.09909   0.10611   0.12282
 Alpha virt. eigenvalues --    0.12411   0.12791   0.13346   0.13604   0.14355

 Mulliken charges:
               1
     1  C    4.870576
     2  C    3.847563
     3  C    4.340214
     4  C    4.169255
     5  H    0.747639
     6  H    0.449639
     7  H    0.708093
     8  H    0.555536
     9  N   -3.167346
    10  N   -4.002591
    11  N   -1.321113
    12  N   -1.533293
    13  N   -3.806938
    14  N   -3.370758
    15  O   -2.486476
 Sum of Mulliken charges =  -0.00000

 Dipole moment (field-independent basis, Debye):
    X=             -5.8138    Y=              0.2295    Z=             -0.3650  Tot=              5.8297

 Test job not archived.
 1\1\GINC-SE227\SP\RHF\Aug-CC-pVDZ\C4H4N6O1\OHZDE\08-Apr-2025\0\\#t hf
 aug-cc-pvdz iop(5/13=1,5/36=2,99/5=2) pseudo=read geom=check guess=(re
 ad,tcheck) scf=(maxcycle=1)\\title\\0,1\C,0,-1.3207,-0.707438,-0.06674
 9\C,0,0.92123,-0.707448,0.0626673\C,0,0.957881,0.667162,0.0925026\C,0,
 -1.27626,0.720011,-0.0126482\H,0,-2.70577,-2.36572,-0.160087\H,0,-3.32
 055,-0.783224,-0.379197\H,0,-2.42073,2.44726,-0.164255\H,0,-3.2352,1.0
 1914,0.419557\N,0,-2.54995,-1.34033,0.0871618\N,0,-0.224206,-1.43241,0
 .0096432\N,0,2.18196,-1.11316,0.0112821\N,0,2.17104,1.08992,0.00646111

 Normal termination of Gaussian 16 at Tue Apr  8 22:09:25 2025.
