 Gaussian 16, Revision C.01,

 ----------------------------------------------------------------------
 #t hf aug-cc-pvdz symm=none int=(grid=ultrafine) guess=(read,tcheck) s
 table=(opt,rrhf)
 ----------------------------------------------------------------------
 -----
 title
 -----
 Symbolic Z-matrix:
 Charge =  0 Multiplicity = 1

 SCF Done:  E(RHF) =  -456.193577530     A.U. after   11 cycles
 Normal termination of Gaussian 16 at Tue Apr  8 21:09:49 2025.
 Gaussian 16:  ES64L-G16RevC.01  3-Jul-2019

 ----------------------------------------------------------------------
 #t hf aug-cc-pvdz iop(5/13=1,5/36=2,99/5=2) pseudo=read geom=check gue
 ss=(read,tcheck) scf=(maxcycle=1)
 ----------------------------------------------------------------------
 -----
 title
 -----
 Structure from the checkpoint file:  "ANI1ccx_1844_conf660_mol1.chk"
 Charge =  0 Multiplicity = 1

                         Standard orientation:
 ---------------------------------------------------------------------
 Center     Atomic      Atomic             Coordinates (Angstroms)
 Number     Number       Type             X           Y           Z
 ---------------------------------------------------------------------
      1          1           0       -0.158211   -0.052152    1.757880
      2          1           0        1.696668    0.627801   -0.948139
      3          1           0        1.740903    2.414385   -0.867706
      4          1           0       -2.131512    0.607376    0.828792
      5          1           0       -1.388468   -0.862694    0.474078
      6          1           0        0.287829   -1.463859   -1.088810
      7          1           0        0.899323    1.073812    1.084610
      8          1           0       -1.017555   -2.075443   -1.863040
      9          1           0       -1.479941    0.397244   -1.228490
     10          1           0       -0.598963    1.621508   -0.716937
     11          1           0        2.397974   -1.759214   -0.169004
     12          1           0        1.525262   -0.699540    0.641178
     13          8           0       -1.808180   -0.285877    1.298730
     14          8           0       -1.484304    1.335006   -0.983628
     15          8           0        1.258435    1.505983   -0.627375
     16          8           0       -0.711625   -1.649062   -0.972798
     17          8           0        0.822507    0.253312    1.810200
     18          8           0        1.701503   -1.138015   -0.263177
 ---------------------------------------------------------------------

 SCF Done:  E(RHF) =  -458.200361226     A.U. after    2 cycles

 The electronic state is 1-A.
 Alpha  occ. eigenvalues --  -21.10974 -21.10619 -21.09131 -21.06642 -21.04494
 Alpha  occ. eigenvalues --  -21.04484  -1.71157  -1.67356  -1.65394  -1.63697
 Alpha  occ. eigenvalues --   -1.61448  -1.57992  -0.69853  -0.65895  -0.65144
 Alpha  occ. eigenvalues --   -0.64276  -0.61002  -0.59729  -0.51555  -0.50594
 Alpha  occ. eigenvalues --   -0.47701  -0.46623  -0.42123  -0.41089  -0.38241
 Alpha  occ. eigenvalues --   -0.36414  -0.35323  -0.32332  -0.31649  -0.30092
 Alpha virt. eigenvalues --    0.02956   0.03511   0.04332   0.06159   0.06925
 Alpha virt. eigenvalues --    0.07888   0.08110   0.08796   0.09240   0.10163
 Alpha virt. eigenvalues --    0.10758   0.10977   0.16642   0.18143   0.19479

 Mulliken charges:
               1
     1  H    1.414912
     2  H    1.403985
     3  H    1.005441
     4  H    0.985196
     5  H    1.484403
     6  H    1.582447
     7  H    1.247562
     8  H    0.914623
     9  H    1.320109
    10  H    1.472623
    11  H    0.992437
    12  H    1.667417
    13  O   -2.463104
    14  O   -2.403157
    15  O   -2.862420
    16  O   -2.428730
    17  O   -2.547837
    18  O   -2.785907
 Sum of Mulliken charges =  -0.00000

 Dipole moment (field-independent basis, Debye):
    X=              2.6833    Y=             -0.6939    Z=             -1.7796  Tot=              3.2937

 Test job not archived.
 1\1\GINC-SE364\SP\RHF\Aug-CC-pVDZ\H12O6\OHZDE\08-Apr-2025\0\\#t hf aug
 -cc-pvdz iop(5/13=1,5/36=2,99/5=2) pseudo=read geom=check guess=(read,
 tcheck) scf=(maxcycle=1)\\title\\0,1\H,0,-0.158211,-0.0521516,1.75788\
 H,0,1.69667,0.627796,-0.948139\H,0,1.74091,2.41438,-0.867706\H,0,-2.13
 151,0.607382,0.828792\H,0,-1.38847,-0.86269,0.474078\H,0,0.287825,-1.4
 6386,-1.08881\H,0,0.899326,1.07381,1.08461\H,0,-1.01756,-2.07544,-1.86
 304\H,0,-1.47994,0.397248,-1.22849\H,0,-0.598958,1.62151,-0.716937\H,0
 ,2.39797,-1.75922,-0.169004\H,0,1.52526,-0.699544,0.641178\O,0,-1.8081

 Normal termination of Gaussian 16 at Tue Apr  8 21:09:54 2025.
