 Gaussian 16, Revision C.01,

 ----------------------------------------------------------------------
 #t hf aug-cc-pvdz symm=none int=(grid=ultrafine) guess=(read,tcheck) s
 table=(opt,rrhf)
 ----------------------------------------------------------------------
 -----
 title
 -----
 Symbolic Z-matrix:
 Charge =  0 Multiplicity = 1

 SCF Done:  E(RHF) =  -485.201813363     A.U. after   15 cycles
 Normal termination of Gaussian 16 at Tue Apr  8 21:43:54 2025.
 Gaussian 16:  ES64L-G16RevC.01  3-Jul-2019

 ----------------------------------------------------------------------
 #t hf aug-cc-pvdz iop(5/13=1,5/36=2,99/5=2) pseudo=read geom=check gue
 ss=(read,tcheck) scf=(maxcycle=1)
 ----------------------------------------------------------------------
 -----
 title
 -----
 Structure from the checkpoint file:  "ANI1ccx_484_conf6_mol1.chk"
 Charge =  0 Multiplicity = 1

                         Standard orientation:
 ---------------------------------------------------------------------
 Center     Atomic      Atomic             Coordinates (Angstroms)
 Number     Number       Type             X           Y           Z
 ---------------------------------------------------------------------
      1          6           0        1.372780   -0.125515    0.120827
      2          6           0       -0.671782    0.722547   -0.162846
      3          1           0       -2.279500   -0.502032    1.035790
      4          1           0       -2.640661   -1.403818   -0.324419
      5          7           0       -1.841820   -1.140349    0.355427
      6          7           0       -0.728591   -0.611751   -0.328480
      7          8           0        0.537293   -1.122449   -0.300102
      8          8           0        2.597450   -0.086039    0.273614
      9          8           0        0.766449    1.048711   -0.124345
     10          8           0       -1.562810    1.483321    0.069848
 ---------------------------------------------------------------------

 SCF Done:  E(RHF) =  -487.193981358     A.U. after    2 cycles

 The electronic state is 1-A.
 Alpha  occ. eigenvalues --  -21.19626 -21.16619 -21.11336 -21.09234 -15.87710
 Alpha  occ. eigenvalues --  -15.82508 -11.60447 -11.58112  -2.05438  -1.82972
 Alpha  occ. eigenvalues --   -1.77706  -1.68509  -1.48578  -1.18925  -0.92286
 Alpha  occ. eigenvalues --   -0.86519  -0.77170  -0.73927  -0.69977  -0.63832
 Alpha  occ. eigenvalues --   -0.59640  -0.57941  -0.53672  -0.51406  -0.48436
 Alpha  occ. eigenvalues --   -0.42957  -0.39717  -0.36207  -0.34364  -0.31505
 Alpha virt. eigenvalues --    0.03031   0.05094   0.07212   0.09614   0.10630
 Alpha virt. eigenvalues --    0.10775   0.11261   0.11634   0.12164   0.12788
 Alpha virt. eigenvalues --    0.14669   0.14917   0.16465   0.17233   0.18036

 Mulliken charges:
               1
     1  C    5.207670
     2  C    5.417248
     3  H    0.604190
     4  H    0.634028
     5  N   -1.579276
     6  N    0.852996
     7  O   -2.982831
     8  O   -2.658113
     9  O   -2.666232
    10  O   -2.829681
 Sum of Mulliken charges =  -0.00000

 Dipole moment (field-independent basis, Debye):
    X=             -2.4860    Y=             -0.6669    Z=             -0.3214  Tot=              2.5939

 Test job not archived.
 1\1\GINC-SE094\SP\RHF\Aug-CC-pVDZ\C2H2N2O4\OHZDE\08-Apr-2025\0\\#t hf
 aug-cc-pvdz iop(5/13=1,5/36=2,99/5=2) pseudo=read geom=check guess=(re
 ad,tcheck) scf=(maxcycle=1)\\title\\0,1\C,0,1.37278,-0.125515,0.120827
 \C,0,-0.671782,0.722546,-0.162846\H,0,-2.2795,-0.502033,1.03579\H,0,-2
 .64066,-1.40382,-0.324419\N,0,-1.84182,-1.14035,0.355427\N,0,-0.728591
 ,-0.611752,-0.32848\O,0,0.537293,-1.12245,-0.300102\O,0,2.59745,-0.086
 0386,0.273614\O,0,0.766449,1.04871,-0.124345\O,0,-1.56281,1.48332,0.06
 98477\\Version=ES64L-G16RevC.01\State=1-A\HF=-487.1939814\RMSD=5.814e-

 Normal termination of Gaussian 16 at Tue Apr  8 21:43:58 2025.
