 Gaussian 16, Revision C.01,

 ----------------------------------------------------------------------
 #t hf aug-cc-pvdz symm=none int=(grid=ultrafine) guess=(read,tcheck) s
 table=(opt,rrhf)
 ----------------------------------------------------------------------
 -----
 title
 -----
 Symbolic Z-matrix:
 Charge =  0 Multiplicity = 1

 SCF Done:  E(RHF) =  -524.590232628     A.U. after   15 cycles
 Normal termination of Gaussian 16 at Tue Apr  8 19:37:42 2025.
 Gaussian 16:  ES64L-G16RevC.01  3-Jul-2019

 ----------------------------------------------------------------------
 #t hf aug-cc-pvdz iop(5/13=1,5/36=2,99/5=2) pseudo=read geom=check gue
 ss=(read,tcheck) scf=(maxcycle=1)
 ----------------------------------------------------------------------
 -----
 title
 -----
 Structure from the checkpoint file:  "ANI1ccx_1349_conf2_mol2.chk"
 Charge =  0 Multiplicity = 1

                         Standard orientation:
 ---------------------------------------------------------------------
 Center     Atomic      Atomic             Coordinates (Angstroms)
 Number     Number       Type             X           Y           Z
 ---------------------------------------------------------------------
      1          6           0        2.216698   -0.288598    0.067308
      2          6           0       -0.294886   -0.480512   -0.101109
      3          6           0       -2.394402   -1.278890    0.230168
      4          6           0       -2.950342    0.001691    0.163200
      5          6           0       -2.134712    1.076480   -0.047865
      6          6           0       -0.769915    0.852111   -0.216788
      7          1           0        0.916890    1.752481   -0.130041
      8          1           0       -2.487062    2.104860   -0.151977
      9          1           0       -4.024772    0.180351    0.193873
     10          1           0       -3.135792   -2.088500    0.330870
     11          1           0        1.122048   -1.841919   -0.666577
     12          1           0        3.362638   -1.406249   -0.926672
     13          1           0        2.962638    1.100541    1.187140
     14          1           0        1.441748    0.566739    1.647440
     15          7           0        2.034388    0.845251    0.878694
     16          7           0        3.420718   -0.633763   -0.246958
     17          7           0        1.022198   -0.865803   -0.388100
     18          7           0       -1.114902   -1.499799    0.081828
     19          8           0        0.033776    1.927101   -0.541474
 ---------------------------------------------------------------------

 SCF Done:  E(RHF) =  -526.985982820     A.U. after    2 cycles

 The electronic state is 1-A.
 Alpha  occ. eigenvalues --  -21.07737 -15.78893 -15.78212 -15.74889 -15.72227
 Alpha  occ. eigenvalues --  -11.52813 -11.49579 -11.47120 -11.44969 -11.43422
 Alpha  occ. eigenvalues --  -11.38756  -1.73951  -1.53696  -1.45640  -1.32631
 Alpha  occ. eigenvalues --   -1.25106  -1.18711  -1.08328  -0.91206  -0.90078
 Alpha  occ. eigenvalues --   -0.83141  -0.75310  -0.73862  -0.69443  -0.65353
 Alpha  occ. eigenvalues --   -0.62614  -0.61627  -0.60325  -0.58710  -0.55812
 Alpha  occ. eigenvalues --   -0.53841  -0.49635  -0.48356  -0.44064  -0.41959
 Alpha  occ. eigenvalues --   -0.41178  -0.37272  -0.35682  -0.32906  -0.26841
 Alpha virt. eigenvalues --    0.03212   0.05043   0.05154   0.05369   0.05841
 Alpha virt. eigenvalues --    0.06548   0.07787   0.08127   0.09373   0.09703
 Alpha virt. eigenvalues --    0.11145   0.11484   0.11923   0.12761   0.13169

 Mulliken charges:
               1
     1  C    4.411261
     2  C    1.638830
     3  C   -0.854646
     4  C   -0.293218
     5  C   -0.741035
     6  C    4.784543
     7  H    1.248913
     8  H    1.676316
     9  H    1.390572
    10  H    1.660672
    11  H    0.658644
    12  H    0.598765
    13  H    0.676684
    14  H    0.594148
    15  N   -2.817042
    16  N   -3.175379
    17  N   -3.313449
    18  N   -3.626865
    19  O   -4.517713
 Sum of Mulliken charges =  -0.00000

 Dipole moment (field-independent basis, Debye):
    X=             -1.7675    Y=              0.5162    Z=              0.9562  Tot=              2.0749

 Test job not archived.
 1\1\GINC-SE367\SP\RHF\Aug-CC-pVDZ\C6H8N4O1\OHZDE\08-Apr-2025\0\\#t hf
 aug-cc-pvdz iop(5/13=1,5/36=2,99/5=2) pseudo=read geom=check guess=(re
 ad,tcheck) scf=(maxcycle=1)\\title\\0,1\C,0,2.2167,-0.288599,0.0673084
 \C,0,-0.294884,-0.480513,-0.101109\C,0,-2.3944,-1.27889,0.230168\C,0,-
 2.95034,0.00169099,0.1632\C,0,-2.13471,1.07648,-0.0478654\C,0,-0.76991
 3,0.85211,-0.216788\H,0,0.916892,1.75248,-0.130041\H,0,-2.48706,2.1048
 6,-0.151977\H,0,-4.02477,0.180351,0.193873\H,0,-3.13579,-2.0885,0.3308
 7\H,0,1.12205,-1.84192,-0.666577\H,0,3.36264,-1.40625,-0.926672\H,0,2.

 Normal termination of Gaussian 16 at Tue Apr  8 19:37:53 2025.
