 Gaussian 16, Revision C.01,

 ----------------------------------------------------------------------
 #t hf aug-cc-pvdz symm=none int=(grid=ultrafine) guess=(read,tcheck) s
 table=(opt,rrhf)
 ----------------------------------------------------------------------
 -----
 title
 -----
 Symbolic Z-matrix:
 Charge =  0 Multiplicity = 1

 SCF Done:  E(RHF) =  -228.122020056     A.U. after   11 cycles
 Normal termination of Gaussian 16 at Tue Apr  8 21:14:21 2025.
 Gaussian 16:  ES64L-G16RevC.01  3-Jul-2019

 ----------------------------------------------------------------------
 #t hf aug-cc-pvdz iop(5/13=1,5/36=2,99/5=2) pseudo=read geom=check gue
 ss=(read,tcheck) scf=(maxcycle=1)
 ----------------------------------------------------------------------
 -----
 title
 -----
 Structure from the checkpoint file:  "ANI1ccx_1900_conf26_mol1.chk"
 Charge =  0 Multiplicity = 1

                         Standard orientation:
 ---------------------------------------------------------------------
 Center     Atomic      Atomic             Coordinates (Angstroms)
 Number     Number       Type             X           Y           Z
 ---------------------------------------------------------------------
      1          1           0        1.158276    0.370864   -0.291392
      2          1           0        1.929343   -0.382860    0.782660
      3          1           0       -0.863878    0.741388    0.186672
      4          1           0       -0.294435    2.152156    0.609121
      5          1           0       -0.267823   -1.142254    0.168203
      6          1           0       -1.532700   -1.163745   -0.806058
      7          8           0        1.535715   -0.585247   -0.089756
      8          8           0       -0.285911    1.515596   -0.106178
      9          8           0       -1.265902   -1.002293    0.114784
 ---------------------------------------------------------------------

 SCF Done:  E(RHF) =  -229.114309802     A.U. after    2 cycles

 The electronic state is 1-A.
 Alpha  occ. eigenvalues --  -21.09042 -21.08856 -21.08608  -1.68024  -1.64611
 Alpha  occ. eigenvalues --   -1.64028  -0.66108  -0.63086  -0.60649  -0.50328
 Alpha  occ. eigenvalues --   -0.48440  -0.44960  -0.36335  -0.34730  -0.33533
 Alpha virt. eigenvalues --    0.03547   0.05649   0.05868   0.07921   0.08531
 Alpha virt. eigenvalues --    0.09282   0.18417   0.18949   0.19283   0.20780
 Alpha virt. eigenvalues --    0.22464   0.23645   0.24703   0.25132   0.26860

 Mulliken charges:
               1
     1  H    1.131698
     2  H    0.809055
     3  H    1.194399
     4  H    0.919946
     5  H    1.179041
     6  H    0.800466
     7  O   -1.933503
     8  O   -2.042425
     9  O   -2.058677
 Sum of Mulliken charges =  -0.00000

 Dipole moment (field-independent basis, Debye):
    X=              0.0302    Y=              0.4392    Z=              0.5583  Tot=              0.7109

 Test job not archived.
 1\1\GINC-SE340\SP\RHF\Aug-CC-pVDZ\H6O3\OHZDE\08-Apr-2025\0\\#t hf aug-
 cc-pvdz iop(5/13=1,5/36=2,99/5=2) pseudo=read geom=check guess=(read,t
 check) scf=(maxcycle=1)\\title\\0,1\H,0,1.15828,0.370855,-0.291392\H,0
 ,1.92934,-0.382875,0.78266\H,0,-0.863871,0.741397,0.186672\H,0,-0.2944
 16,2.15216,0.609121\H,0,-0.267833,-1.14225,0.168203\H,0,-1.53271,-1.16
 373,-0.806058\O,0,1.53571,-0.585259,-0.0897564\O,0,-0.285897,1.5156,-0
 .106178\O,0,-1.26591,-1.00228,0.114784\\Version=ES64L-G16RevC.01\State
 =1-A\HF=-229.1143098\RMSD=2.831e-02\Dipole=0.0118634,0.172786,0.219638

 Normal termination of Gaussian 16 at Tue Apr  8 21:14:22 2025.
