 Gaussian 16, Revision C.01,

 ----------------------------------------------------------------------
 #t hf aug-cc-pvdz symm=none int=(grid=ultrafine) guess=(read,tcheck) s
 table=(opt,rrhf)
 ----------------------------------------------------------------------
 -----
 title
 -----
 Symbolic Z-matrix:
 Charge =  0 Multiplicity = 1

 SCF Done:  E(RHF) =  -393.469088181     A.U. after   15 cycles
 Normal termination of Gaussian 16 at Tue Apr  8 21:37:35 2025.
 Gaussian 16:  ES64L-G16RevC.01  3-Jul-2019

 ----------------------------------------------------------------------
 #t hf aug-cc-pvdz iop(5/13=1,5/36=2,99/5=2) pseudo=read geom=check gue
 ss=(read,tcheck) scf=(maxcycle=1)
 ----------------------------------------------------------------------
 -----
 title
 -----
 Structure from the checkpoint file:  "ANI1ccx_388_conf4_mol1.chk"
 Charge =  0 Multiplicity = 1

                         Standard orientation:
 ---------------------------------------------------------------------
 Center     Atomic      Atomic             Coordinates (Angstroms)
 Number     Number       Type             X           Y           Z
 ---------------------------------------------------------------------
      1          6           0        2.132653    0.171865   -0.187286
      2          1           0        0.361970    0.096603    0.311330
      3          1           0        1.759982    1.012860   -0.823408
      4          1           0       -1.661158    1.697850    0.433717
      5          7           0       -2.372547   -0.007435    0.355210
      6          8           0        1.184513   -0.371296    0.573161
      7          8           0        3.278123   -0.175087   -0.191714
      8          8           0       -1.460828    0.924638   -0.139288
      9          8           0       -2.582917   -0.851562   -0.402708
 ---------------------------------------------------------------------

 SCF Done:  E(RHF) =  -395.074357157     A.U. after    2 cycles

 The electronic state is 1-A.
 Alpha  occ. eigenvalues --  -21.19017 -21.17156 -21.13100 -21.05708 -15.97036
 Alpha  occ. eigenvalues --  -11.50945  -2.02249  -1.82679  -1.75373  -1.65870
 Alpha  occ. eigenvalues --   -0.98520  -0.85571  -0.75785  -0.73470  -0.65491
 Alpha  occ. eigenvalues --   -0.64640  -0.54789  -0.53599  -0.53120  -0.48306
 Alpha  occ. eigenvalues --   -0.40679  -0.33915  -0.33444  -0.30890
 Alpha virt. eigenvalues --    0.02846   0.05077   0.07178   0.10076   0.10454
 Alpha virt. eigenvalues --    0.11691   0.11988   0.12303   0.14854   0.16014
 Alpha virt. eigenvalues --    0.16503   0.17896   0.18072   0.19089   0.20070

 Mulliken charges:
               1
     1  C    2.470736
     2  H    1.501985
     3  H    1.375721
     4  H    0.891111
     5  N    2.990522
     6  O   -2.756403
     7  O   -2.547635
     8  O   -2.008015
     9  O   -1.918023
 Sum of Mulliken charges =  -0.00000

 Dipole moment (field-independent basis, Debye):
    X=             -2.8701    Y=              1.6479    Z=             -0.3341  Tot=              3.3263

 Test job not archived.
 1\1\GINC-SE083\SP\RHF\Aug-CC-pVDZ\C1H3N1O4\OHZDE\08-Apr-2025\0\\#t hf
 aug-cc-pvdz iop(5/13=1,5/36=2,99/5=2) pseudo=read geom=check guess=(re
 ad,tcheck) scf=(maxcycle=1)\\title\\0,1\C,0,2.13265,0.171865,-0.187286
 \H,0,0.361967,0.096603,0.31133\H,0,1.75998,1.01286,-0.823408\H,0,-1.66
 116,1.69785,0.433717\N,0,-2.37255,-0.00743485,0.35521\O,0,1.18451,-0.3
 71296,0.573161\O,0,3.27812,-0.175087,-0.191714\O,0,-1.46083,0.924638,-
 0.139288\O,0,-2.58292,-0.851562,-0.402708\\Version=ES64L-G16RevC.01\St
 ate=1-A\HF=-395.0743572\RMSD=5.443e-02\Dipole=-1.1291651,0.6483483,-0.

 Normal termination of Gaussian 16 at Tue Apr  8 21:37:38 2025.
