 Gaussian 16, Revision C.01,

 ----------------------------------------------------------------------
 #t hf aug-cc-pvdz symm=none int=(grid=ultrafine) guess=(read,tcheck) s
 table=(opt,rrhf)
 ----------------------------------------------------------------------
 -----
 title
 -----
 Symbolic Z-matrix:
 Charge =  0 Multiplicity = 1

 SCF Done:  E(RHF) =  -764.568053485     A.U. after   12 cycles
 Normal termination of Gaussian 16 at Tue Apr  8 22:24:39 2025.
 Gaussian 16:  ES64L-G16RevC.01  3-Jul-2019

 ----------------------------------------------------------------------
 #t hf aug-cc-pvdz iop(5/13=1,5/36=2,99/5=2) pseudo=read geom=check gue
 ss=(read,tcheck) scf=(maxcycle=1)
 ----------------------------------------------------------------------
 -----
 title
 -----
 Structure from the checkpoint file:  "ANI1ccx_92_conf1_mol1.chk"
 Charge =  0 Multiplicity = 1

                         Standard orientation:
 ---------------------------------------------------------------------
 Center     Atomic      Atomic             Coordinates (Angstroms)
 Number     Number       Type             X           Y           Z
 ---------------------------------------------------------------------
      1          6           0       -0.317501   -2.780689    0.254785
      2          6           0        2.910406   -1.223442   -0.394447
      3          6           0        1.775743    0.673577    0.741225
      4          6           0        1.849799    2.127042    0.821077
      5          6           0        0.063855    2.201289   -0.772896
      6          6           0        1.742652   -2.190227   -0.636445
      7          6           0       -2.738037    0.683730   -0.524502
      8          6           0       -3.216272   -0.584035    0.181316
      9          6           0       -1.078046   -1.529116    0.145495
     10          6           0       -1.217120    2.455104    0.057037
     11          1           0        0.135190    1.127599   -0.870519
     12          1           0        1.158873   -1.753415   -1.413870
     13          1           0        2.052548   -3.214228   -1.071740
     14          1           0        3.701495   -1.258285   -1.085990
     15          1           0        3.199944   -1.542713    0.592907
     16          1           0        0.733668    0.446833    0.743974
     17          1           0        2.214882    0.318577    1.707130
     18          1           0        2.924250    2.376858    0.910337
     19          1           0        1.302389    2.333795    1.798790
     20          1           0        0.144063    2.571429   -1.864150
     21          1           0       -2.361348    0.500609   -1.559050
     22          1           0       -1.957047    3.223007   -0.370541
     23          1           0       -3.603404    1.384594   -0.760435
     24          1           0       -3.203081   -0.229572    1.255820
     25          1           0       -4.252453   -0.800420   -0.011567
     26          1           0       -0.936331   -0.983846    1.185590
     27          1           0       -0.552307   -0.940156   -0.669091
     28          1           0       -0.653202   -3.348198    1.171620
     29          1           0       -0.383944   -3.420429   -0.680701
     30          1           0       -0.867306    2.922743    1.032800
     31          8           0        2.449111    0.130140   -0.429946
     32          8           0       -2.498566   -1.725941   -0.143457
     33          8           0       -1.871095    1.296187    0.407391
     34          8           0        1.271061    2.782115   -0.328362
     35          8           0        0.968270   -2.321774    0.584727
 ---------------------------------------------------------------------

 SCF Done:  E(RHF) =  -768.073991937     A.U. after    2 cycles

 The electronic state is 1-A.
 Alpha  occ. eigenvalues --  -21.05256 -21.05200 -21.05178 -21.04161 -21.03885
 Alpha  occ. eigenvalues --  -11.50933 -11.49141 -11.47757 -11.46881 -11.46076
 Alpha  occ. eigenvalues --  -11.41162 -11.40647 -11.40315 -11.40058 -11.39665
 Alpha  occ. eigenvalues --   -1.80586  -1.77171  -1.75670  -1.72399  -1.70647
 Alpha  occ. eigenvalues --   -1.15224  -1.13503  -1.09055  -1.06047  -1.00367
 Alpha  occ. eigenvalues --   -0.91396  -0.87306  -0.86355  -0.84210  -0.80268
 Alpha  occ. eigenvalues --   -0.70417  -0.68647  -0.67767  -0.66510  -0.66182
 Alpha  occ. eigenvalues --   -0.64965  -0.62720  -0.60626  -0.58917  -0.57344
 Alpha  occ. eigenvalues --   -0.56497  -0.55707  -0.54094  -0.52593  -0.51751
 Alpha  occ. eigenvalues --   -0.50719  -0.50077  -0.47989  -0.46135  -0.45485
 Alpha  occ. eigenvalues --   -0.40787  -0.40451  -0.40225  -0.37234  -0.35299
 Alpha  occ. eigenvalues --   -0.32213  -0.31591  -0.29751  -0.28503  -0.27280
 Alpha virt. eigenvalues --    0.03910   0.04209   0.04462   0.04734   0.04995
 Alpha virt. eigenvalues --    0.05551   0.05803   0.05999   0.06570   0.06619
 Alpha virt. eigenvalues --    0.06729   0.06969   0.07287   0.07892   0.08215

 Mulliken charges:
               1
     1  C   -2.679997
     2  C   -2.197623
     3  C   -1.504030
     4  C   -2.183575
     5  C   -1.714401
     6  C   -1.473810
     7  C   -1.970639
     8  C   -1.832544
     9  C   -0.566971
    10  C   -1.317128
    11  H    2.698565
    12  H    2.105430
    13  H    1.304405
    14  H    1.467825
    15  H    1.746186
    16  H    3.232397
    17  H    1.659778
    18  H    1.235196
    19  H    1.202074
    20  H    1.240138
    21  H    1.918871
    22  H    1.589213
    23  H    1.361101
    24  H    1.533586
    25  H    1.493157
    26  H    2.053697
    27  H    2.680804
    28  H    1.079370
    29  H    1.453786
    30  H    1.416519
    31  O   -3.386312
    32  O   -3.688490
    33  O   -3.337736
    34  O   -3.463886
    35  O   -3.154959
 Sum of Mulliken charges =   0.00000

 Dipole moment (field-independent basis, Debye):
    X=             -0.0703    Y=             -0.5278    Z=              0.0538  Tot=              0.5351

 Test job not archived.
 1\1\GINC-SE038\SP\RHF\Aug-CC-pVDZ\C10H20O5\OHZDE\08-Apr-2025\0\\#t hf
 aug-cc-pvdz iop(5/13=1,5/36=2,99/5=2) pseudo=read geom=check guess=(re
 ad,tcheck) scf=(maxcycle=1)\\title\\0,1\C,0,-0.31749,-2.78069,0.254785
 \C,0,2.91041,-1.22343,-0.394447\C,0,1.77574,0.673584,0.741225\C,0,1.84
 979,2.12705,0.821077\C,0,0.063846,2.20129,-0.772896\C,0,1.74266,-2.190
 22,-0.636445\C,0,-2.73804,0.68372,-0.524502\C,0,-3.21627,-0.584047,0.1
 81316\C,0,-1.07804,-1.52912,0.145495\C,0,-1.21713,2.4551,0.0570371\H,0
 ,0.135185,1.1276,-0.870519\H,0,1.15888,-1.75341,-1.41387\H,0,2.05256,-

 Normal termination of Gaussian 16 at Tue Apr  8 22:25:33 2025.
