 Gaussian 16, Revision C.01,

 ----------------------------------------------------------------------
 #t hf aug-cc-pvdz symm=none int=(grid=ultrafine) guess=(read,tcheck) s
 table=(opt,rrhf)
 ----------------------------------------------------------------------
 -----
 title
 -----
 Symbolic Z-matrix:
 Charge =  0 Multiplicity = 1

 SCF Done:  E(RHF) =  -678.605903251     A.U. after   15 cycles
 Normal termination of Gaussian 16 at Tue Apr  8 20:23:01 2025.
 Gaussian 16:  ES64L-G16RevC.01  3-Jul-2019

 ----------------------------------------------------------------------
 #t hf aug-cc-pvdz iop(5/13=1,5/36=2,99/5=2) pseudo=read geom=check gue
 ss=(read,tcheck) scf=(maxcycle=1)
 ----------------------------------------------------------------------
 -----
 title
 -----
 Structure from the checkpoint file:  "ANI1ccx_1596_conf2_mol1.chk"
 Charge =  0 Multiplicity = 1

                         Standard orientation:
 ---------------------------------------------------------------------
 Center     Atomic      Atomic             Coordinates (Angstroms)
 Number     Number       Type             X           Y           Z
 ---------------------------------------------------------------------
      1          6           0        4.287161   -0.568002   -0.017735
      2          6           0        3.150121   -1.007030   -0.946804
      3          6           0        1.833061   -1.129790   -0.129838
      4          6           0        0.522838    0.296929    1.176300
      5          6           0       -1.424729   -1.343160    1.138390
      6          6           0       -2.761079   -1.443820   -0.731591
      7          6           0       -1.259039    0.560875   -0.487288
      8          6           0       -0.367739    2.633960   -0.079196
      9          1           0       -2.556689    0.373614   -1.995430
     10          1           0       -3.866819   -1.433800   -1.068270
     11          1           0       -2.186779   -2.321730   -1.227030
     12          1           0       -0.822413   -2.240630    0.911087
     13          1           0       -1.626279   -1.298790    2.255360
     14          1           0        0.450347    1.317040    1.519520
     15          1           0        0.649766   -0.472389    2.023520
     16          1           0        1.966001   -1.701960    0.805297
     17          1           0        3.389131   -2.069560   -1.311440
     18          1           0        3.015611   -0.402300   -1.804520
     19          1           0        5.335011   -0.432720   -0.451245
     20          1           0        4.443431   -1.388110    0.767362
     21          1           0        3.991511    0.337657    0.506069
     22          1           0        1.040551   -1.720730   -0.699060
     23          7           0       -0.812423   -0.142623    0.626837
     24          7           0       -2.111479   -0.146378   -1.148490
     25          7           0       -0.846677    1.715250   -0.923910
     26          7           0       -0.036602    3.608920    0.499357
     27          8           0        1.435141    0.228569    0.191661
     28          8           0       -2.742099   -1.452510    0.665687
 ---------------------------------------------------------------------

 SCF Done:  E(RHF) =  -681.715089074     A.U. after    2 cycles

 The electronic state is 1-A.
 Alpha  occ. eigenvalues --  -21.10201 -21.06631 -15.78441 -15.75217 -15.72788
 Alpha  occ. eigenvalues --  -15.70754 -11.53286 -11.52117 -11.48087 -11.47841
 Alpha  occ. eigenvalues --  -11.46049 -11.42718 -11.41110 -11.36781  -1.84172
 Alpha  occ. eigenvalues --   -1.80107  -1.54269  -1.37144  -1.35209  -1.21633
 Alpha  occ. eigenvalues --   -1.19212  -1.06137  -1.00280  -0.99253  -0.93499
 Alpha  occ. eigenvalues --   -0.85512  -0.81164  -0.76519  -0.73083  -0.72226
 Alpha  occ. eigenvalues --   -0.67204  -0.65882  -0.65404  -0.64308  -0.63536
 Alpha  occ. eigenvalues --   -0.60906  -0.59061  -0.56142  -0.55017  -0.52381
 Alpha  occ. eigenvalues --   -0.50630  -0.48209  -0.48007  -0.47186  -0.46707
 Alpha  occ. eigenvalues --   -0.45328  -0.43881  -0.40719  -0.37210  -0.35301
 Alpha  occ. eigenvalues --   -0.33558  -0.31697  -0.29449
 Alpha virt. eigenvalues --    0.02723   0.03633   0.03934   0.04381   0.04566
 Alpha virt. eigenvalues --    0.05105   0.05629   0.05912   0.06809   0.07250
 Alpha virt. eigenvalues --    0.07577   0.08338   0.08924   0.09111   0.10328

 Mulliken charges:
               1
     1  C   -3.706451
     2  C   -3.473547
     3  C   -1.826356
     4  C   -1.054887
     5  C   -1.010762
     6  C   -1.370031
     7  C    5.577176
     8  C    3.303128
     9  H    0.642340
    10  H    1.547117
    11  H    1.575964
    12  H    1.846126
    13  H    1.642760
    14  H    1.916148
    15  H    1.797407
    16  H    1.735660
    17  H    1.219872
    18  H    1.519143
    19  H    1.235649
    20  H    1.167253
    21  H    1.538955
    22  H    1.857479
    23  N   -1.924974
    24  N   -3.276440
    25  N   -3.170199
    26  N   -2.817210
    27  O   -3.174826
    28  O   -3.316496
 Sum of Mulliken charges =   0.00000

 Dipole moment (field-independent basis, Debye):
    X=             -2.1211    Y=             -7.5619    Z=             -0.6081  Tot=              7.8772

 Test job not archived.
 1\1\GINC-SE332\SP\RHF\Aug-CC-pVDZ\C8H14N4O2\OHZDE\08-Apr-2025\0\\#t hf
  aug-cc-pvdz iop(5/13=1,5/36=2,99/5=2) pseudo=read geom=check guess=(r
 ead,tcheck) scf=(maxcycle=1)\\title\\0,1\C,0,4.28716,-0.568002,-0.0177
 348\C,0,3.15012,-1.00703,-0.946804\C,0,1.83306,-1.12979,-0.129838\C,0,
 0.522837,0.296929,1.1763\C,0,-1.42473,-1.34316,1.13839\C,0,-2.76108,-1
 .44382,-0.731591\C,0,-1.25904,0.560875,-0.487288\C,0,-0.36774,2.63396,
 -0.0791957\H,0,-2.55669,0.373614,-1.99543\H,0,-3.86682,-1.4338,-1.0682
 7\H,0,-2.18678,-2.32173,-1.22703\H,0,-0.822414,-2.24063,0.911087\H,0,-

 Normal termination of Gaussian 16 at Tue Apr  8 20:23:25 2025.
