 Gaussian 16, Revision C.01,

 ----------------------------------------------------------------------
 #t hf aug-cc-pvdz symm=none int=(grid=ultrafine) guess=(read,tcheck) s
 table=(opt,rrhf)
 ----------------------------------------------------------------------
 -----
 title
 -----
 Symbolic Z-matrix:
 Charge =  0 Multiplicity = 1

 SCF Done:  E(RHF) =  -456.257871685     A.U. after   11 cycles
 Normal termination of Gaussian 16 at Tue Apr  8 21:09:42 2025.
 Gaussian 16:  ES64L-G16RevC.01  3-Jul-2019

 ----------------------------------------------------------------------
 #t hf aug-cc-pvdz iop(5/13=1,5/36=2,99/5=2) pseudo=read geom=check gue
 ss=(read,tcheck) scf=(maxcycle=1)
 ----------------------------------------------------------------------
 -----
 title
 -----
 Structure from the checkpoint file:  "ANI1ccx_1844_conf357_mol1.chk"
 Charge =  0 Multiplicity = 1

                         Standard orientation:
 ---------------------------------------------------------------------
 Center     Atomic      Atomic             Coordinates (Angstroms)
 Number     Number       Type             X           Y           Z
 ---------------------------------------------------------------------
      1          1           0       -1.173978    2.543723   -0.544716
      2          1           0       -2.755101    0.085164    0.369029
      3          1           0       -3.567032   -0.901893    1.391440
      4          1           0       -1.006534   -2.999687   -0.993673
      5          1           0       -1.597693   -1.932897   -0.101696
      6          1           0        3.498080    0.797260   -0.512969
      7          1           0       -2.624538    3.075764   -0.583624
      8          1           0        2.774429   -0.325127    0.203755
      9          1           0        2.319037   -2.612701   -0.597752
     10          1           0        0.810520   -2.094119   -0.227400
     11          1           0        1.336051    1.823540    0.972619
     12          1           0        1.709751    2.008250   -0.389245
     13          8           0       -0.752183   -2.408948   -0.223833
     14          8           0        1.839497   -1.863030   -0.193338
     15          8           0       -3.037452   -0.851037    0.554530
     16          8           0        3.048010    0.566191    0.327188
     17          8           0       -2.116168    2.309094   -0.577922
     18          8           0        1.052922    2.314320    0.240153
 ---------------------------------------------------------------------

 SCF Done:  E(RHF) =  -458.216656581     A.U. after    2 cycles

 The electronic state is 1-A.
 Alpha  occ. eigenvalues --  -21.10124 -21.10021 -21.09416 -21.07382 -21.07260
 Alpha  occ. eigenvalues --  -21.05518  -1.68534  -1.66585  -1.66204  -1.65515
 Alpha  occ. eigenvalues --   -1.63554  -1.61169  -0.65261  -0.64231  -0.64043
 Alpha  occ. eigenvalues --   -0.62748  -0.62153  -0.59550  -0.51274  -0.49654
 Alpha  occ. eigenvalues --   -0.47143  -0.44748  -0.44210  -0.40056  -0.36737
 Alpha  occ. eigenvalues --   -0.35880  -0.34846  -0.33785  -0.33053  -0.31807
 Alpha virt. eigenvalues --    0.03523   0.04417   0.04992   0.05458   0.06407
 Alpha virt. eigenvalues --    0.07921   0.08594   0.08920   0.10156   0.10426
 Alpha virt. eigenvalues --    0.11117   0.11598   0.18714   0.19314   0.20091

 Mulliken charges:
               1
     1  H    1.135520
     2  H    1.118020
     3  H    0.888768
     4  H    0.710990
     5  H    1.418252
     6  H    0.817149
     7  H    0.936603
     8  H    1.480107
     9  H    0.830060
    10  H    1.800645
    11  H    1.137461
    12  H    1.129221
    13  O   -2.409499
    14  O   -2.433593
    15  O   -2.159588
    16  O   -2.021693
    17  O   -2.058642
    18  O   -2.319780
 Sum of Mulliken charges =  -0.00000

 Dipole moment (field-independent basis, Debye):
    X=             -1.6613    Y=             -0.9882    Z=             -0.5291  Tot=              2.0041

 Test job not archived.
 1\1\GINC-SE088\SP\RHF\Aug-CC-pVDZ\H12O6\OHZDE\08-Apr-2025\0\\#t hf aug
 -cc-pvdz iop(5/13=1,5/36=2,99/5=2) pseudo=read geom=check guess=(read,
 tcheck) scf=(maxcycle=1)\\title\\0,1\H,0,-1.17398,2.54372,-0.544716\H,
 0,-2.7551,0.0851596,0.369029\H,0,-3.56703,-0.901898,1.39144\H,0,-1.006
 53,-2.99969,-0.993673\H,0,-1.59769,-1.9329,-0.101696\H,0,3.49808,0.797
 262,-0.512969\H,0,-2.62454,3.07576,-0.583624\H,0,2.77443,-0.325126,0.2
 03755\H,0,2.31904,-2.6127,-0.597752\H,0,0.810523,-2.09412,-0.2274\H,0,
 1.33605,1.82354,0.972619\H,0,1.70975,2.00825,-0.389245\O,0,-0.75218,-2

 Normal termination of Gaussian 16 at Tue Apr  8 21:09:46 2025.
