 Gaussian 16, Revision C.01,

 ----------------------------------------------------------------------
 #t hf aug-cc-pvdz symm=none int=(grid=ultrafine) guess=(read,tcheck) s
 table=(opt,rrhf)
 ----------------------------------------------------------------------
 -----
 title
 -----
 Symbolic Z-matrix:
 Charge =  0 Multiplicity = 1

 SCF Done:  E(RHF) =  -584.435189431     A.U. after   14 cycles
 Normal termination of Gaussian 16 at Tue Apr  8 22:15:34 2025.
 Gaussian 16:  ES64L-G16RevC.01  3-Jul-2019

 ----------------------------------------------------------------------
 #t hf aug-cc-pvdz iop(5/13=1,5/36=2,99/5=2) pseudo=read geom=check gue
 ss=(read,tcheck) scf=(maxcycle=1)
 ----------------------------------------------------------------------
 -----
 title
 -----
 Structure from the checkpoint file:  "ANI1ccx_940_conf13_mol2.chk"
 Charge =  0 Multiplicity = 1

                         Standard orientation:
 ---------------------------------------------------------------------
 Center     Atomic      Atomic             Coordinates (Angstroms)
 Number     Number       Type             X           Y           Z
 ---------------------------------------------------------------------
      1          6           0       -0.750165   -0.600768   -0.013814
      2          6           0        0.474371   -0.803152   -0.925724
      3          6           0        1.715291   -0.059901   -0.442649
      4          6           0       -0.916575    0.905534    0.291151
      5          1           0       -2.264239    0.816491   -0.943653
      6          1           0        2.890741    0.053970    0.986043
      7          1           0        0.656723   -1.878070   -1.067540
      8          1           0        0.192514   -0.411905   -1.889500
      9          1           0       -2.684769   -1.222171   -0.026554
     10          1           0       -1.767528   -1.972281   -1.155800
     11          1           0        0.033931   -0.758387    1.781310
     12          7           0       -1.906819   -1.101361   -0.688435
     13          8           0       -1.891679    1.521229   -0.387427
     14          8           0       -0.570947   -1.250321    1.222810
     15          8           0        2.155281   -0.550809    0.724210
     16          8           0        2.176771    0.923991   -0.991321
     17          8           0       -0.225322    1.409860    1.141850
 ---------------------------------------------------------------------

 SCF Done:  E(RHF) =  -586.914798176     A.U. after    2 cycles

 The electronic state is 1-A.
 Alpha  occ. eigenvalues --  -21.13638 -21.13339 -21.08484 -21.06447 -21.06202
 Alpha  occ. eigenvalues --  -15.78173 -11.55873 -11.54442 -11.51748 -11.43428
 Alpha  occ. eigenvalues --   -1.85004  -1.83476  -1.74911  -1.67413  -1.66206
 Alpha  occ. eigenvalues --   -1.37606  -1.16362  -0.98785  -0.84393  -0.78059
 Alpha  occ. eigenvalues --   -0.75288  -0.71392  -0.66626  -0.64823  -0.62524
 Alpha  occ. eigenvalues --   -0.60765  -0.55930  -0.55270  -0.53424  -0.52079
 Alpha  occ. eigenvalues --   -0.50426  -0.47157  -0.41932  -0.41398  -0.36534
 Alpha  occ. eigenvalues --   -0.35213  -0.32790  -0.30686  -0.29506
 Alpha virt. eigenvalues --    0.03026   0.04506   0.04799   0.05546   0.06138
 Alpha virt. eigenvalues --    0.06833   0.07565   0.10060   0.10618   0.10902
 Alpha virt. eigenvalues --    0.12090   0.12540   0.13231   0.13954   0.14258

 Mulliken charges:
               1
     1  C    6.559370
     2  C   -5.138372
     3  C    6.885786
     4  C    6.029218
     5  H    0.956400
     6  H    0.815632
     7  H    1.368822
     8  H    1.277365
     9  H    0.500571
    10  H    0.624017
    11  H    0.897634
    12  N   -3.705949
    13  O   -3.364993
    14  O   -4.060824
    15  O   -3.109206
    16  O   -3.336335
    17  O   -3.199135
 Sum of Mulliken charges =  -0.00000

 Dipole moment (field-independent basis, Debye):
    X=             -1.2118    Y=             -2.7140    Z=             -0.1719  Tot=              2.9772

 Test job not archived.
 1\1\GINC-SE015\SP\RHF\Aug-CC-pVDZ\C4H7N1O5\OHZDE\08-Apr-2025\0\\#t hf
 aug-cc-pvdz iop(5/13=1,5/36=2,99/5=2) pseudo=read geom=check guess=(re
 ad,tcheck) scf=(maxcycle=1)\\title\\0,1\C,0,-0.750166,-0.600767,-0.013
 8142\C,0,0.47437,-0.803152,-0.925724\C,0,1.71529,-0.0599014,-0.442649\
 C,0,-0.916576,0.905535,0.291151\H,0,-2.26424,0.816492,-0.943653\H,0,2.
 89074,0.0539698,0.986043\H,0,0.656722,-1.87807,-1.06754\H,0,0.192513,-
 0.411905,-1.8895\H,0,-2.68477,-1.22217,-0.0265535\H,0,-1.76753,-1.9722
 8,-1.1558\H,0,0.0339302,-0.758387,1.78131\N,0,-1.90682,-1.10136,-0.688

 Normal termination of Gaussian 16 at Tue Apr  8 22:15:46 2025.
