 Gaussian 16, Revision C.01,

 ----------------------------------------------------------------------
 #t hf aug-cc-pvdz symm=none int=(grid=ultrafine) guess=(read,tcheck) s
 table=(opt,rrhf)
 ----------------------------------------------------------------------
 -----
 title
 -----
 Symbolic Z-matrix:
 Charge =  0 Multiplicity = 1

 SCF Done:  E(RHF) =  -699.156670967     A.U. after   14 cycles
 Normal termination of Gaussian 16 at Tue Apr  8 20:00:28 2025.
 Gaussian 16:  ES64L-G16RevC.01  3-Jul-2019

 ----------------------------------------------------------------------
 #t hf aug-cc-pvdz iop(5/13=1,5/36=2,99/5=2) pseudo=read geom=check gue
 ss=(read,tcheck) scf=(maxcycle=1)
 ----------------------------------------------------------------------
 -----
 title
 -----
 Structure from the checkpoint file:  "ANI1ccx_1533_conf1_mol2.chk"
 Charge =  0 Multiplicity = 1

                         Standard orientation:
 ---------------------------------------------------------------------
 Center     Atomic      Atomic             Coordinates (Angstroms)
 Number     Number       Type             X           Y           Z
 ---------------------------------------------------------------------
      1          6           0        3.941380    0.817059    0.544569
      2          6           0        3.447640   -0.585714    0.113579
      3          6           0        1.145900   -0.269423   -0.078293
      4          6           0       -1.810000   -1.110720   -0.043488
      5          6           0       -3.042080   -0.551467    0.648188
      6          6           0       -2.920060    0.996047    0.430705
      7          6           0       -1.559950    1.262200   -0.200339
      8          1           0       -2.964940    1.567590    1.377920
      9          1           0       -3.697650    1.438450   -0.172334
     10          1           0       -3.013370   -0.792029    1.726640
     11          1           0       -3.951010   -1.058930    0.187879
     12          1           0        4.213740   -1.040739   -0.485396
     13          1           0        4.955960    0.779991    0.972799
     14          1           0        4.019080    1.461751   -0.361747
     15          1           0        3.233820    1.285181    1.292010
     16          1           0        3.229280   -1.201939    0.999064
     17          7           0       -1.062850   -0.016850   -0.474922
     18          8           0       -1.547620   -2.302730   -0.155848
     19          8           0        2.280480   -0.476631   -0.741083
     20          8           0        0.926548   -0.093434    1.106650
     21          8           0        0.165109   -0.156703   -1.042670
     22          8           0       -1.049760    2.320840   -0.504784
 ---------------------------------------------------------------------

 SCF Done:  E(RHF) =  -702.173689808     A.U. after    2 cycles

 The electronic state is 1-A.
 Alpha  occ. eigenvalues --  -21.15558 -21.12595 -21.07658 -21.07054 -21.06618
 Alpha  occ. eigenvalues --  -15.83516 -11.57463 -11.56408 -11.54272 -11.47079
 Alpha  occ. eigenvalues --  -11.46137 -11.41632 -11.38441  -1.97843  -1.81791
 Alpha  occ. eigenvalues --   -1.72480  -1.71839  -1.69370  -1.40734  -1.17857
 Alpha  occ. eigenvalues --   -1.13295  -1.02904  -0.93504  -0.88963  -0.84437
 Alpha  occ. eigenvalues --   -0.74401  -0.73501  -0.68439  -0.66306  -0.64660
 Alpha  occ. eigenvalues --   -0.62783  -0.62114  -0.59987  -0.57250  -0.56521
 Alpha  occ. eigenvalues --   -0.54767  -0.52317  -0.52078  -0.51287  -0.50556
 Alpha  occ. eigenvalues --   -0.49430  -0.43741  -0.43453  -0.38238  -0.34939
 Alpha  occ. eigenvalues --   -0.34124  -0.32985  -0.32139  -0.29705
 Alpha virt. eigenvalues --    0.02982   0.04469   0.05008   0.05083   0.05647
 Alpha virt. eigenvalues --    0.06086   0.06616   0.06924   0.07406   0.08800
 Alpha virt. eigenvalues --    0.10232   0.10350   0.11019   0.11567   0.12232

 Mulliken charges:
               1
     1  C   -3.842737
     2  C   -2.193975
     3  C    6.602725
     4  C    4.637625
     5  C   -3.288451
     6  C   -3.103530
     7  C    4.676253
     8  H    1.334528
     9  H    1.362463
    10  H    1.377802
    11  H    1.321705
    12  H    1.446239
    13  H    1.191296
    14  H    1.376290
    15  H    1.269566
    16  H    1.555550
    17  N    0.842126
    18  O   -3.445599
    19  O   -3.233531
    20  O   -2.658888
    21  O   -3.698216
    22  O   -3.529241
 Sum of Mulliken charges =  -0.00000

 Dipole moment (field-independent basis, Debye):
    X=              0.5520    Y=              0.0862    Z=              0.5137  Tot=              0.7590

 Test job not archived.
 1\1\GINC-SE249\SP\RHF\Aug-CC-pVDZ\C7H9N1O5\OHZDE\08-Apr-2025\0\\#t hf
 aug-cc-pvdz iop(5/13=1,5/36=2,99/5=2) pseudo=read geom=check guess=(re
 ad,tcheck) scf=(maxcycle=1)\\title\\0,1\C,0,3.94138,0.817058,0.544569\
 C,0,3.44764,-0.585715,0.113579\C,0,1.1459,-0.269424,-0.0782932\C,0,-1.
 81,-1.11072,-0.043488\C,0,-3.04208,-0.551467,0.648188\C,0,-2.92006,0.9
 96047,0.430705\C,0,-1.55995,1.2622,-0.200339\H,0,-2.96494,1.56759,1.37
 792\H,0,-3.69765,1.43845,-0.172334\H,0,-3.01337,-0.792029,1.72664\H,0,
 -3.95101,-1.05893,0.187879\H,0,4.21374,-1.04074,-0.485396\H,0,4.95596,

 Normal termination of Gaussian 16 at Tue Apr  8 20:00:44 2025.
