 Gaussian 16, Revision C.01,

 ----------------------------------------------------------------------
 #t hf aug-cc-pvdz symm=none int=(grid=ultrafine) guess=(read,tcheck) s
 table=(opt,rrhf)
 ----------------------------------------------------------------------
 -----
 title
 -----
 Symbolic Z-matrix:
 Charge =  0 Multiplicity = 1

 SCF Done:  E(RHF) =  -480.467638739     A.U. after   17 cycles
 Normal termination of Gaussian 16 at Tue Apr  8 22:07:59 2025.
 Gaussian 16:  ES64L-G16RevC.01  3-Jul-2019

 ----------------------------------------------------------------------
 #t hf aug-cc-pvdz iop(5/13=1,5/36=2,99/5=2) pseudo=read geom=check gue
 ss=(read,tcheck) scf=(maxcycle=1)
 ----------------------------------------------------------------------
 -----
 title
 -----
 Structure from the checkpoint file:  "ANI1ccx_885_conf4_mol2.chk"
 Charge =  0 Multiplicity = 1

                         Standard orientation:
 ---------------------------------------------------------------------
 Center     Atomic      Atomic             Coordinates (Angstroms)
 Number     Number       Type             X           Y           Z
 ---------------------------------------------------------------------
      1          6           0       -1.204150   -0.603007   -0.020145
      2          6           0       -0.081362    1.887390    0.021231
      3          6           0        0.786127    0.782136   -0.035120
      4          6           0        0.184163   -0.463363    0.020191
      5          1           0       -2.844499   -1.790473    0.046967
      6          1           0       -1.301288   -2.632281    0.194523
      7          1           0        0.153090    2.944740    0.076741
      8          1           0        2.882299    1.114993   -0.001263
      9          7           0       -1.817939   -1.787622   -0.040062
     10          7           0       -1.964291    0.516755    0.021663
     11          7           0       -1.374942    1.709579   -0.017192
     12          7           0        2.078369    0.525750   -0.006499
     13          7           0        2.322940   -0.837117    0.004013
     14          7           0        1.184681   -1.449619    0.004662
 ---------------------------------------------------------------------

 SCF Done:  E(RHF) =  -482.628616845     A.U. after    2 cycles

 The electronic state is 1-A.
 Alpha  occ. eigenvalues --  -15.84671 -15.83346 -15.80056 -15.78507 -15.77729
 Alpha  occ. eigenvalues --  -15.74366 -11.53390 -11.50756 -11.44718 -11.41711
 Alpha  occ. eigenvalues --   -1.71222  -1.54751  -1.39821  -1.34562  -1.22743
 Alpha  occ. eigenvalues --   -1.16673  -0.96604  -0.94258  -0.88687  -0.77662
 Alpha  occ. eigenvalues --   -0.73389  -0.69565  -0.68080  -0.64335  -0.61734
 Alpha  occ. eigenvalues --   -0.57780  -0.57594  -0.51496  -0.49652  -0.42786
 Alpha  occ. eigenvalues --   -0.41885  -0.41299  -0.36792  -0.34510  -0.29632
 Alpha virt. eigenvalues --    0.02889   0.04843   0.05281   0.06949   0.08939
 Alpha virt. eigenvalues --    0.10068   0.10330   0.11676   0.12037   0.12417
 Alpha virt. eigenvalues --    0.12693   0.12943   0.13301   0.13790   0.14328

 Mulliken charges:
               1
     1  C    4.224023
     2  C   -0.651291
     3  C    4.857603
     4  C    2.047952
     5  H    0.835042
     6  H    0.619341
     7  H    1.318358
     8  H    0.978649
     9  N   -3.844413
    10  N   -2.380409
    11  N   -2.028280
    12  N   -3.309818
    13  N   -0.396114
    14  N   -2.270641
 Sum of Mulliken charges =  -0.00000

 Dipole moment (field-independent basis, Debye):
    X=              2.0964    Y=             -0.2719    Z=              0.3736  Tot=              2.1467

 Test job not archived.
 1\1\GINC-SE250\SP\RHF\Aug-CC-pVDZ\C4H4N6\OHZDE\08-Apr-2025\0\\#t hf au
 g-cc-pvdz iop(5/13=1,5/36=2,99/5=2) pseudo=read geom=check guess=(read
 ,tcheck) scf=(maxcycle=1)\\title\\0,1\C,0,-1.20415,-0.603006,-0.020144
 6\C,0,-0.0813601,1.88739,0.0212307\C,0,0.786128,0.782135,-0.0351198\C,
 0,0.184163,-0.463363,0.020191\H,0,-2.8445,-1.79047,0.0469667\H,0,-1.30
 129,-2.63228,0.194523\H,0,0.153093,2.94474,0.0767406\H,0,2.8823,1.1149
 9,-0.00126314\N,0,-1.81794,-1.78762,-0.0400624\N,0,-1.96429,0.516757,0
 .0216627\N,0,-1.37494,1.70958,-0.0171921\N,0,2.07837,0.525748,-0.00649

 Normal termination of Gaussian 16 at Tue Apr  8 22:08:05 2025.
