 Gaussian 16, Revision C.01,

 ----------------------------------------------------------------------
 #t hf aug-cc-pvdz symm=none int=(grid=ultrafine) guess=(read,tcheck) s
 table=(opt,rrhf)
 ----------------------------------------------------------------------
 -----
 title
 -----
 Symbolic Z-matrix:
 Charge =  0 Multiplicity = 1

 SCF Done:  E(RHF) =  -414.357911992     A.U. after   15 cycles
 Normal termination of Gaussian 16 at Tue Apr  8 21:38:45 2025.
 Gaussian 16:  ES64L-G16RevC.01  3-Jul-2019

 ----------------------------------------------------------------------
 #t hf aug-cc-pvdz iop(5/13=1,5/36=2,99/5=2) pseudo=read geom=check gue
 ss=(read,tcheck) scf=(maxcycle=1)
 ----------------------------------------------------------------------
 -----
 title
 -----
 Structure from the checkpoint file:  "ANI1ccx_410_conf7_mol1.chk"
 Charge =  0 Multiplicity = 1

                         Standard orientation:
 ---------------------------------------------------------------------
 Center     Atomic      Atomic             Coordinates (Angstroms)
 Number     Number       Type             X           Y           Z
 ---------------------------------------------------------------------
      1          6           0        2.573350   -0.167240   -0.023941
      2          1           0        1.132260   -1.421200    0.029047
      3          1           0        3.234010   -1.059590   -0.058340
      4          1           0       -3.098420    1.042180    0.838601
      5          1           0       -0.564750   -0.400057   -0.564210
      6          8           0        1.276830   -0.469424   -0.032479
      7          8           0        2.955500    0.948854    0.015948
      8          8           0       -2.860670    0.896601   -0.114300
      9          8           0       -2.354640   -0.478255   -0.106294
     10          8           0       -1.034920   -0.542514    0.224444
 ---------------------------------------------------------------------

 SCF Done:  E(RHF) =  -416.039040546     A.U. after    2 cycles

 The electronic state is 1-A.
 Alpha  occ. eigenvalues --  -21.14713 -21.14659 -21.13542 -21.13068 -21.07459
 Alpha  occ. eigenvalues --  -11.52839  -2.07050  -1.85612  -1.70007  -1.67421
 Alpha  occ. eigenvalues --   -1.27686  -0.88354  -0.75794  -0.68557  -0.59699
 Alpha  occ. eigenvalues --   -0.56985  -0.56485  -0.54548  -0.54109  -0.49335
 Alpha  occ. eigenvalues --   -0.36643  -0.34613  -0.33090  -0.32323  -0.31882
 Alpha virt. eigenvalues --    0.02671   0.05639   0.05873   0.07956   0.09708
 Alpha virt. eigenvalues --    0.11435   0.12180   0.13796   0.14613   0.16234
 Alpha virt. eigenvalues --    0.17467   0.19618   0.21366   0.21791   0.22256

 Mulliken charges:
               1
     1  C    2.560354
     2  H    0.985352
     3  H    1.442937
     4  H    0.913022
     5  H    1.136119
     6  O   -2.761024
     7  O   -2.432260
     8  O   -0.974079
     9  O    0.444874
    10  O   -1.315297
 Sum of Mulliken charges =  -0.00000

 Dipole moment (field-independent basis, Debye):
    X=              0.5202    Y=             -1.5202    Z=              0.2524  Tot=              1.6265

 Test job not archived.
 1\1\GINC-SE455\SP\RHF\Aug-CC-pVDZ\C1H4O5\OHZDE\08-Apr-2025\0\\#t hf au
 g-cc-pvdz iop(5/13=1,5/36=2,99/5=2) pseudo=read geom=check guess=(read
 ,tcheck) scf=(maxcycle=1)\\title\\0,1\C,0,2.57335,-0.16724,-0.0239413\
 H,0,1.13226,-1.4212,0.0290468\H,0,3.23401,-1.05959,-0.0583396\H,0,-3.0
 9842,1.04218,0.838601\H,0,-0.56475,-0.400057,-0.56421\O,0,1.27683,-0.4
 69424,-0.0324788\O,0,2.9555,0.948854,0.0159477\O,0,-2.86067,0.896601,-
 0.1143\O,0,-2.35464,-0.478255,-0.106294\O,0,-1.03492,-0.542514,0.22444
 4\\Version=ES64L-G16RevC.01\State=1-A\HF=-416.0390405\RMSD=4.015e-02\D

 Normal termination of Gaussian 16 at Tue Apr  8 21:38:47 2025.
