 Gaussian 16, Revision C.01,

 ----------------------------------------------------------------------
 #t hf aug-cc-pvdz symm=none int=(grid=ultrafine) guess=(read,tcheck) s
 table=(opt,rrhf)
 ----------------------------------------------------------------------
 -----
 title
 -----
 Symbolic Z-matrix:
 Charge =  0 Multiplicity = 1

 SCF Done:  E(RHF) =  -339.377490338     A.U. after   14 cycles
 Normal termination of Gaussian 16 at Tue Apr  8 21:50:52 2025.
 Gaussian 16:  ES64L-G16RevC.01  3-Jul-2019

 ----------------------------------------------------------------------
 #t hf aug-cc-pvdz iop(5/13=1,5/36=2,99/5=2) pseudo=read geom=check gue
 ss=(read,tcheck) scf=(maxcycle=1)
 ----------------------------------------------------------------------
 -----
 title
 -----
 Structure from the checkpoint file:  "ANI1ccx_665_conf10_mol1.chk"
 Charge =  0 Multiplicity = 1

                         Standard orientation:
 ---------------------------------------------------------------------
 Center     Atomic      Atomic             Coordinates (Angstroms)
 Number     Number       Type             X           Y           Z
 ---------------------------------------------------------------------
      1          6           0        0.783603   -0.034156    0.007510
      2          6           0       -1.371840   -0.635223    0.009065
      3          6           0       -1.271342    0.706183    0.013735
      4          1           0       -2.112989   -1.409793    0.110288
      5          1           0       -2.141013    1.441177    0.049745
      6          8           0        1.949229   -0.017374    0.030445
      7          8           0       -0.050689   -1.112871   -0.040082
      8          8           0        0.027895    1.098719   -0.033100
 ---------------------------------------------------------------------

 SCF Done:  E(RHF) =  -340.772226956     A.U. after    2 cycles

 The electronic state is 1-A.
 Alpha  occ. eigenvalues --  -21.14755 -21.13752 -21.06932 -11.56402 -11.50892
 Alpha  occ. eigenvalues --  -11.45087  -1.98513  -1.75372  -1.71762  -1.12134
 Alpha  occ. eigenvalues --   -0.87709  -0.84070  -0.74228  -0.67318  -0.63637
 Alpha  occ. eigenvalues --   -0.53800  -0.51184  -0.48118  -0.45448  -0.44266
 Alpha  occ. eigenvalues --   -0.32853  -0.27262
 Alpha virt. eigenvalues --    0.02744   0.04185   0.08459   0.09346   0.10342
 Alpha virt. eigenvalues --    0.11366   0.11620   0.11942   0.12197   0.13238
 Alpha virt. eigenvalues --    0.13513   0.14797   0.17542   0.18345   0.20696

 Mulliken charges:
               1
     1  C    6.177962
     2  C   -0.095073
     3  C    0.716919
     4  H    1.193932
     5  H    1.428823
     6  O   -3.116514
     7  O   -3.065684
     8  O   -3.240364
 Sum of Mulliken charges =  -0.00000

 Dipole moment (field-independent basis, Debye):
    X=             -3.3180    Y=              0.0543    Z=              0.0692  Tot=              3.3192

 Test job not archived.
 1\1\GINC-SE455\SP\RHF\Aug-CC-pVDZ\C3H2O3\OHZDE\08-Apr-2025\0\\#t hf au
 g-cc-pvdz iop(5/13=1,5/36=2,99/5=2) pseudo=read geom=check guess=(read
 ,tcheck) scf=(maxcycle=1)\\title\\0,1\C,0,0.783604,-0.0341561,0.007509
 74\C,0,-1.37184,-0.63522,0.00906509\C,0,-1.27134,0.706185,0.0137352\H,
 0,-2.11299,-1.40979,0.110288\H,0,-2.14101,1.44118,0.049745\O,0,1.94923
 ,-0.0173756,0.0304452\O,0,-0.0506893,-1.11287,-0.0400823\O,0,0.0278972
 ,1.09872,-0.0330995\\Version=ES64L-G16RevC.01\State=1-A\HF=-340.772227
 \RMSD=4.882e-01\Dipole=-1.3054122,0.0213739,0.0272435\Quadrupole=-0.53

 Normal termination of Gaussian 16 at Tue Apr  8 21:50:55 2025.
