 Gaussian 16, Revision C.01,

 ----------------------------------------------------------------------
 #t hf aug-cc-pvdz symm=none int=(grid=ultrafine) guess=(read,tcheck) s
 table=(opt,rrhf)
 ----------------------------------------------------------------------
 -----
 title
 -----
 Symbolic Z-matrix:
 Charge =  0 Multiplicity = 1

 SCF Done:  E(RHF) =  -532.282942731     A.U. after   11 cycles
 Normal termination of Gaussian 16 at Tue Apr  8 21:11:06 2025.
 Gaussian 16:  ES64L-G16RevC.01  3-Jul-2019

 ----------------------------------------------------------------------
 #t hf aug-cc-pvdz iop(5/13=1,5/36=2,99/5=2) pseudo=read geom=check gue
 ss=(read,tcheck) scf=(maxcycle=1)
 ----------------------------------------------------------------------
 -----
 title
 -----
 Structure from the checkpoint file:  "ANI1ccx_1845_conf409_mol1.chk"
 Charge =  0 Multiplicity = 1

                         Standard orientation:
 ---------------------------------------------------------------------
 Center     Atomic      Atomic             Coordinates (Angstroms)
 Number     Number       Type             X           Y           Z
 ---------------------------------------------------------------------
      1          1           0       -3.742950   -0.705168   -0.186107
      2          1           0        0.521343   -3.452970   -1.094110
      3          1           0        1.225160   -2.069770   -0.698719
      4          1           0        1.039850    3.516010   -0.937061
      5          1           0       -0.040314    2.054990   -1.003050
      6          1           0       -2.817490   -0.393493    0.999882
      7          1           0       -0.685924   -1.580800    0.747348
      8          1           0        2.633980   -0.266632   -1.117290
      9          1           0       -0.349143   -0.259898    1.508820
     10          1           0        1.553860    1.557090    0.666923
     11          1           0        1.820650    1.297280    2.201940
     12          1           0       -0.716393    0.230613   -0.738765
     13          1           0       -2.072450    0.659756   -0.544229
     14          1           0        2.984390   -0.519398    0.341997
     15          8           0       -3.368670   -0.025273    0.348946
     16          8           0        2.773430   -0.938171   -0.448479
     17          8           0        0.710139    2.640480   -0.560665
     18          8           0        1.762930    0.852404    1.354640
     19          8           0        0.402101   -2.641650   -0.505294
     20          8           0       -1.008880   -0.681296    0.987361
     21          8           0       -1.440370    0.785055   -1.194960
 ---------------------------------------------------------------------

 SCF Done:  E(RHF) =  -534.563738430     A.U. after    2 cycles

 The electronic state is 1-A.
 Alpha  occ. eigenvalues --  -21.10634 -21.08932 -21.08525 -21.08063 -21.07950
 Alpha  occ. eigenvalues --  -21.07619 -21.05452  -1.69528  -1.68846  -1.66087
 Alpha  occ. eigenvalues --   -1.65781  -1.63788  -1.63339  -1.61943  -0.65951
 Alpha  occ. eigenvalues --   -0.65822  -0.65747  -0.64820  -0.64000  -0.61639
 Alpha  occ. eigenvalues --   -0.59131  -0.51928  -0.50215  -0.48905  -0.47109
 Alpha  occ. eigenvalues --   -0.44169  -0.41634  -0.39161  -0.36460  -0.35600
 Alpha  occ. eigenvalues --   -0.35415  -0.35154  -0.33935  -0.33307  -0.30775
 Alpha virt. eigenvalues --    0.03637   0.04450   0.04717   0.05890   0.06255
 Alpha virt. eigenvalues --    0.06837   0.07565   0.08166   0.08967   0.09836
 Alpha virt. eigenvalues --    0.10074   0.10757   0.11631   0.12680   0.17924

 Mulliken charges:
               1
     1  H    0.836253
     2  H    0.844164
     3  H    1.433095
     4  H    0.982765
     5  H    1.241614
     6  H    1.296336
     7  H    1.519995
     8  H    0.888630
     9  H    1.391063
    10  H    1.534831
    11  H    0.944373
    12  H    1.087261
    13  H    1.684401
    14  H    1.442377
    15  O   -2.103564
    16  O   -2.471895
    17  O   -2.372376
    18  O   -2.288801
    19  O   -2.127540
    20  O   -3.342260
    21  O   -2.420722
 Sum of Mulliken charges =  -0.00000

 Dipole moment (field-independent basis, Debye):
    X=              1.2483    Y=              0.0187    Z=              0.4879  Tot=              1.3404

 Test job not archived.
 1\1\GINC-SE340\SP\RHF\Aug-CC-pVDZ\H14O7\OHZDE\08-Apr-2025\0\\#t hf aug
 -cc-pvdz iop(5/13=1,5/36=2,99/5=2) pseudo=read geom=check guess=(read,
 tcheck) scf=(maxcycle=1)\\title\\0,1\H,0,-3.74295,-0.705168,-0.186107\
 H,0,0.521343,-3.45297,-1.09411\H,0,1.22516,-2.06977,-0.698719\H,0,1.03
 985,3.51601,-0.937061\H,0,-0.0403138,2.05499,-1.00305\H,0,-2.81749,-0.
 393493,0.999882\H,0,-0.685924,-1.5808,0.747348\H,0,2.63398,-0.266632,-
 1.11729\H,0,-0.349143,-0.259898,1.50882\H,0,1.55386,1.55709,0.666923\H
 ,0,1.82065,1.29728,2.20194\H,0,-0.716393,0.230613,-0.738765\H,0,-2.072

 Normal termination of Gaussian 16 at Tue Apr  8 21:11:12 2025.
