 Gaussian 16, Revision C.01,

 ----------------------------------------------------------------------
 #t hf aug-cc-pvdz symm=none int=(grid=ultrafine) guess=(read,tcheck) s
 table=(opt,rrhf)
 ----------------------------------------------------------------------
 -----
 title
 -----
 Symbolic Z-matrix:
 Charge =  0 Multiplicity = 1

 SCF Done:  E(RHF) =  -318.600454759     A.U. after   16 cycles
 Normal termination of Gaussian 16 at Tue Apr  8 21:36:39 2025.
 Gaussian 16:  ES64L-G16RevC.01  3-Jul-2019

 ----------------------------------------------------------------------
 #t hf aug-cc-pvdz iop(5/13=1,5/36=2,99/5=2) pseudo=read geom=check gue
 ss=(read,tcheck) scf=(maxcycle=1)
 ----------------------------------------------------------------------
 -----
 title
 -----
 Structure from the checkpoint file:  "ANI1ccx_387_conf4_mol1.chk"
 Charge =  0 Multiplicity = 1

                         Standard orientation:
 ---------------------------------------------------------------------
 Center     Atomic      Atomic             Coordinates (Angstroms)
 Number     Number       Type             X           Y           Z
 ---------------------------------------------------------------------
      1          6           0        1.252989    0.134639    0.000267
      2          1           0       -2.797032    1.233899    0.014880
      3          1           0        1.335770   -1.728019    0.157832
      4          1           0        0.169845   -0.053202    0.027557
      5          7           0       -2.611191    0.274440    0.440522
      6          8           0       -2.223471   -0.479549   -0.421680
      7          8           0        1.969780   -0.996002    0.131553
      8          8           0        1.760168    1.202852   -0.120563
 ---------------------------------------------------------------------

 SCF Done:  E(RHF) =  -319.899256386     A.U. after    2 cycles

 The electronic state is 1-A.
 Alpha  occ. eigenvalues --  -21.16895 -21.13592 -21.06506 -15.90306 -11.51553
 Alpha  occ. eigenvalues --   -1.88019  -1.83009  -1.66487  -1.05653  -0.86928
 Alpha  occ. eigenvalues --   -0.73554  -0.68958  -0.57354  -0.55103  -0.54463
 Alpha  occ. eigenvalues --   -0.54015  -0.48466  -0.34507  -0.32075  -0.31578
 Alpha virt. eigenvalues --    0.03658   0.04486   0.07241   0.08865   0.10659
 Alpha virt. eigenvalues --    0.11544   0.13179   0.13727   0.14481   0.16771
 Alpha virt. eigenvalues --    0.17358   0.18547   0.19565   0.20976   0.22102

 Mulliken charges:
               1
     1  C    2.592506
     2  H    0.793351
     3  H    1.022729
     4  H    1.486950
     5  N    0.821167
     6  O   -1.622000
     7  O   -2.485967
     8  O   -2.608737
 Sum of Mulliken charges =  -0.00000

 Dipole moment (field-independent basis, Debye):
    X=             -1.7070    Y=             -1.0473    Z=             -0.6200  Tot=              2.0964

 Test job not archived.
 1\1\GINC-SE455\SP\RHF\Aug-CC-pVDZ\C1H3N1O3\OHZDE\08-Apr-2025\0\\#t hf
 aug-cc-pvdz iop(5/13=1,5/36=2,99/5=2) pseudo=read geom=check guess=(re
 ad,tcheck) scf=(maxcycle=1)\\title\\0,1\C,0,1.25299,0.134638,0.0002667
 3\H,0,-2.79703,1.2339,0.0148801\H,0,1.33577,-1.72802,0.157832\H,0,0.16
 9846,-0.0532029,0.0275576\N,0,-2.61119,0.274441,0.440522\O,0,-2.22347,
 -0.479548,-0.42168\O,0,1.96978,-0.996004,0.131553\O,0,1.76017,1.20285,
 -0.120563\\Version=ES64L-G16RevC.01\State=1-A\HF=-319.8992564\RMSD=5.5
 35e-02\Dipole=-0.6715748,-0.4120388,-0.2439454\Quadrupole=-1.1373908,1

 Normal termination of Gaussian 16 at Tue Apr  8 21:36:41 2025.
