 Gaussian 16, Revision C.01,

 ----------------------------------------------------------------------
 #t hf aug-cc-pvdz symm=none int=(grid=ultrafine) guess=(read,tcheck) s
 table=(opt,rrhf)
 ----------------------------------------------------------------------
 -----
 title
 -----
 Symbolic Z-matrix:
 Charge =  0 Multiplicity = 1

 SCF Done:  E(RHF) =  -480.733205257     A.U. after   15 cycles
 Normal termination of Gaussian 16 at Tue Apr  8 21:49:26 2025.
 Gaussian 16:  ES64L-G16RevC.01  3-Jul-2019

 ----------------------------------------------------------------------
 #t hf aug-cc-pvdz iop(5/13=1,5/36=2,99/5=2) pseudo=read geom=check gue
 ss=(read,tcheck) scf=(maxcycle=1)
 ----------------------------------------------------------------------
 -----
 title
 -----
 Structure from the checkpoint file:  "ANI1ccx_558_conf4_mol1.chk"
 Charge =  0 Multiplicity = 1

                         Standard orientation:
 ---------------------------------------------------------------------
 Center     Atomic      Atomic             Coordinates (Angstroms)
 Number     Number       Type             X           Y           Z
 ---------------------------------------------------------------------
      1          6           0       -1.065552   -0.806374   -0.125857
      2          6           0        1.165218   -0.626264   -0.176246
      3          1           0        1.689579    2.407494   -0.124904
      4          1           0        1.667605    1.373564    1.111560
      5          1           0       -1.384382    2.305515   -0.246054
      6          1           0       -2.430946    1.064289    0.187625
      7          1           0        0.182518   -2.493280    0.286941
      8          1           0        2.753765   -1.651819    0.296175
      9          7           0        1.091046    1.702456    0.359118
     10          7           0        0.655053    0.643886   -0.458813
     11          7           0       -0.788901    0.490911   -0.531890
     12          7           0       -1.471235    1.387325    0.205532
     13          7           0        0.126858   -1.521090    0.031858
     14          7           0        2.427278   -0.711294    0.098983
     15          8           0       -2.169603   -1.044412    0.295969
 ---------------------------------------------------------------------

 SCF Done:  E(RHF) =  -482.857708122     A.U. after    2 cycles

 The electronic state is 1-A.
 Alpha  occ. eigenvalues --  -21.05202 -15.82169 -15.79190 -15.78409 -15.77271
 Alpha  occ. eigenvalues --  -15.75916 -15.72925 -11.53440 -11.50202  -1.78031
 Alpha  occ. eigenvalues --   -1.65423  -1.48226  -1.42231  -1.29250  -1.20081
 Alpha  occ. eigenvalues --   -1.05555  -0.90013  -0.83261  -0.75787  -0.73093
 Alpha  occ. eigenvalues --   -0.69751  -0.66782  -0.63033  -0.60002  -0.56693
 Alpha  occ. eigenvalues --   -0.56315  -0.52928  -0.47753  -0.42005  -0.41220
 Alpha  occ. eigenvalues --   -0.36777  -0.33749  -0.32687  -0.26018
 Alpha virt. eigenvalues --    0.03362   0.05034   0.05655   0.06214   0.06857
 Alpha virt. eigenvalues --    0.08127   0.09769   0.10816   0.11380   0.11762
 Alpha virt. eigenvalues --    0.13212   0.14012   0.14523   0.14986   0.15724

 Mulliken charges:
               1
     1  C    5.611843
     2  C    4.302975
     3  H    0.674695
     4  H    0.711268
     5  H    0.711541
     6  H    0.579487
     7  H    0.746558
     8  H    0.659442
     9  N   -1.859752
    10  N   -0.621231
    11  N   -1.067649
    12  N   -1.929478
    13  N   -2.489469
    14  N   -2.907279
    15  O   -3.122950
 Sum of Mulliken charges =  -0.00000

 Dipole moment (field-independent basis, Debye):
    X=              0.0984    Y=             -0.2023    Z=              0.1358  Tot=              0.2628

 Test job not archived.
 1\1\GINC-SE126\SP\RHF\Aug-CC-pVDZ\C2H6N6O1\OHZDE\08-Apr-2025\0\\#t hf
 aug-cc-pvdz iop(5/13=1,5/36=2,99/5=2) pseudo=read geom=check guess=(re
 ad,tcheck) scf=(maxcycle=1)\\title\\0,1\C,0,-1.06555,-0.806378,-0.1258
 57\C,0,1.16522,-0.62626,-0.176246\H,0,1.68957,2.4075,-0.124904\H,0,1.6
 676,1.37357,1.11156\H,0,-1.38439,2.30551,-0.246054\H,0,-2.43095,1.0642
 8,0.187625\H,0,0.182526,-2.49328,0.286941\H,0,2.75377,-1.65181,0.29617
 5\N,0,1.09104,1.70246,0.359118\N,0,0.65505,0.643888,-0.458813\N,0,-0.7
 88903,0.490908,-0.53189\N,0,-1.47124,1.38732,0.205532\N,0,0.126863,-1.

 Normal termination of Gaussian 16 at Tue Apr  8 21:49:32 2025.
