 Gaussian 16, Revision C.01,

 ----------------------------------------------------------------------
 #t hf aug-cc-pvdz symm=none int=(grid=ultrafine) guess=(read,tcheck) s
 table=(opt,rrhf)
 ----------------------------------------------------------------------
 -----
 title
 -----
 Symbolic Z-matrix:
 Charge =  0 Multiplicity = 1

 SCF Done:  E(RHF) =  -380.192281346     A.U. after   11 cycles
 Normal termination of Gaussian 16 at Tue Apr  8 21:06:28 2025.
 Gaussian 16:  ES64L-G16RevC.01  3-Jul-2019

 ----------------------------------------------------------------------
 #t hf aug-cc-pvdz iop(5/13=1,5/36=2,99/5=2) pseudo=read geom=check gue
 ss=(read,tcheck) scf=(maxcycle=1)
 ----------------------------------------------------------------------
 -----
 title
 -----
 Structure from the checkpoint file:  "ANI1ccx_1843_conf336_mol1.chk"
 Charge =  0 Multiplicity = 1

                         Standard orientation:
 ---------------------------------------------------------------------
 Center     Atomic      Atomic             Coordinates (Angstroms)
 Number     Number       Type             X           Y           Z
 ---------------------------------------------------------------------
      1          1           0       -1.136243    1.306227    0.210794
      2          1           0       -1.791521    0.389656   -0.871029
      3          1           0        1.394458    0.960385    0.142632
      4          1           0        0.564279    1.602050   -0.817813
      5          1           0        2.539180   -0.213755    1.314640
      6          1           0        1.980091   -0.823312   -0.004016
      7          1           0       -0.426804   -1.454802   -0.217573
      8          1           0        0.409693   -2.295880   -1.281940
      9          1           0       -2.112850   -0.115879    0.791015
     10          1           0       -1.602808   -1.167694    1.656100
     11          8           0       -1.922943    1.195006   -0.388748
     12          8           0        0.758389    1.684601    0.091855
     13          8           0        2.656260   -0.174216    0.329765
     14          8           0        0.359368   -1.375600   -0.876724
     15          8           0       -1.828258   -1.103164    0.728501
 ---------------------------------------------------------------------

 SCF Done:  E(RHF) =  -381.839967628     A.U. after    2 cycles

 The electronic state is 1-A.
 Alpha  occ. eigenvalues --  -21.11574 -21.09458 -21.09399 -21.08866 -21.07741
 Alpha  occ. eigenvalues --   -1.71314  -1.68271  -1.66741  -1.64393  -1.64092
 Alpha  occ. eigenvalues --   -0.66247  -0.64974  -0.63965  -0.63587  -0.61415
 Alpha  occ. eigenvalues --   -0.53742  -0.49695  -0.49231  -0.47066  -0.45728
 Alpha  occ. eigenvalues --   -0.37560  -0.36640  -0.34801  -0.34350  -0.32547
 Alpha virt. eigenvalues --    0.02892   0.04411   0.05328   0.06813   0.07327
 Alpha virt. eigenvalues --    0.07671   0.08435   0.09292   0.09763   0.10820
 Alpha virt. eigenvalues --    0.16624   0.19212   0.19452   0.20234   0.20914

 Mulliken charges:
               1
     1  H    1.148507
     2  H    1.021690
     3  H    1.586531
     4  H    0.863596
     5  H    0.694203
     6  H    1.319383
     7  H    1.604514
     8  H    0.779111
     9  H    1.079837
    10  H    0.761771
    11  O   -2.255676
    12  O   -2.259626
    13  O   -2.122614
    14  O   -2.188019
    15  O   -2.033209
 Sum of Mulliken charges =   0.00000

 Dipole moment (field-independent basis, Debye):
    X=             -0.2386    Y=             -2.0336    Z=              0.6485  Tot=              2.1478

 Test job not archived.
 1\1\GINC-SE048\SP\RHF\Aug-CC-pVDZ\H10O5\OHZDE\08-Apr-2025\0\\#t hf aug
 -cc-pvdz iop(5/13=1,5/36=2,99/5=2) pseudo=read geom=check guess=(read,
 tcheck) scf=(maxcycle=1)\\title\\0,1\H,0,-1.13624,1.30623,0.210794\H,0
 ,-1.79152,0.38966,-0.871029\H,0,1.39446,0.960383,0.142632\H,0,0.564282
 ,1.60205,-0.817813\H,0,2.53918,-0.213759,1.31464\H,0,1.98009,-0.823315
 ,-0.00401623\H,0,-0.426806,-1.4548,-0.217573\H,0,0.409689,-2.29588,-1.
 28194\H,0,-2.11285,-0.115874,0.791015\H,0,-1.60281,-1.16769,1.6561\O,0
 ,-1.92294,1.19501,-0.388748\O,0,0.758392,1.6846,0.0918555\O,0,2.65626,

 Normal termination of Gaussian 16 at Tue Apr  8 21:06:32 2025.
