 Gaussian 16, Revision C.01,

 ----------------------------------------------------------------------
 #t hf aug-cc-pvdz symm=none int=(grid=ultrafine) guess=(read,tcheck) s
 table=(opt,rrhf)
 ----------------------------------------------------------------------
 -----
 title
 -----
 Symbolic Z-matrix:
 Charge =  0 Multiplicity = 1

 SCF Done:  E(RHF) =  -380.221150057     A.U. after   11 cycles
 Normal termination of Gaussian 16 at Tue Apr  8 21:06:28 2025.
 Gaussian 16:  ES64L-G16RevC.01  3-Jul-2019

 ----------------------------------------------------------------------
 #t hf aug-cc-pvdz iop(5/13=1,5/36=2,99/5=2) pseudo=read geom=check gue
 ss=(read,tcheck) scf=(maxcycle=1)
 ----------------------------------------------------------------------
 -----
 title
 -----
 Structure from the checkpoint file:  "ANI1ccx_1843_conf57_mol1.chk"
 Charge =  0 Multiplicity = 1

                         Standard orientation:
 ---------------------------------------------------------------------
 Center     Atomic      Atomic             Coordinates (Angstroms)
 Number     Number       Type             X           Y           Z
 ---------------------------------------------------------------------
      1          1           0        1.191871    1.173779   -0.196181
      2          1           0        0.639414    2.644499   -0.096075
      3          1           0        1.525880   -0.770199   -0.214798
      4          1           0        2.546901   -0.238339    0.753669
      5          1           0        0.127297   -2.653510    0.096677
      6          1           0       -0.388820   -1.226200    0.624165
      7          1           0       -1.729629    0.132675    0.674407
      8          1           0       -0.560097    0.717829    1.412591
      9          1           0       -1.177659   -0.693477   -1.280749
     10          1           0       -1.012189    0.806578   -1.192949
     11          8           0        0.356154    1.708470   -0.009735
     12          8           0        2.299601   -0.136583   -0.211144
     13          8           0        0.111523   -1.684810   -0.104768
     14          8           0       -1.221719    0.010673    1.493111
     15          8           0       -1.690929    0.115547   -1.240059
 ---------------------------------------------------------------------

 SCF Done:  E(RHF) =  -381.868785912     A.U. after    2 cycles

 The electronic state is 1-A.
 Alpha  occ. eigenvalues --  -21.10422 -21.09274 -21.09231 -21.07762 -21.07404
 Alpha  occ. eigenvalues --   -1.70348  -1.67825  -1.66762  -1.64737  -1.63954
 Alpha  occ. eigenvalues --   -0.67487  -0.65671  -0.63376  -0.62480  -0.62350
 Alpha  occ. eigenvalues --   -0.54067  -0.51038  -0.48942  -0.46975  -0.42137
 Alpha  occ. eigenvalues --   -0.36885  -0.36566  -0.35020  -0.34771  -0.32181
 Alpha virt. eigenvalues --    0.03384   0.04528   0.05091   0.07279   0.07573
 Alpha virt. eigenvalues --    0.07663   0.08174   0.08560   0.09054   0.10806
 Alpha virt. eigenvalues --    0.17313   0.18905   0.20577   0.21184   0.21919

 Mulliken charges:
               1
     1  H    1.451942
     2  H    1.043599
     3  H    1.638390
     4  H    0.725943
     5  H    0.905524
     6  H    1.503884
     7  H    1.203726
     8  H    1.155937
     9  H    1.160693
    10  H    1.220712
    11  O   -2.628061
    12  O   -2.190640
    13  O   -2.615769
    14  O   -2.345581
    15  O   -2.230300
 Sum of Mulliken charges =   0.00000

 Dipole moment (field-independent basis, Debye):
    X=              1.3712    Y=             -0.2887    Z=              0.5098  Tot=              1.4912

 Test job not archived.
 1\1\GINC-SE078\SP\RHF\Aug-CC-pVDZ\H10O5\OHZDE\08-Apr-2025\0\\#t hf aug
 -cc-pvdz iop(5/13=1,5/36=2,99/5=2) pseudo=read geom=check guess=(read,
 tcheck) scf=(maxcycle=1)\\title\\0,1\H,0,1.19187,1.17378,-0.196182\H,0
 ,0.639413,2.6445,-0.0960762\H,0,1.52588,-0.770198,-0.214799\H,0,2.5469
 ,-0.238338,0.753668\H,0,0.127297,-2.65351,0.0966759\H,0,-0.38882,-1.22
 62,0.624164\H,0,-1.72963,0.132675,0.674406\H,0,-0.560098,0.717829,1.41
 259\H,0,-1.17766,-0.693477,-1.28075\H,0,-1.01219,0.806578,-1.19295\O,0
 ,0.356153,1.70847,-0.00973585\O,0,2.2996,-0.136582,-0.211145\O,0,0.111

 Normal termination of Gaussian 16 at Tue Apr  8 21:06:32 2025.
