 Gaussian 16, Revision C.01,

 ----------------------------------------------------------------------
 #t hf aug-cc-pvdz symm=none int=(grid=ultrafine) guess=(read,tcheck) s
 table=(opt,rrhf)
 ----------------------------------------------------------------------
 -----
 title
 -----
 Symbolic Z-matrix:
 Charge =  0 Multiplicity = 1

 SCF Done:  E(RHF) =  -555.300289159     A.U. after   18 cycles
 Normal termination of Gaussian 16 at Tue Apr  8 22:09:30 2025.
 Gaussian 16:  ES64L-G16RevC.01  3-Jul-2019

 ----------------------------------------------------------------------
 #t hf aug-cc-pvdz iop(5/13=1,5/36=2,99/5=2) pseudo=read geom=check gue
 ss=(read,tcheck) scf=(maxcycle=1)
 ----------------------------------------------------------------------
 -----
 title
 -----
 Structure from the checkpoint file:  "ANI1ccx_886_conf19_mol1.chk"
 Charge =  0 Multiplicity = 1

                         Standard orientation:
 ---------------------------------------------------------------------
 Center     Atomic      Atomic             Coordinates (Angstroms)
 Number     Number       Type             X           Y           Z
 ---------------------------------------------------------------------
      1          6           0        1.311439    0.687862    0.078584
      2          6           0       -0.938266    0.670056   -0.043181
      3          6           0       -0.980778   -0.730601   -0.051890
      4          6           0        1.338149   -0.721706   -0.034946
      5          1           0        2.492109    2.281402   -0.169763
      6          1           0        3.221439    0.986088   -0.725199
      7          1           0        2.489550   -2.280088    0.122551
      8          1           0        3.046929   -0.943035    0.858543
      9          7           0        2.551179    1.316412   -0.020276
     10          7           0        0.211820    1.446211    0.077532
     11          7           0       -2.196811    1.127351    0.022808
     12          7           0       -2.211111   -1.137299   -0.011203
     13          7           0        0.233255   -1.437629   -0.094838
     14          7           0        2.581289   -1.282008    0.018893
     15          8           0       -2.977581    0.036338    0.034006
 ---------------------------------------------------------------------

 SCF Done:  E(RHF) =  -557.753895443     A.U. after    2 cycles

 The electronic state is 1-A.
 Alpha  occ. eigenvalues --  -21.15540 -15.80952 -15.80722 -15.80184 -15.80142
 Alpha  occ. eigenvalues --  -15.78328 -15.78093 -11.57122 -11.50560 -11.48445
 Alpha  occ. eigenvalues --  -11.43673  -1.95813  -1.57653  -1.42710  -1.40410
 Alpha  occ. eigenvalues --   -1.34346  -1.25482  -1.22378  -1.01515  -0.89467
 Alpha  occ. eigenvalues --   -0.88585  -0.77740  -0.71979  -0.69874  -0.68907
 Alpha  occ. eigenvalues --   -0.66648  -0.65288  -0.60645  -0.56808  -0.53234
 Alpha  occ. eigenvalues --   -0.52970  -0.48869  -0.46173  -0.45289  -0.43701
 Alpha  occ. eigenvalues --   -0.40549  -0.36534  -0.34518  -0.30870
 Alpha virt. eigenvalues --    0.02672   0.03950   0.05260   0.05746   0.06540
 Alpha virt. eigenvalues --    0.07828   0.09759   0.09885   0.10309   0.11886
 Alpha virt. eigenvalues --    0.12322   0.13044   0.13201   0.13493   0.14805

 Mulliken charges:
               1
     1  C    4.145215
     2  C    3.872608
     3  C    3.780821
     4  C    4.982361
     5  H    0.743157
     6  H    0.577499
     7  H    0.739964
     8  H    0.504947
     9  N   -3.325766
    10  N   -3.591865
    11  N   -1.212216
    12  N   -1.611542
    13  N   -3.785076
    14  N   -3.493885
    15  O   -2.326224
 Sum of Mulliken charges =  -0.00000

 Dipole moment (field-independent basis, Debye):
    X=              4.7931    Y=              0.0467    Z=              0.0856  Tot=              4.7941

 Test job not archived.
 1\1\GINC-SE099\SP\RHF\Aug-CC-pVDZ\C4H4N6O1\OHZDE\08-Apr-2025\0\\#t hf
 aug-cc-pvdz iop(5/13=1,5/36=2,99/5=2) pseudo=read geom=check guess=(re
 ad,tcheck) scf=(maxcycle=1)\\title\\0,1\C,0,1.31144,0.68786,0.0785838\
 C,0,-0.938265,0.670055,-0.0431807\C,0,-0.980777,-0.730602,-0.0518898\C
 ,0,1.33815,-0.721708,-0.0349462\H,0,2.49211,2.2814,-0.169763\H,0,3.221
 44,0.986086,-0.725199\H,0,2.48955,-2.28009,0.122551\H,0,3.04693,-0.943
 037,0.858543\N,0,2.55118,1.31641,-0.0202758\N,0,0.211821,1.44621,0.077
 5324\N,0,-2.19681,1.12735,0.0228076\N,0,-2.21111,-1.1373,-0.0112025\N,

 Normal termination of Gaussian 16 at Tue Apr  8 22:09:39 2025.
