 Gaussian 16, Revision C.01,

 ----------------------------------------------------------------------
 #t hf aug-cc-pvdz symm=none int=(grid=ultrafine) guess=(read,tcheck) s
 table=(opt,rrhf)
 ----------------------------------------------------------------------
 -----
 title
 -----
 Symbolic Z-matrix:
 Charge =  0 Multiplicity = 1

 SCF Done:  E(RHF) =  -356.582497929     A.U. after   13 cycles
 Normal termination of Gaussian 16 at Tue Apr  8 21:14:24 2025.
 Gaussian 16:  ES64L-G16RevC.01  3-Jul-2019

 ----------------------------------------------------------------------
 #t hf aug-cc-pvdz iop(5/13=1,5/36=2,99/5=2) pseudo=read geom=check gue
 ss=(read,tcheck) scf=(maxcycle=1)
 ----------------------------------------------------------------------
 -----
 title
 -----
 Structure from the checkpoint file:  "ANI1ccx_1890_conf6_mol1.chk"
 Charge =  0 Multiplicity = 1

                         Standard orientation:
 ---------------------------------------------------------------------
 Center     Atomic      Atomic             Coordinates (Angstroms)
 Number     Number       Type             X           Y           Z
 ---------------------------------------------------------------------
      1          1           0        2.954040   -0.636123   -0.359559
      2          1           0        0.956709    1.312011    0.954423
      3          1           0       -0.993188    0.042532    0.201770
      4          1           0       -3.070961    0.579547    0.775436
      5          1           0       -2.692261    0.740787   -0.810195
      6          7           0       -2.877121    0.054850   -0.087821
      7          8           0        2.175070   -0.829599    0.175369
      8          8           0        1.177360   -0.065807   -0.327561
      9          8           0        1.174899    1.256691    0.025855
     10          8           0       -1.654140   -0.664123    0.107946
 ---------------------------------------------------------------------

 SCF Done:  E(RHF) =  -358.059950686     A.U. after    2 cycles

 The electronic state is 1-A.
 Alpha  occ. eigenvalues --  -21.15853 -21.15376 -21.14859 -21.07926 -15.77109
 Alpha  occ. eigenvalues --   -2.14136  -1.74310  -1.73365  -1.27126  -1.14841
 Alpha  occ. eigenvalues --   -0.71939  -0.66397  -0.64270  -0.60118  -0.58923
 Alpha  occ. eigenvalues --   -0.57972  -0.46216  -0.37594  -0.36732  -0.35255
 Alpha  occ. eigenvalues --   -0.32544  -0.32253
 Alpha virt. eigenvalues --    0.03624   0.05167   0.05703   0.06292   0.09610
 Alpha virt. eigenvalues --    0.14088   0.14569   0.15814   0.17779   0.18403
 Alpha virt. eigenvalues --    0.19465   0.20466   0.21159   0.22199   0.22407

 Mulliken charges:
               1
     1  H    0.924870
     2  H    0.936520
     3  H    0.866537
     4  H    0.699824
     5  H    0.739155
     6  N   -0.281830
     7  O   -1.211188
     8  O    0.428795
     9  O   -1.050601
    10  O   -2.052083
 Sum of Mulliken charges =   0.00000

 Dipole moment (field-independent basis, Debye):
    X=              2.0362    Y=              1.8199    Z=              0.5942  Tot=              2.7948

 Test job not archived.
 1\1\GINC-SE059\SP\RHF\Aug-CC-pVDZ\H5N1O4\OHZDE\08-Apr-2025\0\\#t hf au
 g-cc-pvdz iop(5/13=1,5/36=2,99/5=2) pseudo=read geom=check guess=(read
 ,tcheck) scf=(maxcycle=1)\\title\\0,1\H,0,2.95404,-0.636125,-0.359559\
 H,0,0.95671,1.31201,0.954423\H,0,-0.993187,0.0425319,0.20177\H,0,-3.07
 096,0.579548,0.775436\H,0,-2.69226,0.740788,-0.810195\N,0,-2.87712,0.0
 548513,-0.0878211\O,0,2.17507,-0.829601,0.175369\O,0,1.17736,-0.065807
 9,-0.327561\O,0,1.1749,1.25669,0.0258555\O,0,-1.65414,-0.664123,0.1079
 46\\Version=ES64L-G16RevC.01\State=1-A\HF=-358.0599507\RMSD=3.757e-02\

 Normal termination of Gaussian 16 at Tue Apr  8 21:14:27 2025.
