 Gaussian 16, Revision C.01,

 ----------------------------------------------------------------------
 #t hf aug-cc-pvdz symm=none int=(grid=ultrafine) guess=(read,tcheck) s
 table=(opt,rrhf)
 ----------------------------------------------------------------------
 -----
 title
 -----
 Symbolic Z-matrix:
 Charge =  0 Multiplicity = 1

 SCF Done:  E(RHF) =  -276.586256319     A.U. after   15 cycles
 Normal termination of Gaussian 16 at Tue Apr  8 21:32:30 2025.
 Gaussian 16:  ES64L-G16RevC.01  3-Jul-2019

 ----------------------------------------------------------------------
 #t hf aug-cc-pvdz iop(5/13=1,5/36=2,99/5=2) pseudo=read geom=check gue
 ss=(read,tcheck) scf=(maxcycle=1)
 ----------------------------------------------------------------------
 -----
 title
 -----
 Structure from the checkpoint file:  "ANI1ccx_370_conf87_mol1.chk"
 Charge =  0 Multiplicity = 1

                         Standard orientation:
 ---------------------------------------------------------------------
 Center     Atomic      Atomic             Coordinates (Angstroms)
 Number     Number       Type             X           Y           Z
 ---------------------------------------------------------------------
      1          6           0        1.027531    0.040259    0.048657
      2          1           0        2.120121   -0.132279    0.026782
      3          7           0        0.371573    1.113781   -0.041422
      4          7           0       -0.934813    0.635688    0.023866
      5          7           0       -1.031499   -0.589379    0.002301
      6          8           0        0.359733   -1.028739   -0.026492
 ---------------------------------------------------------------------

 SCF Done:  E(RHF) =  -277.753909743     A.U. after    2 cycles

 The electronic state is 1-A.
 Alpha  occ. eigenvalues --  -21.16854 -15.87122 -15.84440 -15.78829 -11.50512
 Alpha  occ. eigenvalues --   -1.98824  -1.56230  -1.36107  -0.92286  -0.89528
 Alpha  occ. eigenvalues --   -0.75798  -0.70693  -0.58508  -0.52388  -0.46465
 Alpha  occ. eigenvalues --   -0.46069  -0.41241  -0.41034
 Alpha virt. eigenvalues --    0.03292   0.09250   0.09426   0.09930   0.13060
 Alpha virt. eigenvalues --    0.13823   0.14160   0.14531   0.16487   0.17101
 Alpha virt. eigenvalues --    0.19188   0.19638   0.20893   0.22609   0.24483

 Mulliken charges:
               1
     1  C    1.797821
     2  H    1.559208
     3  N   -1.939362
     4  N    0.864840
     5  N    0.107629
     6  O   -2.390136
 Sum of Mulliken charges =  -0.00000

 Dipole moment (field-independent basis, Debye):
    X=              2.6494    Y=             -1.5301    Z=              0.0229  Tot=              3.0596

 Test job not archived.
 1\1\GINC-SE250\SP\RHF\Aug-CC-pVDZ\C1H1N3O1\OHZDE\08-Apr-2025\0\\#t hf
 aug-cc-pvdz iop(5/13=1,5/36=2,99/5=2) pseudo=read geom=check guess=(re
 ad,tcheck) scf=(maxcycle=1)\\title\\0,1\C,0,1.02753,0.0402577,0.048656
 9\H,0,2.12012,-0.132281,0.0267816\N,0,0.371573,1.11378,-0.0414216\N,0,
 -0.934813,0.635688,0.0238656\N,0,-1.0315,-0.589379,0.00230075\O,0,0.35
 9732,-1.02874,-0.026492\\Version=ES64L-G16RevC.01\State=1-A\HF=-277.75
 39097\RMSD=9.641e-02\Dipole=1.0423494,-0.6019982,0.0090028\Quadrupole=
 1.7936479,-2.6781176,0.8844698,-0.7590071,0.1130794,0.0397514\PG=C01 [

 Normal termination of Gaussian 16 at Tue Apr  8 21:32:32 2025.
