 Gaussian 16, Revision C.01,

 ----------------------------------------------------------------------
 #t hf aug-cc-pvdz symm=none int=(grid=ultrafine) guess=(read,tcheck) s
 table=(opt,rrhf)
 ----------------------------------------------------------------------
 -----
 title
 -----
 Symbolic Z-matrix:
 Charge =  0 Multiplicity = 1

 SCF Done:  E(RHF) =  -646.683640162     A.U. after   15 cycles
 Normal termination of Gaussian 16 at Tue Apr  8 21:53:37 2025.
 Gaussian 16:  ES64L-G16RevC.01  3-Jul-2019

 ----------------------------------------------------------------------
 #t hf aug-cc-pvdz iop(5/13=1,5/36=2,99/5=2) pseudo=read geom=check gue
 ss=(read,tcheck) scf=(maxcycle=1)
 ----------------------------------------------------------------------
 -----
 title
 -----
 Structure from the checkpoint file:  "ANI1ccx_51_conf1_mol1.chk"
 Charge =  0 Multiplicity = 1

                         Standard orientation:
 ---------------------------------------------------------------------
 Center     Atomic      Atomic             Coordinates (Angstroms)
 Number     Number       Type             X           Y           Z
 ---------------------------------------------------------------------
      1          6           0       -3.111130    0.159567   -0.061423
      2          6           0        0.781537   -1.227870   -0.937607
      3          6           0        1.725100   -1.597700    0.976334
      4          6           0        3.008490   -0.136658   -0.594682
      5          6           0        2.953370    1.325000   -0.081892
      6          6           0        0.476346   -2.197270    0.888201
      7          6           0        0.464634    1.716610    0.701889
      8          6           0       -0.816598    1.414690   -0.100836
      9          6           0       -1.951400    0.754699    0.726500
     10          6           0        1.626710    2.096500   -0.246758
     11          1           0        3.253090    1.379730    1.003420
     12          1           0        0.711703   -0.797199   -1.931660
     13          1           0        0.058931   -2.797420    1.692590
     14          1           0        2.523820   -1.537470    1.677780
     15          1           0        3.944610   -0.603546   -0.133412
     16          1           0        3.049220   -0.171333   -1.666100
     17          1           0        3.771280    1.853970   -0.622219
     18          1           0        1.917950    3.171320   -0.145135
     19          1           0       -0.509566    0.786864   -0.966424
     20          1           0        0.674586    0.902649    1.399900
     21          1           0        0.267217    2.569470    1.361180
     22          1           0       -1.163800    2.419880   -0.495781
     23          1           0       -1.472410   -0.043163    1.381900
     24          1           0       -2.324350    1.550500    1.356510
     25          1           0       -1.978990   -1.276230   -0.571635
     26          1           0        1.279410    1.975110   -1.254550
     27          7           0        1.867170   -0.958146   -0.198223
     28          7           0       -0.164332   -1.936830   -0.347902
     29          8           0       -2.946230   -1.091600   -0.590382
     30          8           0       -4.161890    0.721140   -0.144847
 ---------------------------------------------------------------------

 SCF Done:  E(RHF) =  -649.717732403     A.U. after    2 cycles

 The electronic state is 1-A.
 Alpha  occ. eigenvalues --  -21.07947 -21.02446 -15.80301 -15.74780 -11.51197
 Alpha  occ. eigenvalues --  -11.49664 -11.47613 -11.46218 -11.45919 -11.44682
 Alpha  occ. eigenvalues --  -11.42389 -11.40056 -11.39541 -11.37193  -1.78467
 Alpha  occ. eigenvalues --   -1.62496  -1.60491  -1.34569  -1.26672  -1.17342
 Alpha  occ. eigenvalues --   -1.10981  -1.07009  -0.98432  -0.89580  -0.85520
 Alpha  occ. eigenvalues --   -0.84452  -0.81101  -0.76062  -0.73852  -0.68579
 Alpha  occ. eigenvalues --   -0.66005  -0.65063  -0.64449  -0.61206  -0.60980
 Alpha  occ. eigenvalues --   -0.58540  -0.57411  -0.56138  -0.54089  -0.52987
 Alpha  occ. eigenvalues --   -0.51238  -0.50689  -0.48914  -0.47185  -0.46616
 Alpha  occ. eigenvalues --   -0.45310  -0.44672  -0.43088  -0.39372  -0.36693
 Alpha  occ. eigenvalues --   -0.32172  -0.30767  -0.26780
 Alpha virt. eigenvalues --    0.02936   0.03917   0.04037   0.04231   0.04280
 Alpha virt. eigenvalues --    0.04673   0.05643   0.06110   0.06361   0.06718
 Alpha virt. eigenvalues --    0.07303   0.08040   0.08394   0.09214   0.09702

 Mulliken charges:
               1
     1  C    6.156165
     2  C    1.262705
     3  C   -1.058941
     4  C   -3.396977
     5  C   -2.423926
     6  C    0.020335
     7  C   -3.638393
     8  C   -2.889621
     9  C   -4.217852
    10  C   -2.741116
    11  H    1.388648
    12  H    1.875246
    13  H    1.554669
    14  H    1.300423
    15  H    1.344555
    16  H    1.641088
    17  H    1.222464
    18  H    1.151166
    19  H    2.837859
    20  H    2.202323
    21  H    1.181149
    22  H    1.210280
    23  H    1.821321
    24  H    1.160628
    25  H    1.630330
    26  H    1.605313
    27  N   -1.692303
    28  N   -3.410044
    29  O   -3.671765
    30  O   -3.425729
 Sum of Mulliken charges =   0.00000

 Dipole moment (field-independent basis, Debye):
    X=              7.3558    Y=              1.0811    Z=              0.3787  Tot=              7.4444

 Test job not archived.
 1\1\GINC-SE338\SP\RHF\Aug-CC-pVDZ\C10H16N2O2\OHZDE\08-Apr-2025\0\\#t h
 f aug-cc-pvdz iop(5/13=1,5/36=2,99/5=2) pseudo=read geom=check guess=(
 read,tcheck) scf=(maxcycle=1)\\title\\0,1\C,0,-3.11113,0.159567,-0.061
 4225\C,0,0.781537,-1.22787,-0.937607\C,0,1.7251,-1.5977,0.976334\C,0,3
 .00849,-0.136658,-0.594682\C,0,2.95337,1.325,-0.0818921\C,0,0.476346,-
 2.19727,0.888201\C,0,0.464634,1.71661,0.701889\C,0,-0.816598,1.41469,-
 0.100836\C,0,-1.9514,0.754699,0.7265\C,0,1.62671,2.0965,-0.246758\H,0,
 3.25309,1.37973,1.00342\H,0,0.711703,-0.797199,-1.93166\H,0,0.0589307,

 Normal termination of Gaussian 16 at Tue Apr  8 21:54:05 2025.
