 Gaussian 16, Revision C.01,

 ----------------------------------------------------------------------
 #t hf aug-cc-pvdz symm=none int=(grid=ultrafine) guess=(read,tcheck) s
 table=(opt,rrhf)
 ----------------------------------------------------------------------
 -----
 title
 -----
 Symbolic Z-matrix:
 Charge =  0 Multiplicity = 1

 SCF Done:  E(RHF) =  -792.012933829     A.U. after   14 cycles
 Normal termination of Gaussian 16 at Tue Apr  8 19:37:37 2025.
 Gaussian 16:  ES64L-G16RevC.01  3-Jul-2019

 ----------------------------------------------------------------------
 #t hf aug-cc-pvdz iop(5/13=1,5/36=2,99/5=2) pseudo=read geom=check gue
 ss=(read,tcheck) scf=(maxcycle=1)
 ----------------------------------------------------------------------
 -----
 title
 -----
 Structure from the checkpoint file:  "ANI1ccx_1216_conf4_mol1.chk"
 Charge =  0 Multiplicity = 1

                         Standard orientation:
 ---------------------------------------------------------------------
 Center     Atomic      Atomic             Coordinates (Angstroms)
 Number     Number       Type             X           Y           Z
 ---------------------------------------------------------------------
      1          6           0       -1.656567    1.282794   -0.575478
      2          6           0        1.468423    1.544167    0.433068
      3          6           0        1.980589   -0.526132   -0.835865
      4          6           0       -1.235902   -1.024827   -1.462570
      5          6           0       -1.940842   -0.654953    0.881107
      6          6           0        1.379788   -0.748626    1.548830
      7          1           0        1.426330   -0.110152    2.432160
      8          1           0        2.118886   -1.534374    1.665240
      9          1           0       -2.827561   -0.144733    1.281530
     10          1           0       -2.093414   -1.730655    0.743464
     11          1           0       -1.377951   -0.514847   -2.428460
     12          1           0       -1.866434   -1.911065   -1.426750
     13          1           0        2.251026   -1.546954   -0.606480
     14          1           0        2.383334    1.964495   -0.011084
     15          1           0        1.332174    1.865538    1.466740
     16          1           0       -1.365467    1.472724   -1.621020
     17          1           0       -2.663047    1.650486   -0.379167
     18          1           0        2.844330    0.033692   -1.204160
     19          7           0        1.623300    0.084438    0.399415
     20          7           0       -1.651831   -0.139529   -0.436244
     21          8           0       -0.909954   -0.443450    1.884420
     22          8           0       -0.794355    2.072542    0.203846
     23          8           0        0.501505    2.100899   -0.405545
     24          8           0        0.992160   -0.550665   -1.811610
     25          8           0        0.105952   -1.592050   -1.411650
     26          8           0        0.112764   -1.380160    1.591950
 ---------------------------------------------------------------------

 SCF Done:  E(RHF) =  -795.454019429     A.U. after    2 cycles

 The electronic state is 1-A.
 Alpha  occ. eigenvalues --  -21.09197 -21.08855 -21.08522 -21.08485 -21.08179
 Alpha  occ. eigenvalues --  -21.07521 -15.72631 -15.71246 -11.45285 -11.44859
 Alpha  occ. eigenvalues --  -11.44750 -11.44072 -11.43715 -11.43086  -1.97988
 Alpha  occ. eigenvalues --   -1.97686  -1.97006  -1.55445  -1.48111  -1.46546
 Alpha  occ. eigenvalues --   -1.40735  -1.32178  -1.02254  -1.01913  -0.97325
 Alpha  occ. eigenvalues --   -0.96715  -0.83861  -0.82653  -0.71762  -0.71299
 Alpha  occ. eigenvalues --   -0.70093  -0.68904  -0.65792  -0.64507  -0.62990
 Alpha  occ. eigenvalues --   -0.62296  -0.60358  -0.57500  -0.56468  -0.55922
 Alpha  occ. eigenvalues --   -0.54903  -0.49990  -0.49350  -0.48253  -0.44104
 Alpha  occ. eigenvalues --   -0.40863  -0.40155  -0.38135  -0.37357  -0.32849
 Alpha  occ. eigenvalues --   -0.32399  -0.30287  -0.26942  -0.26863  -0.24416
 Alpha virt. eigenvalues --    0.04048   0.04281   0.04476   0.05647   0.05809
 Alpha virt. eigenvalues --    0.06108   0.06438   0.06708   0.06947   0.07590
 Alpha virt. eigenvalues --    0.08289   0.09465   0.09709   0.10931   0.11942

 Mulliken charges:
               1
     1  C   -0.126452
     2  C   -0.297771
     3  C   -0.350448
     4  C    0.001566
     5  C   -0.742722
     6  C   -0.180489
     7  H    1.808647
     8  H    1.666436
     9  H    1.625783
    10  H    1.811335
    11  H    1.690539
    12  H    1.614349
    13  H    1.838246
    14  H    1.613306
    15  H    1.800439
    16  H    1.817171
    17  H    1.658827
    18  H    1.615663
    19  N   -3.719679
    20  N   -3.781999
    21  O   -1.731645
    22  O   -1.843915
    23  O   -1.985752
    24  O   -1.987769
    25  O   -1.866991
    26  O   -1.946677
 Sum of Mulliken charges =  -0.00000

 Dipole moment (field-independent basis, Debye):
    X=              0.0648    Y=             -0.1069    Z=              0.1452  Tot=              0.1916

 Test job not archived.
 1\1\GINC-SE128\SP\RHF\Aug-CC-pVDZ\C6H12N2O6\OHZDE\08-Apr-2025\0\\#t hf
  aug-cc-pvdz iop(5/13=1,5/36=2,99/5=2) pseudo=read geom=check guess=(r
 ead,tcheck) scf=(maxcycle=1)\\title\\0,1\C,0,-1.65657,1.28279,-0.57547
 8\C,0,1.46842,1.54417,0.433068\C,0,1.98059,-0.526128,-0.835865\C,0,-1.
 2359,-1.02483,-1.46257\C,0,-1.94084,-0.654958,0.881107\C,0,1.37979,-0.
 748624,1.54883\H,0,1.42633,-0.110149,2.43216\H,0,2.11889,-1.53437,1.66
 524\H,0,-2.82756,-0.14474,1.28153\H,0,-2.09341,-1.73066,0.743464\H,0,-
 1.37795,-0.514851,-2.42846\H,0,-1.86643,-1.91107,-1.42675\H,0,2.25103,

 Normal termination of Gaussian 16 at Tue Apr  8 19:38:05 2025.
