 Gaussian 16, Revision C.01,

 ----------------------------------------------------------------------
 #t hf aug-cc-pvdz symm=none int=(grid=ultrafine) guess=(read,tcheck) s
 table=(opt,rrhf)
 ----------------------------------------------------------------------
 -----
 title
 -----
 Symbolic Z-matrix:
 Charge =  0 Multiplicity = 1

 SCF Done:  E(RHF) =  -464.357905255     A.U. after   16 cycles
 Normal termination of Gaussian 16 at Tue Apr  8 21:42:52 2025.
 Gaussian 16:  ES64L-G16RevC.01  3-Jul-2019

 ----------------------------------------------------------------------
 #t hf aug-cc-pvdz iop(5/13=1,5/36=2,99/5=2) pseudo=read geom=check gue
 ss=(read,tcheck) scf=(maxcycle=1)
 ----------------------------------------------------------------------
 -----
 title
 -----
 Structure from the checkpoint file:  "ANI1ccx_474_conf26_mol1.chk"
 Charge =  0 Multiplicity = 1

                         Standard orientation:
 ---------------------------------------------------------------------
 Center     Atomic      Atomic             Coordinates (Angstroms)
 Number     Number       Type             X           Y           Z
 ---------------------------------------------------------------------
      1          6           0        1.128161   -0.522428    0.178788
      2          6           0        0.166150    1.586750   -0.031580
      3          1           0        2.515791   -0.574573   -1.119970
      4          7           0        0.976741    0.753895   -0.513107
      5          7           0       -2.094229   -0.638203   -0.636013
      6          7           0       -2.769640   -1.286668    0.027197
      7          8           0        2.137730   -1.157342   -0.455588
      8          8           0       -0.599427    2.441280    0.280071
      9          8           0        0.577727   -0.985753    1.186790
 ---------------------------------------------------------------------

 SCF Done:  E(RHF) =  -466.251884888     A.U. after    2 cycles

 The electronic state is 1-A.
 Alpha  occ. eigenvalues --  -21.18977 -21.15130 -21.08435 -15.88566 -15.88114
 Alpha  occ. eigenvalues --  -15.81902 -11.63189 -11.57847  -1.85075  -1.81037
 Alpha  occ. eigenvalues --   -1.67870  -1.54250  -1.41997  -0.92990  -0.80810
 Alpha  occ. eigenvalues --   -0.76805  -0.68402  -0.65880  -0.64500  -0.57522
 Alpha  occ. eigenvalues --   -0.56755  -0.56274  -0.55429  -0.55279  -0.48744
 Alpha  occ. eigenvalues --   -0.45437  -0.39000  -0.35551  -0.33633
 Alpha virt. eigenvalues --    0.03816   0.07133   0.09343   0.10055   0.10811
 Alpha virt. eigenvalues --    0.11015   0.11433   0.12073   0.12606   0.13028
 Alpha virt. eigenvalues --    0.13635   0.13857   0.14855   0.15979   0.16903

 Mulliken charges:
               1
     1  C    5.455453
     2  C    3.513931
     3  H    0.963514
     4  N   -2.326393
     5  N    0.096487
     6  N   -0.061793
     7  O   -2.718366
     8  O   -2.378459
     9  O   -2.544373
 Sum of Mulliken charges =  -0.00000

 Dipole moment (field-independent basis, Debye):
    X=             -0.2985    Y=              1.6894    Z=             -0.5727  Tot=              1.8086

 Test job not archived.
 1\1\GINC-SE221\SP\RHF\Aug-CC-pVDZ\C2H1N3O3\OHZDE\08-Apr-2025\0\\#t hf
 aug-cc-pvdz iop(5/13=1,5/36=2,99/5=2) pseudo=read geom=check guess=(re
 ad,tcheck) scf=(maxcycle=1)\\title\\0,1\C,0,1.12816,-0.522427,0.178788
 \C,0,0.166147,1.58675,-0.0315798\H,0,2.51579,-0.57457,-1.11997\N,0,0.9
 76739,0.753896,-0.513107\N,0,-2.09423,-0.638205,-0.636013\N,0,-2.76964
 ,-1.28667,0.0271965\O,0,2.13773,-1.15734,-0.455588\O,0,-0.59943,2.4412
 8,0.280071\O,0,0.577727,-0.985752,1.18679\\Version=ES64L-G16RevC.01\St
 ate=1-A\HF=-466.2518849\RMSD=6.899e-02\Dipole=-0.1174339,0.6646438,-0.

 Normal termination of Gaussian 16 at Tue Apr  8 21:42:55 2025.
