 Gaussian 16, Revision C.01,

 ----------------------------------------------------------------------
 #t hf aug-cc-pvdz symm=none int=(grid=ultrafine) guess=(read,tcheck) s
 table=(opt,rrhf)
 ----------------------------------------------------------------------
 -----
 title
 -----
 Symbolic Z-matrix:
 Charge =  0 Multiplicity = 1

 SCF Done:  E(RHF) =  -509.532216747     A.U. after   14 cycles
 Normal termination of Gaussian 16 at Tue Apr  8 22:14:03 2025.
 Gaussian 16:  ES64L-G16RevC.01  3-Jul-2019

 ----------------------------------------------------------------------
 #t hf aug-cc-pvdz iop(5/13=1,5/36=2,99/5=2) pseudo=read geom=check gue
 ss=(read,tcheck) scf=(maxcycle=1)
 ----------------------------------------------------------------------
 -----
 title
 -----
 Structure from the checkpoint file:  "ANI1ccx_939_conf31_mol1.chk"
 Charge =  0 Multiplicity = 1

                         Standard orientation:
 ---------------------------------------------------------------------
 Center     Atomic      Atomic             Coordinates (Angstroms)
 Number     Number       Type             X           Y           Z
 ---------------------------------------------------------------------
      1          6           0       -0.864456    0.575491   -0.747564
      2          6           0       -1.235350   -0.483265    0.233103
      3          6           0        0.587525    0.414510   -1.177920
      4          6           0        1.527690   -0.042833   -0.085302
      5          1           0       -1.897241    1.753949    0.404112
      6          1           0       -0.312858    1.889399    0.493007
      7          1           0       -1.396870    0.427384   -1.672680
      8          1           0        0.627602   -0.248222   -2.029010
      9          1           0        0.995799    1.409400   -1.453440
     10          1           0        2.116070    0.336368    1.691530
     11          1           0       -1.498899   -2.447651    0.062097
     12          7           0       -1.071161    1.881889   -0.195092
     13          8           0       -1.247570   -0.435678    1.474270
     14          8           0        2.245600   -1.028890   -0.200517
     15          8           0        1.438419    0.702080    1.047400
     16          8           0       -1.339940   -1.622171   -0.504138
 ---------------------------------------------------------------------

 SCF Done:  E(RHF) =  -511.721211910     A.U. after    2 cycles

 The electronic state is 1-A.
 Alpha  occ. eigenvalues --  -21.13304 -21.13164 -21.07196 -21.06276 -15.74140
 Alpha  occ. eigenvalues --  -11.55099 -11.54448 -11.48612 -11.41657  -1.83216
 Alpha  occ. eigenvalues --   -1.82020  -1.66059  -1.65732  -1.39371  -1.15598
 Alpha  occ. eigenvalues --   -1.00344  -0.84802  -0.77189  -0.71322  -0.68265
 Alpha  occ. eigenvalues --   -0.65136  -0.62198  -0.59785  -0.59129  -0.56799
 Alpha  occ. eigenvalues --   -0.52609  -0.50824  -0.49663  -0.46523  -0.44366
 Alpha  occ. eigenvalues --   -0.38817  -0.36789  -0.33255  -0.31116  -0.30179
 Alpha virt. eigenvalues --    0.03683   0.04595   0.05678   0.05864   0.06097
 Alpha virt. eigenvalues --    0.06534   0.08049   0.09805   0.10268   0.11927
 Alpha virt. eigenvalues --    0.12157   0.12787   0.13400   0.14562   0.14608

 Mulliken charges:
               1
     1  C   -0.849475
     2  C    6.929728
     3  C   -3.946203
     4  C    6.217559
     5  H    0.576084
     6  H    0.586916
     7  H    1.718700
     8  H    1.239788
     9  H    1.434493
    10  H    0.833240
    11  H    0.821890
    12  N   -2.990933
    13  O   -3.176252
    14  O   -3.199132
    15  O   -3.050515
    16  O   -3.145889
 Sum of Mulliken charges =  -0.00000

 Dipole moment (field-independent basis, Debye):
    X=             -0.4533    Y=             -0.3579    Z=              0.2219  Tot=              0.6187

 Test job not archived.
 1\1\GINC-SE127\SP\RHF\Aug-CC-pVDZ\C4H7N1O4\OHZDE\08-Apr-2025\0\\#t hf
 aug-cc-pvdz iop(5/13=1,5/36=2,99/5=2) pseudo=read geom=check guess=(re
 ad,tcheck) scf=(maxcycle=1)\\title\\0,1\C,0,-0.864456,0.575492,-0.7475
 64\C,0,-1.23535,-0.483264,0.233103\C,0,0.587525,0.41451,-1.17792\C,0,1
 .52769,-0.0428336,-0.0853026\H,0,-1.89724,1.75395,0.404112\H,0,-0.3128
 57,1.8894,0.493007\H,0,-1.39687,0.427385,-1.67268\H,0,0.627602,-0.2482
 22,-2.02901\H,0,0.9958,1.4094,-1.45344\H,0,2.11607,0.336368,1.69153\H,
 0,-1.4989,-2.44765,0.062097\N,0,-1.07116,1.88189,-0.195092\O,0,-1.2475

 Normal termination of Gaussian 16 at Tue Apr  8 22:14:10 2025.
