 Gaussian 16, Revision C.01,

 ----------------------------------------------------------------------
 #t hf aug-cc-pvdz symm=none int=(grid=ultrafine) guess=(read,tcheck) s
 table=(opt,rrhf)
 ----------------------------------------------------------------------
 -----
 title
 -----
 Symbolic Z-matrix:
 Charge =  0 Multiplicity = 1

 SCF Done:  E(RHF) =  -447.802503817     A.U. after   14 cycles
 Normal termination of Gaussian 16 at Tue Apr  8 21:49:31 2025.
 Gaussian 16:  ES64L-G16RevC.01  3-Jul-2019

 ----------------------------------------------------------------------
 #t hf aug-cc-pvdz iop(5/13=1,5/36=2,99/5=2) pseudo=read geom=check gue
 ss=(read,tcheck) scf=(maxcycle=1)
 ----------------------------------------------------------------------
 -----
 title
 -----
 Structure from the checkpoint file:  "ANI1ccx_586_conf3_mol2.chk"
 Charge =  0 Multiplicity = 1

                         Standard orientation:
 ---------------------------------------------------------------------
 Center     Atomic      Atomic             Coordinates (Angstroms)
 Number     Number       Type             X           Y           Z
 ---------------------------------------------------------------------
      1          6           0       -1.005589    1.693891    0.557818
      2          6           0       -0.063822   -0.491694   -0.116408
      3          1           0       -1.753599    2.038502   -0.148288
      4          1           0       -0.528956    2.511741    1.083240
      5          1           0       -1.571849    1.086732    1.277640
      6          1           0        1.886951    1.274749   -0.260898
      7          1           0        1.038271    1.405680   -1.626060
      8          1           0        1.161118   -2.112070   -0.439496
      9          1           0        1.799999   -0.956274    1.434070
     10          1           0       -2.857032   -1.472347   -0.133367
     11          7           0       -0.021976    0.859664   -0.058486
     12          7           0        1.013151    1.603740   -0.622807
     13          7           0        1.201389   -1.078490   -0.355866
     14          7           0       -1.043252   -1.319399   -0.022266
     15          8           0        2.171369   -0.705302    0.583577
     16          8           0       -2.271821   -0.725759   -0.135993
 ---------------------------------------------------------------------

 SCF Done:  E(RHF) =  -449.797132110     A.U. after    2 cycles

 The electronic state is 1-A.
 Alpha  occ. eigenvalues --  -21.11457 -21.08889 -15.78532 -15.75783 -15.75166
 Alpha  occ. eigenvalues --  -15.74528 -11.47625 -11.38561  -1.82077  -1.79237
 Alpha  occ. eigenvalues --   -1.53895  -1.32782  -1.18014  -1.11712  -0.99222
 Alpha  occ. eigenvalues --   -0.79060  -0.72029  -0.70895  -0.67376  -0.61104
 Alpha  occ. eigenvalues --   -0.60787  -0.59063  -0.57409  -0.54757  -0.52993
 Alpha  occ. eigenvalues --   -0.48472  -0.41076  -0.40737  -0.36806  -0.34937
 Alpha  occ. eigenvalues --   -0.34008  -0.24607
 Alpha virt. eigenvalues --    0.04180   0.05552   0.05665   0.06070   0.06111
 Alpha virt. eigenvalues --    0.06726   0.07125   0.08299   0.11419   0.11941
 Alpha virt. eigenvalues --    0.13250   0.14289   0.15034   0.16426   0.16700

 Mulliken charges:
               1
     1  C   -3.552377
     2  C    5.462963
     3  H    1.314488
     4  H    1.359441
     5  H    1.560628
     6  H    0.800410
     7  H    0.656272
     8  H    0.716881
     9  H    0.690113
    10  H    0.936067
    11  N   -1.780955
    12  N   -1.915965
    13  N   -0.559472
    14  N   -0.473793
    15  O   -2.432792
    16  O   -2.781908
 Sum of Mulliken charges =  -0.00000

 Dipole moment (field-independent basis, Debye):
    X=              0.4229    Y=              0.1010    Z=              0.3483  Tot=              0.5571

 Test job not archived.
 1\1\GINC-SE273\SP\RHF\Aug-CC-pVDZ\C2H8N4O2\OHZDE\08-Apr-2025\0\\#t hf
 aug-cc-pvdz iop(5/13=1,5/36=2,99/5=2) pseudo=read geom=check guess=(re
 ad,tcheck) scf=(maxcycle=1)\\title\\0,1\C,0,-1.00559,1.69389,0.557818\
 C,0,-0.0638216,-0.491695,-0.116408\H,0,-1.7536,2.0385,-0.148288\H,0,-0
 .528958,2.51174,1.08324\H,0,-1.57185,1.08673,1.27764\H,0,1.88695,1.274
 75,-0.260898\H,0,1.03827,1.40568,-1.62606\H,0,1.16112,-2.11207,-0.4394
 96\H,0,1.8,-0.956273,1.43407\H,0,-2.85703,-1.47235,-0.133367\N,0,-0.02
 19768,0.859663,-0.0584857\N,0,1.01315,1.60374,-0.622807\N,0,1.20139,-1

 Normal termination of Gaussian 16 at Tue Apr  8 21:49:37 2025.
