 Gaussian 16, Revision C.01,

 ----------------------------------------------------------------------
 #t hf aug-cc-pvdz symm=none int=(grid=ultrafine) guess=(read,tcheck) s
 table=(opt,rrhf)
 ----------------------------------------------------------------------
 -----
 title
 -----
 Symbolic Z-matrix:
 Charge =  0 Multiplicity = 1

 SCF Done:  E(RHF) =  -427.250282510     A.U. after   16 cycles
 Normal termination of Gaussian 16 at Tue Apr  8 21:49:58 2025.
 Gaussian 16:  ES64L-G16RevC.01  3-Jul-2019

 ----------------------------------------------------------------------
 #t hf aug-cc-pvdz iop(5/13=1,5/36=2,99/5=2) pseudo=read geom=check gue
 ss=(read,tcheck) scf=(maxcycle=1)
 ----------------------------------------------------------------------
 -----
 title
 -----
 Structure from the checkpoint file:  "ANI1ccx_649_conf1_mol2.chk"
 Charge =  0 Multiplicity = 1

                         Standard orientation:
 ---------------------------------------------------------------------
 Center     Atomic      Atomic             Coordinates (Angstroms)
 Number     Number       Type             X           Y           Z
 ---------------------------------------------------------------------
      1          6           0        1.467339   -0.213400    0.001932
      2          6           0       -0.699989    0.097392    0.055399
      3          6           0       -2.111921   -0.141033   -0.053980
      4          1           0        0.219694   -1.868920   -0.019157
      5          7           0        0.256512   -0.845969    0.052612
      6          7           0       -0.251298    1.293080   -0.005883
      7          7           0       -3.218781   -0.388569   -0.007930
      8          8           0        2.601119   -0.676428   -0.037503
      9          8           0        1.191720    1.051599    0.003436
 ---------------------------------------------------------------------

 SCF Done:  E(RHF) =  -429.031272423     A.U. after    2 cycles

 The electronic state is 1-A.
 Alpha  occ. eigenvalues --  -21.16431 -21.06614 -15.86389 -15.85643 -15.83317
 Alpha  occ. eigenvalues --  -11.58392 -11.56663 -11.49854  -1.97632  -1.70392
 Alpha  occ. eigenvalues --   -1.52403  -1.37885  -1.32128  -1.00955  -0.91911
 Alpha  occ. eigenvalues --   -0.84132  -0.73614  -0.69709  -0.59610  -0.58275
 Alpha  occ. eigenvalues --   -0.56835  -0.52736  -0.51222  -0.48801  -0.47892
 Alpha  occ. eigenvalues --   -0.47265  -0.33633  -0.31270
 Alpha virt. eigenvalues --    0.02614   0.06523   0.07822   0.07928   0.09706
 Alpha virt. eigenvalues --    0.09867   0.10420   0.10948   0.11514   0.12231
 Alpha virt. eigenvalues --    0.13676   0.14161   0.15020   0.15975   0.16349

 Mulliken charges:
               1
     1  C    5.997593
     2  C    2.951950
     3  C    2.624467
     4  H    0.759224
     5  N   -2.659443
     6  N   -1.065818
     7  N   -2.835440
     8  O   -3.116940
     9  O   -2.655595
 Sum of Mulliken charges =   0.00000

 Dipole moment (field-independent basis, Debye):
    X=             -0.3072    Y=             -1.7816    Z=              0.0376  Tot=              1.8082

 Test job not archived.
 1\1\GINC-SE334\SP\RHF\Aug-CC-pVDZ\C3H1N3O2\OHZDE\08-Apr-2025\0\\#t hf
 aug-cc-pvdz iop(5/13=1,5/36=2,99/5=2) pseudo=read geom=check guess=(re
 ad,tcheck) scf=(maxcycle=1)\\title\\0,1\C,0,1.46734,-0.213399,0.001932
 4\C,0,-0.699988,0.0973915,0.0553988\C,0,-2.11192,-0.141034,-0.0539804\
 H,0,0.219696,-1.86892,-0.019157\N,0,0.256513,-0.845969,0.0526119\N,0,-
 0.251298,1.29308,-0.00588251\N,0,-3.21878,-0.388571,-0.00793045\O,0,2.
 60112,-0.676427,-0.0375034\O,0,1.19172,1.0516,0.0034359\\Version=ES64L
 -G16RevC.01\State=1-A\HF=-429.0312724\RMSD=3.843e-01\Dipole=-0.1208694

 Normal termination of Gaussian 16 at Tue Apr  8 21:50:01 2025.
