 Gaussian 16, Revision C.01,

 ----------------------------------------------------------------------
 #t hf aug-cc-pvdz symm=none int=(grid=ultrafine) guess=(read,tcheck) s
 table=(opt,rrhf)
 ----------------------------------------------------------------------
 -----
 title
 -----
 Symbolic Z-matrix:
 Charge =  0 Multiplicity = 1

 SCF Done:  E(RHF) =  -338.343667337     a.u. after   17 cycles
 Normal termination of Gaussian 16 at Tue Apr  8 21:36:56 2025.
 Gaussian 16:  ES64L-G16RevC.01  3-Jul-2019

 ----------------------------------------------------------------------
 #t hf aug-cc-pvdz iop(5/13=1,5/36=2,99/5=2) pseudo=read geom=check gue
 ss=(read,tcheck) scf=(maxcycle=1)
 ----------------------------------------------------------------------
 -----
 title
 -----
 Structure from the checkpoint file:  "ANI1ccx_384_conf1_mol2.chk"
 Charge =  0 Multiplicity = 1

                         Standard orientation:
 ---------------------------------------------------------------------
 Center     Atomic      Atomic             Coordinates (Angstroms)
 Number     Number       Type             X           Y           Z
 ---------------------------------------------------------------------
      1          6           0       -1.679680    0.431269    0.014921
      2          1           0       -3.300570   -0.392345    0.563626
      3          1           0       -2.113900    1.337130    0.526261
      4          8           0       -2.491440   -0.648481    0.098223
      5          8           0       -0.607440    0.391656   -0.497604
      6          8           0        2.165920    0.160498    0.554498
      7          8           0        2.869530   -0.345223   -0.302544
 ---------------------------------------------------------------------

 SCF Done:  E(RHF) =  -339.681404516     A.U. after    2 cycles

 The electronic state is 1-A.
 Alpha  occ. eigenvalues --  -21.21164 -21.20483 -21.14199 -21.07327 -11.52383
 Alpha  occ. eigenvalues --   -2.08343  -1.83200  -1.67181  -1.20137  -0.86920
 Alpha  occ. eigenvalues --   -0.73918  -0.59445  -0.55642  -0.55023  -0.53368
 Alpha  occ. eigenvalues --   -0.51237  -0.48932  -0.35204  -0.32415  -0.25641
 Alpha virt. eigenvalues --    0.02751   0.05074   0.09978   0.11172   0.12318
 Alpha virt. eigenvalues --    0.12535   0.13706   0.14843   0.17631   0.19469
 Alpha virt. eigenvalues --    0.19806   0.21206   0.22992   0.23169   0.24338

 Mulliken charges:
               1
     1  C    2.394206
     2  H    0.993245
     3  H    1.480514
     4  O   -2.317976
     5  O   -2.610121
     6  O    0.064930
     7  O   -0.004797
 Sum of Mulliken charges =   0.00000

 Dipole moment (field-independent basis, Debye):
    X=             -2.1246    Y=              0.3725    Z=              1.0314  Tot=              2.3909

 Test job not archived.
 1\1\GINC-SE339\SP\RHF\Aug-CC-pVDZ\C1H2O4\OHZDE\08-Apr-2025\0\\#t hf au
 g-cc-pvdz iop(5/13=1,5/36=2,99/5=2) pseudo=read geom=check guess=(read
 ,tcheck) scf=(maxcycle=1)\\title\\0,1\C,0,-1.67968,0.431269,0.0149209\
 H,0,-3.30057,-0.392344,0.563626\H,0,-2.1139,1.33713,0.526261\O,0,-2.49
 144,-0.648481,0.0982229\O,0,-0.60744,0.391656,-0.497604\O,0,2.16592,0.
 160498,0.554498\O,0,2.86953,-0.345223,-0.302544\\Version=ES64L-G16RevC
 .01\State=1-A\HF=-339.6814045\RMSD=6.121e-02\Dipole=-0.8358796,0.14655
 34,0.4058026\Quadrupole=4.1669192,-2.9088427,-1.2580766,-0.9990048,-1.

 Normal termination of Gaussian 16 at Tue Apr  8 21:36:58 2025.
