 Gaussian 16, Revision C.01,

 ----------------------------------------------------------------------
 #t hf aug-cc-pvdz symm=none int=(grid=ultrafine) guess=(read,tcheck) s
 table=(opt,rrhf)
 ----------------------------------------------------------------------
 -----
 title
 -----
 Symbolic Z-matrix:
 Charge =  0 Multiplicity = 1

 SCF Done:  E(RHF) =  -489.708535755     A.U. after   14 cycles
 Normal termination of Gaussian 16 at Tue Apr  8 22:16:08 2025.
 Gaussian 16:  ES64L-G16RevC.01  3-Jul-2019

 ----------------------------------------------------------------------
 #t hf aug-cc-pvdz iop(5/13=1,5/36=2,99/5=2) pseudo=read geom=check gue
 ss=(read,tcheck) scf=(maxcycle=1)
 ----------------------------------------------------------------------
 -----
 title
 -----
 Structure from the checkpoint file:  "ANI1ccx_957_conf4_mol1.chk"
 Charge =  0 Multiplicity = 1

                         Standard orientation:
 ---------------------------------------------------------------------
 Center     Atomic      Atomic             Coordinates (Angstroms)
 Number     Number       Type             X           Y           Z
 ---------------------------------------------------------------------
      1          6           0        0.486850    0.414362    0.323684
      2          6           0        1.871260   -0.069813    0.001254
      3          6           0       -0.535051   -0.659976   -0.162284
      4          6           0       -2.035200   -0.319619   -0.083640
      5          1           0        3.075581   -1.415027    0.474938
      6          1           0       -1.426191    1.041859    1.224060
      7          1           0       -0.314366   -0.887309   -1.243450
      8          1           0       -0.420943   -1.607971    0.281795
      9          1           0       -3.160621    1.042097    1.009010
     10          1           0        0.858213    2.423511    0.064020
     11          1           0        0.192218    1.685540   -1.251720
     12          1           0        0.545666    0.483297    1.432310
     13          7           0        0.212552    1.726950   -0.245676
     14          7           0       -2.255250    0.648195    0.804146
     15          8           0       -2.800339   -1.023083   -0.739028
     16          8           0        2.571000    0.198954   -0.935364
     17          8           0        2.257111   -1.123588    0.877600
 ---------------------------------------------------------------------

 SCF Done:  E(RHF) =  -491.860267012     A.U. after    2 cycles

 The electronic state is 1-A.
 Alpha  occ. eigenvalues --  -21.12459 -21.08146 -21.02183 -15.78553 -15.76022
 Alpha  occ. eigenvalues --  -11.55672 -11.51479 -11.48012 -11.41160  -1.82631
 Alpha  occ. eigenvalues --   -1.69222  -1.66505  -1.40300  -1.34926  -1.14024
 Alpha  occ. eigenvalues --   -1.00509  -0.82028  -0.80300  -0.73609  -0.71576
 Alpha  occ. eigenvalues --   -0.65198  -0.63953  -0.61502  -0.60320  -0.54982
 Alpha  occ. eigenvalues --   -0.54578  -0.51325  -0.50442  -0.47804  -0.46944
 Alpha  occ. eigenvalues --   -0.38978  -0.35435  -0.32076  -0.31237  -0.27507
 Alpha virt. eigenvalues --    0.03378   0.04605   0.04994   0.05262   0.06195
 Alpha virt. eigenvalues --    0.06938   0.07097   0.08000   0.10037   0.11553
 Alpha virt. eigenvalues --    0.11629   0.12193   0.13262   0.13441   0.14420

 Mulliken charges:
               1
     1  C   -1.643736
     2  C    7.141436
     3  C   -3.340762
     4  C    4.933962
     5  H    0.907783
     6  H    0.893528
     7  H    1.287360
     8  H    1.468423
     9  H    0.808285
    10  H    0.600402
    11  H    0.567664
    12  H    1.791012
    13  N   -2.581153
    14  N   -3.107050
    15  O   -3.281189
    16  O   -3.447056
    17  O   -2.998909
 Sum of Mulliken charges =  -0.00000

 Dipole moment (field-independent basis, Debye):
    X=              1.2941    Y=              1.7228    Z=              1.9131  Tot=              2.8814

 Test job not archived.
 1\1\GINC-SE343\SP\RHF\Aug-CC-pVDZ\C4H8N2O3\OHZDE\08-Apr-2025\0\\#t hf
 aug-cc-pvdz iop(5/13=1,5/36=2,99/5=2) pseudo=read geom=check guess=(re
 ad,tcheck) scf=(maxcycle=1)\\title\\0,1\C,0,0.48685,0.414362,0.323684\
 C,0,1.87126,-0.0698148,0.00125376\C,0,-0.535052,-0.659975,-0.162284\C,
 0,-2.0352,-0.319617,-0.0836399\H,0,3.07558,-1.41503,0.474938\H,0,-1.42
 619,1.04186,1.22406\H,0,-0.314367,-0.887309,-1.24345\H,0,-0.420945,-1.
 60797,0.281795\H,0,-3.16062,1.0421,1.00901\H,0,0.858215,2.42351,0.0640
 201\H,0,0.192219,1.68554,-1.25172\H,0,0.545666,0.483297,1.43231\N,0,0.

 Normal termination of Gaussian 16 at Tue Apr  8 22:16:15 2025.
