 Gaussian 16, Revision C.01,

 ----------------------------------------------------------------------
 #t hf aug-cc-pvdz symm=none int=(grid=ultrafine) guess=(read,tcheck) s
 table=(opt,rrhf)
 ----------------------------------------------------------------------
 -----
 title
 -----
 Symbolic Z-matrix:
 Charge =  0 Multiplicity = 1

 SCF Done:  E(RHF) =  -810.389372600     A.U. after   15 cycles
 Normal termination of Gaussian 16 at Tue Apr  8 19:57:27 2025.
 Gaussian 16:  ES64L-G16RevC.01  3-Jul-2019

 ----------------------------------------------------------------------
 #t hf aug-cc-pvdz iop(5/13=1,5/36=2,99/5=2) pseudo=read geom=check gue
 ss=(read,tcheck) scf=(maxcycle=1)
 ----------------------------------------------------------------------
 -----
 title
 -----
 Structure from the checkpoint file:  "ANI1ccx_1427_conf34_mol1.chk"
 Charge =  0 Multiplicity = 1

                         Standard orientation:
 ---------------------------------------------------------------------
 Center     Atomic      Atomic             Coordinates (Angstroms)
 Number     Number       Type             X           Y           Z
 ---------------------------------------------------------------------
      1          6           0       -2.312970   -0.937722    0.089427
      2          6           0       -1.171810    0.136845    0.033675
      3          6           0       -3.719680   -0.284245   -0.088902
      4          6           0        1.268090    0.513768    0.608640
      5          6           0        1.558029    2.051620    0.417402
      6          6           0        2.188310   -0.114832   -0.396349
      7          6           0        2.294830   -1.669449   -0.344139
      8          1           0        0.118100    2.195120   -0.879881
      9          1           0        3.152570   -2.299869   -1.976450
     10          1           0        3.475630   -3.239759   -0.766594
     11          1           0        3.196360    0.150715   -0.100595
     12          1           0        2.086020    0.209372   -1.469450
     13          1           0        1.676460    0.337473    1.617030
     14          1           0        0.080526   -1.133810    0.943865
     15          1           0       -2.872811    0.978690   -1.070250
     16          1           0       -4.125580    0.160451    0.819447
     17          1           0       -4.411650   -1.085421   -0.384760
     18          1           0       -2.217620   -1.429990   -0.824086
     19          1           0       -2.921310   -2.488450    1.082030
     20          1           0       -2.636470   -1.069910    1.930430
     21          7           0       -2.180250   -1.727780    1.325240
     22          7           0       -0.085485   -0.169190    0.758089
     23          7           0        3.342220   -2.201369   -1.019690
     24          8           0       -1.219711    1.103540   -0.776648
     25          8           0       -3.829080    0.690901   -1.068370
     26          8           0        2.348369    2.681431    1.055300
     27          8           0        1.478930   -2.304150    0.344356
     28          8           0        0.875941    2.731760   -0.590225
 ---------------------------------------------------------------------

 SCF Done:  E(RHF) =  -813.964516731     A.U. after    2 cycles

 The electronic state is 1-A.
 Alpha  occ. eigenvalues --  -21.08915 -21.07683 -21.06288 -21.06099 -21.04501
 Alpha  occ. eigenvalues --  -15.80618 -15.79303 -15.77445 -11.55859 -11.55332
 Alpha  occ. eigenvalues --  -11.55031 -11.51487 -11.47555 -11.43608 -11.41777
 Alpha  occ. eigenvalues --   -1.80606  -1.75928  -1.74361  -1.69798  -1.64254
 Alpha  occ. eigenvalues --   -1.44113  -1.39223  -1.36561  -1.20468  -1.07411
 Alpha  occ. eigenvalues --   -1.01482  -0.93344  -0.85775  -0.83027  -0.76235
 Alpha  occ. eigenvalues --   -0.75520  -0.72015  -0.70127  -0.69268  -0.66092
 Alpha  occ. eigenvalues --   -0.63887  -0.62561  -0.61460  -0.60279  -0.59826
 Alpha  occ. eigenvalues --   -0.56234  -0.54524  -0.52903  -0.52271  -0.52120
 Alpha  occ. eigenvalues --   -0.50015  -0.48828  -0.47658  -0.46757  -0.44191
 Alpha  occ. eigenvalues --   -0.39937  -0.38268  -0.35826  -0.32655  -0.32378
 Alpha  occ. eigenvalues --   -0.30524  -0.29725  -0.28763
 Alpha virt. eigenvalues --    0.02311   0.03577   0.04285   0.04670   0.05295
 Alpha virt. eigenvalues --    0.05598   0.06129   0.06288   0.07018   0.07788
 Alpha virt. eigenvalues --    0.08516   0.08972   0.09506   0.10065   0.10505

 Mulliken charges:
               1
     1  C   -1.343477
     2  C    5.918884
     3  C   -0.795687
     4  C   -1.258588
     5  C    6.282530
     6  C   -3.114122
     7  C    5.268951
     8  H    1.570150
     9  H    0.614308
    10  H    0.642891
    11  H    1.347248
    12  H    1.498149
    13  H    1.720444
    14  H    1.059916
    15  H    1.278204
    16  H    1.382768
    17  H    1.133148
    18  H    1.735901
    19  H    0.532338
    20  H    0.557882
    21  N   -2.629266
    22  N   -2.998086
    23  N   -3.399034
    24  O   -3.906007
    25  O   -2.964918
    26  O   -3.516903
    27  O   -3.204185
    28  O   -3.413439
 Sum of Mulliken charges =   0.00000

 Dipole moment (field-independent basis, Debye):
    X=              0.2741    Y=             -4.8750    Z=             -1.0309  Tot=              4.9904

 Test job not archived.
 1\1\GINC-SE095\SP\RHF\Aug-CC-pVDZ\C7H13N3O5\OHZDE\08-Apr-2025\0\\#t hf
  aug-cc-pvdz iop(5/13=1,5/36=2,99/5=2) pseudo=read geom=check guess=(r
 ead,tcheck) scf=(maxcycle=1)\\title\\0,1\C,0,-2.31297,-0.937722,0.0894
 269\C,0,-1.17181,0.136845,0.0336758\C,0,-3.71968,-0.284245,-0.0889013\
 C,0,1.26809,0.513768,0.60864\C,0,1.55803,2.05162,0.417402\C,0,2.18831,
 -0.114833,-0.396349\C,0,2.29483,-1.66945,-0.344139\H,0,0.118101,2.1951
 2,-0.879881\H,0,3.15257,-2.29987,-1.97645\H,0,3.47563,-3.23976,-0.7665
 94\H,0,3.19636,0.150714,-0.100595\H,0,2.08602,0.209371,-1.46945\H,0,1.

 Normal termination of Gaussian 16 at Tue Apr  8 19:57:56 2025.
