 Gaussian 16, Revision C.01,

 ----------------------------------------------------------------------
 #t hf aug-cc-pvdz symm=none int=(grid=ultrafine) guess=(read,tcheck) s
 table=(opt,rrhf)
 ----------------------------------------------------------------------
 -----
 title
 -----
 Symbolic Z-matrix:
 Charge =  0 Multiplicity = 1

 SCF Done:  E(RHF) =  -982.085885499     A.U. after   14 cycles
 Normal termination of Gaussian 16 at Tue Apr  8 20:57:20 2025.
 Gaussian 16:  ES64L-G16RevC.01  3-Jul-2019

 ----------------------------------------------------------------------
 #t hf aug-cc-pvdz iop(5/13=1,5/36=2,99/5=2) pseudo=read geom=check gue
 ss=(read,tcheck) scf=(maxcycle=1)
 ----------------------------------------------------------------------
 -----
 title
 -----
 Structure from the checkpoint file:  "ANI1ccx_1743_conf19_mol1.chk"
 Charge =  0 Multiplicity = 1

                         Standard orientation:
 ---------------------------------------------------------------------
 Center     Atomic      Atomic             Coordinates (Angstroms)
 Number     Number       Type             X           Y           Z
 ---------------------------------------------------------------------
      1          6           0        1.427630    1.890870    0.336520
      2          6           0        0.141618    1.898190   -0.652870
      3          6           0        2.721640    1.382120   -0.409401
      4          6           0        2.670130   -0.092510   -0.793681
      5          6           0        2.866320   -1.158490    0.221224
      6          6           0       -0.827485   -0.379456   -0.026510
      7          6           0       -1.158840   -1.460209   -0.994234
      8          6           0       -1.749060   -0.264075    1.132919
      9          6           0       -3.190060    0.140788    0.796225
     10          1           0        0.436343   -2.439050   -0.438068
     11          1           0       -5.022700   -0.321201    0.964835
     12          1           0       -1.305450    0.467899    1.787379
     13          1           0       -1.804400   -1.162809    1.750339
     14          1           0        0.155760   -0.596310    0.382626
     15          1           0       -1.491380    0.990440   -1.347231
     16          1           0        3.672840   -1.754451    1.740609
     17          1           0        3.428790   -0.319981   -1.553911
     18          1           0        1.736510   -0.333621   -1.248861
     19          1           0        2.870921    1.972280   -1.318771
     20          1           0        3.603370    1.544650    0.221703
     21          1           0        1.503321    3.009490    0.601720
     22          1           0        2.156160    0.946283    1.962849
     23          1           0        0.632848    1.465200    2.245219
     24          7           0        1.273290    1.059980    1.538769
     25          7           0       -0.704096    0.827312   -0.756692
     26          8           0        0.042347    2.935580   -1.286961
     27          8           0        2.227789   -2.177380    0.238782
     28          8           0        3.801690   -0.944247    1.167609
     29          8           0       -2.135890   -1.399589   -1.699821
     30          8           0       -3.502590    1.235811    0.295132
     31          8           0       -4.119040   -0.714350    1.239639
     32          8           0       -0.310388   -2.488729   -1.065141
 ---------------------------------------------------------------------

 SCF Done:  E(RHF) =  -986.358421487     A.U. after    2 cycles

 The electronic state is 1-A.
 Alpha  occ. eigenvalues --  -21.15411 -21.13212 -21.11901 -21.08696 -21.05210
 Alpha  occ. eigenvalues --  -21.05174 -21.03249 -15.77310 -15.76575 -11.57716
 Alpha  occ. eigenvalues --  -11.56707 -11.54876 -11.53310 -11.50847 -11.49038
 Alpha  occ. eigenvalues --  -11.46766 -11.44417 -11.41953  -1.87377  -1.83390
 Alpha  occ. eigenvalues --   -1.82306  -1.70925  -1.69099  -1.65937  -1.63945
 Alpha  occ. eigenvalues --   -1.44260  -1.37698  -1.22165  -1.19459  -1.05454
 Alpha  occ. eigenvalues --   -1.02785  -0.93709  -0.84755  -0.83140  -0.81280
 Alpha  occ. eigenvalues --   -0.78169  -0.73288  -0.72399  -0.68450  -0.67857
 Alpha  occ. eigenvalues --   -0.66176  -0.65269  -0.64806  -0.62716  -0.62112
 Alpha  occ. eigenvalues --   -0.60102  -0.59815  -0.58036  -0.57209  -0.55136
 Alpha  occ. eigenvalues --   -0.53909  -0.52978  -0.51913  -0.51333  -0.50596
 Alpha  occ. eigenvalues --   -0.48924  -0.47899  -0.45935  -0.45122  -0.44288
 Alpha  occ. eigenvalues --   -0.38614  -0.37656  -0.34504  -0.34196  -0.33415
 Alpha  occ. eigenvalues --   -0.32295  -0.30118  -0.28811  -0.28226
 Alpha virt. eigenvalues --    0.02755   0.03758   0.04078   0.04222   0.05076
 Alpha virt. eigenvalues --    0.05460   0.05894   0.06465   0.06651   0.07704
 Alpha virt. eigenvalues --    0.07868   0.09015   0.09283   0.09632   0.10318

 Mulliken charges:
               1
     1  C   -0.878778
     2  C    5.667126
     3  C   -3.248199
     4  C   -4.278317
     5  C    7.211417
     6  C   -2.647286
     7  C    7.100857
     8  C   -5.661737
     9  C    6.937509
    10  H    1.390539
    11  H    0.794904
    12  H    1.685802
    13  H    1.374768
    14  H    3.148492
    15  H    0.775213
    16  H    0.714877
    17  H    1.377777
    18  H    2.205949
    19  H    1.259102
    20  H    1.513017
    21  H    1.499540
    22  H    0.825923
    23  H    0.639987
    24  N   -2.845145
    25  N   -2.189576
    26  O   -3.888370
    27  O   -3.536189
    28  O   -3.293839
    29  O   -3.697521
    30  O   -3.116448
    31  O   -3.265405
    32  O   -3.575987
 Sum of Mulliken charges =   0.00000

 Dipole moment (field-independent basis, Debye):
    X=              3.8053    Y=             -0.5428    Z=              3.8097  Tot=              5.4119

 Test job not archived.
 1\1\GINC-SE367\SP\RHF\Aug-CC-pVDZ\C9H14N2O7\OHZDE\08-Apr-2025\0\\#t hf
  aug-cc-pvdz iop(5/13=1,5/36=2,99/5=2) pseudo=read geom=check guess=(r
 ead,tcheck) scf=(maxcycle=1)\\title\\0,1\C,0,1.42763,1.89087,0.336521\
 C,0,0.141618,1.89819,-0.652869\C,0,2.72164,1.38212,-0.4094\C,0,2.67013
 ,-0.0925097,-0.79368\C,0,2.86632,-1.15849,0.221225\C,0,-0.827485,-0.37
 9457,-0.0265086\C,0,-1.15884,-1.46021,-0.994233\C,0,-1.74906,-0.264076
 ,1.13292\C,0,-3.19006,0.140787,0.796226\H,0,0.436344,-2.43905,-0.43806
 7\H,0,-5.0227,-0.321203,0.964836\H,0,-1.30545,0.467898,1.78738\H,0,-1.

 Normal termination of Gaussian 16 at Tue Apr  8 20:58:02 2025.
