 Gaussian 16, Revision C.01,

 ----------------------------------------------------------------------
 #t hf aug-cc-pvdz symm=none int=(grid=ultrafine) guess=(read,tcheck) s
 table=(opt,rrhf)
 ----------------------------------------------------------------------
 -----
 title
 -----
 Symbolic Z-matrix:
 Charge =  0 Multiplicity = 1

 SCF Done:  E(RHF) =  -451.163203964     A.U. after   14 cycles
 Normal termination of Gaussian 16 at Tue Apr  8 21:13:27 2025.
 Gaussian 16:  ES64L-G16RevC.01  3-Jul-2019

 ----------------------------------------------------------------------
 #t hf aug-cc-pvdz iop(5/13=1,5/36=2,99/5=2) pseudo=read geom=check gue
 ss=(read,tcheck) scf=(maxcycle=1)
 ----------------------------------------------------------------------
 -----
 title
 -----
 Structure from the checkpoint file:  "ANI1ccx_1886_conf2_mol1.chk"
 Charge =  0 Multiplicity = 1

                         Standard orientation:
 ---------------------------------------------------------------------
 Center     Atomic      Atomic             Coordinates (Angstroms)
 Number     Number       Type             X           Y           Z
 ---------------------------------------------------------------------
      1          1           0       -1.833320    1.470570    0.496076
      2          1           0       -3.173391   -1.214719    0.563734
      3          1           0        1.016489   -0.552860   -0.835429
      4          1           0        3.216169   -0.305309    1.195820
      5          8           0       -1.388630    0.603917    0.503356
      6          8           0       -2.125541   -0.087512   -0.479485
      7          8           0       -3.361351   -0.415389    0.051042
      8          8           0        1.174379    0.140317   -0.181579
      9          8           0        2.529350    0.429633   -0.350300
     10          8           0        3.268549   -0.595676    0.279440
 ---------------------------------------------------------------------

 SCF Done:  E(RHF) =  -452.964256562     A.U. after    2 cycles

 The electronic state is 1-A.
 Alpha  occ. eigenvalues --  -21.15238 -21.14336 -21.13851 -21.13214 -21.13050
 Alpha  occ. eigenvalues --  -21.12507  -2.09361  -2.07702  -1.70215  -1.69037
 Alpha  occ. eigenvalues --   -1.27205  -1.26629  -0.69582  -0.68495  -0.59035
 Alpha  occ. eigenvalues --   -0.58200  -0.56782  -0.55552  -0.55226  -0.53629
 Alpha  occ. eigenvalues --   -0.35996  -0.34955  -0.34039  -0.32295  -0.31092
 Alpha  occ. eigenvalues --   -0.30279
 Alpha virt. eigenvalues --    0.04774   0.05605   0.06136   0.07364   0.13471
 Alpha virt. eigenvalues --    0.14857   0.15399   0.17018   0.19377   0.19713
 Alpha virt. eigenvalues --    0.20377   0.20752   0.21543   0.22238   0.22934

 Mulliken charges:
               1
     1  H    0.970104
     2  H    0.907417
     3  H    0.978170
     4  H    0.946476
     5  O   -1.035486
     6  O    0.127526
     7  O   -0.901462
     8  O   -1.399222
     9  O    0.439924
    10  O   -1.033445
 Sum of Mulliken charges =  -0.00000

 Dipole moment (field-independent basis, Debye):
    X=             -0.8867    Y=             -0.3252    Z=              1.2019  Tot=              1.5286

 Test job not archived.
 1\1\GINC-SE095\SP\RHF\Aug-CC-pVDZ\H4O6\OHZDE\08-Apr-2025\0\\#t hf aug-
 cc-pvdz iop(5/13=1,5/36=2,99/5=2) pseudo=read geom=check guess=(read,t
 check) scf=(maxcycle=1)\\title\\0,1\H,0,-1.83332,1.47057,0.496076\H,0,
 -3.17339,-1.21472,0.563734\H,0,1.01649,-0.55286,-0.835429\H,0,3.21617,
 -0.305308,1.19582\O,0,-1.38863,0.603917,0.503356\O,0,-2.12554,-0.08751
 29,-0.479485\O,0,-3.36135,-0.41539,0.0510422\O,0,1.17438,0.140317,-0.1
 81579\O,0,2.52935,0.429633,-0.3503\O,0,3.26855,-0.595675,0.27944\\Vers
 ion=ES64L-G16RevC.01\State=1-A\HF=-452.9642566\RMSD=3.638e-02\Dipole=-

 Normal termination of Gaussian 16 at Tue Apr  8 21:13:29 2025.
