 Gaussian 16, Revision C.01,

 ----------------------------------------------------------------------
 #t hf aug-cc-pvdz symm=none int=(grid=ultrafine) guess=(read,tcheck) s
 table=(opt,rrhf)
 ----------------------------------------------------------------------
 -----
 title
 -----
 Symbolic Z-matrix:
 Charge =  0 Multiplicity = 1

 SCF Done:  E(RHF) =  -460.211285195     A.U. after   19 cycles
 Normal termination of Gaussian 16 at Tue Apr  8 21:34:49 2025.
 Gaussian 16:  ES64L-G16RevC.01  3-Jul-2019

 ----------------------------------------------------------------------
 #t hf aug-cc-pvdz iop(5/13=1,5/36=2,99/5=2) pseudo=read geom=check gue
 ss=(read,tcheck) scf=(maxcycle=1)
 ----------------------------------------------------------------------
 -----
 title
 -----
 Structure from the checkpoint file:  "ANI1ccx_373_conf27_mol1.chk"
 Charge =  0 Multiplicity = 1

                         Standard orientation:
 ---------------------------------------------------------------------
 Center     Atomic      Atomic             Coordinates (Angstroms)
 Number     Number       Type             X           Y           Z
 ---------------------------------------------------------------------
      1          6           0        0.016335    0.124067   -0.093207
      2          1           0        2.784839   -1.231494    0.207103
      3          7           0       -1.396240   -0.048890   -0.146351
      4          7           0        0.852077    1.223989   -0.247976
      5          7           0        2.035841    0.670325   -0.068144
      6          7           0        1.908260   -0.616868    0.165119
      7          7           0        0.756991   -1.061961    0.181027
      8          8           0       -2.082078    1.011563    0.359127
      9          8           0       -1.915591   -1.096447   -0.213325
 ---------------------------------------------------------------------

 SCF Done:  E(RHF) =  -462.169829936     A.U. after    2 cycles

 The electronic state is 1-A.
 Alpha  occ. eigenvalues --  -21.16218 -21.07228 -16.02408 -15.93345 -15.86102
 Alpha  occ. eigenvalues --  -15.85648 -15.85190 -11.52455  -2.01079  -1.82471
 Alpha  occ. eigenvalues --   -1.65633  -1.46846  -1.33932  -1.12069  -0.97302
 Alpha  occ. eigenvalues --   -0.86421  -0.79657  -0.75704  -0.70165  -0.66842
 Alpha  occ. eigenvalues --   -0.63170  -0.58471  -0.48888  -0.48020  -0.47717
 Alpha  occ. eigenvalues --   -0.41372  -0.37183  -0.31332  -0.30681
 Alpha virt. eigenvalues --    0.02178   0.06992   0.08700   0.10131   0.10496
 Alpha virt. eigenvalues --    0.11517   0.12310   0.12569   0.12814   0.14441
 Alpha virt. eigenvalues --    0.15651   0.16462   0.17629   0.18287   0.18895

 Mulliken charges:
               1
     1  C    4.164441
     2  H    1.022613
     3  N    2.919678
     4  N   -1.573951
     5  N   -0.251843
     6  N    0.395756
     7  N   -1.917071
     8  O   -1.879014
     9  O   -2.880609
 Sum of Mulliken charges =   0.00000

 Dipole moment (field-independent basis, Debye):
    X=              3.5521    Y=             -2.7444    Z=              0.3020  Tot=              4.4989

 Test job not archived.
 1\1\GINC-SE273\SP\RHF\Aug-CC-pVDZ\C1H1N5O2\OHZDE\08-Apr-2025\0\\#t hf
 aug-cc-pvdz iop(5/13=1,5/36=2,99/5=2) pseudo=read geom=check guess=(re
 ad,tcheck) scf=(maxcycle=1)\\title\\0,1\C,0,0.0163343,0.124067,-0.0932
 069\H,0,2.78484,-1.23149,0.207103\N,0,-1.39624,-0.0488921,-0.146351\N,
 0,0.852075,1.22399,-0.247976\N,0,2.03584,0.670328,-0.068144\N,0,1.9082
 6,-0.616865,0.165119\N,0,0.756992,-1.06196,0.181027\O,0,-2.08208,1.011
 56,0.359127\O,0,-1.91559,-1.09645,-0.213325\\Version=ES64L-G16RevC.01\
 State=1-A\HF=-462.1698299\RMSD=1.040e-01\Dipole=1.3975053,-1.0797238,0

 Normal termination of Gaussian 16 at Tue Apr  8 21:34:54 2025.
