 Gaussian 16, Revision C.01,

 ----------------------------------------------------------------------
 #t hf aug-cc-pvdz symm=none int=(grid=ultrafine) guess=(read,tcheck) s
 table=(opt,rrhf)
 ----------------------------------------------------------------------
 -----
 title
 -----
 Symbolic Z-matrix:
 Charge =  0 Multiplicity = 1

 SCF Done:  E(RHF) =  -942.453063829     A.U. after   14 cycles
 Normal termination of Gaussian 16 at Tue Apr  8 21:22:31 2025.
 Gaussian 16:  ES64L-G16RevC.01  3-Jul-2019

 ----------------------------------------------------------------------
 #t hf aug-cc-pvdz iop(5/13=1,5/36=2,99/5=2) pseudo=read geom=check gue
 ss=(read,tcheck) scf=(maxcycle=1)
 ----------------------------------------------------------------------
 -----
 title
 -----
 Structure from the checkpoint file:  "ANI1ccx_1763_conf9_mol2.chk"
 Charge =  0 Multiplicity = 1

                         Standard orientation:
 ---------------------------------------------------------------------
 Center     Atomic      Atomic             Coordinates (Angstroms)
 Number     Number       Type             X           Y           Z
 ---------------------------------------------------------------------
      1          6           0        1.963721   -1.565010   -0.674519
      2          6           0       -0.793065    1.560049    1.082869
      3          6           0       -1.478630    0.358091    1.662349
      4          6           0       -2.826760   -1.005042   -0.016225
      5          6           0       -1.232221    1.964359   -0.299084
      6          6           0        2.885760    0.688045    0.077736
      7          6           0        3.204230   -0.705394   -0.364835
      8          6           0        0.903015   -1.367470    0.452353
      9          6           0       -1.533170   -0.904992    0.820542
     10          1           0       -0.963929    0.180511    2.633999
     11          1           0       -3.437620   -1.057482   -1.776061
     12          1           0        0.708960    2.279299   -1.002941
     13          1           0       -0.571617    2.716019   -2.095631
     14          1           0       -0.917841    2.418199    1.754779
     15          1           0        0.276356    1.403319    1.086699
     16          1           0       -2.521380    0.631980    1.940199
     17          1           0       -1.640539   -1.735641    1.532709
     18          1           0       -0.459721   -0.961124   -0.941414
     19          1           0        2.951470    0.129769    2.022239
     20          1           0        2.749849    1.804880    1.750229
     21          1           0        3.780590   -1.208789    0.417067
     22          1           0        3.918770   -0.628783   -1.189431
     23          1           0        2.287611   -2.617060   -0.594314
     24          1           0        2.100100   -1.056470   -2.686131
     25          1           0        1.010871   -2.159600   -2.330931
     26          7           0        1.379450   -1.269980   -1.974061
     27          7           0        3.067090    0.924407    1.411729
     28          7           0       -0.351463   -1.099201    0.005576
     29          7           0       -0.291697    2.418419   -1.173451
     30          8           0        1.182491   -1.523650    1.631309
     31          8           0        2.428030    1.522230   -0.687665
     32          8           0       -3.941040   -0.914411    0.430596
     33          8           0       -2.400401    1.900728   -0.668382
     34          8           0       -2.575690   -1.121192   -1.312951
 ---------------------------------------------------------------------

 SCF Done:  E(RHF) =  -946.639252150     A.U. after    2 cycles

 The electronic state is 1-A.
 Alpha  occ. eigenvalues --  -21.12377 -21.04651 -21.04636 -21.03989 -21.00143
 Alpha  occ. eigenvalues --  -15.78909 -15.77137 -15.76112 -15.74584 -11.55700
 Alpha  occ. eigenvalues --  -11.55098 -11.54392 -11.50353 -11.49240 -11.48418
 Alpha  occ. eigenvalues --  -11.44021 -11.42491 -11.38516  -1.83936  -1.73495
 Alpha  occ. eigenvalues --   -1.72370  -1.68649  -1.65275  -1.44093  -1.38273
 Alpha  occ. eigenvalues --   -1.35315  -1.31559  -1.20505  -1.15206  -1.08159
 Alpha  occ. eigenvalues --   -0.98041  -0.92686  -0.84032  -0.81671  -0.79011
 Alpha  occ. eigenvalues --   -0.76907  -0.73247  -0.71533  -0.70019  -0.69345
 Alpha  occ. eigenvalues --   -0.66787  -0.65834  -0.65532  -0.62793  -0.61303
 Alpha  occ. eigenvalues --   -0.60379  -0.59270  -0.58182  -0.55205  -0.54521
 Alpha  occ. eigenvalues --   -0.53266  -0.51524  -0.50213  -0.49612  -0.49201
 Alpha  occ. eigenvalues --   -0.47976  -0.47063  -0.45233  -0.44884  -0.43333
 Alpha  occ. eigenvalues --   -0.40716  -0.35826  -0.34212  -0.31931  -0.31552
 Alpha  occ. eigenvalues --   -0.30048  -0.29610  -0.28951  -0.26829
 Alpha virt. eigenvalues --    0.02884   0.03775   0.04379   0.04650   0.05135
 Alpha virt. eigenvalues --    0.05473   0.05858   0.05999   0.06585   0.06948
 Alpha virt. eigenvalues --    0.07593   0.08010   0.08275   0.09020   0.09563

 Mulliken charges:
               1
     1  C   -1.458313
     2  C   -4.635758
     3  C   -2.222355
     4  C    8.098806
     5  C    6.161895
     6  C    6.862974
     7  C   -3.555480
     8  C    6.718984
     9  C   -3.868992
    10  H    1.222484
    11  H    1.034742
    12  H    1.029080
    13  H    0.796448
    14  H    1.300405
    15  H    2.594202
    16  H    1.426138
    17  H    1.658511
    18  H    1.006094
    19  H    0.750821
    20  H    0.819428
    21  H    1.421693
    22  H    1.383298
    23  H    1.838134
    24  H    0.747795
    25  H    0.474329
    26  N   -2.942966
    27  N   -3.857306
    28  N   -2.551933
    29  N   -3.397180
    30  O   -4.138438
    31  O   -4.044499
    32  O   -3.619463
    33  O   -3.651831
    34  O   -3.401751
 Sum of Mulliken charges =  -0.00000

 Dipole moment (field-independent basis, Debye):
    X=              3.5246    Y=             -1.6154    Z=             -1.7658  Tot=              4.2603

 Test job not archived.
 1\1\GINC-SE404\SP\RHF\Aug-CC-pVDZ\C9H16N4O5\OHZDE\08-Apr-2025\0\\#t hf
  aug-cc-pvdz iop(5/13=1,5/36=2,99/5=2) pseudo=read geom=check guess=(r
 ead,tcheck) scf=(maxcycle=1)\\title\\0,1\C,0,1.96372,-1.56501,-0.67451
 8\C,0,-0.793065,1.56005,1.08287\C,0,-1.47863,0.358092,1.66235\C,0,-2.8
 2676,-1.00504,-0.0162243\C,0,-1.23222,1.96436,-0.299083\C,0,2.88576,0.
 688045,0.0777371\C,0,3.20423,-0.705394,-0.364834\C,0,0.903014,-1.36747
 ,0.452354\C,0,-1.53317,-0.904991,0.820543\H,0,-0.963929,0.180512,2.634
 \H,0,-3.43762,-1.05748,-1.77606\H,0,0.708961,2.2793,-1.00294\H,0,-0.57

 Normal termination of Gaussian 16 at Tue Apr  8 21:23:29 2025.
