 Gaussian 16, Revision C.01,

 ----------------------------------------------------------------------
 #t hf aug-cc-pvdz symm=none int=(grid=ultrafine) guess=(read,tcheck) s
 table=(opt,rrhf)
 ----------------------------------------------------------------------
 -----
 title
 -----
 Symbolic Z-matrix:
 Charge =  0 Multiplicity = 1

 SCF Done:  E(RHF) =  -659.110694472     A.U. after   14 cycles
 Normal termination of Gaussian 16 at Tue Apr  8 19:38:48 2025.
 Gaussian 16:  ES64L-G16RevC.01  3-Jul-2019

 ----------------------------------------------------------------------
 #t hf aug-cc-pvdz iop(5/13=1,5/36=2,99/5=2) pseudo=read geom=check gue
 ss=(read,tcheck) scf=(maxcycle=1)
 ----------------------------------------------------------------------
 -----
 title
 -----
 Structure from the checkpoint file:  "ANI1ccx_1265_conf6_mol1.chk"
 Charge =  0 Multiplicity = 1

                         Standard orientation:
 ---------------------------------------------------------------------
 Center     Atomic      Atomic             Coordinates (Angstroms)
 Number     Number       Type             X           Y           Z
 ---------------------------------------------------------------------
      1          6           0       -2.106510    0.118626   -0.622139
      2          6           0       -0.671998    1.967989    0.241354
      3          6           0        0.763238    1.781689   -0.258113
      4          6           0        1.614500    1.164579    0.845124
      5          6           0        2.613960    0.074117    0.401155
      6          6           0        1.939950   -1.253021   -0.024715
      7          1           0       -0.006725   -0.637047    0.411538
      8          1           0        3.992520   -0.219439   -1.060480
      9          1           0        4.177190    1.231339   -0.196114
     10          1           0        3.029240   -0.197761    1.408460
     11          1           0        0.967445    0.766597    1.576290
     12          1           0        2.206910    1.927279    1.310510
     13          1           0        0.763726    1.177519   -1.158860
     14          1           0        1.237080    2.752339   -0.630018
     15          1           0       -0.601707    2.491719    1.231800
     16          1           0       -1.255220    2.570059   -0.426255
     17          1           0       -1.828160    0.684928    1.378000
     18          1           0       -3.883860    1.062649   -0.125285
     19          1           0       -3.942470    0.362957   -1.570020
     20          1           0       -1.521470    0.028063   -1.473650
     21          1           0       -1.548320   -1.798241   -0.396845
     22          1           0       -2.471910   -1.822431    1.639140
     23          1           0       -3.925760   -1.859691    0.838087
     24          7           0       -3.056320   -1.361071    0.949227
     25          7           0       -2.452830   -1.286351   -0.373163
     26          7           0       -3.311030    0.861309   -0.940106
     27          7           0       -1.335650    0.668970    0.471167
     28          7           0        3.551030    0.559759   -0.602462
     29          8           0        0.656497   -1.311521    0.171063
     30          8           0        2.584290   -2.156361   -0.519180
 ---------------------------------------------------------------------

 SCF Done:  E(RHF) =  -662.175515972     A.U. after    2 cycles

 The electronic state is 1-A.
 Alpha  occ. eigenvalues --  -21.09612 -21.03095 -15.75722 -15.74001 -15.73623
 Alpha  occ. eigenvalues --  -15.73557 -15.72629 -11.52920 -11.47835 -11.45587
 Alpha  occ. eigenvalues --  -11.44498 -11.40784 -11.37225  -1.82358  -1.64129
 Alpha  occ. eigenvalues --   -1.51306  -1.38734  -1.34862  -1.28438  -1.18153
 Alpha  occ. eigenvalues --   -1.12261  -1.04326  -0.94714  -0.89512  -0.84466
 Alpha  occ. eigenvalues --   -0.80030  -0.72891  -0.71525  -0.68735  -0.67916
 Alpha  occ. eigenvalues --   -0.66115  -0.63846  -0.61608  -0.61049  -0.59698
 Alpha  occ. eigenvalues --   -0.58265  -0.54412  -0.53670  -0.52290  -0.51438
 Alpha  occ. eigenvalues --   -0.50082  -0.47039  -0.46471  -0.45607  -0.42315
 Alpha  occ. eigenvalues --   -0.40977  -0.35751  -0.34959  -0.34590  -0.32769
 Alpha  occ. eigenvalues --   -0.31871  -0.28370
 Alpha virt. eigenvalues --    0.03703   0.04172   0.04421   0.04632   0.04891
 Alpha virt. eigenvalues --    0.05322   0.05781   0.06560   0.06951   0.07532
 Alpha virt. eigenvalues --    0.08022   0.08157   0.08420   0.08664   0.09766

 Mulliken charges:
               1
     1  C    1.361765
     2  C   -3.680261
     3  C   -3.133742
     4  C   -1.885051
     5  C   -0.896320
     6  C    6.186207
     7  H    1.850106
     8  H    0.624710
     9  H    0.551254
    10  H    1.479807
    11  H    1.852645
    12  H    1.147914
    13  H    2.004875
    14  H    1.208815
    15  H    1.497941
    16  H    1.315262
    17  H    0.291076
    18  H    0.500794
    19  H    0.536992
    20  H    2.097461
    21  H    0.687990
    22  H    0.692795
    23  H    0.726611
    24  N   -2.103632
    25  N   -1.387548
    26  N   -2.970636
    27  N   -0.066250
    28  N   -2.935206
    29  O   -4.129608
    30  O   -3.426766
 Sum of Mulliken charges =   0.00000

 Dipole moment (field-independent basis, Debye):
    X=             -1.7331    Y=              1.4497    Z=              2.1692  Tot=              3.1322

 Test job not archived.
 1\1\GINC-SE231\SP\RHF\Aug-CC-pVDZ\C6H17N5O2\OHZDE\08-Apr-2025\0\\#t hf
  aug-cc-pvdz iop(5/13=1,5/36=2,99/5=2) pseudo=read geom=check guess=(r
 ead,tcheck) scf=(maxcycle=1)\\title\\0,1\C,0,-2.10651,0.118627,-0.6221
 39\C,0,-0.671998,1.96799,0.241354\C,0,0.763238,1.78169,-0.258113\C,0,1
 .6145,1.16458,0.845124\C,0,2.61396,0.0741173,0.401155\C,0,1.93995,-1.2
 5302,-0.0247151\H,0,-0.00672409,-0.637046,0.411538\H,0,3.99252,-0.2194
 38,-1.06048\H,0,4.17719,1.23134,-0.196114\H,0,3.02924,-0.19776,1.40846
 \H,0,0.967445,0.766598,1.57629\H,0,2.20691,1.92728,1.31051\H,0,0.76372

 Normal termination of Gaussian 16 at Tue Apr  8 19:39:18 2025.
