 Gaussian 16, Revision C.01,

 ----------------------------------------------------------------------
 #t hf aug-cc-pvdz symm=none int=(grid=ultrafine) guess=(read,tcheck) s
 table=(opt,rrhf)
 ----------------------------------------------------------------------
 -----
 title
 -----
 Symbolic Z-matrix:
 Charge =  0 Multiplicity = 1

 SCF Done:  E(RHF) =  -559.965193253     A.U. after   14 cycles
 Normal termination of Gaussian 16 at Tue Apr  8 21:44:01 2025.
 Gaussian 16:  ES64L-G16RevC.01  3-Jul-2019

 ----------------------------------------------------------------------
 #t hf aug-cc-pvdz iop(5/13=1,5/36=2,99/5=2) pseudo=read geom=check gue
 ss=(read,tcheck) scf=(maxcycle=1)
 ----------------------------------------------------------------------
 -----
 title
 -----
 Structure from the checkpoint file:  "ANI1ccx_485_conf4_mol1.chk"
 Charge =  0 Multiplicity = 1

                         Standard orientation:
 ---------------------------------------------------------------------
 Center     Atomic      Atomic             Coordinates (Angstroms)
 Number     Number       Type             X           Y           Z
 ---------------------------------------------------------------------
      1          6           0       -1.051782   -0.709542   -0.201085
      2          6           0        1.139768   -0.620289    0.232956
      3          1           0        1.269584    2.448536   -0.320635
      4          1           0       -2.444348    1.273593    1.000840
      5          7           0        0.631570    0.626000    0.256669
      6          7           0       -0.684148    0.633745   -0.123774
      7          8           0        1.451622    1.385066   -0.558823
      8          8           0       -1.527048    1.649081    0.306861
      9          8           0       -2.186233   -1.211858   -0.137108
     10          8           0        0.085183   -1.520812   -0.173843
     11          8           0        2.303338   -0.871647    0.337701
 ---------------------------------------------------------------------

 SCF Done:  E(RHF) =  -562.285374123     A.U. after    2 cycles

 The electronic state is 1-A.
 Alpha  occ. eigenvalues --  -21.17214 -21.16793 -21.14545 -21.10216 -21.08997
 Alpha  occ. eigenvalues --  -15.87240 -15.86287 -11.59936 -11.57246  -1.96678
 Alpha  occ. eigenvalues --   -1.84602  -1.81989  -1.74020  -1.68744  -1.44566
 Alpha  occ. eigenvalues --   -1.17096  -0.93002  -0.85128  -0.77047  -0.73369
 Alpha  occ. eigenvalues --   -0.66812  -0.62207  -0.60014  -0.57544  -0.55248
 Alpha  occ. eigenvalues --   -0.53424  -0.49886  -0.48055  -0.42760  -0.38764
 Alpha  occ. eigenvalues --   -0.37364  -0.35748  -0.31526  -0.31327
 Alpha virt. eigenvalues --    0.02990   0.04263   0.08395   0.09949   0.10771
 Alpha virt. eigenvalues --    0.11078   0.11323   0.11903   0.12266   0.12638
 Alpha virt. eigenvalues --    0.13622   0.14370   0.15906   0.17277   0.17581

 Mulliken charges:
               1
     1  C    5.200450
     2  C    5.672586
     3  H    0.714103
     4  H    0.555039
     5  N    0.423230
     6  N    0.891685
     7  O   -2.477152
     8  O   -2.390943
     9  O   -2.903704
    10  O   -2.693331
    11  O   -2.991963
 Sum of Mulliken charges =  -0.00000

 Dipole moment (field-independent basis, Debye):
    X=             -0.2327    Y=              2.3110    Z=              0.2078  Tot=              2.3320

 Test job not archived.
 1\1\GINC-SE328\SP\RHF\Aug-CC-pVDZ\C2H2N2O5\OHZDE\08-Apr-2025\0\\#t hf
 aug-cc-pvdz iop(5/13=1,5/36=2,99/5=2) pseudo=read geom=check guess=(re
 ad,tcheck) scf=(maxcycle=1)\\title\\0,1\C,0,-1.05178,-0.709542,-0.2010
 85\C,0,1.13977,-0.620285,0.232956\H,0,1.26958,2.44854,-0.320635\H,0,-2
 .44435,1.27359,1.00084\N,0,0.631569,0.626003,0.256669\N,0,-0.684149,0.
 633745,-0.123774\O,0,1.45162,1.38507,-0.558823\O,0,-1.52705,1.64908,0.
 306861\O,0,-2.18623,-1.21186,-0.137108\O,0,0.0851871,-1.52081,-0.17384
 3\O,0,2.30334,-0.871641,0.337701\\Version=ES64L-G16RevC.01\State=1-A\H

 Normal termination of Gaussian 16 at Tue Apr  8 21:44:06 2025.
