 Gaussian 16, Revision C.01,

 ----------------------------------------------------------------------
 #t hf aug-cc-pvdz symm=none int=(grid=ultrafine) guess=(read,tcheck) s
 table=(opt,rrhf)
 ----------------------------------------------------------------------
 -----
 title
 -----
 Symbolic Z-matrix:
 Charge =  0 Multiplicity = 1

 SCF Done:  E(RHF) =  -280.723719144     A.U. after   16 cycles
 Normal termination of Gaussian 16 at Tue Apr  8 21:12:19 2025.
 Gaussian 16:  ES64L-G16RevC.01  3-Jul-2019

 ----------------------------------------------------------------------
 #t hf aug-cc-pvdz iop(5/13=1,5/36=2,99/5=2) pseudo=read geom=check gue
 ss=(read,tcheck) scf=(maxcycle=1)
 ----------------------------------------------------------------------
 -----
 title
 -----
 Structure from the checkpoint file:  "ANI1ccx_1870_conf3_mol2.chk"
 Charge =  0 Multiplicity = 1

                         Standard orientation:
 ---------------------------------------------------------------------
 Center     Atomic      Atomic             Coordinates (Angstroms)
 Number     Number       Type             X           Y           Z
 ---------------------------------------------------------------------
      1          1           0       -0.383666    0.093918   -0.116398
      2          1           0       -3.834250   -0.501231    0.367627
      3          1           0       -3.346250    0.921000    0.299724
      4          7           0        1.425270    0.473753   -0.089987
      5          8           0        0.401151   -0.476879   -0.072796
      6          8           0        2.451540   -0.045648    0.124542
      7          8           0       -3.154280    0.043783   -0.041876
 ---------------------------------------------------------------------

 SCF Done:  E(RHF) =  -281.877165732     A.U. after    2 cycles

 The electronic state is 1-A.
 Alpha  occ. eigenvalues --  -21.14393 -21.12716 -21.12047 -15.93132  -1.97310
 Alpha  occ. eigenvalues --   -1.70071  -1.68105  -0.94778  -0.71266  -0.64903
 Alpha  occ. eigenvalues --   -0.60674  -0.59931  -0.49361  -0.47744  -0.37409
 Alpha  occ. eigenvalues --   -0.35763  -0.29754
 Alpha virt. eigenvalues --    0.02996   0.05544   0.07788   0.13424   0.13657
 Alpha virt. eigenvalues --    0.14246   0.16606   0.18408   0.19447   0.20358
 Alpha virt. eigenvalues --    0.21866   0.22950   0.24132   0.24797   0.26229

 Mulliken charges:
               1
     1  H    1.027164
     2  H    0.923549
     3  H    0.886782
     4  N    2.833251
     5  O   -2.063630
     6  O   -1.827214
     7  O   -1.779903
 Sum of Mulliken charges =  -0.00000

 Dipole moment (field-independent basis, Debye):
    X=             -2.2918    Y=              0.0502    Z=              0.6639  Tot=              2.3866

 Test job not archived.
 1\1\GINC-SE340\SP\RHF\Aug-CC-pVDZ\H3N1O3\OHZDE\08-Apr-2025\0\\#t hf au
 g-cc-pvdz iop(5/13=1,5/36=2,99/5=2) pseudo=read geom=check guess=(read
 ,tcheck) scf=(maxcycle=1)\\title\\0,1\H,0,-0.383666,0.0939182,-0.11639
 8\H,0,-3.83425,-0.501231,0.367627\H,0,-3.34625,0.921,0.299724\N,0,1.42
 527,0.473753,-0.0899865\O,0,0.401151,-0.476879,-0.0727961\O,0,2.45154,
 -0.0456478,0.124542\O,0,-3.15428,0.0437825,-0.0418762\\Version=ES64L-G
 16RevC.01\State=1-A\HF=-281.8771657\RMSD=5.707e-02\Dipole=-0.9016811,0
 .0197677,0.2612109\Quadrupole=2.5547229,-0.9710531,-1.5836697,-1.01544

 Normal termination of Gaussian 16 at Tue Apr  8 21:12:20 2025.
