 Gaussian 16, Revision C.01,

 ----------------------------------------------------------------------
 #t hf aug-cc-pvdz symm=none int=(grid=ultrafine) guess=(read,tcheck) s
 table=(opt,rrhf)
 ----------------------------------------------------------------------
 -----
 title
 -----
 Symbolic Z-matrix:
 Charge =  0 Multiplicity = 1

 SCF Done:  E(RHF) =  -489.663807516     A.U. after   14 cycles
 Normal termination of Gaussian 16 at Tue Apr  8 22:15:06 2025.
 Gaussian 16:  ES64L-G16RevC.01  3-Jul-2019

 ----------------------------------------------------------------------
 #t hf aug-cc-pvdz iop(5/13=1,5/36=2,99/5=2) pseudo=read geom=check gue
 ss=(read,tcheck) scf=(maxcycle=1)
 ----------------------------------------------------------------------
 -----
 title
 -----
 Structure from the checkpoint file:  "ANI1ccx_957_conf111_mol1.chk"
 Charge =  0 Multiplicity = 1

                         Standard orientation:
 ---------------------------------------------------------------------
 Center     Atomic      Atomic             Coordinates (Angstroms)
 Number     Number       Type             X           Y           Z
 ---------------------------------------------------------------------
      1          6           0        0.566653   -0.743252   -0.300757
      2          6           0        1.150970    0.740485   -0.259803
      3          6           0       -0.444809   -0.841632    0.842587
      4          6           0       -1.740761    0.008645    0.325482
      5          1           0        2.750129   -0.056287    0.336932
      6          1           0       -3.272511   -0.462769   -1.021210
      7          1           0        0.009058   -0.337810    1.704360
      8          1           0       -0.657529   -1.850960    1.179330
      9          1           0       -1.973561   -1.537250   -1.131000
     10          1           0        1.801769   -2.281950   -0.681214
     11          1           0        1.618939   -1.946160    0.765378
     12          1           0        0.089836   -0.792086   -1.251300
     13          7           0        1.809929   -1.473700   -0.136301
     14          7           0       -2.358031   -0.708522   -0.684822
     15          8           0       -2.102710    1.117520    0.587709
     16          8           0        0.494113    1.749490   -0.600106
     17          8           0        2.393380    0.827410    0.287590
 ---------------------------------------------------------------------

 SCF Done:  E(RHF) =  -491.825026350     A.U. after    2 cycles

 The electronic state is 1-A.
 Alpha  occ. eigenvalues --  -21.10488 -21.03969 -21.03446 -15.78895 -15.77603
 Alpha  occ. eigenvalues --  -11.53025 -11.51747 -11.48629 -11.43180  -1.79942
 Alpha  occ. eigenvalues --   -1.71488  -1.62655  -1.42274  -1.33891  -1.15155
 Alpha  occ. eigenvalues --   -0.97741  -0.82993  -0.78846  -0.74546  -0.71048
 Alpha  occ. eigenvalues --   -0.68405  -0.65942  -0.60641  -0.58436  -0.54167
 Alpha  occ. eigenvalues --   -0.52559  -0.50616  -0.49087  -0.47385  -0.45143
 Alpha  occ. eigenvalues --   -0.41216  -0.33657  -0.31112  -0.28877  -0.26988
 Alpha virt. eigenvalues --    0.02148   0.03522   0.03834   0.04711   0.05616
 Alpha virt. eigenvalues --    0.06433   0.07113   0.07970   0.10091   0.10884
 Alpha virt. eigenvalues --    0.11560   0.12673   0.12885   0.13731   0.14072

 Mulliken charges:
               1
     1  C   -0.606299
     2  C    6.436151
     3  C   -3.686690
     4  C    5.594141
     5  H    1.153391
     6  H    0.727984
     7  H    1.211981
     8  H    1.287063
     9  H    0.730425
    10  H    0.570559
    11  H    0.409215
    12  H    1.926231
    13  N   -2.941753
    14  N   -2.981620
    15  O   -3.385015
    16  O   -3.192404
    17  O   -3.253360
 Sum of Mulliken charges =   0.00000

 Dipole moment (field-independent basis, Debye):
    X=              0.0042    Y=             -5.1074    Z=             -0.6351  Tot=              5.1468

 Test job not archived.
 1\1\GINC-SE435\SP\RHF\Aug-CC-pVDZ\C4H8N2O3\OHZDE\08-Apr-2025\0\\#t hf
 aug-cc-pvdz iop(5/13=1,5/36=2,99/5=2) pseudo=read geom=check guess=(re
 ad,tcheck) scf=(maxcycle=1)\\title\\0,1\C,0,0.566654,-0.743252,-0.3007
 57\C,0,1.15097,0.740485,-0.259803\C,0,-0.444808,-0.841632,0.842587\C,0
 ,-1.74076,0.00864475,0.325482\H,0,2.75013,-0.0562864,0.336932\H,0,-3.2
 7251,-0.462769,-1.02121\H,0,0.00905868,-0.33781,1.70436\H,0,-0.657528,
 -1.85096,1.17933\H,0,-1.97356,-1.53725,-1.131\H,0,1.80177,-2.28195,-0.
 681214\H,0,1.61894,-1.94616,0.765378\H,0,0.0898371,-0.792086,-1.2513\N

 Normal termination of Gaussian 16 at Tue Apr  8 22:15:14 2025.
