 Gaussian 16, Revision C.01,

 ----------------------------------------------------------------------
 #t hf aug-cc-pvdz symm=none int=(grid=ultrafine) guess=(read,tcheck) s
 table=(opt,rrhf)
 ----------------------------------------------------------------------
 -----
 title
 -----
 Symbolic Z-matrix:
 Charge =  0 Multiplicity = 1

 SCF Done:  E(RHF) =  -431.403244338     A.U. after   14 cycles
 Normal termination of Gaussian 16 at Tue Apr  8 21:44:52 2025.
 Gaussian 16:  ES64L-G16RevC.01  3-Jul-2019

 ----------------------------------------------------------------------
 #t hf aug-cc-pvdz iop(5/13=1,5/36=2,99/5=2) pseudo=read geom=check gue
 ss=(read,tcheck) scf=(maxcycle=1)
 ----------------------------------------------------------------------
 -----
 title
 -----
 Structure from the checkpoint file:  "ANI1ccx_499_conf10_mol2.chk"
 Charge =  0 Multiplicity = 1

                         Standard orientation:
 ---------------------------------------------------------------------
 Center     Atomic      Atomic             Coordinates (Angstroms)
 Number     Number       Type             X           Y           Z
 ---------------------------------------------------------------------
      1          6           0        0.050892    0.728597   -0.003960
      2          6           0       -0.781231   -0.571866   -0.000361
      3          1           0        1.435190   -1.262901   -0.022116
      4          1           0        1.971420    1.442169    0.018451
      5          1           0       -2.113200    0.671567    0.005916
      6          7           0        1.380680    0.610080    0.040065
      7          8           0        2.117540   -0.552948   -0.001768
      8          8           0       -0.571042    1.788439   -0.036802
      9          8           0       -2.067760   -0.306365    0.035543
     10          8           0       -0.300754   -1.686851   -0.029070
 ---------------------------------------------------------------------

 SCF Done:  E(RHF) =  -433.176176928     A.U. after    2 cycles

 The electronic state is 1-A.
 Alpha  occ. eigenvalues --  -21.15581 -21.13228 -21.10114 -21.07756 -15.84749
 Alpha  occ. eigenvalues --  -11.58421 -11.53594  -1.89078  -1.83060  -1.74354
 Alpha  occ. eigenvalues --   -1.70156  -1.29246  -1.00990  -0.83593  -0.76034
 Alpha  occ. eigenvalues --   -0.67090  -0.65748  -0.61112  -0.58158  -0.57124
 Alpha  occ. eigenvalues --   -0.52132  -0.47712  -0.45628  -0.40234  -0.37261
 Alpha  occ. eigenvalues --   -0.30054  -0.28434
 Alpha virt. eigenvalues --    0.03872   0.05524   0.07121   0.09715   0.09983
 Alpha virt. eigenvalues --    0.10088   0.10688   0.11333   0.11546   0.14026
 Alpha virt. eigenvalues --    0.15113   0.16762   0.17365   0.18612   0.18970

 Mulliken charges:
               1
     1  C    4.287626
     2  C    5.144105
     3  H    0.985632
     4  H    0.879064
     5  H    1.027528
     6  N   -0.709591
     7  O   -2.544157
     8  O   -3.138736
     9  O   -2.989260
    10  O   -2.942212
 Sum of Mulliken charges =   0.00000

 Dipole moment (field-independent basis, Debye):
    X=              0.9767    Y=              0.4650    Z=             -0.0200  Tot=              1.0819

 Test job not archived.
 1\1\GINC-SE110\SP\RHF\Aug-CC-pVDZ\C2H3N1O4\OHZDE\08-Apr-2025\0\\#t hf
 aug-cc-pvdz iop(5/13=1,5/36=2,99/5=2) pseudo=read geom=check guess=(re
 ad,tcheck) scf=(maxcycle=1)\\title\\0,1\C,0,0.0508923,0.728598,-0.0039
 6045\C,0,-0.781231,-0.571865,-0.00036118\H,0,1.43519,-1.2629,-0.022116
 3\H,0,1.97142,1.44217,0.0184513\H,0,-2.1132,0.671568,0.00591639\N,0,1.
 38068,0.610081,0.0400654\O,0,2.11754,-0.552947,-0.00176815\O,0,-0.5710
 42,1.78844,-0.0368021\O,0,-2.06776,-0.306364,0.0355429\O,0,-0.300754,-
 1.68685,-0.0290701\\Version=ES64L-G16RevC.01\State=1-A\HF=-433.1761769

 Normal termination of Gaussian 16 at Tue Apr  8 21:44:56 2025.
