 Gaussian 16, Revision C.01,

 ----------------------------------------------------------------------
 #t hf aug-cc-pvdz symm=none int=(grid=ultrafine) guess=(read,tcheck) s
 table=(opt,rrhf)
 ----------------------------------------------------------------------
 -----
 title
 -----
 Symbolic Z-matrix:
 Charge =  0 Multiplicity = 1

 SCF Done:  E(RHF) =  -907.718437759     A.U. after   14 cycles
 Normal termination of Gaussian 16 at Tue Apr  8 22:37:04 2025.
 Gaussian 16:  ES64L-G16RevC.01  3-Jul-2019

 ----------------------------------------------------------------------
 #t hf aug-cc-pvdz iop(5/13=1,5/36=2,99/5=2) pseudo=read geom=check gue
 ss=(read,tcheck) scf=(maxcycle=1)
 ----------------------------------------------------------------------
 -----
 title
 -----
 Structure from the checkpoint file:  "ANI1ccx_88_conf1_mol1.chk"
 Charge =  0 Multiplicity = 1

                         Standard orientation:
 ---------------------------------------------------------------------
 Center     Atomic      Atomic             Coordinates (Angstroms)
 Number     Number       Type             X           Y           Z
 ---------------------------------------------------------------------
      1          6           0       -1.751620    1.937659   -0.316071
      2          6           0        2.502500    0.648350   -0.365505
      3          6           0        1.142631   -0.982660    1.020360
      4          6           0        1.293221   -0.267092   -0.307080
      5          6           0       -3.337949   -2.021351   -0.450125
      6          6           0        3.816371   -0.056409   -0.649856
      7          6           0       -2.984499    0.098029    1.011810
      8          6           0       -2.778130    1.586559    0.752823
      9          6           0       -0.360261    1.428520    0.111951
     10          6           0       -3.988359   -0.675097    0.040321
     11          1           0       -2.311209   -1.540731   -2.108890
     12          1           0        2.085461   -1.486679    2.474040
     13          1           0        4.938980    1.451061    0.236670
     14          1           0        5.810931    0.148022   -0.365587
     15          1           0        2.494400    1.344871   -1.186570
     16          1           0        2.579340    1.296961    0.529339
     17          1           0        1.428501   -1.049410   -1.067210
     18          1           0       -0.486239   -0.079122   -1.270100
     19          1           0       -1.576948   -2.736621   -1.249810
     20          1           0       -4.019289   -2.598241   -1.078180
     21          1           0       -4.195439   -0.092646   -0.859394
     22          1           0       -2.343439    0.442026   -1.720220
     23          1           0       -4.949089   -0.848471    0.566292
     24          1           0       -1.955649   -0.327194    1.010100
     25          1           0       -3.310549   -0.068197    2.026000
     26          1           0       -2.486330    2.114299    1.647710
     27          1           0       -3.707690    2.114509    0.475153
     28          1           0       -1.645250    3.014879   -0.307732
     29          1           0       -2.851070    1.886569   -1.976050
     30          1           0       -3.196059   -2.648191    0.410653
     31          7           0       -2.045940    1.417789   -1.621430
     32          7           0       -2.097279   -1.878861   -1.193010
     33          7           0        0.080496    0.406160   -0.601820
     34          7           0        4.930730    0.612589   -0.255958
     35          8           0        0.196798   -1.580370    1.522210
     36          8           0        3.857281   -1.139879   -1.287090
     37          8           0        0.211764    1.833700    1.102220
     38          8           0        2.271301   -0.916012    1.716110
 ---------------------------------------------------------------------

 SCF Done:  E(RHF) =  -911.863966712     A.U. after    2 cycles

 The electronic state is 1-A.
 Alpha  occ. eigenvalues --  -21.11532 -21.04167 -21.01790 -21.01227 -15.78601
 Alpha  occ. eigenvalues --  -15.75068 -15.73845 -15.73283 -11.55514 -11.52465
 Alpha  occ. eigenvalues --  -11.51721 -11.47838 -11.45998 -11.44186 -11.41154
 Alpha  occ. eigenvalues --  -11.40806 -11.38658 -11.35835  -1.84253  -1.71254
 Alpha  occ. eigenvalues --   -1.67862  -1.63416  -1.43720  -1.36759  -1.35483
 Alpha  occ. eigenvalues --   -1.34360  -1.18819  -1.16427  -1.07713  -1.02114
 Alpha  occ. eigenvalues --   -0.97043  -0.88904  -0.84844  -0.82710  -0.81084
 Alpha  occ. eigenvalues --   -0.75925  -0.73181  -0.71331  -0.68639  -0.67070
 Alpha  occ. eigenvalues --   -0.65232  -0.64567  -0.63368  -0.62698  -0.60549
 Alpha  occ. eigenvalues --   -0.60066  -0.57970  -0.57832  -0.56238  -0.54291
 Alpha  occ. eigenvalues --   -0.52786  -0.52221  -0.50789  -0.49151  -0.48435
 Alpha  occ. eigenvalues --   -0.48030  -0.46510  -0.46172  -0.46092  -0.43997
 Alpha  occ. eigenvalues --   -0.43681  -0.42400  -0.36296  -0.34550  -0.33022
 Alpha  occ. eigenvalues --   -0.31355  -0.30713  -0.29194  -0.28336  -0.26682
 Alpha virt. eigenvalues --    0.03586   0.04221   0.04404   0.04857   0.04954
 Alpha virt. eigenvalues --    0.05189   0.05387   0.06025   0.06095   0.06631
 Alpha virt. eigenvalues --    0.06966   0.07277   0.07542   0.07972   0.08373

 Mulliken charges:
               1
     1  C   -2.308751
     2  C   -4.135078
     3  C    7.313044
     4  C   -2.992120
     5  C   -2.703085
     6  C    6.227090
     7  C   -3.425469
     8  C   -2.983420
     9  C    7.739135
    10  C   -3.226296
    11  H    0.727440
    12  H    0.900190
    13  H    0.834568
    14  H    0.774409
    15  H    1.909826
    16  H    1.711314
    17  H    2.586005
    18  H    0.778302
    19  H    0.690863
    20  H    1.317656
    21  H    1.660133
    22  H    1.029388
    23  H    1.262558
    24  H    3.101404
    25  H    1.190353
    26  H    1.273839
    27  H    1.563366
    28  H    1.716728
    29  H    0.529897
    30  H    1.663987
    31  N   -3.369349
    32  N   -2.026493
    33  N   -3.204248
    34  N   -3.690012
    35  O   -3.482685
    36  O   -3.428414
    37  O   -4.193234
    38  O   -3.332840
 Sum of Mulliken charges =   0.00000

 Dipole moment (field-independent basis, Debye):
    X=             -0.9868    Y=             -0.1523    Z=             -0.4481  Tot=              1.0944

 Test job not archived.
 1\1\GINC-SE009\SP\RHF\Aug-CC-pVDZ\C10H20N4O4\OHZDE\08-Apr-2025\0\\#t h
 f aug-cc-pvdz iop(5/13=1,5/36=2,99/5=2) pseudo=read geom=check guess=(
 read,tcheck) scf=(maxcycle=1)\\title\\0,1\C,0,-1.75162,1.93766,-0.3160
 71\C,0,2.5025,0.648349,-0.365505\C,0,1.14263,-0.98266,1.02036\C,0,1.29
 322,-0.267092,-0.30708\C,0,-3.33795,-2.02135,-0.450125\C,0,3.81637,-0.
 05641,-0.649856\C,0,-2.9845,0.0980296,1.01181\C,0,-2.77813,1.58656,0.7
 52823\C,0,-0.360261,1.42852,0.111951\C,0,-3.98836,-0.675096,0.0403219\
 H,0,-2.31121,-1.54073,-2.10889\H,0,2.08546,-1.48668,2.47404\H,0,4.9389

 Normal termination of Gaussian 16 at Tue Apr  8 22:38:12 2025.
