 Gaussian 16, Revision C.01,

 ----------------------------------------------------------------------
 #t hf aug-cc-pvdz symm=none int=(grid=ultrafine) guess=(read,tcheck) s
 table=(opt,rrhf)
 ----------------------------------------------------------------------
 -----
 title
 -----
 Symbolic Z-matrix:
 Charge =  0 Multiplicity = 1

 SCF Done:  E(RHF) =  -221.191737935     A.U. after   15 cycles
 Normal termination of Gaussian 16 at Tue Apr  8 21:14:23 2025.
 Gaussian 16:  ES64L-G16RevC.01  3-Jul-2019

 ----------------------------------------------------------------------
 #t hf aug-cc-pvdz iop(5/13=1,5/36=2,99/5=2) pseudo=read geom=check gue
 ss=(read,tcheck) scf=(maxcycle=1)
 ----------------------------------------------------------------------
 -----
 title
 -----
 Structure from the checkpoint file:  "ANI1ccx_1899_conf12_mol1.chk"
 Charge =  0 Multiplicity = 1

                         Standard orientation:
 ---------------------------------------------------------------------
 Center     Atomic      Atomic             Coordinates (Angstroms)
 Number     Number       Type             X           Y           Z
 ---------------------------------------------------------------------
      1          1           0       -2.691440    0.859792   -0.170947
      2          1           0       -1.200350    1.397490   -0.052645
      3          1           0       -1.976609   -1.359980   -0.107162
      4          1           0       -1.521049   -0.585192    1.286560
      5          1           0        1.085650    0.994090    0.630311
      6          1           0        0.779809   -0.627303   -0.599293
      7          7           0       -1.721820    0.583345   -0.311920
      8          7           0       -1.302379   -0.663632    0.252125
      9          7           0        2.049200    0.506278    0.273834
     10          7           0        1.764140   -0.522975   -0.355013
 ---------------------------------------------------------------------

 SCF Done:  E(RHF) =  -222.205020534     A.U. after    2 cycles

 The electronic state is 1-A.
 Alpha  occ. eigenvalues --  -15.79861 -15.78540 -15.78307 -15.76473  -1.48100
 Alpha  occ. eigenvalues --   -1.44851  -1.09459  -0.93040  -0.70879  -0.68776
 Alpha  occ. eigenvalues --   -0.65917  -0.60162  -0.50792  -0.47771  -0.44121
 Alpha  occ. eigenvalues --   -0.36220  -0.34056
 Alpha virt. eigenvalues --    0.02951   0.04301   0.05103   0.06381   0.07926
 Alpha virt. eigenvalues --    0.08890   0.12533   0.15091   0.15607   0.16365
 Alpha virt. eigenvalues --    0.17499   0.17880   0.18787   0.19448   0.19971

 Mulliken charges:
               1
     1  H    0.634217
     2  H    0.707931
     3  H    0.707424
     4  H    0.600804
     5  H    0.554203
     6  H    0.875762
     7  N   -1.284560
     8  N   -1.355363
     9  N   -0.792257
    10  N   -0.648160
 Sum of Mulliken charges =  -0.00000

 Dipole moment (field-independent basis, Debye):
    X=             -4.3613    Y=              0.3225    Z=              1.2376  Tot=              4.5450

 Test job not archived.
 1\1\GINC-SE159\SP\RHF\Aug-CC-pVDZ\H6N4\OHZDE\08-Apr-2025\0\\#t hf aug-
 cc-pvdz iop(5/13=1,5/36=2,99/5=2) pseudo=read geom=check guess=(read,t
 check) scf=(maxcycle=1)\\title\\0,1\H,0,-2.69144,0.859793,-0.170947\H,
 0,-1.20035,1.39749,-0.0526448\H,0,-1.97661,-1.35998,-0.107162\H,0,-1.5
 2105,-0.585192,1.28656\H,0,1.08565,0.99409,0.630311\H,0,0.779808,-0.62
 7303,-0.599293\N,0,-1.72182,0.583345,-0.31192\N,0,-1.30238,-0.663632,0
 .252125\N,0,2.0492,0.506277,0.273834\N,0,1.76414,-0.522976,-0.355013\\
 Version=ES64L-G16RevC.01\State=1-A\HF=-222.2050205\RMSD=5.453e-02\Dipo

 Normal termination of Gaussian 16 at Tue Apr  8 21:14:26 2025.
