 Gaussian 16, Revision C.01,

 ----------------------------------------------------------------------
 #t hf aug-cc-pvdz symm=none int=(grid=ultrafine) guess=(read,tcheck) s
 table=(opt,rrhf)
 ----------------------------------------------------------------------
 -----
 title
 -----
 Symbolic Z-matrix:
 Charge =  0 Multiplicity = 1

 SCF Done:  E(RHF) =  -428.537329698     A.U. after   13 cycles
 Normal termination of Gaussian 16 at Tue Apr  8 21:39:54 2025.
 Gaussian 16:  ES64L-G16RevC.01  3-Jul-2019

 ----------------------------------------------------------------------
 #t hf aug-cc-pvdz iop(5/13=1,5/36=2,99/5=2) pseudo=read geom=check gue
 ss=(read,tcheck) scf=(maxcycle=1)
 ----------------------------------------------------------------------
 -----
 title
 -----
 Structure from the checkpoint file:  "ANI1ccx_419_conf11_mol1.chk"
 Charge =  0 Multiplicity = 1

                         Standard orientation:
 ---------------------------------------------------------------------
 Center     Atomic      Atomic             Coordinates (Angstroms)
 Number     Number       Type             X           Y           Z
 ---------------------------------------------------------------------
      1          6           0       -0.033665    0.026707    0.080580
      2          1           0        1.337943   -1.483250    0.978533
      3          1           0       -0.856262   -1.717761   -0.052481
      4          1           0        1.756971    0.090604   -0.577415
      5          1           0        0.131487    2.012490   -0.554000
      6          1           0       -2.901009    0.368757    0.578287
      7          7           0       -0.002529   -1.259821   -0.437156
      8          7           0        1.156641    0.613549    0.164643
      9          7           0       -1.080509    0.684811    0.196618
     10          8           0        1.190543   -1.790060    0.123519
     11          8           0        1.043480    1.948540   -0.096191
     12          8           0       -2.206818   -0.121088   -0.067971
 ---------------------------------------------------------------------

 SCF Done:  E(RHF) =  -430.372221368     A.U. after    2 cycles

 The electronic state is 1-A.
 Alpha  occ. eigenvalues --  -21.12200 -21.10586 -21.09411 -15.81349 -15.79571
 Alpha  occ. eigenvalues --  -15.76161 -11.47020  -1.86819  -1.80456  -1.77891
 Alpha  occ. eigenvalues --   -1.39532  -1.20546  -1.17780  -0.80497  -0.74687
 Alpha  occ. eigenvalues --   -0.74542  -0.66677  -0.64369  -0.58683  -0.57201
 Alpha  occ. eigenvalues --   -0.51132  -0.48666  -0.45322  -0.41742  -0.37512
 Alpha  occ. eigenvalues --   -0.34756  -0.33663  -0.28468
 Alpha virt. eigenvalues --    0.03987   0.05129   0.06336   0.06678   0.07249
 Alpha virt. eigenvalues --    0.11009   0.11707   0.13231   0.13987   0.15056
 Alpha virt. eigenvalues --    0.16252   0.16891   0.17976   0.18635   0.18876

 Mulliken charges:
               1
     1  C    5.368842
     2  H    0.853286
     3  H    0.795256
     4  H    0.612455
     5  H    0.757983
     6  H    0.754855
     7  N   -0.762448
     8  N   -0.413314
     9  N   -1.006451
    10  O   -2.221527
    11  O   -2.511127
    12  O   -2.227810
 Sum of Mulliken charges =  -0.00000

 Dipole moment (field-independent basis, Debye):
    X=             -0.3135    Y=             -1.3171    Z=              0.3584  Tot=              1.4005

 Test job not archived.
 1\1\GINC-SE109\SP\RHF\Aug-CC-pVDZ\C1H5N3O3\OHZDE\08-Apr-2025\0\\#t hf
 aug-cc-pvdz iop(5/13=1,5/36=2,99/5=2) pseudo=read geom=check guess=(re
 ad,tcheck) scf=(maxcycle=1)\\title\\0,1\C,0,-0.0336665,0.026708,0.0805
 803\H,0,1.33794,-1.48325,0.978533\H,0,-0.856265,-1.71776,-0.0524807\H,
 0,1.75697,0.0906033,-0.577415\H,0,0.131487,2.01249,-0.554\H,0,-2.90101
 ,0.36876,0.578287\N,0,-0.00253147,-1.25982,-0.437156\N,0,1.15664,0.613
 549,0.164643\N,0,-1.08051,0.684812,0.196618\O,0,1.19054,-1.79006,0.123
 519\O,0,1.04348,1.94854,-0.0961912\O,0,-2.20682,-0.121086,-0.067971\\V

 Normal termination of Gaussian 16 at Tue Apr  8 21:39:59 2025.
