 Gaussian 16, Revision C.01,

 ----------------------------------------------------------------------
 #t hf aug-cc-pvdz symm=none int=(grid=ultrafine) guess=(read,tcheck) s
 table=(opt,rrhf)
 ----------------------------------------------------------------------
 -----
 title
 -----
 Symbolic Z-matrix:
 Charge =  0 Multiplicity = 1

 SCF Done:  E(RHF) =  -396.764863656     A.U. after   14 cycles
 Normal termination of Gaussian 16 at Tue Apr  8 21:55:16 2025.
 Gaussian 16:  ES64L-G16RevC.01  3-Jul-2019

 ----------------------------------------------------------------------
 #t hf aug-cc-pvdz iop(5/13=1,5/36=2,99/5=2) pseudo=read geom=check gue
 ss=(read,tcheck) scf=(maxcycle=1)
 ----------------------------------------------------------------------
 -----
 title
 -----
 Structure from the checkpoint file:  "ANI1ccx_744_conf23_mol1.chk"
 Charge =  0 Multiplicity = 1

                         Standard orientation:
 ---------------------------------------------------------------------
 Center     Atomic      Atomic             Coordinates (Angstroms)
 Number     Number       Type             X           Y           Z
 ---------------------------------------------------------------------
      1          6           0       -0.181345    0.140206    0.353783
      2          6           0        1.281860   -0.301263    0.026505
      3          6           0       -1.261981   -0.779125   -0.104002
      4          1           0       -0.595814    1.552621   -1.121950
      5          1           0       -0.897736    2.206021    0.309017
      6          1           0       -0.244680    0.220696    1.454760
      7          1           0       -1.237202   -1.766509    0.251059
      8          1           0       -1.055461   -0.918235   -1.178150
      9          1           0       -3.121281   -0.757168   -0.256806
     10          1           0        1.469492    1.531188    0.027743
     11          7           0       -0.344486    1.460760   -0.130390
     12          8           0        1.582248   -1.460302   -0.061205
     13          8           0       -2.521490   -0.091071    0.067841
     14          8           0        2.072101    0.719768   -0.035468
 ---------------------------------------------------------------------

 SCF Done:  E(RHF) =  -398.493385446     A.U. after    2 cycles

 The electronic state is 1-A.
 Alpha  occ. eigenvalues --  -21.10579 -21.08896 -21.03868 -15.75859 -11.52070
 Alpha  occ. eigenvalues --  -11.47174 -11.41328  -1.83149  -1.72518  -1.65346
 Alpha  occ. eigenvalues --   -1.37620  -1.09341  -0.93258  -0.78466  -0.74075
 Alpha  occ. eigenvalues --   -0.71508  -0.63379  -0.61000  -0.59369  -0.56452
 Alpha  occ. eigenvalues --   -0.51164  -0.49391  -0.44938  -0.43608  -0.38630
 Alpha  occ. eigenvalues --   -0.33887  -0.32225  -0.28063
 Alpha virt. eigenvalues --    0.03436   0.04611   0.05206   0.05421   0.05925
 Alpha virt. eigenvalues --    0.06588   0.07213   0.11407   0.11926   0.12595
 Alpha virt. eigenvalues --    0.12948   0.13622   0.15012   0.15373   0.15530

 Mulliken charges:
               1
     1  C   -2.676674
     2  C    6.432151
     3  C    0.084860
     4  H    0.604682
     5  H    0.553332
     6  H    1.658483
     7  H    1.447399
     8  H    1.294138
     9  H    0.764614
    10  H    1.174419
    11  N   -2.221666
    12  O   -3.195324
    13  O   -2.703884
    14  O   -3.216531
 Sum of Mulliken charges =  -0.00000

 Dipole moment (field-independent basis, Debye):
    X=             -2.7869    Y=              1.9380    Z=             -0.0908  Tot=              3.3957

 Test job not archived.
 1\1\GINC-SE339\SP\RHF\Aug-CC-pVDZ\C3H7N1O3\OHZDE\08-Apr-2025\0\\#t hf
 aug-cc-pvdz iop(5/13=1,5/36=2,99/5=2) pseudo=read geom=check guess=(re
 ad,tcheck) scf=(maxcycle=1)\\title\\0,1\C,0,-0.181345,0.140206,0.35378
 3\C,0,1.28186,-0.301261,0.0265048\C,0,-1.26198,-0.779126,-0.104002\H,0
 ,-0.595816,1.55262,-1.12195\H,0,-0.897739,2.20602,0.309017\H,0,-0.2446
 8,0.220696,1.45476\H,0,-1.2372,-1.76651,0.251059\H,0,-1.05546,-0.91823
 6,-1.17815\H,0,-3.12128,-0.757172,-0.256806\H,0,1.46949,1.53119,0.0277
 431\N,0,-0.344488,1.46076,-0.13039\O,0,1.58225,-1.4603,-0.0612045\O,0,

 Normal termination of Gaussian 16 at Tue Apr  8 21:55:21 2025.
