 Gaussian 16, Revision C.01,

 ----------------------------------------------------------------------
 #t hf aug-cc-pvdz symm=none int=(grid=ultrafine) guess=(read,tcheck) s
 table=(opt,rrhf)
 ----------------------------------------------------------------------
 -----
 title
 -----
 Symbolic Z-matrix:
 Charge =  0 Multiplicity = 1

 SCF Done:  E(RHF) =  -311.846410640     A.U. after   15 cycles
 Normal termination of Gaussian 16 at Tue Apr  8 21:37:43 2025.
 Gaussian 16:  ES64L-G16RevC.01  3-Jul-2019

 ----------------------------------------------------------------------
 #t hf aug-cc-pvdz iop(5/13=1,5/36=2,99/5=2) pseudo=read geom=check gue
 ss=(read,tcheck) scf=(maxcycle=1)
 ----------------------------------------------------------------------
 -----
 title
 -----
 Structure from the checkpoint file:  "ANI1ccx_392_conf3_mol2.chk"
 Charge =  0 Multiplicity = 1

                         Standard orientation:
 ---------------------------------------------------------------------
 Center     Atomic      Atomic             Coordinates (Angstroms)
 Number     Number       Type             X           Y           Z
 ---------------------------------------------------------------------
      1          6           0       -0.627634   -0.023696    0.000635
      2          1           0       -2.482721    0.839822    0.006674
      3          1           0       -2.486950   -0.900963    0.000864
      4          1           0        2.190660   -1.094568   -0.001111
      5          7           0       -1.984430   -0.031457   -0.002451
      6          7           0        0.099447    1.125711    0.001182
      7          7           0        1.349109    0.753658   -0.001334
      8          7           0        1.340540   -0.551080    0.000027
      9          7           0        0.130307   -1.111419    0.001114
 ---------------------------------------------------------------------

 SCF Done:  E(RHF) =  -313.234452257     A.U. after    2 cycles

 The electronic state is 1-A.
 Alpha  occ. eigenvalues --  -15.85282 -15.82280 -15.77769 -15.76312 -15.75591
 Alpha  occ. eigenvalues --  -11.46293  -1.76276  -1.40440  -1.38113  -1.21964
 Alpha  occ. eigenvalues --   -0.93199  -0.84894  -0.76284  -0.69044  -0.68327
 Alpha  occ. eigenvalues --   -0.60822  -0.53036  -0.49110  -0.43687  -0.40799
 Alpha  occ. eigenvalues --   -0.40406  -0.30131
 Alpha virt. eigenvalues --    0.03802   0.04607   0.06261   0.11401   0.11762
 Alpha virt. eigenvalues --    0.12224   0.13865   0.14752   0.14818   0.15011
 Alpha virt. eigenvalues --    0.17045   0.17594   0.18002   0.19516   0.19752

 Mulliken charges:
               1
     1  C    4.708074
     2  H    0.685605
     3  H    0.685622
     4  H    0.979718
     5  N   -2.768026
     6  N   -1.567076
     7  N   -0.369783
     8  N   -0.339174
     9  N   -2.014960
 Sum of Mulliken charges =  -0.00000

 Dipole moment (field-independent basis, Debye):
    X=             -0.7184    Y=             -1.8220    Z=              0.0137  Tot=              1.9586

 Test job not archived.
 1\1\GINC-SE402\SP\RHF\Aug-CC-pVDZ\C1H3N5\OHZDE\08-Apr-2025\0\\#t hf au
 g-cc-pvdz iop(5/13=1,5/36=2,99/5=2) pseudo=read geom=check guess=(read
 ,tcheck) scf=(maxcycle=1)\\title\\0,1\C,0,-0.627634,-0.0236959,0.00063
 49\H,0,-2.48272,0.839823,0.00667395\H,0,-2.48695,-0.900962,0.00086378\
 H,0,2.19066,-1.09457,-0.00111129\N,0,-1.98443,-0.0314568,-0.00245117\N
 ,0,0.0994473,1.12571,0.00118197\N,0,1.34911,0.753657,-0.00133378\N,0,1
 .34054,-0.551081,0.00002674\N,0,0.130307,-1.11142,0.00111399\\Version=
 ES64L-G16RevC.01\State=1-A\HF=-313.2344523\RMSD=9.152e-02\Dipole=-0.28

 Normal termination of Gaussian 16 at Tue Apr  8 21:37:46 2025.
