 Gaussian 16, Revision C.01,

 ----------------------------------------------------------------------
 #t hf aug-cc-pvdz symm=none int=(grid=ultrafine) guess=(read,tcheck) s
 table=(opt,rrhf)
 ----------------------------------------------------------------------
 -----
 title
 -----
 Symbolic Z-matrix:
 Charge =  0 Multiplicity = 1

 SCF Done:  E(RHF) =  -356.587636145     A.U. after   14 cycles
 Normal termination of Gaussian 16 at Tue Apr  8 21:14:25 2025.
 Gaussian 16:  ES64L-G16RevC.01  3-Jul-2019

 ----------------------------------------------------------------------
 #t hf aug-cc-pvdz iop(5/13=1,5/36=2,99/5=2) pseudo=read geom=check gue
 ss=(read,tcheck) scf=(maxcycle=1)
 ----------------------------------------------------------------------
 -----
 title
 -----
 Structure from the checkpoint file:  "ANI1ccx_1890_conf2_mol1.chk"
 Charge =  0 Multiplicity = 1

                         Standard orientation:
 ---------------------------------------------------------------------
 Center     Atomic      Atomic             Coordinates (Angstroms)
 Number     Number       Type             X           Y           Z
 ---------------------------------------------------------------------
      1          1           0       -2.422429    1.249220    0.449939
      2          1           0       -0.682550   -0.388057   -0.976035
      3          1           0        3.526411   -0.866803   -0.124373
      4          1           0        1.391911   -0.283349   -0.204652
      5          1           0        2.069391    0.174133    1.252700
      6          7           0        2.047411    0.351130    0.252370
      7          8           0       -2.754979    0.617439   -0.200856
      8          8           0       -2.123809   -0.572051    0.184064
      9          8           0       -0.752351   -0.419617   -0.013609
     10          8           0        3.354311    0.081347   -0.240120
 ---------------------------------------------------------------------

 SCF Done:  E(RHF) =  -358.055072167     A.U. after    2 cycles

 The electronic state is 1-A.
 Alpha  occ. eigenvalues --  -21.16295 -21.14898 -21.14560 -21.08749 -15.77515
 Alpha  occ. eigenvalues --   -2.10531  -1.75314  -1.71357  -1.28681  -1.15403
 Alpha  occ. eigenvalues --   -0.70872  -0.67869  -0.64368  -0.59478  -0.57562
 Alpha  occ. eigenvalues --   -0.56658  -0.46947  -0.37804  -0.37265  -0.35841
 Alpha  occ. eigenvalues --   -0.33352  -0.30971
 Alpha virt. eigenvalues --    0.04041   0.05229   0.05758   0.06709   0.09470
 Alpha virt. eigenvalues --    0.13138   0.14923   0.15836   0.18197   0.19586
 Alpha virt. eigenvalues --    0.20317   0.20646   0.20678   0.22157   0.22401

 Mulliken charges:
               1
     1  H    0.956388
     2  H    0.979904
     3  H    0.698809
     4  H    0.822305
     5  H    0.676782
     6  N   -0.278107
     7  O   -1.015674
     8  O    0.523045
     9  O   -1.450438
    10  O   -1.913015
 Sum of Mulliken charges =   0.00000

 Dipole moment (field-independent basis, Debye):
    X=             -0.3955    Y=             -0.8571    Z=              0.4467  Tot=              1.0443

 Test job not archived.
 1\1\GINC-SE015\SP\RHF\Aug-CC-pVDZ\H5N1O4\OHZDE\08-Apr-2025\0\\#t hf au
 g-cc-pvdz iop(5/13=1,5/36=2,99/5=2) pseudo=read geom=check guess=(read
 ,tcheck) scf=(maxcycle=1)\\title\\0,1\H,0,-2.42243,1.24922,0.449939\H,
 0,-0.682551,-0.388057,-0.976035\H,0,3.52641,-0.866803,-0.124373\H,0,1.
 39191,-0.283349,-0.204652\H,0,2.06939,0.174133,1.2527\N,0,2.04741,0.35
 113,0.25237\O,0,-2.75498,0.617439,-0.200856\O,0,-2.12381,-0.572051,0.1
 84064\O,0,-0.752352,-0.419617,-0.0136091\O,0,3.35431,0.0813473,-0.2401
 2\\Version=ES64L-G16RevC.01\State=1-A\HF=-358.0550722\RMSD=3.465e-02\D

 Normal termination of Gaussian 16 at Tue Apr  8 21:14:28 2025.
