 Gaussian 16, Revision C.01,

 ----------------------------------------------------------------------
 #t hf aug-cc-pvdz symm=none int=(grid=ultrafine) guess=(read,tcheck) s
 table=(opt,rrhf)
 ----------------------------------------------------------------------
 -----
 title
 -----
 Symbolic Z-matrix:
 Charge =  0 Multiplicity = 1

 SCF Done:  E(RHF) =  -1036.51048935     A.U. after   14 cycles
 Normal termination of Gaussian 16 at Tue Apr  8 22:24:51 2025.
 Gaussian 16:  ES64L-G16RevC.01  3-Jul-2019

 ----------------------------------------------------------------------
 #t hf aug-cc-pvdz iop(5/13=1,5/36=2,99/5=2) pseudo=read geom=check gue
 ss=(read,tcheck) scf=(maxcycle=1)
 ----------------------------------------------------------------------
 -----
 title
 -----
 Structure from the checkpoint file:  "ANI1ccx_81_conf4_mol2.chk"
 Charge =  0 Multiplicity = 1

                         Standard orientation:
 ---------------------------------------------------------------------
 Center     Atomic      Atomic             Coordinates (Angstroms)
 Number     Number       Type             X           Y           Z
 ---------------------------------------------------------------------
      1          6           0       -1.386641   -1.874329    1.179280
      2          6           0        1.384761    2.323330    0.036357
      3          6           0        2.326911    1.791249   -1.042330
      4          6           0        2.001610    0.439918   -1.664090
      5          6           0        2.902190   -0.849120    0.341240
      6          6           0       -1.033768    2.746411    0.404472
      7          6           0       -2.769641   -1.147958   -0.917334
      8          6           0       -2.500761   -2.161508    0.169713
      9          6           0       -0.053867   -1.971150    0.383674
     10          6           0        1.794580   -0.795645   -0.704004
     11          1           0        3.343411    1.795099   -0.582716
     12          1           0        4.728049   -1.106072    0.528154
     13          1           0       -2.401839    2.139092   -0.957216
     14          1           0       -2.992688    3.230532    0.177743
     15          1           0       -1.795358    3.346291    2.004060
     16          1           0       -0.106913    2.522480   -1.350070
     17          1           0        1.410961    1.735310    0.958290
     18          1           0        1.667932    3.344889    0.351794
     19          1           0        2.315971    2.549389   -1.844870
     20          1           0        1.095450    0.496389   -2.285870
     21          1           0        2.847790    0.167298   -2.309550
     22          1           0        1.977099   -1.726941   -1.240380
     23          1           0        0.148146    0.078444    0.232848
     24          1           0       -2.256950    0.184639    0.399314
     25          1           0       -2.324002   -3.137388   -0.289019
     26          1           0       -3.442051   -2.239778    0.721339
     27          1           0       -1.295341   -2.624239    1.968190
     28          1           0       -0.719080   -0.196097    2.238860
     29          1           0       -2.276980   -0.555738    2.489000
     30          7           0       -2.169758    2.918521   -0.326350
     31          7           0       -0.902571    2.994631    1.654980
     32          7           0       -1.548980   -0.529808    1.771640
     33          7           0        0.459224   -0.800814   -0.125574
     34          7           0       -0.004481    2.230930   -0.391716
     35          8           0        2.764680   -0.598909    1.496450
     36          8           0        0.490076   -3.034320    0.215341
     37          8           0       -3.054811   -1.487828   -2.037910
     38          8           0       -2.650870    0.127083   -0.523860
     39          8           0        4.107189   -1.094152   -0.201601
 ---------------------------------------------------------------------

 SCF Done:  E(RHF) =  -1041.15620856     A.U. after    2 cycles

 The electronic state is 1-A.
 Alpha  occ. eigenvalues --  -21.13339 -21.09569 -21.06156 -21.04494 -21.04024
 Alpha  occ. eigenvalues --  -15.77958 -15.76646 -15.75979 -15.75143 -15.70517
 Alpha  occ. eigenvalues --  -11.55392 -11.54722 -11.53785 -11.48984 -11.48650
 Alpha  occ. eigenvalues --  -11.48432 -11.46739 -11.42982 -11.42373 -11.39017
 Alpha  occ. eigenvalues --   -1.84854  -1.81722  -1.72857  -1.66993  -1.65240
 Alpha  occ. eigenvalues --   -1.50647  -1.43061  -1.38176  -1.33393  -1.23440
 Alpha  occ. eigenvalues --   -1.20499  -1.16312  -1.08881  -0.99055  -0.97193
 Alpha  occ. eigenvalues --   -0.87888  -0.83673  -0.81894  -0.79706  -0.79283
 Alpha  occ. eigenvalues --   -0.72849  -0.72602  -0.70298  -0.68149  -0.67847
 Alpha  occ. eigenvalues --   -0.66827  -0.65891  -0.64859  -0.63476  -0.63180
 Alpha  occ. eigenvalues --   -0.61267  -0.59824  -0.57664  -0.56525  -0.55458
 Alpha  occ. eigenvalues --   -0.55317  -0.53860  -0.52589  -0.52105  -0.51357
 Alpha  occ. eigenvalues --   -0.50048  -0.49243  -0.48337  -0.47382  -0.46516
 Alpha  occ. eigenvalues --   -0.45235  -0.43723  -0.39720  -0.37161  -0.36876
 Alpha  occ. eigenvalues --   -0.34933  -0.33944  -0.32796  -0.32365  -0.30307
 Alpha  occ. eigenvalues --   -0.29777  -0.28969
 Alpha virt. eigenvalues --    0.03124   0.03863   0.04340   0.04699   0.05097
 Alpha virt. eigenvalues --    0.05253   0.05367   0.05976   0.06037   0.06818
 Alpha virt. eigenvalues --    0.07075   0.07241   0.07899   0.08103   0.08821

 Mulliken charges:
               1
     1  C   -1.836582
     2  C   -4.215544
     3  C   -2.939553
     4  C   -3.933152
     5  C    8.141486
     6  C    6.598665
     7  C    6.758032
     8  C   -4.358640
     9  C    6.225743
    10  C   -1.604935
    11  H    1.290150
    12  H    0.833286
    13  H    0.935979
    14  H    0.644660
    15  H    0.615700
    16  H    0.658427
    17  H    2.145852
    18  H    1.303280
    19  H    1.293097
    20  H    1.455805
    21  H    1.358060
    22  H    1.924325
    23  H    1.869325
    24  H    1.965501
    25  H    1.215088
    26  H    1.519737
    27  H    1.628745
    28  H    0.828891
    29  H    0.636183
    30  N   -3.485300
    31  N   -3.728293
    32  N   -3.194714
    33  N   -2.454753
    34  N   -1.225708
    35  O   -3.455388
    36  O   -4.158795
    37  O   -3.584452
    38  O   -4.164677
    39  O   -3.505533
 Sum of Mulliken charges =   0.00000

 Dipole moment (field-independent basis, Debye):
    X=              0.3101    Y=              1.5348    Z=              0.5595  Tot=              1.6627

 Test job not archived.
 1\1\GINC-SE163\SP\RHF\Aug-CC-pVDZ\C10H19N5O5\OHZDE\08-Apr-2025\0\\#t h
 f aug-cc-pvdz iop(5/13=1,5/36=2,99/5=2) pseudo=read geom=check guess=(
 read,tcheck) scf=(maxcycle=1)\\title\\0,1\C,0,-1.38664,-1.87433,1.1792
 8\C,0,1.38476,2.32333,0.0363574\C,0,2.32691,1.79125,-1.04233\C,0,2.001
 61,0.439919,-1.66409\C,0,2.90219,-0.849119,0.34124\C,0,-1.03377,2.7464
 1,0.404472\C,0,-2.76964,-1.14796,-0.917334\C,0,-2.50076,-2.16151,0.169
 713\C,0,-0.0538659,-1.97115,0.383674\C,0,1.79458,-0.795644,-0.704004\H
 ,0,3.34341,1.7951,-0.582716\H,0,4.72805,-1.10607,0.528154\H,0,-2.40184

 Normal termination of Gaussian 16 at Tue Apr  8 22:26:19 2025.
