 Gaussian 16, Revision C.01,

 ----------------------------------------------------------------------
 #t hf aug-cc-pvdz symm=none int=(grid=ultrafine) guess=(read,tcheck) s
 table=(opt,rrhf)
 ----------------------------------------------------------------------
 -----
 title
 -----
 Symbolic Z-matrix:
 Charge =  0 Multiplicity = 1

 SCF Done:  E(RHF) =  -380.242263750     A.U. after   11 cycles
 Normal termination of Gaussian 16 at Tue Apr  8 21:03:28 2025.
 Gaussian 16:  ES64L-G16RevC.01  3-Jul-2019

 ----------------------------------------------------------------------
 #t hf aug-cc-pvdz iop(5/13=1,5/36=2,99/5=2) pseudo=read geom=check gue
 ss=(read,tcheck) scf=(maxcycle=1)
 ----------------------------------------------------------------------
 -----
 title
 -----
 Structure from the checkpoint file:  "ANI1ccx_1843_conf108_mol2.chk"
 Charge =  0 Multiplicity = 1

                         Standard orientation:
 ---------------------------------------------------------------------
 Center     Atomic      Atomic             Coordinates (Angstroms)
 Number     Number       Type             X           Y           Z
 ---------------------------------------------------------------------
      1          1           0       -1.813250    0.800506    0.006124
      2          1           0       -2.900760    0.025876   -0.798486
      3          1           0        0.209840    1.944751   -0.007726
      4          1           0       -0.886667    2.858417    0.634341
      5          1           0        2.462780    1.652769    0.653535
      6          1           0        1.911115    0.412191   -0.049701
      7          1           0        0.991701   -1.677809    0.014215
      8          1           0        2.332413   -1.794312   -0.752467
      9          1           0       -1.304722   -1.439598    0.015255
     10          1           0       -0.975021   -2.727494    0.816348
     11          8           0       -2.332169   -0.042215   -0.014614
     12          8           0       -0.752428    2.178239   -0.041420
     13          8           0        1.851843    1.395752   -0.043425
     14          8           0        1.914187   -1.329118   -0.019067
     15          8           0       -0.684861   -2.209570    0.052095
 ---------------------------------------------------------------------

 SCF Done:  E(RHF) =  -381.886446968     A.U. after    2 cycles

 The electronic state is 1-A.
 Alpha  occ. eigenvalues --  -21.08184 -21.08117 -21.07911 -21.07872 -21.07814
 Alpha  occ. eigenvalues --   -1.68623  -1.66551  -1.66402  -1.63526  -1.63223
 Alpha  occ. eigenvalues --   -0.64174  -0.63847  -0.63726  -0.63559  -0.63446
 Alpha  occ. eigenvalues --   -0.51550  -0.51406  -0.44915  -0.44361  -0.40281
 Alpha  occ. eigenvalues --   -0.35272  -0.34785  -0.34605  -0.34148  -0.33900
 Alpha virt. eigenvalues --    0.03904   0.05019   0.05301   0.06203   0.06236
 Alpha virt. eigenvalues --    0.08791   0.09053   0.09894   0.10759   0.11406
 Alpha virt. eigenvalues --    0.18606   0.19086   0.20787   0.21225   0.21844

 Mulliken charges:
               1
     1  H    1.510149
     2  H    0.779117
     3  H    1.537238
     4  H    0.805014
     5  H    0.781466
     6  H    1.497430
     7  H    1.510247
     8  H    0.777380
     9  H    1.538090
    10  H    0.781249
    11  O   -2.297146
    12  O   -2.321110
    13  O   -2.299337
    14  O   -2.300202
    15  O   -2.299584
 Sum of Mulliken charges =  -0.00000

 Dipole moment (field-independent basis, Debye):
    X=              0.0868    Y=              0.0761    Z=              0.4808  Tot=              0.4945

 Test job not archived.
 1\1\GINC-SE087\SP\RHF\Aug-CC-pVDZ\H10O5\OHZDE\08-Apr-2025\0\\#t hf aug
 -cc-pvdz iop(5/13=1,5/36=2,99/5=2) pseudo=read geom=check guess=(read,
 tcheck) scf=(maxcycle=1)\\title\\0,1\H,0,-1.81324,0.80053,0.00612432\H
 ,0,-2.90076,0.0259143,-0.798486\H,0,0.209864,1.94475,-0.00772597\H,0,-
 0.886631,2.85843,0.634341\H,0,2.4628,1.65274,0.653535\H,0,1.91112,0.41
 2169,-0.049701\H,0,0.99168,-1.67782,0.0142151\H,0,2.33239,-1.79434,-0.
 752467\H,0,-1.30474,-1.43958,0.0152546\H,0,-0.975055,-2.72748,0.816348
 \O,0,-2.33217,-0.0421842,-0.0146139\O,0,-0.752401,2.17825,-0.0414195\O

 Normal termination of Gaussian 16 at Tue Apr  8 21:03:32 2025.
