 Gaussian 16, Revision C.01,

 ----------------------------------------------------------------------
 #t hf aug-cc-pvdz symm=none int=(grid=ultrafine) guess=(read,tcheck) s
 table=(opt,rrhf)
 ----------------------------------------------------------------------
 -----
 title
 -----
 Symbolic Z-matrix:
 Charge =  0 Multiplicity = 1

 SCF Done:  E(RHF) =  -528.741303536     A.U. after   15 cycles
 Normal termination of Gaussian 16 at Tue Apr  8 22:19:48 2025.
 Gaussian 16:  ES64L-G16RevC.01  3-Jul-2019

 ----------------------------------------------------------------------
 #t hf aug-cc-pvdz iop(5/13=1,5/36=2,99/5=2) pseudo=read geom=check gue
 ss=(read,tcheck) scf=(maxcycle=1)
 ----------------------------------------------------------------------
 -----
 title
 -----
 Structure from the checkpoint file:  "ANI1ccx_998_conf10_mol2.chk"
 Charge =  0 Multiplicity = 1

                         Standard orientation:
 ---------------------------------------------------------------------
 Center     Atomic      Atomic             Coordinates (Angstroms)
 Number     Number       Type             X           Y           Z
 ---------------------------------------------------------------------
      1          6           0        1.508589   -0.375784   -0.447037
      2          6           0        0.903455    0.997799   -0.127177
      3          6           0        0.346218   -1.468709   -0.382763
      4          6           0       -0.930785   -0.838415   -0.997025
      5          6           0       -1.738771   -0.329496    0.168610
      6          1           0        1.500629    0.614456    1.552350
      7          1           0       -3.198411    1.020499    0.661725
      8          1           0       -2.052732    1.511860   -0.569022
      9          1           0       -1.422830   -1.682760   -1.470070
     10          1           0       -0.738663   -0.063029   -1.803060
     11          1           0        0.245618   -1.808429    0.645265
     12          1           0        0.608916   -2.335059   -0.912307
     13          1           0        1.815749   -0.310815   -1.490590
     14          1           0        2.728940   -1.698907    0.436282
     15          1           0        3.529319   -0.282206    0.188562
     16          7           0        2.648020   -0.692788    0.463535
     17          7           0       -2.560081    0.771744   -0.074055
     18          8           0        0.389575    1.671831   -0.987651
     19          8           0       -1.886660   -0.974976    1.173820
     20          8           0        0.976542    1.374311    1.157190
 ---------------------------------------------------------------------

 SCF Done:  E(RHF) =  -531.101259727     A.U. after    2 cycles

 The electronic state is 1-A.
 Alpha  occ. eigenvalues --  -21.12088 -21.05263 -21.02599 -15.77378 -15.75670
 Alpha  occ. eigenvalues --  -11.54592 -11.50599 -11.47617 -11.43420 -11.39255
 Alpha  occ. eigenvalues --   -1.82667  -1.71524  -1.66572  -1.37616  -1.32156
 Alpha  occ. eigenvalues --   -1.19423  -1.03685  -0.93452  -0.78053  -0.77807
 Alpha  occ. eigenvalues --   -0.71529  -0.69869  -0.68464  -0.66487  -0.64296
 Alpha  occ. eigenvalues --   -0.60976  -0.55154  -0.54269  -0.51724  -0.51448
 Alpha  occ. eigenvalues --   -0.50640  -0.47587  -0.45471  -0.42322  -0.40399
 Alpha  occ. eigenvalues --   -0.34954  -0.32446  -0.29705  -0.28486
 Alpha virt. eigenvalues --    0.03086   0.04334   0.04686   0.05155   0.06048
 Alpha virt. eigenvalues --    0.06146   0.07352   0.07744   0.07978   0.09089
 Alpha virt. eigenvalues --    0.10399   0.11705   0.11942   0.12492   0.13002

 Mulliken charges:
               1
     1  C   -0.977346
     2  C    7.407409
     3  C   -2.903435
     4  C   -4.291183
     5  C    6.708975
     6  H    0.950809
     7  H    0.740406
     8  H    0.629363
     9  H    1.186666
    10  H    1.622664
    11  H    1.519101
    12  H    1.305554
    13  H    1.617231
    14  H    0.581244
    15  H    0.583786
    16  N   -2.824595
    17  N   -3.576615
    18  O   -3.443912
    19  O   -3.472093
    20  O   -3.364028
 Sum of Mulliken charges =  -0.00000

 Dipole moment (field-independent basis, Debye):
    X=              2.1320    Y=             -0.9875    Z=             -0.7071  Tot=              2.4537

 Test job not archived.
 1\1\GINC-SE393\SP\RHF\Aug-CC-pVDZ\C5H10N2O3\OHZDE\08-Apr-2025\0\\#t hf
  aug-cc-pvdz iop(5/13=1,5/36=2,99/5=2) pseudo=read geom=check guess=(r
 ead,tcheck) scf=(maxcycle=1)\\title\\0,1\C,0,1.50859,-0.375786,-0.4470
 37\C,0,0.903456,0.997798,-0.127177\C,0,0.346218,-1.46871,-0.382763\C,0
 ,-0.930785,-0.838415,-0.997025\C,0,-1.73877,-0.329496,0.16861\H,0,1.50
 063,0.614454,1.55235\H,0,-3.19841,1.0205,0.661725\H,0,-2.05273,1.51186
 ,-0.569022\H,0,-1.42283,-1.68276,-1.47007\H,0,-0.738662,-0.063029,-1.8
 0306\H,0,0.245618,-1.80843,0.645265\H,0,0.608915,-2.33506,-0.912307\H,

 Normal termination of Gaussian 16 at Tue Apr  8 22:19:59 2025.
