 Gaussian 16, Revision C.01,

 ----------------------------------------------------------------------
 #t hf aug-cc-pvdz symm=none int=(grid=ultrafine) guess=(read,tcheck) s
 table=(opt,rrhf)
 ----------------------------------------------------------------------
 -----
 title
 -----
 Symbolic Z-matrix:
 Charge =  0 Multiplicity = 1

 SCF Done:  E(RHF) =  -444.038971156     A.U. after   17 cycles
 Normal termination of Gaussian 16 at Tue Apr  8 22:18:25 2025.
 Gaussian 16:  ES64L-G16RevC.01  3-Jul-2019

 ----------------------------------------------------------------------
 #t hf aug-cc-pvdz iop(5/13=1,5/36=2,99/5=2) pseudo=read geom=check gue
 ss=(read,tcheck) scf=(maxcycle=1)
 ----------------------------------------------------------------------
 -----
 title
 -----
 Structure from the checkpoint file:  "ANI1ccx_993_conf2_mol1.chk"
 Charge =  0 Multiplicity = 1

                         Standard orientation:
 ---------------------------------------------------------------------
 Center     Atomic      Atomic             Coordinates (Angstroms)
 Number     Number       Type             X           Y           Z
 ---------------------------------------------------------------------
      1          6           0        1.594838   -1.063684    0.069759
      2          6           0        0.635071   -0.028420    0.006924
      3          6           0       -0.675630    0.110763    0.141726
      4          6           0       -1.838751   -0.754050   -0.000263
      5          7           0        2.477046   -1.811897   -0.033098
      6          7           0        1.189975    1.235567   -0.076089
      7          7           0        0.261986    2.108530   -0.035447
      8          7           0       -2.638594   -1.607662   -0.072882
      9          8           0       -0.915757    1.367573    0.026717
 ---------------------------------------------------------------------

 SCF Done:  E(RHF) =  -445.930736460     A.U. after    2 cycles

 The electronic state is 1-A.
 Alpha  occ. eigenvalues --  -21.21469 -15.91033 -15.86364 -15.84375 -15.81325
 Alpha  occ. eigenvalues --  -11.60894 -11.54009 -11.51225 -11.48169  -2.04003
 Alpha  occ. eigenvalues --   -1.54272  -1.38379  -1.34880  -1.27356  -1.02614
 Alpha  occ. eigenvalues --   -0.95607  -0.90230  -0.74627  -0.72595  -0.62687
 Alpha  occ. eigenvalues --   -0.58239  -0.56463  -0.55415  -0.54714  -0.53448
 Alpha  occ. eigenvalues --   -0.51039  -0.47648  -0.45859  -0.45296  -0.39723
 Alpha virt. eigenvalues --    0.03626   0.05689   0.08269   0.08711   0.09364
 Alpha virt. eigenvalues --    0.09830   0.10292   0.10877   0.11191   0.11809
 Alpha virt. eigenvalues --    0.12098   0.12264   0.13160   0.13632   0.14205

 Mulliken charges:
               1
     1  C    1.977118
     2  C    1.906377
     3  C    3.195174
     4  C    2.218459
     5  N   -2.830009
     6  N   -1.256928
     7  N    0.685916
     8  N   -2.691229
     9  O   -3.204878
 Sum of Mulliken charges =  -0.00000

 Dipole moment (field-independent basis, Debye):
    X=             -1.5551    Y=              1.7822    Z=              0.2482  Tot=              2.3783

 Test job not archived.
 1\1\GINC-SE338\SP\RHF\Aug-CC-pVDZ\C4N4O1\OHZDE\08-Apr-2025\0\\#t hf au
 g-cc-pvdz iop(5/13=1,5/36=2,99/5=2) pseudo=read geom=check guess=(read
 ,tcheck) scf=(maxcycle=1)\\title\\0,1\C,0,1.59484,-1.06368,0.0697588\C
 ,0,0.63507,-0.0284187,0.00692446\C,0,-0.675632,0.110761,0.141726\C,0,-
 1.83875,-0.754056,-0.00026329\N,0,2.47705,-1.81189,-0.033098\N,0,1.189
 97,1.23557,-0.0760885\N,0,0.261978,2.10853,-0.0354467\N,0,-2.63859,-1.
 60767,-0.0728824\O,0,-0.915762,1.36757,0.0267167\\Version=ES64L-G16Rev
 C.01\State=1-A\HF=-445.9307365\RMSD=1.154e+00\Dipole=-0.6118336,0.7011

 Normal termination of Gaussian 16 at Tue Apr  8 22:18:28 2025.
