 Gaussian 16, Revision C.01,

 ----------------------------------------------------------------------
 #t hf aug-cc-pvdz symm=none int=(grid=ultrafine) guess=(read,tcheck) s
 table=(opt,rrhf)
 ----------------------------------------------------------------------
 -----
 title
 -----
 Symbolic Z-matrix:
 Charge =  0 Multiplicity = 1

 SCF Done:  E(RHF) =  -636.070294585     A.U. after   16 cycles
 Normal termination of Gaussian 16 at Tue Apr  8 19:55:36 2025.
 Gaussian 16:  ES64L-G16RevC.01  3-Jul-2019

 ----------------------------------------------------------------------
 #t hf aug-cc-pvdz iop(5/13=1,5/36=2,99/5=2) pseudo=read geom=check gue
 ss=(read,tcheck) scf=(maxcycle=1)
 ----------------------------------------------------------------------
 -----
 title
 -----
 Structure from the checkpoint file:  "ANI1ccx_1499_conf4_mol1.chk"
 Charge =  0 Multiplicity = 1

                         Standard orientation:
 ---------------------------------------------------------------------
 Center     Atomic      Atomic             Coordinates (Angstroms)
 Number     Number       Type             X           Y           Z
 ---------------------------------------------------------------------
      1          6           0        0.359426    0.468886   -0.009936
      2          6           0       -2.692130   -0.227962   -1.070910
      3          6           0       -2.703470   -0.195034    1.086790
      4          6           0        1.807320    0.091218   -0.008126
      5          6           0        2.438230   -1.204700    0.017410
      6          6           0        3.782560   -0.962801    0.007928
      7          6           0        2.780760    1.014210    0.008362
      8          1           0        2.723600    2.086500   -0.120457
      9          1           0        4.689140   -1.564820    0.002342
     10          1           0        1.970510   -2.152160   -0.212339
     11          1           0       -2.378690   -0.422373    2.103080
     12          1           0       -2.295800   -0.333096   -2.074090
     13          1           0       -0.097472   -1.531980   -0.054717
     14          7           0       -0.492631   -0.584479   -0.022357
     15          7           0       -1.888110   -0.445654    0.010002
     16          7           0       -3.903420    0.059695   -0.692578
     17          7           0       -3.934030    0.063515    0.708242
     18          8           0        0.002598    1.638580   -0.027658
     19          8           0        4.032390    0.406855    0.045645
 ---------------------------------------------------------------------

 SCF Done:  E(RHF) =  -638.880318187     A.U. after    2 cycles

 The electronic state is 1-A.
 Alpha  occ. eigenvalues --  -21.14641 -21.05281 -15.84220 -15.83458 -15.75626
 Alpha  occ. eigenvalues --  -15.74879 -11.56068 -11.51312 -11.48707 -11.46464
 Alpha  occ. eigenvalues --  -11.45975 -11.43339 -11.41950  -1.85686  -1.73837
 Alpha  occ. eigenvalues --   -1.66080  -1.48352  -1.27903  -1.22056  -1.18764
 Alpha  occ. eigenvalues --   -1.09796  -0.94699  -0.87153  -0.85310  -0.83475
 Alpha  occ. eigenvalues --   -0.81692  -0.79708  -0.75322  -0.64975  -0.63026
 Alpha  occ. eigenvalues --   -0.61016  -0.60548  -0.59867  -0.58462  -0.55859
 Alpha  occ. eigenvalues --   -0.55462  -0.50461  -0.46334  -0.43727  -0.41584
 Alpha  occ. eigenvalues --   -0.39893  -0.36502  -0.35867  -0.35306  -0.33251
 Alpha  occ. eigenvalues --   -0.31891
 Alpha virt. eigenvalues --    0.02175   0.03792   0.04599   0.05169   0.06017
 Alpha virt. eigenvalues --    0.06234   0.08063   0.08773   0.09421   0.10066
 Alpha virt. eigenvalues --    0.10634   0.10932   0.11609   0.11846   0.12014

 Mulliken charges:
               1
     1  C    6.645206
     2  C    0.994910
     3  C    0.965423
     4  C    3.100914
     5  C   -2.921342
     6  C   -0.283588
     7  C   -1.007275
     8  H    1.410625
     9  H    1.395955
    10  H    1.444547
    11  H    1.630571
    12  H    1.621345
    13  H    1.106803
    14  N   -3.591329
    15  N   -1.561508
    16  N   -1.762299
    17  N   -1.686487
    18  O   -3.623333
    19  O   -3.879138
 Sum of Mulliken charges =  -0.00000

 Dipole moment (field-independent basis, Debye):
    X=              6.4234    Y=             -2.6784    Z=             -0.2940  Tot=              6.9656

 Test job not archived.
 1\1\GINC-SE362\SP\RHF\Aug-CC-pVDZ\C7H6N4O2\OHZDE\08-Apr-2025\0\\#t hf
 aug-cc-pvdz iop(5/13=1,5/36=2,99/5=2) pseudo=read geom=check guess=(re
 ad,tcheck) scf=(maxcycle=1)\\title\\0,1\C,0,0.359426,0.468886,-0.00993
 643\C,0,-2.69213,-0.227962,-1.07091\C,0,-2.70347,-0.195034,1.08679\C,0
 ,1.80732,0.0912184,-0.00812599\C,0,2.43823,-1.2047,0.0174098\C,0,3.782
 56,-0.962801,0.00792746\C,0,2.78076,1.01421,0.00836195\H,0,2.7236,2.08
 65,-0.120457\H,0,4.68914,-1.56482,0.00234163\H,0,1.97051,-2.15216,-0.2
 12339\H,0,-2.37869,-0.422373,2.10308\H,0,-2.2958,-0.333096,-2.07409\H,

 Normal termination of Gaussian 16 at Tue Apr  8 19:55:47 2025.
