 Gaussian 16, Revision C.01,

 ----------------------------------------------------------------------
 #t hf aug-cc-pvdz symm=none int=(grid=ultrafine) guess=(read,tcheck) s
 table=(opt,rrhf)
 ----------------------------------------------------------------------
 -----
 title
 -----
 Symbolic Z-matrix:
 Charge =  0 Multiplicity = 1

 SCF Done:  E(RHF) =  -430.221810712     A.U. after   15 cycles
 Normal termination of Gaussian 16 at Tue Apr  8 21:42:08 2025.
 Gaussian 16:  ES64L-G16RevC.01  3-Jul-2019

 ----------------------------------------------------------------------
 #t hf aug-cc-pvdz iop(5/13=1,5/36=2,99/5=2) pseudo=read geom=check gue
 ss=(read,tcheck) scf=(maxcycle=1)
 ----------------------------------------------------------------------
 -----
 title
 -----
 Structure from the checkpoint file:  "ANI1ccx_470_conf3_mol1.chk"
 Charge =  0 Multiplicity = 1

                         Standard orientation:
 ---------------------------------------------------------------------
 Center     Atomic      Atomic             Coordinates (Angstroms)
 Number     Number       Type             X           Y           Z
 ---------------------------------------------------------------------
      1          6           0        1.165819   -0.151325   -0.014800
      2          6           0       -1.128821   -0.146959   -0.080434
      3          1           0        0.979482    1.983161   -0.157124
      4          7           0        0.580920    1.131951    0.221819
      5          8           0        2.340359   -0.516192   -0.031265
      6          8           0       -0.769704    1.044490   -0.156483
      7          8           0       -2.223781   -0.537978    0.088122
      8          8           0       -0.005363   -1.004959   -0.003400
 ---------------------------------------------------------------------

 SCF Done:  E(RHF) =  -431.945722668     A.U. after    2 cycles

 The electronic state is 1-A.
 Alpha  occ. eigenvalues --  -21.19822 -21.16431 -21.11926 -21.08908 -15.88257
 Alpha  occ. eigenvalues --  -11.60860 -11.58878  -2.06256  -1.81777  -1.75925
 Alpha  occ. eigenvalues --   -1.70325  -1.33840  -0.93386  -0.87796  -0.77761
 Alpha  occ. eigenvalues --   -0.73385  -0.63457  -0.60213  -0.57706  -0.55336
 Alpha  occ. eigenvalues --   -0.52591  -0.47656  -0.38639  -0.37816  -0.33530
 Alpha  occ. eigenvalues --   -0.32875
 Alpha virt. eigenvalues --    0.02756   0.07590   0.09011   0.09919   0.10709
 Alpha virt. eigenvalues --    0.11261   0.11503   0.11860   0.13966   0.14487
 Alpha virt. eigenvalues --    0.14876   0.16098   0.17621   0.18056   0.21621

 Mulliken charges:
               1
     1  C    4.689950
     2  C    5.907269
     3  H    0.778241
     4  N   -0.481752
     5  O   -2.643014
     6  O   -2.803013
     7  O   -2.940689
     8  O   -2.506991
 Sum of Mulliken charges =  -0.00000

 Dipole moment (field-independent basis, Debye):
    X=              0.9821    Y=              1.9169    Z=             -0.5371  Tot=              2.2198

 Test job not archived.
 1\1\GINC-SE331\SP\RHF\Aug-CC-pVDZ\C2H1N1O4\OHZDE\08-Apr-2025\0\\#t hf
 aug-cc-pvdz iop(5/13=1,5/36=2,99/5=2) pseudo=read geom=check guess=(re
 ad,tcheck) scf=(maxcycle=1)\\title\\0,1\C,0,1.16582,-0.151326,-0.01479
 96\C,0,-1.12882,-0.146959,-0.0804338\H,0,0.979484,1.98316,-0.157124\N,
 0,0.580922,1.13195,0.221819\O,0,2.34036,-0.516194,-0.0312645\O,0,-0.76
 9703,1.04449,-0.156483\O,0,-2.22378,-0.537977,0.088122\O,0,-0.00536286
 ,-1.00496,-0.00340043\\Version=ES64L-G16RevC.01\State=1-A\HF=-431.9457
 227\RMSD=5.444e-02\Dipole=0.386381,0.7541547,-0.2113133\Quadrupole=-3.

 Normal termination of Gaussian 16 at Tue Apr  8 21:42:10 2025.
