 Gaussian 16, Revision C.01,

 ----------------------------------------------------------------------
 #t hf aug-cc-pvdz symm=none int=(grid=ultrafine) guess=(read,tcheck) s
 table=(opt,rrhf)
 ----------------------------------------------------------------------
 -----
 title
 -----
 Symbolic Z-matrix:
 Charge =  0 Multiplicity = 1

 SCF Done:  E(RHF) =  -897.611462102     A.U. after   13 cycles
 Normal termination of Gaussian 16 at Tue Apr  8 21:46:07 2025.
 Gaussian 16:  ES64L-G16RevC.01  3-Jul-2019

 ----------------------------------------------------------------------
 #t hf aug-cc-pvdz iop(5/13=1,5/36=2,99/5=2) pseudo=read geom=check gue
 ss=(read,tcheck) scf=(maxcycle=1)
 ----------------------------------------------------------------------
 -----
 title
 -----
 Structure from the checkpoint file:  "ANI1ccx_289_conf1_mol1.chk"
 Charge =  0 Multiplicity = 1

                         Standard orientation:
 ---------------------------------------------------------------------
 Center     Atomic      Atomic             Coordinates (Angstroms)
 Number     Number       Type             X           Y           Z
 ---------------------------------------------------------------------
      1          6           0        0.651573   -1.983920   -1.191190
      2          6           0       -1.930660   -1.481290    1.382860
      3          6           0       -3.445100   -0.906163   -0.375068
      4          6           0       -3.246950    0.586925   -0.064711
      5          6           0       -1.632960    1.950880   -1.418270
      6          6           0       -0.786477    3.017330   -0.681151
      7          6           0       -0.662525   -2.081310    0.827111
      8          6           0        1.613050    1.470580    1.449150
      9          6           0        2.687350    0.484188   -0.534933
     10          6           0        3.344830   -0.828599   -0.507189
     11          6           0        1.925690   -2.784180   -0.598954
     12          6           0        0.952528    2.776720    1.082810
     13          1           0       -1.105430    1.459450   -2.227560
     14          1           0       -4.021710    1.087100   -0.711923
     15          1           0       -3.411710    0.878186    0.974689
     16          1           0       -2.941820   -1.261910   -1.256220
     17          1           0       -4.557540   -1.097740   -0.382936
     18          1           0       -2.072130   -1.850930    2.377250
     19          1           0       -1.017790   -3.016370    0.351683
     20          1           0       -0.095648   -2.400900    1.764250
     21          1           0       -0.600481   -0.532661   -0.461896
     22          1           0       -2.469100    2.446850   -1.948940
     23          1           0       -1.780510   -0.356160    1.511410
     24          1           0       -0.331437    3.798260   -1.257050
     25          1           0        1.870110    1.333580    2.485940
     26          1           0        0.085568    3.131840    1.659600
     27          1           0       -0.058701   -2.737360   -1.549560
     28          1           0        1.051750   -1.316710   -2.023460
     29          1           0        1.688600   -3.713190   -0.029918
     30          1           0       -1.457020    3.234550    0.138427
     31          1           0        3.472750   -1.198270   -1.545580
     32          1           0        2.439350   -3.164400   -1.453530
     33          1           0        1.637340    0.365975   -0.754184
     34          1           0        3.186400    1.193830   -1.170060
     35          1           0        0.945233    0.674125    1.221010
     36          1           0        1.813230    3.491560    1.060250
     37          1           0        4.322380   -0.626004   -0.070309
     38          7           0        0.103304   -1.245370   -0.066635
     39          8           0       -1.859570    0.834978   -0.426004
     40          8           0        2.619710   -1.744670    0.188694
     41          8           0        2.741060    1.366930    0.648677
     42          8           0        0.311407    2.335470   -0.155778
     43          8           0       -3.079720   -1.846710    0.687189
 ---------------------------------------------------------------------

 SCF Done:  E(RHF) =  -901.785683869     A.U. after    2 cycles

 The electronic state is 1-A.
 Alpha  occ. eigenvalues --  -21.05431 -21.03312 -21.01805 -21.01568 -21.00102
 Alpha  occ. eigenvalues --  -15.68347 -11.48962 -11.47904 -11.47054 -11.46309
 Alpha  occ. eigenvalues --  -11.45116 -11.44472 -11.41318 -11.40650 -11.38474
 Alpha  occ. eigenvalues --  -11.37674 -11.37016 -11.36753  -1.77306  -1.75342
 Alpha  occ. eigenvalues --   -1.73676  -1.71019  -1.68420  -1.36502  -1.14512
 Alpha  occ. eigenvalues --   -1.10876  -1.10753  -1.05311  -1.02936  -0.98322
 Alpha  occ. eigenvalues --   -0.90885  -0.87312  -0.85984  -0.83388  -0.82356
 Alpha  occ. eigenvalues --   -0.80165  -0.69585  -0.67824  -0.67743  -0.66939
 Alpha  occ. eigenvalues --   -0.65306  -0.64267  -0.63849  -0.62713  -0.60723
 Alpha  occ. eigenvalues --   -0.60413  -0.59005  -0.58080  -0.57413  -0.55424
 Alpha  occ. eigenvalues --   -0.54021  -0.53416  -0.51365  -0.49889  -0.48557
 Alpha  occ. eigenvalues --   -0.48306  -0.47152  -0.46460  -0.45970  -0.44567
 Alpha  occ. eigenvalues --   -0.43979  -0.39134  -0.37957  -0.36645  -0.35513
 Alpha  occ. eigenvalues --   -0.33716  -0.31348  -0.30194  -0.29897  -0.27476
 Alpha  occ. eigenvalues --   -0.26545  -0.24142
 Alpha virt. eigenvalues --    0.03582   0.03612   0.04191   0.04395   0.04617
 Alpha virt. eigenvalues --    0.05119   0.05525   0.05901   0.06176   0.06340
 Alpha virt. eigenvalues --    0.06589   0.06864   0.06923   0.07109   0.07210

 Mulliken charges:
               1
     1  C   -4.330984
     2  C   -1.841191
     3  C   -1.834735
     4  C   -2.317038
     5  C   -2.541251
     6  C   -2.224309
     7  C   -1.558450
     8  C   -2.275573
     9  C   -2.269386
    10  C   -1.904429
    11  C   -2.700622
    12  C   -2.368396
    13  H    1.736335
    14  H    1.412238
    15  H    1.519149
    16  H    1.618102
    17  H    1.109248
    18  H    1.322753
    19  H    1.709485
    20  H    1.608034
    21  H    2.157040
    22  H    1.332635
    23  H    2.126433
    24  H    1.558638
    25  H    1.609221
    26  H    1.889140
    27  H    1.254193
    28  H    1.756037
    29  H    1.523228
    30  H    1.671154
    31  H    1.461348
    32  H    1.519696
    33  H    3.362262
    34  H    1.566637
    35  H    2.639187
    36  H    1.409014
    37  H    1.258725
    38  N   -0.715033
    39  O   -0.489672
    40  O   -3.328587
    41  O   -3.381326
    42  O   -2.586112
    43  O   -3.462839
 Sum of Mulliken charges =   0.00000

 Dipole moment (field-independent basis, Debye):
    X=             -2.2214    Y=              0.8315    Z=             -1.0990  Tot=              2.6141

 Test job not archived.
 1\1\GINC-SE229\SP\RHF\Aug-CC-pVDZ\C12H25N1O5\OHZDE\08-Apr-2025\0\\#t h
 f aug-cc-pvdz iop(5/13=1,5/36=2,99/5=2) pseudo=read geom=check guess=(
 read,tcheck) scf=(maxcycle=1)\\title\\0,1\C,0,0.651573,-1.98392,-1.191
 19\C,0,-1.93066,-1.48129,1.38286\C,0,-3.4451,-0.906163,-0.375068\C,0,-
 3.24695,0.586925,-0.0647109\C,0,-1.63296,1.95088,-1.41827\C,0,-0.78647
 7,3.01733,-0.681151\C,0,-0.662525,-2.08131,0.827111\C,0,1.61305,1.4705
 8,1.44915\C,0,2.68735,0.484188,-0.534933\C,0,3.34483,-0.828599,-0.5071
 89\C,0,1.92569,-2.78418,-0.598954\C,0,0.952528,2.77672,1.08281\H,0,-1.

 Normal termination of Gaussian 16 at Tue Apr  8 21:47:39 2025.
