 Gaussian 16, Revision C.01,

 ----------------------------------------------------------------------
 #t hf aug-cc-pvdz symm=none int=(grid=ultrafine) guess=(read,tcheck) s
 table=(opt,rrhf)
 ----------------------------------------------------------------------
 -----
 title
 -----
 Symbolic Z-matrix:
 Charge =  0 Multiplicity = 1

 SCF Done:  E(RHF) =  -537.841148326     A.U. after   16 cycles
 Normal termination of Gaussian 16 at Tue Apr  8 22:19:12 2025.
 Gaussian 16:  ES64L-G16RevC.01  3-Jul-2019

 ----------------------------------------------------------------------
 #t hf aug-cc-pvdz iop(5/13=1,5/36=2,99/5=2) pseudo=read geom=check gue
 ss=(read,tcheck) scf=(maxcycle=1)
 ----------------------------------------------------------------------
 -----
 title
 -----
 Structure from the checkpoint file:  "ANI1ccx_988_conf12_mol1.chk"
 Charge =  0 Multiplicity = 1

                         Standard orientation:
 ---------------------------------------------------------------------
 Center     Atomic      Atomic             Coordinates (Angstroms)
 Number     Number       Type             X           Y           Z
 ---------------------------------------------------------------------
      1          6           0       -2.281840   -0.352883   -0.152660
      2          6           0       -0.797473    1.550600    0.557661
      3          6           0        0.646021    1.776641    0.089208
      4          6           0        1.414269    0.504494    0.138865
      5          1           0        3.292509    0.832677   -0.929306
      6          1           0        1.122658    2.492931    0.773483
      7          1           0        0.609189    2.323291   -0.837935
      8          1           0       -0.841595    1.109200    1.516040
      9          1           0       -1.341182    2.510489    0.738841
     10          1           0       -3.184690   -0.234790   -1.784900
     11          1           0       -0.938064   -1.135570    1.171010
     12          1           0       -2.466109   -1.893611    1.016480
     13          1           0       -1.657621    1.199349   -1.300540
     14          7           0        2.904530   -1.034768   -0.417372
     15          7           0       -1.926620   -1.028441    1.013020
     16          7           0       -3.322090   -0.759425   -0.875121
     17          7           0       -1.477421    0.725432   -0.453688
     18          7           0        0.899039   -0.674757    0.442079
     19          7           0        1.889240   -1.585349    0.035983
     20          7           0        2.678899    0.346296   -0.339420
 ---------------------------------------------------------------------

 SCF Done:  E(RHF) =  -540.313891577     A.U. after    2 cycles

 The electronic state is 1-A.
 Alpha  occ. eigenvalues --  -15.84409 -15.82594 -15.81121 -15.76960 -15.75348
 Alpha  occ. eigenvalues --  -15.73513 -15.68068 -11.53185 -11.48268 -11.46374
 Alpha  occ. eigenvalues --  -11.42092  -1.74428  -1.48672  -1.37665  -1.35238
 Alpha  occ. eigenvalues --   -1.30262  -1.20961  -1.14179  -0.96800  -0.90825
 Alpha  occ. eigenvalues --   -0.86284  -0.82602  -0.76814  -0.71691  -0.69998
 Alpha  occ. eigenvalues --   -0.65820  -0.63099  -0.59952  -0.58439  -0.56789
 Alpha  occ. eigenvalues --   -0.54290  -0.53293  -0.51985  -0.49596  -0.43834
 Alpha  occ. eigenvalues --   -0.42636  -0.40785  -0.40601  -0.38026  -0.35494
 Alpha  occ. eigenvalues --   -0.28592
 Alpha virt. eigenvalues --    0.02261   0.03846   0.04294   0.05100   0.05369
 Alpha virt. eigenvalues --    0.06362   0.07101   0.08039   0.09265   0.10070
 Alpha virt. eigenvalues --    0.10618   0.11156   0.11603   0.12842   0.13246

 Mulliken charges:
               1
     1  C    4.832060
     2  C   -2.574290
     3  C   -2.750252
     4  C    3.795096
     5  H    0.917551
     6  H    1.359628
     7  H    1.458405
     8  H    1.870901
     9  H    1.146056
    10  H    0.515279
    11  H    0.833895
    12  H    0.576374
    13  H    0.612025
    14  N   -0.389505
    15  N   -2.708850
    16  N   -3.078297
    17  N   -1.915351
    18  N   -1.841113
    19  N   -0.027996
    20  N   -2.631615
 Sum of Mulliken charges =  -0.00000

 Dipole moment (field-independent basis, Debye):
    X=              4.3058    Y=              5.8724    Z=             -0.3721  Tot=              7.2913

 Test job not archived.
 1\1\GINC-SE435\SP\RHF\Aug-CC-pVDZ\C4H9N7\OHZDE\08-Apr-2025\0\\#t hf au
 g-cc-pvdz iop(5/13=1,5/36=2,99/5=2) pseudo=read geom=check guess=(read
 ,tcheck) scf=(maxcycle=1)\\title\\0,1\C,0,-2.28184,-0.352882,-0.15266\
 C,0,-0.797472,1.5506,0.557661\C,0,0.646023,1.77664,0.0892076\C,0,1.414
 27,0.504493,0.138865\H,0,3.29251,0.832675,-0.929306\H,0,1.12266,2.4929
 3,0.773483\H,0,0.609191,2.32329,-0.837935\H,0,-0.841594,1.1092,1.51604
 \H,0,-1.34118,2.51049,0.738841\H,0,-3.18469,-0.234788,-1.7849\H,0,-0.9
 38064,-1.13557,1.17101\H,0,-2.46611,-1.89361,1.01648\H,0,-1.65762,1.19

 Normal termination of Gaussian 16 at Tue Apr  8 22:19:23 2025.
