 Gaussian 16, Revision C.01,

 ----------------------------------------------------------------------
 #t hf aug-cc-pvdz symm=none int=(grid=ultrafine) guess=(read,tcheck) s
 table=(opt,rrhf)
 ----------------------------------------------------------------------
 -----
 title
 -----
 Symbolic Z-matrix:
 Charge =  0 Multiplicity = 1

 SCF Done:  E(RHF) =  -962.726786949     A.U. after   15 cycles
 Normal termination of Gaussian 16 at Tue Apr  8 22:58:23 2025.
 Gaussian 16:  ES64L-G16RevC.01  3-Jul-2019

 ----------------------------------------------------------------------
 #t hf aug-cc-pvdz iop(5/13=1,5/36=2,99/5=2) pseudo=read geom=check gue
 ss=(read,tcheck) scf=(maxcycle=1)
 ----------------------------------------------------------------------
 -----
 title
 -----
 Structure from the checkpoint file:  "ANI1ccx_98_conf17_mol2.chk"
 Charge =  0 Multiplicity = 1

                         Standard orientation:
 ---------------------------------------------------------------------
 Center     Atomic      Atomic             Coordinates (Angstroms)
 Number     Number       Type             X           Y           Z
 ---------------------------------------------------------------------
      1          6           0        2.026941   -0.292791    0.258268
      2          6           0       -1.837699   -1.687720    1.567280
      3          6           0       -2.140069   -0.264548    1.923650
      4          6           0       -0.941506    0.666810    1.684660
      5          6           0       -1.528819    2.114350   -0.397769
      6          6           0       -2.356349   -1.619320   -0.839845
      7          6           0        3.833781   -2.090060    0.483945
      8          6           0        3.499131   -0.667170    0.172732
      9          6           0        1.898491    1.227600    0.204183
     10          6           0       -0.559311    1.097850    0.284362
     11          1           0       -2.979879    0.113506    1.370450
     12          1           0       -2.009029    0.802071   -1.792770
     13          1           0       -4.327609   -1.631130   -1.375360
     14          1           0       -4.074689   -2.002190    0.201165
     15          1           0       -0.900745   -1.320860   -1.990540
     16          1           0       -0.579983   -1.855050   -0.098031
     17          1           0       -2.629579   -2.388840    1.755420
     18          1           0       -0.957767   -2.000200    2.163540
     19          1           0       -2.382659   -0.236396    2.963260
     20          1           0       -1.074569    1.543950    2.343110
     21          1           0       -0.512312    0.194916   -0.287419
     22          1           0        1.369951   -0.390899   -1.610050
     23          1           0        0.632819    2.832980    0.375472
     24          1           0        3.325021   -2.461550    1.318280
     25          1           0        4.863191   -2.146690    0.725354
     26          1           0        3.644211   -2.718910   -0.428977
     27          1           0        4.101811    0.615896   -1.111220
     28          1           0        4.014021   -0.008678    0.936080
     29          1           0        1.622361   -0.717415    1.161290
     30          1           0        1.649021   -1.805640   -0.933999
     31          1           0       -0.125503    0.124942    2.052850
     32          7           0        1.181421   -0.926825   -0.780265
     33          7           0        0.683532    1.820410    0.302583
     34          7           0       -1.550529   -1.998590    0.195995
     35          7           0       -1.889139   -1.188850   -1.983720
     36          7           0       -3.676679   -1.596800   -0.613968
     37          8           0        3.974061   -0.341893   -1.136540
     38          8           0       -1.683059    3.209410    0.117055
     39          8           0        2.877891    1.961400   -0.030062
     40          8           0       -2.328379    1.643680   -1.404340
 ---------------------------------------------------------------------

 SCF Done:  E(RHF) =  -967.146048073     A.U. after    2 cycles

 The electronic state is 1-A.
 Alpha  occ. eigenvalues --  -21.10346 -21.06439 -21.05100 -21.03424 -15.78676
 Alpha  occ. eigenvalues --  -15.77296 -15.77026 -15.75410 -15.69922 -11.55183
 Alpha  occ. eigenvalues --  -11.54117 -11.51246 -11.50857 -11.50392 -11.48257
 Alpha  occ. eigenvalues --  -11.45508 -11.43646 -11.39548 -11.39271  -1.79886
 Alpha  occ. eigenvalues --   -1.73908  -1.69707  -1.64958  -1.53051  -1.44169
 Alpha  occ. eigenvalues --   -1.38117  -1.34903  -1.26536  -1.20783  -1.16096
 Alpha  occ. eigenvalues --   -1.09416  -1.04751  -0.98085  -0.90463  -0.88522
 Alpha  occ. eigenvalues --   -0.84937  -0.81194  -0.79262  -0.75846  -0.73524
 Alpha  occ. eigenvalues --   -0.71272  -0.69295  -0.68565  -0.67833  -0.66165
 Alpha  occ. eigenvalues --   -0.64217  -0.62970  -0.62100  -0.60512  -0.59789
 Alpha  occ. eigenvalues --   -0.58908  -0.56846  -0.55504  -0.54797  -0.54267
 Alpha  occ. eigenvalues --   -0.52565  -0.51751  -0.51412  -0.50710  -0.49895
 Alpha  occ. eigenvalues --   -0.48230  -0.46591  -0.45192  -0.43918  -0.43073
 Alpha  occ. eigenvalues --   -0.40417  -0.38524  -0.36814  -0.33489  -0.32993
 Alpha  occ. eigenvalues --   -0.31502  -0.31218  -0.29506  -0.28392
 Alpha virt. eigenvalues --    0.03008   0.03476   0.03899   0.04074   0.04478
 Alpha virt. eigenvalues --    0.04882   0.05494   0.06138   0.06430   0.06861
 Alpha virt. eigenvalues --    0.06995   0.07188   0.07707   0.08175   0.08627

 Mulliken charges:
               1
     1  C   -1.524678
     2  C   -2.863853
     3  C   -4.336729
     4  C   -3.707559
     5  C    6.476657
     6  C    7.365029
     7  C   -4.931907
     8  C    0.678590
     9  C    5.467031
    10  C   -1.590123
    11  H    1.839939
    12  H    1.467369
    13  H    0.864374
    14  H    0.650861
    15  H    0.668073
    16  H    1.028177
    17  H    1.648347
    18  H    1.493279
    19  H    1.316169
    20  H    1.308918
    21  H    3.907658
    22  H    0.667983
    23  H    0.730235
    24  H    1.357644
    25  H    1.124303
    26  H    1.220203
    27  H    0.682237
    28  H    1.604026
    29  H    2.498562
    30  H    0.729188
    31  H    2.181835
    32  N   -2.248533
    33  N   -2.915070
    34  N   -2.988890
    35  N   -3.870276
    36  N   -4.094384
    37  O   -3.033815
    38  O   -3.574719
    39  O   -3.498491
    40  O   -3.797662
 Sum of Mulliken charges =  -0.00000

 Dipole moment (field-independent basis, Debye):
    X=             -1.0454    Y=             -4.1785    Z=              3.0298  Tot=              5.2662

 Test job not archived.
 1\1\GINC-SE187\SP\RHF\Aug-CC-pVDZ\C10H21N5O4\OHZDE\08-Apr-2025\0\\#t h
 f aug-cc-pvdz iop(5/13=1,5/36=2,99/5=2) pseudo=read geom=check guess=(
 read,tcheck) scf=(maxcycle=1)\\title\\0,1\C,0,2.02694,-0.292791,0.2582
 68\C,0,-1.8377,-1.68772,1.56728\C,0,-2.14007,-0.264548,1.92365\C,0,-0.
 941507,0.66681,1.68466\C,0,-1.52882,2.11435,-0.397769\C,0,-2.35635,-1.
 61932,-0.839845\C,0,3.83378,-2.09006,0.483945\C,0,3.49913,-0.66717,0.1
 72732\C,0,1.89849,1.2276,0.204183\C,0,-0.559312,1.09785,0.284362\H,0,-
 2.97988,0.113506,1.37045\H,0,-2.00903,0.802071,-1.79277\H,0,-4.32761,-

 Normal termination of Gaussian 16 at Tue Apr  8 22:59:50 2025.
