 Gaussian 16, Revision C.01,

 ----------------------------------------------------------------------
 #t hf aug-cc-pvdz symm=none int=(grid=ultrafine) guess=(read,tcheck) s
 table=(opt,rrhf)
 ----------------------------------------------------------------------
 -----
 title
 -----
 Symbolic Z-matrix:
 Charge =  0 Multiplicity = 1

 SCF Done:  E(RHF) =  -424.655639465     A.U. after   15 cycles
 Normal termination of Gaussian 16 at Tue Apr  8 21:44:58 2025.
 Gaussian 16:  ES64L-G16RevC.01  3-Jul-2019

 ----------------------------------------------------------------------
 #t hf aug-cc-pvdz iop(5/13=1,5/36=2,99/5=2) pseudo=read geom=check gue
 ss=(read,tcheck) scf=(maxcycle=1)
 ----------------------------------------------------------------------
 -----
 title
 -----
 Structure from the checkpoint file:  "ANI1ccx_507_conf10_mol1.chk"
 Charge =  0 Multiplicity = 1

                         Standard orientation:
 ---------------------------------------------------------------------
 Center     Atomic      Atomic             Coordinates (Angstroms)
 Number     Number       Type             X           Y           Z
 ---------------------------------------------------------------------
      1          6           0       -1.541700   -0.439189    0.092896
      2          6           0        0.023652    1.361660    0.032185
      3          1           0       -3.340240    0.594582   -0.482540
      4          1           0       -3.360070   -1.337130   -0.064320
      5          1           0        1.889170    1.696910   -0.072637
      6          7           0       -2.824290   -0.475259   -0.371779
      7          7           0       -0.969663    0.838353   -0.422275
      8          7           0        1.033990    1.988530    0.456819
      9          7           0        2.836040   -1.448621   -0.121926
     10          7           0        2.885890   -0.390612   -0.355912
     11          8           0       -0.851791   -1.259490    0.696815
 ---------------------------------------------------------------------

 SCF Done:  E(RHF) =  -426.477782051     A.U. after    2 cycles

 The electronic state is 1-A.
 Alpha  occ. eigenvalues --  -21.06061 -15.87496 -15.87063 -15.80402 -15.77601
 Alpha  occ. eigenvalues --  -15.77100 -11.54173 -11.54030  -1.72610  -1.57486
 Alpha  occ. eigenvalues --   -1.44256  -1.35605  -1.27209  -0.89954  -0.79301
 Alpha  occ. eigenvalues --   -0.73196  -0.70643  -0.65513  -0.60846  -0.59556
 Alpha  occ. eigenvalues --   -0.58668  -0.58456  -0.57761  -0.52513  -0.51496
 Alpha  occ. eigenvalues --   -0.40480  -0.39820  -0.35132  -0.30586
 Alpha virt. eigenvalues --    0.03198   0.05417   0.05982   0.09419   0.10617
 Alpha virt. eigenvalues --    0.11031   0.11363   0.11782   0.12782   0.13662
 Alpha virt. eigenvalues --    0.14209   0.14537   0.15064   0.15801   0.15932

 Mulliken charges:
               1
     1  C    5.142931
     2  C    3.414895
     3  H    0.605820
     4  H    0.640196
     5  H    0.660084
     6  N   -2.485633
     7  N   -2.560176
     8  N   -2.749246
     9  N    0.145006
    10  N   -0.136680
    11  O   -2.677196
 Sum of Mulliken charges =  -0.00000

 Dipole moment (field-independent basis, Debye):
    X=             -1.6097    Y=             -0.6978    Z=             -0.6961  Tot=              1.8875

 Test job not archived.
 1\1\GINC-SE458\SP\RHF\Aug-CC-pVDZ\C2H3N5O1\OHZDE\08-Apr-2025\0\\#t hf
 aug-cc-pvdz iop(5/13=1,5/36=2,99/5=2) pseudo=read geom=check guess=(re
 ad,tcheck) scf=(maxcycle=1)\\title\\0,1\C,0,-1.5417,-0.439189,0.092896
 1\C,0,0.0236522,1.36166,0.0321851\H,0,-3.34024,0.594582,-0.48254\H,0,-
 3.36007,-1.33713,-0.0643203\H,0,1.88917,1.69691,-0.072637\N,0,-2.82429
 ,-0.475259,-0.371779\N,0,-0.969663,0.838353,-0.422275\N,0,1.03399,1.98
 853,0.456819\N,0,2.83604,-1.44862,-0.121926\N,0,2.88589,-0.390611,-0.3
 55912\O,0,-0.851791,-1.25949,0.696815\\Version=ES64L-G16RevC.01\State=

 Normal termination of Gaussian 16 at Tue Apr  8 21:45:02 2025.
