 Gaussian 16, Revision C.01,

 ----------------------------------------------------------------------
 #t hf aug-cc-pvdz symm=none int=(grid=ultrafine) guess=(read,tcheck) s
 table=(opt,rrhf)
 ----------------------------------------------------------------------
 -----
 title
 -----
 Symbolic Z-matrix:
 Charge =  0 Multiplicity = 1

 SCF Done:  E(RHF) =  -603.573693907     A.U. after   14 cycles
 Normal termination of Gaussian 16 at Tue Apr  8 22:21:17 2025.
 Gaussian 16:  ES64L-G16RevC.01  3-Jul-2019

 ----------------------------------------------------------------------
 #t hf aug-cc-pvdz iop(5/13=1,5/36=2,99/5=2) pseudo=read geom=check gue
 ss=(read,tcheck) scf=(maxcycle=1)
 ----------------------------------------------------------------------
 -----
 title
 -----
 Structure from the checkpoint file:  "ANI1ccx_999_conf4_mol1.chk"
 Charge =  0 Multiplicity = 1

                         Standard orientation:
 ---------------------------------------------------------------------
 Center     Atomic      Atomic             Coordinates (Angstroms)
 Number     Number       Type             X           Y           Z
 ---------------------------------------------------------------------
      1          6           0       -2.021579    0.085970    0.673154
      2          6           0       -1.297213   -1.141996    0.169895
      3          6           0        1.030211   -0.016769    0.347426
      4          6           0        0.568397    1.377189   -0.082075
      5          6           0        2.339500   -0.349105   -0.390427
      6          1           0        1.655927    2.215666    1.318040
      7          1           0        2.903736   -1.688227    0.869681
      8          1           0        3.080922    0.419818   -0.114520
      9          1           0        2.071320   -0.315574   -1.448070
     10          1           0        1.263330   -0.033196    1.449060
     11          1           0       -1.351087    0.831413    1.124790
     12          1           0       -2.708470   -0.292352    1.378790
     13          1           0       -3.517106    1.344250   -0.065709
     14          1           0       -2.206856    1.202487   -0.995834
     15          1           0        0.477228   -1.953150   -0.145210
     16          7           0       -2.863728    0.629455   -0.416687
     17          7           0        0.062838   -1.048149   -0.065846
     18          8           0        2.849476   -1.634557   -0.121508
     19          8           0       -1.898255   -2.242544   -0.024257
     20          8           0       -0.268604    1.608332   -0.945892
     21          8           0        1.095057    2.452268    0.554017
 ---------------------------------------------------------------------

 SCF Done:  E(RHF) =  -606.222541430     A.U. after    2 cycles

 The electronic state is 1-A.
 Alpha  occ. eigenvalues --  -21.16146 -21.11556 -21.07781 -21.01973 -15.77717
 Alpha  occ. eigenvalues --  -15.72241 -11.58240 -11.52616 -11.51996 -11.45770
 Alpha  occ. eigenvalues --  -11.41655  -1.85930  -1.75524  -1.68079  -1.67075
 Alpha  occ. eigenvalues --   -1.41553  -1.31458  -1.15659  -1.01889  -0.96120
 Alpha  occ. eigenvalues --   -0.84935  -0.80637  -0.75408  -0.70581  -0.69134
 Alpha  occ. eigenvalues --   -0.65396  -0.64615  -0.61932  -0.57763  -0.56790
 Alpha  occ. eigenvalues --   -0.55973  -0.54390  -0.50888  -0.50086  -0.46508
 Alpha  occ. eigenvalues --   -0.45842  -0.45128  -0.37987  -0.36851  -0.35597
 Alpha  occ. eigenvalues --   -0.32904  -0.31015  -0.28002
 Alpha virt. eigenvalues --    0.01828   0.03539   0.03696   0.04487   0.05772
 Alpha virt. eigenvalues --    0.06343   0.06841   0.07231   0.08187   0.08764
 Alpha virt. eigenvalues --    0.09708   0.10559   0.11118   0.12091   0.12441

 Mulliken charges:
               1
     1  C   -3.854990
     2  C    5.745218
     3  C   -1.289659
     4  C    6.904592
     5  C   -0.548416
     6  H    0.825904
     7  H    0.681848
     8  H    1.192346
     9  H    1.347645
    10  H    1.736533
    11  H    1.772261
    12  H    1.337288
    13  H    0.520005
    14  H    0.786262
    15  H    0.648143
    16  N   -1.973363
    17  N   -2.991903
    18  O   -2.544367
    19  O   -3.407339
    20  O   -3.460198
    21  O   -3.427812
 Sum of Mulliken charges =  -0.00000

 Dipole moment (field-independent basis, Debye):
    X=              3.5302    Y=              2.0499    Z=              2.3939  Tot=              4.7324

 Test job not archived.
 1\1\GINC-SE342\SP\RHF\Aug-CC-pVDZ\C5H10N2O4\OHZDE\08-Apr-2025\0\\#t hf
  aug-cc-pvdz iop(5/13=1,5/36=2,99/5=2) pseudo=read geom=check guess=(r
 ead,tcheck) scf=(maxcycle=1)\\title\\0,1\C,0,-2.02158,0.0859639,0.6731
 54\C,0,-1.29721,-1.142,0.169895\C,0,1.03021,-0.0167667,0.347426\C,0,0.
 568393,1.37719,-0.0820755\C,0,2.3395,-0.3491,-0.390427\H,0,1.65592,2.2
 1567,1.31804\H,0,2.90374,-1.68822,0.869681\H,0,3.08092,0.419825,-0.114
 52\H,0,2.07132,-0.315569,-1.44807\H,0,1.26333,-0.0331935,1.44906\H,0,-
 1.35109,0.831408,1.12479\H,0,-2.70847,-0.29236,1.37879\H,0,-3.51711,1.

 Normal termination of Gaussian 16 at Tue Apr  8 22:21:29 2025.
