 Gaussian 16, Revision C.01,

 ----------------------------------------------------------------------
 #t hf aug-cc-pvdz symm=none int=(grid=ultrafine) guess=(read,tcheck) s
 table=(opt,rrhf)
 ----------------------------------------------------------------------
 -----
 title
 -----
 Symbolic Z-matrix:
 Charge =  0 Multiplicity = 1

 SCF Done:  E(RHF) =  -603.582179230     A.U. after   15 cycles
 Normal termination of Gaussian 16 at Tue Apr  8 22:21:37 2025.
 Gaussian 16:  ES64L-G16RevC.01  3-Jul-2019

 ----------------------------------------------------------------------
 #t hf aug-cc-pvdz iop(5/13=1,5/36=2,99/5=2) pseudo=read geom=check gue
 ss=(read,tcheck) scf=(maxcycle=1)
 ----------------------------------------------------------------------
 -----
 title
 -----
 Structure from the checkpoint file:  "ANI1ccx_999_conf3_mol1.chk"
 Charge =  0 Multiplicity = 1

                         Standard orientation:
 ---------------------------------------------------------------------
 Center     Atomic      Atomic             Coordinates (Angstroms)
 Number     Number       Type             X           Y           Z
 ---------------------------------------------------------------------
      1          6           0        1.657431   -1.079619   -0.422740
      2          6           0        1.254780    0.146746    0.423811
      3          6           0       -1.200610    0.404675    0.432895
      4          6           0       -1.653769   -0.996296   -0.025719
      5          6           0       -1.113931    1.318689   -0.741552
      6          1           0       -0.737315   -1.511001    1.441660
      7          1           0        0.060910    2.672650   -0.235987
      8          1           0       -0.286355    1.008260   -1.455300
      9          1           0       -2.020301    1.226038   -1.263410
     10          1           0       -1.970970    0.775340    1.119690
     11          1           0        1.675021   -1.952509    0.256359
     12          1           0        0.899604   -1.297450   -1.202880
     13          1           0        3.491270   -0.269770   -0.207942
     14          1           0        2.874630   -0.184860   -1.682010
     15          1           0        0.179428    0.888161    1.950080
     16          7           0        2.997091   -0.850957   -0.913541
     17          7           0        0.056279    0.206820    1.153910
     18          8           0       -0.896826    2.680669   -0.271954
     19          8           0        2.108629    0.990290    0.646118
     20          8           0       -2.485079   -1.140332   -0.863967
     21          8           0       -1.127089   -1.982011    0.689424
 ---------------------------------------------------------------------

 SCF Done:  E(RHF) =  -606.226136034     A.U. after    2 cycles

 The electronic state is 1-A.
 Alpha  occ. eigenvalues --  -21.13348 -21.09550 -21.07619 -21.06675 -15.78605
 Alpha  occ. eigenvalues --  -15.74161 -11.55004 -11.54725 -11.50586 -11.44667
 Alpha  occ. eigenvalues --  -11.43906  -1.85611  -1.75987  -1.72740  -1.68330
 Alpha  occ. eigenvalues --   -1.43069  -1.34929  -1.14910  -1.03006  -0.95457
 Alpha  occ. eigenvalues --   -0.83677  -0.78051  -0.74483  -0.74408  -0.70151
 Alpha  occ. eigenvalues --   -0.67482  -0.65146  -0.60925  -0.59396  -0.56736
 Alpha  occ. eigenvalues --   -0.55756  -0.54132  -0.52814  -0.51420  -0.48602
 Alpha  occ. eigenvalues --   -0.47368  -0.44479  -0.39623  -0.37249  -0.35764
 Alpha  occ. eigenvalues --   -0.34894  -0.33133  -0.29057
 Alpha virt. eigenvalues --    0.03115   0.04450   0.05001   0.05332   0.05856
 Alpha virt. eigenvalues --    0.06319   0.06363   0.06722   0.07918   0.08416
 Alpha virt. eigenvalues --    0.09967   0.11114   0.11304   0.12009   0.12586

 Mulliken charges:
               1
     1  C   -2.200504
     2  C    5.370076
     3  C   -3.393740
     4  C    6.622617
     5  C   -0.384753
     6  H    1.130639
     7  H    0.690992
     8  H    1.484267
     9  H    1.293314
    10  H    1.747758
    11  H    1.319368
    12  H    1.632259
    13  H    0.587474
    14  H    0.488600
    15  H    0.354344
    16  N   -2.592735
    17  N   -1.638593
    18  O   -2.665646
    19  O   -3.288340
    20  O   -3.395872
    21  O   -3.161527
 Sum of Mulliken charges =   0.00000

 Dipole moment (field-independent basis, Debye):
    X=              0.3545    Y=              1.4554    Z=              1.5708  Tot=              2.1706

 Test job not archived.
 1\1\GINC-SE393\SP\RHF\Aug-CC-pVDZ\C5H10N2O4\OHZDE\08-Apr-2025\0\\#t hf
  aug-cc-pvdz iop(5/13=1,5/36=2,99/5=2) pseudo=read geom=check guess=(r
 ead,tcheck) scf=(maxcycle=1)\\title\\0,1\C,0,1.65743,-1.07962,-0.42274
 \C,0,1.25478,0.146746,0.423811\C,0,-1.20061,0.404676,0.432895\C,0,-1.6
 5377,-0.996295,-0.0257191\C,0,-1.11393,1.31869,-0.741552\H,0,-0.737316
 ,-1.511,1.44166\H,0,0.0609117,2.67265,-0.235987\H,0,-0.286354,1.00826,
 -1.4553\H,0,-2.0203,1.22604,-1.26341\H,0,-1.97097,0.775342,1.11969\H,0
 ,1.67502,-1.95251,0.256359\H,0,0.899603,-1.29745,-1.20288\H,0,3.49127,

 Normal termination of Gaussian 16 at Tue Apr  8 22:21:50 2025.
