 Gaussian 16, Revision C.01,

 ----------------------------------------------------------------------
 #t hf aug-cc-pvdz symm=none int=(grid=ultrafine) guess=(read,tcheck) s
 table=(opt,rrhf)
 ----------------------------------------------------------------------
 -----
 title
 -----
 Symbolic Z-matrix:
 Charge =  0 Multiplicity = 1

 SCF Done:  E(RHF) =  -456.223471469     A.U. after   12 cycles
 Normal termination of Gaussian 16 at Tue Apr  8 21:09:48 2025.
 Gaussian 16:  ES64L-G16RevC.01  3-Jul-2019

 ----------------------------------------------------------------------
 #t hf aug-cc-pvdz iop(5/13=1,5/36=2,99/5=2) pseudo=read geom=check gue
 ss=(read,tcheck) scf=(maxcycle=1)
 ----------------------------------------------------------------------
 -----
 title
 -----
 Structure from the checkpoint file:  "ANI1ccx_1844_conf449_mol1.chk"
 Charge =  0 Multiplicity = 1

                         Standard orientation:
 ---------------------------------------------------------------------
 Center     Atomic      Atomic             Coordinates (Angstroms)
 Number     Number       Type             X           Y           Z
 ---------------------------------------------------------------------
      1          1           0       -0.823631   -1.479420   -0.908918
      2          1           0        1.226600    0.041531    2.504560
      3          1           0        0.023886   -0.407846    1.505040
      4          1           0        1.364908   -1.957932    0.275804
      5          1           0        1.369289   -0.635287   -0.871339
      6          1           0        2.646271    1.296377   -0.594476
      7          1           0       -2.393952   -1.794649   -1.066650
      8          1           0        1.492100    0.660411    0.353501
      9          1           0        0.287720    1.746869   -0.889349
     10          1           0       -1.120119    1.075860   -1.301120
     11          1           0       -1.258699    1.063820    0.776811
     12          1           0       -1.889300   -0.219745    0.594132
     13          8           0        1.146659   -1.641231   -0.761810
     14          8           0       -0.705652    1.843400   -0.884044
     15          8           0        1.073550   -0.347067    1.597930
     16          8           0        1.776411    0.951801   -0.559995
     17          8           0       -1.716071   -1.132719   -0.811523
     18          8           0       -1.690530    0.402068    1.372190
 ---------------------------------------------------------------------

 SCF Done:  E(RHF) =  -458.215356044     A.U. after    2 cycles

 The electronic state is 1-A.
 Alpha  occ. eigenvalues --  -21.11209 -21.10881 -21.10582 -21.06555 -21.05594
 Alpha  occ. eigenvalues --  -21.05252  -1.72323  -1.69343  -1.67259  -1.64298
 Alpha  occ. eigenvalues --   -1.61712  -1.59875  -0.71478  -0.66957  -0.64810
 Alpha  occ. eigenvalues --   -0.64322  -0.61287  -0.60187  -0.52431  -0.52362
 Alpha  occ. eigenvalues --   -0.50610  -0.45059  -0.43885  -0.39961  -0.37273
 Alpha  occ. eigenvalues --   -0.36474  -0.35243  -0.33692  -0.32899  -0.32012
 Alpha virt. eigenvalues --    0.03299   0.04284   0.04568   0.06223   0.07289
 Alpha virt. eigenvalues --    0.07797   0.07929   0.08302   0.08861   0.10229
 Alpha virt. eigenvalues --    0.10649   0.11784   0.17859   0.18559   0.19345

 Mulliken charges:
               1
     1  H    1.334240
     2  H    0.834701
     3  H    1.240967
     4  H    0.935594
     5  H    1.685867
     6  H    0.850791
     7  H    0.931135
     8  H    1.840396
     9  H    1.397751
    10  H    1.066935
    11  H    1.163497
    12  H    1.614869
    13  O   -2.526612
    14  O   -2.370917
    15  O   -2.388181
    16  O   -2.695657
    17  O   -2.517123
    18  O   -2.398253
 Sum of Mulliken charges =   0.00000

 Dipole moment (field-independent basis, Debye):
    X=              1.7573    Y=             -0.8146    Z=              0.3042  Tot=              1.9606

 Test job not archived.
 1\1\GINC-SE015\SP\RHF\Aug-CC-pVDZ\H12O6\OHZDE\08-Apr-2025\0\\#t hf aug
 -cc-pvdz iop(5/13=1,5/36=2,99/5=2) pseudo=read geom=check guess=(read,
 tcheck) scf=(maxcycle=1)\\title\\0,1\H,0,-0.82363,-1.47942,-0.908918\H
 ,0,1.2266,0.0415324,2.50456\H,0,0.0238865,-0.407845,1.50504\H,0,1.3649
 1,-1.95793,0.275804\H,0,1.36929,-0.635285,-0.871339\H,0,2.64627,1.2963
 8,-0.594476\H,0,-2.39395,-1.79465,-1.06665\H,0,1.4921,0.660413,0.35350
 1\H,0,0.287719,1.74687,-0.889349\H,0,-1.12012,1.07586,-1.30112\H,0,-1.
 2587,1.06382,0.776811\H,0,-1.8893,-0.219746,0.594132\O,0,1.14666,-1.64

 Normal termination of Gaussian 16 at Tue Apr  8 21:09:54 2025.
