 Gaussian 16, Revision C.01,

 ----------------------------------------------------------------------
 #t hf aug-cc-pvdz symm=none int=(grid=ultrafine) guess=(read,tcheck) s
 table=(opt,rrhf)
 ----------------------------------------------------------------------
 -----
 title
 -----
 Symbolic Z-matrix:
 Charge =  0 Multiplicity = 1

 SCF Done:  E(RHF) =  -959.252447877     A.U. after   15 cycles
 Normal termination of Gaussian 16 at Tue Apr  8 22:08:16 2025.
 Gaussian 16:  ES64L-G16RevC.01  3-Jul-2019

 ----------------------------------------------------------------------
 #t hf aug-cc-pvdz iop(5/13=1,5/36=2,99/5=2) pseudo=read geom=check gue
 ss=(read,tcheck) scf=(maxcycle=1)
 ----------------------------------------------------------------------
 -----
 title
 -----
 Structure from the checkpoint file:  "ANI1ccx_47_conf1_mol1.chk"
 Charge =  0 Multiplicity = 1

                         Standard orientation:
 ---------------------------------------------------------------------
 Center     Atomic      Atomic             Coordinates (Angstroms)
 Number     Number       Type             X           Y           Z
 ---------------------------------------------------------------------
      1          6           0        0.646438   -0.809146    0.927134
      2          6           0        1.241760    2.862760    0.585410
      3          6           0       -0.376835    1.914170   -0.489665
      4          6           0       -1.807710    1.558549   -0.717910
      5          6           0       -3.408089   -0.267445    0.075682
      6          6           0        0.708040    1.546010   -1.167120
      7          6           0        3.073731   -0.808499    0.057071
      8          6           0        2.052121   -1.343160    1.078410
      9          6           0       -0.031837   -1.485530   -0.295155
     10          6           0       -1.932910    0.166772   -0.113965
     11          1           0       -2.479170    2.229609   -0.182917
     12          1           0       -4.618269   -1.546221   -0.433449
     13          1           0        2.781230    1.996630   -0.509658
     14          1           0        1.719240    3.601480    1.277300
     15          1           0        0.938210    0.901494   -2.042810
     16          1           0       -2.047520    1.617879   -1.725380
     17          1           0       -1.579870    0.140974    0.952420
     18          1           0        3.914651   -1.178579   -1.788010
     19          1           0        2.328301   -1.957100   -1.477710
     20          1           0        1.900661   -2.405550    1.068570
     21          1           0        2.450501   -1.013750    2.051500
     22          1           0        0.493154    0.209263    0.756611
     23          1           0       -0.062706   -2.113200    2.394490
     24          1           0       -0.255955   -0.523840    2.796960
     25          1           0       -1.635389   -1.512700   -1.519170
     26          7           0       -0.328569   -1.200440    2.015470
     27          7           0        3.110881   -1.378000   -1.170910
     28          7           0       -1.183659   -0.930595   -0.785289
     29          7           0       -0.034506    2.734960    0.567076
     30          7           0        1.767290    2.058250   -0.413192
     31          8           0       -4.253830    0.307663    0.724775
     32          8           0        0.517157   -2.439620   -0.794683
     33          8           0        3.900500    0.063594    0.341991
     34          8           0       -3.683249   -1.361951   -0.615863
 ---------------------------------------------------------------------

 SCF Done:  E(RHF) =  -963.554543940     A.U. after    2 cycles

 The electronic state is 1-A.
 Alpha  occ. eigenvalues --  -21.13790 -21.05875 -21.03737 -21.02122 -15.78759
 Alpha  occ. eigenvalues --  -15.76835 -15.76635 -15.75502 -15.71383 -11.55324
 Alpha  occ. eigenvalues --  -11.54160 -11.52959 -11.51381 -11.48611 -11.47370
 Alpha  occ. eigenvalues --  -11.43588 -11.43260 -11.42381 -11.39306  -1.85587
 Alpha  occ. eigenvalues --   -1.73884  -1.69802  -1.66050  -1.56853  -1.41884
 Alpha  occ. eigenvalues --   -1.35535  -1.32624  -1.26896  -1.19083  -1.13677
 Alpha  occ. eigenvalues --   -1.08345  -0.98897  -0.97090  -0.84342  -0.82593
 Alpha  occ. eigenvalues --   -0.81960  -0.78407  -0.77836  -0.74370  -0.73568
 Alpha  occ. eigenvalues --   -0.71161  -0.67866  -0.65489  -0.63818  -0.62741
 Alpha  occ. eigenvalues --   -0.62215  -0.60939  -0.59873  -0.59281  -0.57933
 Alpha  occ. eigenvalues --   -0.57463  -0.55680  -0.54154  -0.51908  -0.51427
 Alpha  occ. eigenvalues --   -0.50763  -0.49833  -0.48083  -0.47350  -0.45790
 Alpha  occ. eigenvalues --   -0.45178  -0.38623  -0.38424  -0.36969  -0.35479
 Alpha  occ. eigenvalues --   -0.34112  -0.32585  -0.30965  -0.29812  -0.28514
 Alpha  occ. eigenvalues --   -0.28397
 Alpha virt. eigenvalues --    0.03529   0.04294   0.04741   0.04952   0.05354
 Alpha virt. eigenvalues --    0.05821   0.06087   0.06224   0.06616   0.07400
 Alpha virt. eigenvalues --    0.07563   0.07929   0.08666   0.09325   0.09648

 Mulliken charges:
               1
     1  C    0.041442
     2  C    0.196672
     3  C    6.916227
     4  C   -5.046135
     5  C    8.614851
     6  C   -3.126185
     7  C    6.788638
     8  C   -5.157766
     9  C    6.642196
    10  C   -3.534044
    11  H    1.532258
    12  H    1.021002
    13  H    1.082137
    14  H    1.834652
    15  H    1.301046
    16  H    1.286985
    17  H    2.500821
    18  H    0.889898
    19  H    0.841187
    20  H    1.210126
    21  H    1.185609
    22  H    3.622258
    23  H    0.808880
    24  H    0.525835
    25  H    0.872536
    26  N   -3.226517
    27  N   -3.885345
    28  N   -3.052120
    29  N   -4.432119
    30  N   -3.247621
    31  O   -3.679616
    32  O   -4.152846
    33  O   -3.731093
    34  O   -3.443849
 Sum of Mulliken charges =   0.00000

 Dipole moment (field-independent basis, Debye):
    X=              0.9789    Y=             -1.3447    Z=             -1.6793  Tot=              2.3635

 Test job not archived.
 1\1\GINC-SE059\SP\RHF\Aug-CC-pVDZ\C10H15N5O4\OHZDE\08-Apr-2025\0\\#t h
 f aug-cc-pvdz iop(5/13=1,5/36=2,99/5=2) pseudo=read geom=check guess=(
 read,tcheck) scf=(maxcycle=1)\\title\\0,1\C,0,0.646437,-0.809146,0.927
 134\C,0,1.24176,2.86276,0.58541\C,0,-0.376835,1.91417,-0.489665\C,0,-1
 .80771,1.55855,-0.71791\C,0,-3.40809,-0.267444,0.075682\C,0,0.70804,1.
 54601,-1.16712\C,0,3.07373,-0.808499,0.0570708\C,0,2.05212,-1.34316,1.
 07841\C,0,-0.0318382,-1.48553,-0.295155\C,0,-1.93291,0.166773,-0.11396
 5\H,0,-2.47917,2.22961,-0.182917\H,0,-4.61827,-1.54622,-0.433449\H,0,2

 Normal termination of Gaussian 16 at Tue Apr  8 22:09:20 2025.
