 Gaussian 16, Revision C.01,

 ----------------------------------------------------------------------
 #t hf aug-cc-pvdz symm=none int=(grid=ultrafine) guess=(read,tcheck) s
 table=(opt,rrhf)
 ----------------------------------------------------------------------
 -----
 title
 -----
 Symbolic Z-matrix:
 Charge =  0 Multiplicity = 1

 SCF Done:  E(RHF) =  -912.039205824     A.U. after   14 cycles
 Normal termination of Gaussian 16 at Tue Apr  8 21:49:47 2025.
 Gaussian 16:  ES64L-G16RevC.01  3-Jul-2019

 ----------------------------------------------------------------------
 #t hf aug-cc-pvdz iop(5/13=1,5/36=2,99/5=2) pseudo=read geom=check gue
 ss=(read,tcheck) scf=(maxcycle=1)
 ----------------------------------------------------------------------
 -----
 title
 -----
 Structure from the checkpoint file:  "ANI1ccx_293_conf8_mol2.chk"
 Charge =  0 Multiplicity = 1

                         Standard orientation:
 ---------------------------------------------------------------------
 Center     Atomic      Atomic             Coordinates (Angstroms)
 Number     Number       Type             X           Y           Z
 ---------------------------------------------------------------------
      1          6           0        0.809424   -0.126652    1.168219
      2          6           0       -3.334670    3.176889    0.599690
      3          6           0       -3.085920    1.694719    0.732091
      4          6           0       -3.176790    0.963643   -0.624166
      5          6           0       -1.739799   -2.680261   -0.142922
      6          6           0       -1.725799   -1.142291   -0.086154
      7          6           0       -3.087219   -0.577377   -0.512397
      8          6           0        4.673591    0.373459    0.604571
      9          6           0        3.359211   -0.438938    0.857893
     10          6           0        2.223731    0.399654    1.327479
     11          6           0        0.467053   -0.097563   -0.355575
     12          6           0        4.548470    1.361891   -0.554208
     13          1           0       -2.405430    1.227289   -1.319341
     14          1           0       -3.856099   -1.022171    0.119153
     15          1           0       -3.275189   -0.983087   -1.532751
     16          1           0       -4.102920    1.212979   -1.151621
     17          1           0       -3.819590    1.168079    1.366359
     18          1           0       -0.994612   -4.154120   -1.001071
     19          1           0       -4.357690    3.359289    0.223500
     20          1           0       -3.337200    3.756739    1.531899
     21          1           0       -1.514100    4.146090    0.112958
     22          1           0       -2.354930    3.471709   -1.181101
     23          1           0       -1.538099   -0.857851    0.940281
     24          1           0       -2.099430    1.552479    1.140699
     25          1           0       -0.508696   -0.882793   -1.802631
     26          1           0        5.560330    1.762581   -0.678466
     27          1           0        4.522180    0.989971   -2.600271
     28          1           0        1.378591   -1.750500    2.244119
     29          1           0        0.538658   -2.085060    0.856126
     30          1           0        3.017680    0.737795   -1.739341
     31          1           0        2.170200    1.453170    0.996220
     32          1           0        2.399080    0.557719    2.384429
     33          1           0        0.139092    0.563863    1.697899
     34          1           0        3.538711   -1.175469    1.681349
     35          1           0        5.067550    0.981932    1.470539
     36          1           0        5.472291   -0.409235    0.374209
     37          1           0        3.872520    2.163731   -0.260844
     38          1           0        3.107411   -0.992790   -0.018677
     39          7           0        0.567646   -1.460030    1.706539
     40          7           0        4.036780    0.664531   -1.735351
     41          7           0       -0.674097   -0.581736   -0.877138
     42          7           0       -2.437590    3.871659   -0.268409
     43          8           0       -2.403509   -3.384171    0.543955
     44          8           0        1.262231    0.361127   -1.125971
     45          8           0       -0.940869   -3.189000   -1.133021
 ---------------------------------------------------------------------

 SCF Done:  E(RHF) =  -916.337127267     A.U. after    2 cycles

 The electronic state is 1-A.
 Alpha  occ. eigenvalues --  -21.13673 -21.07221 -21.02909 -15.76900 -15.74872
 Alpha  occ. eigenvalues --  -15.72190 -15.68982 -11.56043 -11.54523 -11.49774
 Alpha  occ. eigenvalues --  -11.48434 -11.44462 -11.43768 -11.43716 -11.42143
 Alpha  occ. eigenvalues --  -11.40606 -11.38150 -11.36665 -11.34969  -1.84644
 Alpha  occ. eigenvalues --   -1.74666  -1.67405  -1.44726  -1.37223  -1.35015
 Alpha  occ. eigenvalues --   -1.30939  -1.21503  -1.18589  -1.11223  -1.06363
 Alpha  occ. eigenvalues --   -1.01288  -0.98307  -0.90635  -0.89650  -0.84397
 Alpha  occ. eigenvalues --   -0.82706  -0.81450  -0.78185  -0.71333  -0.69509
 Alpha  occ. eigenvalues --   -0.68209  -0.67411  -0.65716  -0.65027  -0.63948
 Alpha  occ. eigenvalues --   -0.62679  -0.61818  -0.61216  -0.59831  -0.58081
 Alpha  occ. eigenvalues --   -0.57450  -0.56496  -0.55973  -0.54167  -0.53181
 Alpha  occ. eigenvalues --   -0.52359  -0.51420  -0.50764  -0.49450  -0.48949
 Alpha  occ. eigenvalues --   -0.48095  -0.46652  -0.45970  -0.45007  -0.44222
 Alpha  occ. eigenvalues --   -0.43330  -0.42931  -0.41273  -0.36965  -0.35794
 Alpha  occ. eigenvalues --   -0.35110  -0.33007  -0.31263  -0.29678  -0.28467
 Alpha virt. eigenvalues --    0.03839   0.04120   0.04259   0.04859   0.05034
 Alpha virt. eigenvalues --    0.05146   0.05327   0.05656   0.05839   0.06023
 Alpha virt. eigenvalues --    0.06168   0.06577   0.06960   0.07612   0.07649

 Mulliken charges:
               1
     1  C   -0.135359
     2  C   -2.977057
     3  C   -3.673898
     4  C   -3.534368
     5  C    8.730283
     6  C   -3.437175
     7  C   -3.107721
     8  C   -2.883037
     9  C   -3.632264
    10  C   -2.849811
    11  C    6.619355
    12  C   -2.744640
    13  H    1.821166
    14  H    1.456097
    15  H    1.272947
    16  H    1.466092
    17  H    1.433211
    18  H    0.951483
    19  H    1.500274
    20  H    1.329462
    21  H    0.574564
    22  H    0.719744
    23  H    2.863705
    24  H    2.729048
    25  H    0.957980
    26  H    1.204551
    27  H    0.549615
    28  H    0.753019
    29  H    0.404913
    30  H    1.051663
    31  H    1.562129
    32  H    1.318564
    33  H    1.863113
    34  H    1.117116
    35  H    1.364588
    36  H    1.163506
    37  H    1.689549
    38  H    2.252235
    39  N   -2.906922
    40  N   -2.119016
    41  N   -2.666038
    42  N   -2.374407
    43  O   -3.812810
    44  O   -4.484914
    45  O   -3.380529
 Sum of Mulliken charges =  -0.00000

 Dipole moment (field-independent basis, Debye):
    X=             -0.4737    Y=             -0.3172    Z=             -0.5179  Tot=              0.7703

 Test job not archived.
 1\1\GINC-SE249\SP\RHF\Aug-CC-pVDZ\C12H26N4O3\OHZDE\08-Apr-2025\0\\#t h
 f aug-cc-pvdz iop(5/13=1,5/36=2,99/5=2) pseudo=read geom=check guess=(
 read,tcheck) scf=(maxcycle=1)\\title\\0,1\C,0,0.809423,-0.126652,1.168
 22\C,0,-3.33467,3.17689,0.599691\C,0,-3.08592,1.69472,0.732092\C,0,-3.
 17679,0.963644,-0.624165\C,0,-1.7398,-2.68026,-0.142921\C,0,-1.7258,-1
 .14229,-0.0861531\C,0,-3.08722,-0.577376,-0.512396\C,0,4.67359,0.37345
 8,0.604572\C,0,3.35921,-0.438939,0.857894\C,0,2.22373,0.399654,1.32748
 \C,0,0.467052,-0.0975626,-0.355574\C,0,4.54847,1.36189,-0.554207\H,0,-

 Normal termination of Gaussian 16 at Tue Apr  8 21:51:22 2025.
