 Gaussian 16, Revision C.01,

 ----------------------------------------------------------------------
 #t hf aug-cc-pvdz symm=none int=(grid=ultrafine) guess=(read,tcheck) s
 table=(opt,rrhf)
 ----------------------------------------------------------------------
 -----
 title
 -----
 Symbolic Z-matrix:
 Charge =  0 Multiplicity = 1

 SCF Done:  E(RHF) =  -480.753328435     A.U. after   14 cycles
 Normal termination of Gaussian 16 at Tue Apr  8 21:48:35 2025.
 Gaussian 16:  ES64L-G16RevC.01  3-Jul-2019

 ----------------------------------------------------------------------
 #t hf aug-cc-pvdz iop(5/13=1,5/36=2,99/5=2) pseudo=read geom=check gue
 ss=(read,tcheck) scf=(maxcycle=1)
 ----------------------------------------------------------------------
 -----
 title
 -----
 Structure from the checkpoint file:  "ANI1ccx_558_conf1_mol1.chk"
 Charge =  0 Multiplicity = 1

                         Standard orientation:
 ---------------------------------------------------------------------
 Center     Atomic      Atomic             Coordinates (Angstroms)
 Number     Number       Type             X           Y           Z
 ---------------------------------------------------------------------
      1          6           0        1.235259   -0.657594   -0.120884
      2          6           0       -1.123581   -0.721654    0.113946
      3          1           0       -1.942070    2.153189    0.480207
      4          1           0       -2.032310    1.169249   -0.919485
      5          1           0        0.991591    2.559088   -0.267356
      6          1           0        1.413040    1.814638    1.104170
      7          1           0        0.001749   -2.436681   -0.179297
      8          1           0       -2.404461   -2.079461    0.081991
      9          7           0       -1.383110    1.653969   -0.251257
     10          7           0       -0.720461    0.564751    0.253844
     11          7           0        0.665433    0.564526   -0.177805
     12          7           0        1.429680    1.685168    0.112523
     13          7           0        0.065091   -1.483001    0.022272
     14          7           0       -2.333981   -1.040641    0.056929
     15          8           0        2.405479   -1.064742   -0.046767
 ---------------------------------------------------------------------

 SCF Done:  E(RHF) =  -482.888025164     A.U. after    2 cycles

 The electronic state is 1-A.
 Alpha  occ. eigenvalues --  -21.04360 -15.81109 -15.80421 -15.79671 -15.79633
 Alpha  occ. eigenvalues --  -15.78591 -15.73411 -11.54262 -11.51024  -1.74801
 Alpha  occ. eigenvalues --   -1.66426  -1.47498  -1.44071  -1.30906  -1.20252
 Alpha  occ. eigenvalues --   -1.09367  -0.89209  -0.82434  -0.76590  -0.74907
 Alpha  occ. eigenvalues --   -0.69324  -0.65767  -0.63664  -0.63121  -0.59421
 Alpha  occ. eigenvalues --   -0.52866  -0.50567  -0.47605  -0.43846  -0.42121
 Alpha  occ. eigenvalues --   -0.40440  -0.34145  -0.30647  -0.28657
 Alpha virt. eigenvalues --    0.03442   0.04421   0.05416   0.06120   0.06610
 Alpha virt. eigenvalues --    0.07002   0.10283   0.10574   0.11987   0.12478
 Alpha virt. eigenvalues --    0.13211   0.13674   0.14679   0.15102   0.15321

 Mulliken charges:
               1
     1  C    5.191932
     2  C    4.493375
     3  H    0.685891
     4  H    0.655038
     5  H    0.756902
     6  H    0.620222
     7  H    0.695815
     8  H    0.563847
     9  N   -2.028452
    10  N   -0.556196
    11  N   -0.764617
    12  N   -1.922524
    13  N   -2.249068
    14  N   -3.098167
    15  O   -3.043996
 Sum of Mulliken charges =  -0.00000

 Dipole moment (field-independent basis, Debye):
    X=             -1.6223    Y=              1.2381    Z=              0.5929  Tot=              2.1251

 Test job not archived.
 1\1\GINC-SE453\SP\RHF\Aug-CC-pVDZ\C2H6N6O1\OHZDE\08-Apr-2025\0\\#t hf
 aug-cc-pvdz iop(5/13=1,5/36=2,99/5=2) pseudo=read geom=check guess=(re
 ad,tcheck) scf=(maxcycle=1)\\title\\0,1\C,0,1.23526,-0.657592,-0.12088
 4\C,0,-1.12358,-0.721653,0.113946\H,0,-1.94207,2.15319,0.480207\H,0,-2
 .03231,1.16925,-0.919485\H,0,0.991591,2.55909,-0.267356\H,0,1.41304,1.
 81464,1.10417\H,0,0.00175019,-2.43668,-0.179297\H,0,-2.40446,-2.07946,
 0.0819907\N,0,-1.38311,1.65397,-0.251257\N,0,-0.72046,0.564752,0.25384
 4\N,0,0.665434,0.564528,-0.177805\N,0,1.42968,1.68517,0.112523\N,0,0.0

 Normal termination of Gaussian 16 at Tue Apr  8 21:48:41 2025.
