 Gaussian 16, Revision C.01,

 ----------------------------------------------------------------------
 #t hf aug-cc-pvdz symm=none int=(grid=ultrafine) guess=(read,tcheck) s
 table=(opt,rrhf)
 ----------------------------------------------------------------------
 -----
 title
 -----
 Symbolic Z-matrix:
 Charge =  0 Multiplicity = 1

 SCF Done:  E(RHF) =  -276.571657979     A.U. after   16 cycles
 Normal termination of Gaussian 16 at Tue Apr  8 21:32:34 2025.
 Gaussian 16:  ES64L-G16RevC.01  3-Jul-2019

 ----------------------------------------------------------------------
 #t hf aug-cc-pvdz iop(5/13=1,5/36=2,99/5=2) pseudo=read geom=check gue
 ss=(read,tcheck) scf=(maxcycle=1)
 ----------------------------------------------------------------------
 -----
 title
 -----
 Structure from the checkpoint file:  "ANI1ccx_370_conf88_mol1.chk"
 Charge =  0 Multiplicity = 1

                         Standard orientation:
 ---------------------------------------------------------------------
 Center     Atomic      Atomic             Coordinates (Angstroms)
 Number     Number       Type             X           Y           Z
 ---------------------------------------------------------------------
      1          6           0        1.049300    0.047079    0.010576
      2          1           0        2.128750    0.089168    0.068557
      3          7           0        0.499631   -1.122669   -0.018575
      4          7           0       -0.895091   -0.737149    0.008649
      5          7           0       -1.121590    0.475686    0.007800
      6          8           0        0.274350    1.164660   -0.014642
 ---------------------------------------------------------------------

 SCF Done:  E(RHF) =  -277.742699211     A.U. after    2 cycles

 The electronic state is 1-A.
 Alpha  occ. eigenvalues --  -21.16198 -15.88878 -15.85823 -15.80656 -11.50848
 Alpha  occ. eigenvalues --   -1.89008  -1.55178  -1.35096  -0.93669  -0.86792
 Alpha  occ. eigenvalues --   -0.73424  -0.67193  -0.58075  -0.52597  -0.47019
 Alpha  occ. eigenvalues --   -0.45912  -0.40567  -0.39582
 Alpha virt. eigenvalues --    0.03422   0.09444   0.09478   0.09982   0.12790
 Alpha virt. eigenvalues --    0.13127   0.13691   0.14385   0.15842   0.17176
 Alpha virt. eigenvalues --    0.19031   0.19773   0.20460   0.22229   0.22264

 Mulliken charges:
               1
     1  C    1.559122
     2  H    1.635027
     3  N   -1.807319
     4  N    0.760132
     5  N    0.004560
     6  O   -2.151523
 Sum of Mulliken charges =  -0.00000

 Dipole moment (field-independent basis, Debye):
    X=              2.3365    Y=              1.8720    Z=              0.0369  Tot=              2.9942

 Test job not archived.
 1\1\GINC-SE364\SP\RHF\Aug-CC-pVDZ\C1H1N3O1\OHZDE\08-Apr-2025\0\\#t hf
 aug-cc-pvdz iop(5/13=1,5/36=2,99/5=2) pseudo=read geom=check guess=(re
 ad,tcheck) scf=(maxcycle=1)\\title\\0,1\C,0,1.0493,0.0470776,0.0105764
 \H,0,2.12875,0.0891662,0.0685568\N,0,0.49963,-1.12267,-0.0185748\N,0,-
 0.895092,-0.737148,0.00864872\N,0,-1.12159,0.475687,0.00779993\O,0,0.2
 74351,1.16466,-0.0146415\\Version=ES64L-G16RevC.01\State=1-A\HF=-277.7
 426992\RMSD=8.841e-02\Dipole=0.9192357,0.7365158,0.0145176\Quadrupole=
 1.5493324,-2.0608587,0.5115263,0.83564,0.1298915,-0.0201041\PG=C01 [X(

 Normal termination of Gaussian 16 at Tue Apr  8 21:32:36 2025.
