 Gaussian 16, Revision C.01,

 ----------------------------------------------------------------------
 #t hf aug-cc-pvdz symm=none int=(grid=ultrafine) guess=(read,tcheck) s
 table=(opt,rrhf)
 ----------------------------------------------------------------------
 -----
 title
 -----
 Symbolic Z-matrix:
 Charge =  0 Multiplicity = 1

 SCF Done:  E(RHF) =  -578.776359464     A.U. after   14 cycles
 Normal termination of Gaussian 16 at Tue Apr  8 22:19:03 2025.
 Gaussian 16:  ES64L-G16RevC.01  3-Jul-2019

 ----------------------------------------------------------------------
 #t hf aug-cc-pvdz iop(5/13=1,5/36=2,99/5=2) pseudo=read geom=check gue
 ss=(read,tcheck) scf=(maxcycle=1)
 ----------------------------------------------------------------------
 -----
 title
 -----
 Structure from the checkpoint file:  "ANI1ccx_987_conf8_mol1.chk"
 Charge =  0 Multiplicity = 1

                         Standard orientation:
 ---------------------------------------------------------------------
 Center     Atomic      Atomic             Coordinates (Angstroms)
 Number     Number       Type             X           Y           Z
 ---------------------------------------------------------------------
      1          6           0        2.135919   -0.306274   -0.000445
      2          6           0        0.312851    1.168100    0.070445
      3          6           0       -1.762930    0.271340    1.079220
      4          6           0       -2.087151   -0.594986   -0.190304
      5          1           0       -0.262823   -1.450230   -0.218470
      6          1           0       -1.989131   -0.390238    1.983030
      7          1           0       -2.460580    1.124160    1.072830
      8          1           0       -0.287443    2.015840   -1.766140
      9          1           0        0.197595    0.057829    1.731910
     10          1           0        1.946619   -2.214191    0.481463
     11          1           0        3.709550    0.467595   -0.833357
     12          1           0        3.971169   -1.264331   -0.449300
     13          1           0       -1.398470    2.130900   -0.489242
     14          7           0        3.485489   -0.337202   -0.275631
     15          7           0        1.441649   -1.315221    0.512359
     16          7           0        1.584860    0.911342   -0.197704
     17          7           0       -0.505223    1.852770   -0.765514
     18          7           0       -0.353742    0.732797    1.167980
     19          8           0       -1.107871   -1.410080   -0.684053
     20          8           0       -3.215861   -0.667148   -0.610529
 ---------------------------------------------------------------------

 SCF Done:  E(RHF) =  -581.359300456     A.U. after    2 cycles

 The electronic state is 1-A.
 Alpha  occ. eigenvalues --  -21.08847 -21.04728 -15.80681 -15.77664 -15.76999
 Alpha  occ. eigenvalues --  -15.70487 -15.69253 -11.54076 -11.53050 -11.48787
 Alpha  occ. eigenvalues --  -11.45197  -1.79680  -1.64159  -1.55431  -1.45081
 Alpha  occ. eigenvalues --   -1.33271  -1.26844  -1.21869  -1.06818  -0.91324
 Alpha  occ. eigenvalues --   -0.82515  -0.79610  -0.73830  -0.70467  -0.70207
 Alpha  occ. eigenvalues --   -0.66540  -0.64958  -0.64355  -0.59289  -0.57795
 Alpha  occ. eigenvalues --   -0.56473  -0.54648  -0.50461  -0.49560  -0.45132
 Alpha  occ. eigenvalues --   -0.41250  -0.38422  -0.36127  -0.35571  -0.32217
 Alpha  occ. eigenvalues --   -0.31564  -0.28329
 Alpha virt. eigenvalues --    0.03363   0.04222   0.04958   0.05403   0.05804
 Alpha virt. eigenvalues --    0.06773   0.07372   0.07843   0.09204   0.09467
 Alpha virt. eigenvalues --    0.11056   0.12066   0.12285   0.12715   0.13391

 Mulliken charges:
               1
     1  C    3.992110
     2  C    6.047010
     3  C   -3.056040
     4  C    6.026690
     5  H    1.761081
     6  H    1.408558
     7  H    1.275304
     8  H    0.684247
     9  H    0.505861
    10  H    0.715699
    11  H    0.629878
    12  H    0.577093
    13  H    0.789141
    14  N   -2.741879
    15  N   -2.543232
    16  N   -3.304958
    17  N   -3.325386
    18  N   -2.405712
    19  O   -3.714258
    20  O   -3.321206
 Sum of Mulliken charges =  -0.00000

 Dipole moment (field-independent basis, Debye):
    X=              1.4118    Y=              1.5288    Z=             -0.3360  Tot=              2.1079

 Test job not archived.
 1\1\GINC-SE339\SP\RHF\Aug-CC-pVDZ\C4H9N5O2\OHZDE\08-Apr-2025\0\\#t hf
 aug-cc-pvdz iop(5/13=1,5/36=2,99/5=2) pseudo=read geom=check guess=(re
 ad,tcheck) scf=(maxcycle=1)\\title\\0,1\C,0,2.13592,-0.306273,-0.00044
 476\C,0,0.312851,1.1681,0.0704452\C,0,-1.76293,0.27134,1.07922\C,0,-2.
 08715,-0.594986,-0.190304\H,0,-0.262822,-1.45023,-0.21847\H,0,-1.98913
 ,-0.390238,1.98303\H,0,-2.46058,1.12416,1.07283\H,0,-0.287443,2.01584,
 -1.76614\H,0,0.197595,0.0578288,1.73191\H,0,1.94662,-2.21419,0.481463\
 H,0,3.70955,0.467596,-0.833357\H,0,3.97117,-1.26433,-0.4493\H,0,-1.398

 Normal termination of Gaussian 16 at Tue Apr  8 22:19:15 2025.
