 Gaussian 16, Revision C.01,

 ----------------------------------------------------------------------
 #t hf aug-cc-pvdz symm=none int=(grid=ultrafine) guess=(read,tcheck) s
 table=(opt,rrhf)
 ----------------------------------------------------------------------
 -----
 title
 -----
 Symbolic Z-matrix:
 Charge =  0 Multiplicity = 1

 SCF Done:  E(RHF) =  -256.788654100     A.U. after   15 cycles
 Normal termination of Gaussian 16 at Tue Apr  8 21:35:38 2025.
 Gaussian 16:  ES64L-G16RevC.01  3-Jul-2019

 ----------------------------------------------------------------------
 #t hf aug-cc-pvdz iop(5/13=1,5/36=2,99/5=2) pseudo=read geom=check gue
 ss=(read,tcheck) scf=(maxcycle=1)
 ----------------------------------------------------------------------
 -----
 title
 -----
 Structure from the checkpoint file:  "ANI1ccx_377_conf66_mol1.chk"
 Charge =  0 Multiplicity = 1

                         Standard orientation:
 ---------------------------------------------------------------------
 Center     Atomic      Atomic             Coordinates (Angstroms)
 Number     Number       Type             X           Y           Z
 ---------------------------------------------------------------------
      1          6           0       -1.052640   -0.338763   -0.007743
      2          1           0       -2.043251   -0.681798    0.145872
      3          1           0        1.970869   -0.680752    0.074443
      4          7           0       -0.667979    0.980655    0.011296
      5          7           0        0.628090    0.949560   -0.030635
      6          7           0        1.012400   -0.317937    0.038320
      7          7           0       -0.059906   -1.127259   -0.043819
 ---------------------------------------------------------------------

 SCF Done:  E(RHF) =  -257.921397102     A.U. after    2 cycles

 The electronic state is 1-A.
 Alpha  occ. eigenvalues --  -15.85919 -15.82946 -15.78807 -15.77846 -11.42906
 Alpha  occ. eigenvalues --   -1.76402  -1.38682  -1.29556  -0.93152  -0.87846
 Alpha  occ. eigenvalues --   -0.77132  -0.68866  -0.62782  -0.53173  -0.44002
 Alpha  occ. eigenvalues --   -0.41543  -0.41107  -0.39570
 Alpha virt. eigenvalues --    0.03630   0.04952   0.10180   0.10829   0.11272
 Alpha virt. eigenvalues --    0.12571   0.14147   0.14971   0.16696   0.17378
 Alpha virt. eigenvalues --    0.17604   0.19090   0.19545   0.20331   0.20861

 Mulliken charges:
               1
     1  C    1.230588
     2  H    1.584179
     3  H    0.955519
     4  N   -1.656868
     5  N    0.062774
     6  N   -0.580113
     7  N   -1.596080
 Sum of Mulliken charges =  -0.00000

 Dipole moment (field-independent basis, Debye):
    X=              1.3482    Y=             -1.7830    Z=              0.2399  Tot=              2.2481

 Test job not archived.
 1\1\GINC-SE074\SP\RHF\Aug-CC-pVDZ\C1H2N4\OHZDE\08-Apr-2025\0\\#t hf au
 g-cc-pvdz iop(5/13=1,5/36=2,99/5=2) pseudo=read geom=check guess=(read
 ,tcheck) scf=(maxcycle=1)\\title\\0,1\C,0,-1.05264,-0.338765,-0.007742
 86\H,0,-2.04325,-0.681802,0.145872\H,0,1.97087,-0.68075,0.0744435\N,0,
 -0.667981,0.980653,0.0112965\N,0,0.628088,0.94956,-0.0306353\N,0,1.012
 4,-0.317936,0.0383204\N,0,-0.0599049,-1.12726,-0.0438185\\Version=ES64
 L-G16RevC.01\State=1-A\HF=-257.9213971\RMSD=9.423e-02\Dipole=0.5304055
 ,-0.7014667,0.0943666\Quadrupole=5.1313572,-4.6692864,-0.4620708,-0.54

 Normal termination of Gaussian 16 at Tue Apr  8 21:35:40 2025.
