 Gaussian 16, Revision C.01,

 ----------------------------------------------------------------------
 #t hf aug-cc-pvdz symm=none int=(grid=ultrafine) guess=(read,tcheck) s
 table=(opt,rrhf)
 ----------------------------------------------------------------------
 -----
 title
 -----
 Symbolic Z-matrix:
 Charge =  0 Multiplicity = 1

 SCF Done:  E(RHF) =  -982.107324567     A.U. after   14 cycles
 Normal termination of Gaussian 16 at Tue Apr  8 20:54:40 2025.
 Gaussian 16:  ES64L-G16RevC.01  3-Jul-2019

 ----------------------------------------------------------------------
 #t hf aug-cc-pvdz iop(5/13=1,5/36=2,99/5=2) pseudo=read geom=check gue
 ss=(read,tcheck) scf=(maxcycle=1)
 ----------------------------------------------------------------------
 -----
 title
 -----
 Structure from the checkpoint file:  "ANI1ccx_1743_conf11_mol1.chk"
 Charge =  0 Multiplicity = 1

                         Standard orientation:
 ---------------------------------------------------------------------
 Center     Atomic      Atomic             Coordinates (Angstroms)
 Number     Number       Type             X           Y           Z
 ---------------------------------------------------------------------
      1          6           0        1.196949   -1.773890    0.103542
      2          6           0       -0.074913   -1.034690   -0.325477
      3          6           0        2.418409   -1.503791   -0.798108
      4          6           0        2.861229   -0.054829   -0.927405
      5          6           0        3.306460    0.533974    0.386575
      6          6           0       -1.460220    0.977774   -0.182159
      7          6           0       -1.105030    2.428840   -0.370521
      8          6           0       -2.672700    0.732138    0.735989
      9          6           0       -3.204021   -0.725829    0.604530
     10          1           0        0.430772    3.570660   -0.414621
     11          1           0       -4.327971   -1.653229   -0.656694
     12          1           0       -2.325380    0.857084    1.812920
     13          1           0       -3.454860    1.398771    0.410463
     14          1           0       -1.740310    0.682551   -1.201230
     15          1           0        0.371618    0.635204    0.874926
     16          1           0        4.726350    1.180249    1.353540
     17          1           0        3.722099    0.038996   -1.619830
     18          1           0        2.092650    0.584419   -1.453360
     19          1           0        2.186699   -1.957851   -1.790050
     20          1           0        3.163529   -2.133411   -0.291058
     21          1           0        1.355599   -1.533181    1.202890
     22          1           0        0.163416   -3.445470    0.655546
     23          1           0        0.385098   -3.318630   -0.944883
     24          7           0        0.841767   -3.202440   -0.074370
     25          7           0       -0.242964    0.191910    0.161140
     26          8           0       -0.945591   -1.531850   -1.049990
     27          8           0        2.531340    0.871228    1.237140
     28          8           0        4.639350    0.700967    0.550203
     29          8           0       -1.896820    3.327890   -0.586710
     30          8           0       -2.898251   -1.654939    1.311060
     31          8           0       -3.998121   -0.773904   -0.447151
     32          8           0        0.250855    2.646780   -0.253020
 ---------------------------------------------------------------------

 SCF Done:  E(RHF) =  -986.359436379     A.U. after    2 cycles

 The electronic state is 1-A.
 Alpha  occ. eigenvalues --  -21.14660 -21.13874 -21.12598 -21.07306 -21.07105
 Alpha  occ. eigenvalues --  -21.04890 -21.01638 -15.76360 -15.72087 -11.57192
 Alpha  occ. eigenvalues --  -11.55564 -11.53643 -11.53130 -11.49368 -11.47697
 Alpha  occ. eigenvalues --  -11.45112 -11.42308 -11.40628  -1.85789  -1.84212
 Alpha  occ. eigenvalues --   -1.82655  -1.70909  -1.67873  -1.66887  -1.65719
 Alpha  occ. eigenvalues --   -1.40907  -1.34981  -1.19970  -1.17926  -1.04449
 Alpha  occ. eigenvalues --   -1.01270  -0.91894  -0.82993  -0.81717  -0.81106
 Alpha  occ. eigenvalues --   -0.78344  -0.71861  -0.69443  -0.67219  -0.66107
 Alpha  occ. eigenvalues --   -0.64294  -0.63424  -0.63033  -0.61784  -0.59919
 Alpha  occ. eigenvalues --   -0.59861  -0.59082  -0.58075  -0.55418  -0.55027
 Alpha  occ. eigenvalues --   -0.53839  -0.52538  -0.51032  -0.50042  -0.48228
 Alpha  occ. eigenvalues --   -0.47670  -0.46677  -0.46095  -0.44381  -0.44226
 Alpha  occ. eigenvalues --   -0.35965  -0.35547  -0.34643  -0.34246  -0.32586
 Alpha  occ. eigenvalues --   -0.31626  -0.30062  -0.29087  -0.28403
 Alpha virt. eigenvalues --    0.03461   0.04363   0.04589   0.05223   0.05384
 Alpha virt. eigenvalues --    0.05865   0.06163   0.06504   0.06908   0.07204
 Alpha virt. eigenvalues --    0.07575   0.07886   0.08923   0.09251   0.10097

 Mulliken charges:
               1
     1  C   -1.340260
     2  C    7.900082
     3  C   -3.412969
     4  C   -4.425202
     5  C    6.814094
     6  C   -3.239785
     7  C    7.098119
     8  C   -5.100159
     9  C    7.488470
    10  H    1.132188
    11  H    0.962325
    12  H    1.362004
    13  H    1.577465
    14  H    2.118724
    15  H    0.955343
    16  H    0.799727
    17  H    1.333909
    18  H    1.557964
    19  H    1.293298
    20  H    1.401641
    21  H    1.969676
    22  H    0.528695
    23  H    0.662064
    24  N   -2.800829
    25  N   -2.597521
    26  O   -3.829824
    27  O   -3.120476
    28  O   -3.325636
    29  O   -3.513933
    30  O   -3.532692
    31  O   -3.466184
    32  O   -3.250319
 Sum of Mulliken charges =  -0.00000

 Dipole moment (field-independent basis, Debye):
    X=              2.1773    Y=              1.6366    Z=             -0.4007  Tot=              2.7531

 Test job not archived.
 1\1\GINC-SE086\SP\RHF\Aug-CC-pVDZ\C9H14N2O7\OHZDE\08-Apr-2025\0\\#t hf
  aug-cc-pvdz iop(5/13=1,5/36=2,99/5=2) pseudo=read geom=check guess=(r
 ead,tcheck) scf=(maxcycle=1)\\title\\0,1\C,0,1.19695,-1.77389,0.103542
 \C,0,-0.0749119,-1.03469,-0.325477\C,0,2.41841,-1.50379,-0.798108\C,0,
 2.86123,-0.0548279,-0.927405\C,0,3.30646,0.533975,0.386575\C,0,-1.4602
 2,0.977774,-0.182159\C,0,-1.10503,2.42884,-0.370521\C,0,-2.6727,0.7321
 37,0.735989\C,0,-3.20402,-0.72583,0.60453\H,0,0.430772,3.57066,-0.4146
 21\H,0,-4.32797,-1.65323,-0.656694\H,0,-2.32538,0.857083,1.81292\H,0,-

 Normal termination of Gaussian 16 at Tue Apr  8 20:55:31 2025.
