 Gaussian 16, Revision C.01,

 ----------------------------------------------------------------------
 #t hf aug-cc-pvdz symm=none int=(grid=ultrafine) guess=(read,tcheck) s
 table=(opt,rrhf)
 ----------------------------------------------------------------------
 -----
 title
 -----
 Symbolic Z-matrix:
 Charge =  0 Multiplicity = 1

 SCF Done:  E(RHF) =  -752.385077009     A.U. after   15 cycles
 Normal termination of Gaussian 16 at Tue Apr  8 20:13:01 2025.
 Gaussian 16:  ES64L-G16RevC.01  3-Jul-2019

 ----------------------------------------------------------------------
 #t hf aug-cc-pvdz iop(5/13=1,5/36=2,99/5=2) pseudo=read geom=check gue
 ss=(read,tcheck) scf=(maxcycle=1)
 ----------------------------------------------------------------------
 -----
 title
 -----
 Structure from the checkpoint file:  "ANI1ccx_1572_conf10_mol1.chk"
 Charge =  0 Multiplicity = 1

                         Standard orientation:
 ---------------------------------------------------------------------
 Center     Atomic      Atomic             Coordinates (Angstroms)
 Number     Number       Type             X           Y           Z
 ---------------------------------------------------------------------
      1          6           0        2.198279   -2.376510   -0.235838
      2          6           0        1.662400   -0.984063   -0.548331
      3          6           0        0.090934    0.822117   -0.196528
      4          6           0        1.233291    1.810600    0.197201
      5          6           0       -1.173089    1.308411    0.440988
      6          6           0       -2.292880    0.369471    0.321878
      7          6           0       -3.478790    0.614871   -0.374433
      8          6           0       -3.281340   -1.491098    0.130823
      9          1           0        2.445971    3.115400   -0.515790
     10          1           0       -5.020560   -0.854051   -0.766886
     11          1           0       -3.474591   -2.615978    0.107473
     12          1           0       -3.736089    1.589212   -0.818007
     13          1           0       -1.403299    2.375501    0.179837
     14          1           0       -0.831671    1.432701    1.456510
     15          1           0       -0.035783    0.654729   -1.286840
     16          1           0        0.024743   -1.138560    0.630764
     17          1           0        2.427489   -2.865910   -1.155460
     18          1           0        1.433349   -3.024420    0.408254
     19          1           0        3.304630   -2.253301    1.553760
     20          1           0        3.945590   -1.311021    0.247433
     21          7           0        3.437670   -2.123351    0.576062
     22          7           0        0.659870   -0.444005    0.265167
     23          7           0       -2.177290   -0.973434    0.526273
     24          7           0       -4.115060   -0.660837   -0.362806
     25          8           0        2.352710   -0.195793   -1.182350
     26          8           0        1.709771    1.899080    1.322020
     27          8           0        1.753901    2.529750   -0.825728
 ---------------------------------------------------------------------

 SCF Done:  E(RHF) =  -755.758915210     A.U. after    2 cycles

 The electronic state is 1-A.
 Alpha  occ. eigenvalues --  -21.10201 -21.03389 -21.01512 -15.82390 -15.74231
 Alpha  occ. eigenvalues --  -15.72361 -15.72270 -11.52910 -11.50843 -11.49164
 Alpha  occ. eigenvalues --  -11.46478 -11.44903 -11.43901 -11.42043 -11.39689
 Alpha  occ. eigenvalues --   -1.80375  -1.70594  -1.62914  -1.60203  -1.39659
 Alpha  occ. eigenvalues --   -1.30829  -1.29584  -1.18909  -1.08555  -1.00256
 Alpha  occ. eigenvalues --   -0.95000  -0.86727  -0.80983  -0.79861  -0.76962
 Alpha  occ. eigenvalues --   -0.75991  -0.69687  -0.69081  -0.64730  -0.62873
 Alpha  occ. eigenvalues --   -0.61686  -0.59319  -0.59024  -0.58255  -0.56196
 Alpha  occ. eigenvalues --   -0.54682  -0.53335  -0.52724  -0.49934  -0.49018
 Alpha  occ. eigenvalues --   -0.46339  -0.44996  -0.42591  -0.40273  -0.37972
 Alpha  occ. eigenvalues --   -0.34047  -0.32326  -0.31634  -0.30501  -0.28125
 Alpha  occ. eigenvalues --   -0.26883
 Alpha virt. eigenvalues --    0.02580   0.03962   0.04256   0.05707   0.05863
 Alpha virt. eigenvalues --    0.06000   0.06258   0.06616   0.07483   0.08078
 Alpha virt. eigenvalues --    0.08464   0.09147   0.09852   0.10134   0.10661

 Mulliken charges:
               1
     1  C   -3.871338
     2  C    5.766616
     3  C   -1.958767
     4  C    7.643512
     5  C   -3.775225
     6  C    4.250370
     7  C   -2.357253
     8  C    1.273635
     9  H    0.832803
    10  H    0.849781
    11  H    1.680510
    12  H    1.210618
    13  H    1.443324
    14  H    1.490544
    15  H    2.126294
    16  H    0.940460
    17  H    1.505113
    18  H    1.471558
    19  H    0.623738
    20  H    0.653736
    21  N   -1.971803
    22  N   -2.806172
    23  N   -3.727046
    24  N   -3.176781
    25  O   -3.264500
    26  O   -3.378749
    27  O   -3.474979
 Sum of Mulliken charges =  -0.00000

 Dipole moment (field-independent basis, Debye):
    X=             -5.7039    Y=             -0.6933    Z=             -1.3812  Tot=              5.9096

 Test job not archived.
 1\1\GINC-SE462\SP\RHF\Aug-CC-pVDZ\C8H12N4O3\OHZDE\08-Apr-2025\0\\#t hf
  aug-cc-pvdz iop(5/13=1,5/36=2,99/5=2) pseudo=read geom=check guess=(r
 ead,tcheck) scf=(maxcycle=1)\\title\\0,1\C,0,2.19828,-2.37651,-0.23583
 8\C,0,1.6624,-0.984063,-0.548331\C,0,0.0909337,0.822117,-0.196528\C,0,
 1.23329,1.8106,0.197201\C,0,-1.17309,1.30841,0.440988\C,0,-2.29288,0.3
 6947,0.321878\C,0,-3.47879,0.614869,-0.374433\C,0,-3.28134,-1.4911,0.1
 30823\H,0,2.44597,3.1154,-0.51579\H,0,-5.02056,-0.854053,-0.766886\H,0
 ,-3.47459,-2.61598,0.107473\H,0,-3.73609,1.58921,-0.818007\H,0,-1.4033

 Normal termination of Gaussian 16 at Tue Apr  8 20:13:29 2025.
