 Gaussian 16, Revision C.01,

 ----------------------------------------------------------------------
 #t hf aug-cc-pvdz symm=none int=(grid=ultrafine) guess=(read,tcheck) s
 table=(opt,rrhf)
 ----------------------------------------------------------------------
 -----
 title
 -----
 Symbolic Z-matrix:
 Charge =  0 Multiplicity = 1

 SCF Done:  E(RHF) =  -555.314519233     A.U. after   17 cycles
 Normal termination of Gaussian 16 at Tue Apr  8 22:09:19 2025.
 Gaussian 16:  ES64L-G16RevC.01  3-Jul-2019

 ----------------------------------------------------------------------
 #t hf aug-cc-pvdz iop(5/13=1,5/36=2,99/5=2) pseudo=read geom=check gue
 ss=(read,tcheck) scf=(maxcycle=1)
 ----------------------------------------------------------------------
 -----
 title
 -----
 Structure from the checkpoint file:  "ANI1ccx_886_conf8_mol1.chk"
 Charge =  0 Multiplicity = 1

                         Standard orientation:
 ---------------------------------------------------------------------
 Center     Atomic      Atomic             Coordinates (Angstroms)
 Number     Number       Type             X           Y           Z
 ---------------------------------------------------------------------
      1          6           0        1.302060    0.753874    0.079605
      2          6           0       -0.953629    0.709709    0.042413
      3          6           0       -0.965102   -0.718189   -0.000429
      4          6           0        1.329680   -0.699431    0.031366
      5          1           0        2.475049    2.336869   -0.402887
      6          1           0        3.276670    0.801916   -0.395402
      7          1           0        2.381250   -2.354561   -0.206977
      8          1           0        3.044680   -1.249111    0.850153
      9          7           0        2.528500    1.389649   -0.024365
     10          7           0        0.181761    1.428449   -0.019195
     11          7           0       -2.195460    1.123069    0.098262
     12          7           0       -2.183050   -1.171051   -0.102216
     13          7           0        0.210988   -1.390031    0.017357
     14          7           0        2.579250   -1.352441   -0.043265
     15          8           0       -2.913700   -0.000549   -0.031083
 ---------------------------------------------------------------------

 SCF Done:  E(RHF) =  -557.770986078     A.U. after    2 cycles

 The electronic state is 1-A.
 Alpha  occ. eigenvalues --  -21.14456 -15.80812 -15.80730 -15.80252 -15.80073
 Alpha  occ. eigenvalues --  -15.78191 -15.76886 -11.57206 -11.49913 -11.48450
 Alpha  occ. eigenvalues --  -11.43219  -1.97005  -1.57273  -1.42956  -1.39655
 Alpha  occ. eigenvalues --   -1.35279  -1.25797  -1.21804  -0.99974  -0.89480
 Alpha  occ. eigenvalues --   -0.89131  -0.78052  -0.71645  -0.70112  -0.67806
 Alpha  occ. eigenvalues --   -0.67345  -0.66080  -0.61099  -0.56964  -0.53324
 Alpha  occ. eigenvalues --   -0.52226  -0.48900  -0.45680  -0.44660  -0.43640
 Alpha  occ. eigenvalues --   -0.41930  -0.35804  -0.34308  -0.30359
 Alpha virt. eigenvalues --    0.02705   0.04123   0.05257   0.05976   0.06731
 Alpha virt. eigenvalues --    0.08160   0.09341   0.10186   0.10282   0.11979
 Alpha virt. eigenvalues --    0.12315   0.12886   0.13194   0.13546   0.14865

 Mulliken charges:
               1
     1  C    4.081917
     2  C    4.181082
     3  C    3.899814
     4  C    4.430589
     5  H    0.669801
     6  H    0.638659
     7  H    0.735982
     8  H    0.486538
     9  N   -3.254906
    10  N   -3.428452
    11  N   -1.321751
    12  N   -1.543530
    13  N   -3.764853
    14  N   -3.388788
    15  O   -2.422101
 Sum of Mulliken charges =  -0.00000

 Dipole moment (field-independent basis, Debye):
    X=              4.8829    Y=             -0.3920    Z=             -0.0057  Tot=              4.8987

 Test job not archived.
 1\1\GINC-SE252\SP\RHF\Aug-CC-pVDZ\C4H4N6O1\OHZDE\08-Apr-2025\0\\#t hf
 aug-cc-pvdz iop(5/13=1,5/36=2,99/5=2) pseudo=read geom=check guess=(re
 ad,tcheck) scf=(maxcycle=1)\\title\\0,1\C,0,1.30206,0.753875,0.0796046
 \C,0,-0.953629,0.70971,0.0424128\C,0,-0.965102,-0.718188,-0.00042852\C
 ,0,1.32968,-0.69943,0.0313664\H,0,2.47505,2.33687,-0.402887\H,0,3.2766
 7,0.801917,-0.395402\H,0,2.38125,-2.35456,-0.206977\H,0,3.04468,-1.249
 11,0.850153\N,0,2.5285,1.38965,-0.0243649\N,0,0.181761,1.42845,-0.0191
 953\N,0,-2.19546,1.12307,0.0982623\N,0,-2.18305,-1.17105,-0.102216\N,0

 Normal termination of Gaussian 16 at Tue Apr  8 22:09:26 2025.
