 Gaussian 16, Revision C.01,

 ----------------------------------------------------------------------
 #t hf aug-cc-pvdz symm=none int=(grid=ultrafine) guess=(read,tcheck) s
 table=(opt,rrhf)
 ----------------------------------------------------------------------
 -----
 title
 -----
 Symbolic Z-matrix:
 Charge =  0 Multiplicity = 1

 SCF Done:  E(RHF) =  -221.202808706     A.U. after   14 cycles
 Normal termination of Gaussian 16 at Tue Apr  8 21:14:23 2025.
 Gaussian 16:  ES64L-G16RevC.01  3-Jul-2019

 ----------------------------------------------------------------------
 #t hf aug-cc-pvdz iop(5/13=1,5/36=2,99/5=2) pseudo=read geom=check gue
 ss=(read,tcheck) scf=(maxcycle=1)
 ----------------------------------------------------------------------
 -----
 title
 -----
 Structure from the checkpoint file:  "ANI1ccx_1899_conf12_mol2.chk"
 Charge =  0 Multiplicity = 1

                         Standard orientation:
 ---------------------------------------------------------------------
 Center     Atomic      Atomic             Coordinates (Angstroms)
 Number     Number       Type             X           Y           Z
 ---------------------------------------------------------------------
      1          1           0       -1.937131    1.440790   -0.194501
      2          1           0       -0.630685    0.537465   -0.036573
      3          1           0       -1.736091   -1.176270    0.645489
      4          1           0       -2.982281   -0.825994   -0.338641
      5          1           0        2.727059    0.540999    1.073960
      6          1           0        3.045059   -1.035720   -0.205917
      7          7           0       -1.551861    0.514048   -0.440329
      8          7           0       -2.360691   -0.416996    0.362202
      9          7           0        1.962329    0.458729    0.370006
     10          7           0        2.166519   -0.481675   -0.426710
 ---------------------------------------------------------------------

 SCF Done:  E(RHF) =  -222.208236726     A.U. after    2 cycles

 The electronic state is 1-A.
 Alpha  occ. eigenvalues --  -15.82794 -15.82218 -15.73613 -15.72906  -1.51098
 Alpha  occ. eigenvalues --   -1.39953  -1.05659  -0.97126  -0.73743  -0.67107
 Alpha  occ. eigenvalues --   -0.56865  -0.54128  -0.53303  -0.50373  -0.45575
 Alpha  occ. eigenvalues --   -0.38618  -0.30038
 Alpha virt. eigenvalues --    0.03084   0.04835   0.05663   0.06573   0.07644
 Alpha virt. eigenvalues --    0.10061   0.10494   0.15159   0.15645   0.16792
 Alpha virt. eigenvalues --    0.17087   0.18399   0.19287   0.20034   0.20608

 Mulliken charges:
               1
     1  H    0.660256
     2  H    0.778196
     3  H    0.616353
     4  H    0.700031
     5  H    0.735942
     6  H    0.694955
     7  N   -1.405282
     8  N   -1.356938
     9  N   -0.682816
    10  N   -0.740696
 Sum of Mulliken charges =  -0.00000

 Dipole moment (field-independent basis, Debye):
    X=              3.1308    Y=             -0.8499    Z=              1.3828  Tot=              3.5266

 Test job not archived.
 1\1\GINC-SE184\SP\RHF\Aug-CC-pVDZ\H6N4\OHZDE\08-Apr-2025\0\\#t hf aug-
 cc-pvdz iop(5/13=1,5/36=2,99/5=2) pseudo=read geom=check guess=(read,t
 check) scf=(maxcycle=1)\\title\\0,1\H,0,-1.93713,1.44079,-0.194501\H,0
 ,-0.630684,0.537465,-0.0365732\H,0,-1.73609,-1.17627,0.645489\H,0,-2.9
 8228,-0.825994,-0.338641\H,0,2.72706,0.540999,1.07396\H,0,3.04506,-1.0
 3572,-0.205917\N,0,-1.55186,0.514048,-0.440329\N,0,-2.36069,-0.416996,
 0.362202\N,0,1.96233,0.458729,0.370006\N,0,2.16652,-0.481675,-0.42671\
 \Version=ES64L-G16RevC.01\State=1-A\HF=-222.2082367\RMSD=5.237e-02\Dip

 Normal termination of Gaussian 16 at Tue Apr  8 21:14:26 2025.
