 Gaussian 16, Revision C.01,

 ----------------------------------------------------------------------
 #t hf aug-cc-pvdz symm=none int=(grid=ultrafine) guess=(read,tcheck) s
 table=(opt,rrhf)
 ----------------------------------------------------------------------
 -----
 title
 -----
 Symbolic Z-matrix:
 Charge =  0 Multiplicity = 1

 SCF Done:  E(RHF) =  -441.370127844     A.U. after   17 cycles
 Normal termination of Gaussian 16 at Tue Apr  8 21:51:06 2025.
 Gaussian 16:  ES64L-G16RevC.01  3-Jul-2019

 ----------------------------------------------------------------------
 #t hf aug-cc-pvdz iop(5/13=1,5/36=2,99/5=2) pseudo=read geom=check gue
 ss=(read,tcheck) scf=(maxcycle=1)
 ----------------------------------------------------------------------
 -----
 title
 -----
 Structure from the checkpoint file:  "ANI1ccx_662_conf1_mol1.chk"
 Charge =  0 Multiplicity = 1

                         Standard orientation:
 ---------------------------------------------------------------------
 Center     Atomic      Atomic             Coordinates (Angstroms)
 Number     Number       Type             X           Y           Z
 ---------------------------------------------------------------------
      1          6           0       -2.194569   -0.182706   -0.041400
      2          6           0       -0.200127   -0.645304    0.181293
      3          6           0       -0.195215    0.725782    0.166980
      4          1           0       -1.932200    1.875619   -0.306000
      5          1           0       -3.220829   -0.159713   -0.265821
      6          7           0       -1.529189    0.996860    0.032510
      7          7           0       -1.346359   -1.195440   -0.048501
      8          7           0        0.927693   -1.394650   -0.041534
      9          7           0        2.020611   -0.618311   -0.022530
     10          7           0        1.976041    0.660386   -0.061044
     11          7           0        0.907275    1.393650   -0.040247
 ---------------------------------------------------------------------

 SCF Done:  E(RHF) =  -443.324715959     A.U. after    2 cycles

 The electronic state is 1-A.
 Alpha  occ. eigenvalues --  -15.84985 -15.81932 -15.81334 -15.80820 -15.80587
 Alpha  occ. eigenvalues --  -15.76515 -11.51637 -11.50367 -11.45089  -1.72829
 Alpha  occ. eigenvalues --   -1.61163  -1.46257  -1.33636  -1.27232  -1.04749
 Alpha  occ. eigenvalues --   -0.97243  -0.91056  -0.80974  -0.71552  -0.70802
 Alpha  occ. eigenvalues --   -0.69514  -0.65015  -0.60187  -0.55880  -0.52188
 Alpha  occ. eigenvalues --   -0.50109  -0.45351  -0.40030  -0.37424  -0.36069
 Alpha  occ. eigenvalues --   -0.35602
 Alpha virt. eigenvalues --    0.01891   0.04131   0.05343   0.07139   0.08703
 Alpha virt. eigenvalues --    0.09083   0.10083   0.11060   0.11570   0.12179
 Alpha virt. eigenvalues --    0.12653   0.13013   0.13781   0.14043   0.15976

 Mulliken charges:
               1
     1  C    0.980020
     2  C    4.199610
     3  C    3.614574
     4  H    0.797103
     5  H    1.576121
     6  N   -3.062047
     7  N   -3.431289
     8  N   -2.047696
     9  N   -0.156614
    10  N   -0.138173
    11  N   -2.331608
 Sum of Mulliken charges =  -0.00000

 Dipole moment (field-independent basis, Debye):
    X=             -6.0330    Y=              2.9730    Z=             -0.1663  Tot=              6.7278

 Test job not archived.
 1\1\GINC-SE368\SP\RHF\Aug-CC-pVDZ\C3H2N6\OHZDE\08-Apr-2025\0\\#t hf au
 g-cc-pvdz iop(5/13=1,5/36=2,99/5=2) pseudo=read geom=check guess=(read
 ,tcheck) scf=(maxcycle=1)\\title\\0,1\C,0,-2.19457,-0.182705,-0.041399
 8\C,0,-0.200128,-0.645304,0.181293\C,0,-0.195216,0.725782,0.16698\H,0,
 -1.9322,1.87562,-0.306\H,0,-3.22083,-0.159712,-0.265821\N,0,-1.52919,0
 .99686,0.0325102\N,0,-1.34636,-1.19544,-0.048501\N,0,0.927692,-1.39465
 ,-0.0415339\N,0,2.02061,-0.618311,-0.0225304\N,0,1.97604,0.660386,-0.0
 610437\N,0,0.907275,1.39365,-0.0402467\\Version=ES64L-G16RevC.01\State

 Normal termination of Gaussian 16 at Tue Apr  8 21:51:11 2025.
