 Gaussian 16, Revision C.01,

 ----------------------------------------------------------------------
 #t hf aug-cc-pvdz symm=none int=(grid=ultrafine) guess=(read,tcheck) s
 table=(opt,rrhf)
 ----------------------------------------------------------------------
 -----
 title
 -----
 Symbolic Z-matrix:
 Charge =  0 Multiplicity = 1

 SCF Done:  E(RHF) =  -276.593332781     A.U. after   15 cycles
 Normal termination of Gaussian 16 at Tue Apr  8 21:30:31 2025.
 Gaussian 16:  ES64L-G16RevC.01  3-Jul-2019

 ----------------------------------------------------------------------
 #t hf aug-cc-pvdz iop(5/13=1,5/36=2,99/5=2) pseudo=read geom=check gue
 ss=(read,tcheck) scf=(maxcycle=1)
 ----------------------------------------------------------------------
 -----
 title
 -----
 Structure from the checkpoint file:  "ANI1ccx_370_conf43_mol1.chk"
 Charge =  0 Multiplicity = 1

                         Standard orientation:
 ---------------------------------------------------------------------
 Center     Atomic      Atomic             Coordinates (Angstroms)
 Number     Number       Type             X           Y           Z
 ---------------------------------------------------------------------
      1          6           0       -1.022940    0.216952    0.030245
      2          1           0       -2.070509    0.346562    0.003046
      3          7           0       -0.151360    1.129161   -0.032680
      4          7           0        1.049041    0.497741    0.027263
      5          7           0        0.844199   -0.734698   -0.012336
      6          8           0       -0.498127   -0.986712   -0.007531
 ---------------------------------------------------------------------

 SCF Done:  E(RHF) =  -277.760178500     A.U. after    2 cycles

 The electronic state is 1-A.
 Alpha  occ. eigenvalues --  -21.18890 -15.85634 -15.83856 -15.78624 -11.49767
 Alpha  occ. eigenvalues --   -2.01752  -1.56977  -1.34559  -0.93421  -0.90287
 Alpha  occ. eigenvalues --   -0.77315  -0.71415  -0.59880  -0.50051  -0.46023
 Alpha  occ. eigenvalues --   -0.44374  -0.43090  -0.42228
 Alpha virt. eigenvalues --    0.03178   0.09009   0.09386   0.09931   0.13281
 Alpha virt. eigenvalues --    0.13750   0.14354   0.14570   0.16680   0.17050
 Alpha virt. eigenvalues --    0.18973   0.19663   0.20730   0.22751   0.24943

 Mulliken charges:
               1
     1  C    1.535478
     2  H    1.592785
     3  N   -1.842698
     4  N    0.729095
     5  N    0.562066
     6  O   -2.576725
 Sum of Mulliken charges =  -0.00000

 Dipole moment (field-independent basis, Debye):
    X=             -2.9193    Y=             -1.0848    Z=              0.0150  Tot=              3.1144

 Test job not archived.
 1\1\GINC-SE365\SP\RHF\Aug-CC-pVDZ\C1H1N3O1\OHZDE\08-Apr-2025\0\\#t hf
 aug-cc-pvdz iop(5/13=1,5/36=2,99/5=2) pseudo=read geom=check guess=(re
 ad,tcheck) scf=(maxcycle=1)\\title\\0,1\C,0,-1.02294,0.216948,0.030245
 4\H,0,-2.07051,0.346555,0.00304627\N,0,-0.151364,1.12916,-0.0326802\N,
 0,1.04904,0.497745,0.0272634\N,0,0.844202,-0.734695,-0.0123359\O,0,-0.
 498123,-0.986714,-0.00753123\\Version=ES64L-G16RevC.01\State=1-A\HF=-2
 77.7601785\RMSD=1.020e-01\Dipole=-1.1485256,-0.4268159,0.0058832\Quadr
 upole=1.7326553,-2.6069416,0.8742863,0.1696187,-0.0409762,0.0318961\PG

 Normal termination of Gaussian 16 at Tue Apr  8 21:30:33 2025.
