 Gaussian 16, Revision C.01,

 ----------------------------------------------------------------------
 #t hf aug-cc-pvdz symm=none int=(grid=ultrafine) guess=(read,tcheck) s
 table=(opt,rrhf)
 ----------------------------------------------------------------------
 -----
 title
 -----
 Symbolic Z-matrix:
 Charge =  0 Multiplicity = 1

 SCF Done:  E(RHF) =  -752.398365234     A.U. after   14 cycles
 Normal termination of Gaussian 16 at Tue Apr  8 20:14:32 2025.
 Gaussian 16:  ES64L-G16RevC.01  3-Jul-2019

 ----------------------------------------------------------------------
 #t hf aug-cc-pvdz iop(5/13=1,5/36=2,99/5=2) pseudo=read geom=check gue
 ss=(read,tcheck) scf=(maxcycle=1)
 ----------------------------------------------------------------------
 -----
 title
 -----
 Structure from the checkpoint file:  "ANI1ccx_1572_conf6_mol1.chk"
 Charge =  0 Multiplicity = 1

                         Standard orientation:
 ---------------------------------------------------------------------
 Center     Atomic      Atomic             Coordinates (Angstroms)
 Number     Number       Type             X           Y           Z
 ---------------------------------------------------------------------
      1          6           0        1.727232   -2.117627   -0.703894
      2          6           0        2.615441   -1.077126   -0.130149
      3          6           0        0.669198    0.647549   -0.012565
      4          6           0        0.738306    2.181472   -0.089729
      5          6           0       -0.319953    0.306254    1.104470
      6          6           0       -1.636430   -0.062210    0.558098
      7          6           0       -2.460109   -1.078922    0.973116
      8          6           0       -3.322680   -0.086585   -0.784947
      9          1           0       -1.146873    2.188889   -0.588272
     10          1           0       -4.225458   -1.754694    0.089406
     11          1           0       -4.001410   -0.005309   -1.585820
     12          1           0       -2.345288   -1.767112    1.827510
     13          1           0       -0.364459    1.127210    1.786120
     14          1           0        0.046843   -0.465325    1.810670
     15          1           0        0.371074    0.319403   -0.984991
     16          1           0        2.648659    0.799168    0.615739
     17          1           0        2.050383   -3.148717   -0.289095
     18          1           0        1.769522   -2.058237   -1.753220
     19          1           0        0.202465   -2.329569    0.643138
     20          1           0       -0.140289   -2.735459   -0.955817
     21          7           0        0.332727   -2.022949   -0.375990
     22          7           0        2.002419    0.099447    0.230356
     23          7           0       -2.290371    0.561367   -0.544460
     24          7           0       -3.521639   -1.082543    0.120701
     25          8           0        3.788471   -1.252785    0.113199
     26          8           0        1.734766    2.842543    0.233415
     27          8           0       -0.347381    2.743450   -0.611121
 ---------------------------------------------------------------------

 SCF Done:  E(RHF) =  -755.781657440     A.U. after    2 cycles

 The electronic state is 1-A.
 Alpha  occ. eigenvalues --  -21.10789 -21.04001 -21.01678 -15.81921 -15.74659
 Alpha  occ. eigenvalues --  -15.74465 -15.74363 -11.54354 -11.52106 -11.51058
 Alpha  occ. eigenvalues --  -11.48269 -11.46054 -11.44272 -11.41605 -11.40548
 Alpha  occ. eigenvalues --   -1.81340  -1.70341  -1.63725  -1.60287  -1.41067
 Alpha  occ. eigenvalues --   -1.34554  -1.30529  -1.20075  -1.09515  -1.01998
 Alpha  occ. eigenvalues --   -0.97748  -0.87916  -0.82058  -0.80401  -0.79943
 Alpha  occ. eigenvalues --   -0.77864  -0.71250  -0.70695  -0.64810  -0.63651
 Alpha  occ. eigenvalues --   -0.62907  -0.61847  -0.59851  -0.59224  -0.57589
 Alpha  occ. eigenvalues --   -0.55915  -0.55196  -0.53459  -0.50697  -0.50187
 Alpha  occ. eigenvalues --   -0.47793  -0.45713  -0.43120  -0.40350  -0.39687
 Alpha  occ. eigenvalues --   -0.38061  -0.33191  -0.32143  -0.29481  -0.28464
 Alpha  occ. eigenvalues --   -0.27751
 Alpha virt. eigenvalues --    0.02101   0.03262   0.03746   0.04006   0.04789
 Alpha virt. eigenvalues --    0.05879   0.06455   0.06909   0.07449   0.07862
 Alpha virt. eigenvalues --    0.08234   0.09107   0.09516   0.10544   0.10987

 Mulliken charges:
               1
     1  C   -3.072433
     2  C    5.327389
     3  C   -1.998251
     4  C    6.952578
     5  C   -2.734760
     6  C    4.900231
     7  C   -2.751567
     8  C    0.625295
     9  H    1.414743
    10  H    0.933238
    11  H    1.867704
    12  H    1.271265
    13  H    1.323735
    14  H    1.593048
    15  H    2.835820
    16  H    0.659382
    17  H    1.236286
    18  H    1.481031
    19  H    0.557363
    20  H    0.514632
    21  N   -1.602817
    22  N   -3.235613
    23  N   -3.844746
    24  N   -3.402785
    25  O   -3.721591
    26  O   -3.416283
    27  O   -3.712895
 Sum of Mulliken charges =   0.00000

 Dipole moment (field-independent basis, Debye):
    X=             -7.0749    Y=             -4.8943    Z=             -0.2673  Tot=              8.6069

 Test job not archived.
 1\1\GINC-SE187\SP\RHF\Aug-CC-pVDZ\C8H12N4O3\OHZDE\08-Apr-2025\0\\#t hf
  aug-cc-pvdz iop(5/13=1,5/36=2,99/5=2) pseudo=read geom=check guess=(r
 ead,tcheck) scf=(maxcycle=1)\\title\\0,1\C,0,1.72723,-2.11763,-0.70389
 4\C,0,2.61544,-1.07713,-0.130149\C,0,0.669199,0.647547,-0.0125653\C,0,
 0.738309,2.18147,-0.089729\C,0,-0.319952,0.306254,1.10447\C,0,-1.63643
 ,-0.0622089,0.558098\C,0,-2.46011,-1.07892,0.973116\C,0,-3.32268,-0.08
 65817,-0.784947\H,0,-1.14687,2.18889,-0.588272\H,0,-4.22546,-1.75469,0
 .0894052\H,0,-4.00141,-0.0053046,-1.58582\H,0,-2.34529,-1.76711,1.8275

 Normal termination of Gaussian 16 at Tue Apr  8 20:15:02 2025.
