 Gaussian 16, Revision C.01,

 ----------------------------------------------------------------------
 #t hf aug-cc-pvdz symm=none int=(grid=ultrafine) guess=(read,tcheck) s
 table=(opt,rrhf)
 ----------------------------------------------------------------------
 -----
 title
 -----
 Symbolic Z-matrix:
 Charge =  0 Multiplicity = 1

 SCF Done:  E(RHF) =  -458.431494169     A.U. after   18 cycles
 Normal termination of Gaussian 16 at Tue Apr  8 21:46:12 2025.
 Gaussian 16:  ES64L-G16RevC.01  3-Jul-2019

 ----------------------------------------------------------------------
 #t hf aug-cc-pvdz iop(5/13=1,5/36=2,99/5=2) pseudo=read geom=check gue
 ss=(read,tcheck) scf=(maxcycle=1)
 ----------------------------------------------------------------------
 -----
 title
 -----
 Structure from the checkpoint file:  "ANI1ccx_509_conf2_mol2.chk"
 Charge =  0 Multiplicity = 1

                         Standard orientation:
 ---------------------------------------------------------------------
 Center     Atomic      Atomic             Coordinates (Angstroms)
 Number     Number       Type             X           Y           Z
 ---------------------------------------------------------------------
      1          6           0        1.240920   -0.137598    0.241001
      2          6           0       -1.291720   -0.110926   -0.174458
      3          1           0        2.623670   -0.916861   -0.813772
      4          1           0        2.825970    0.836853   -0.610799
      5          1           0       -2.873080   -1.087901    0.237015
      6          7           0        2.348810   -0.073343   -0.430558
      7          7           0        0.603557    0.714122    0.987036
      8          7           0        0.040076    1.704069    0.051951
      9          7           0       -0.849285    1.181909   -0.562391
     10          7           0       -2.539800   -0.175871   -0.031438
     11          7           0       -0.601600   -1.422781    0.008348
     12          7           0        0.673703   -1.548240    0.089666
 ---------------------------------------------------------------------

 SCF Done:  E(RHF) =  -460.464848396     A.U. after    2 cycles

 The electronic state is 1-A.
 Alpha  occ. eigenvalues --  -15.85658 -15.85069 -15.84796 -15.84051 -15.80610
 Alpha  occ. eigenvalues --  -15.77189 -15.71214 -11.54526 -11.49349  -1.68329
 Alpha  occ. eigenvalues --   -1.56238  -1.47909  -1.37773  -1.27333  -1.06133
 Alpha  occ. eigenvalues --   -1.02784  -0.85381  -0.82156  -0.75691  -0.71651
 Alpha  occ. eigenvalues --   -0.69219  -0.64147  -0.61195  -0.57774  -0.54029
 Alpha  occ. eigenvalues --   -0.51144  -0.45437  -0.44718  -0.41562  -0.38546
 Alpha  occ. eigenvalues --   -0.34304  -0.31727
 Alpha virt. eigenvalues --    0.02454   0.04547   0.05067   0.05686   0.09242
 Alpha virt. eigenvalues --    0.09961   0.10216   0.11747   0.11843   0.12388
 Alpha virt. eigenvalues --    0.13144   0.13445   0.13698   0.15000   0.15655

 Mulliken charges:
               1
     1  C    5.058573
     2  C    4.337080
     3  H    0.747259
     4  H    0.721312
     5  H    0.694727
     6  N   -3.084809
     7  N   -2.059983
     8  N   -0.410580
     9  N   -0.918645
    10  N   -3.005008
    11  N   -0.913380
    12  N   -1.166547
 Sum of Mulliken charges =  -0.00000

 Dipole moment (field-independent basis, Debye):
    X=              4.2799    Y=             -1.7794    Z=             -1.6175  Tot=              4.9091

 Test job not archived.
 1\1\GINC-SE049\SP\RHF\Aug-CC-pVDZ\C2H3N7\OHZDE\08-Apr-2025\0\\#t hf au
 g-cc-pvdz iop(5/13=1,5/36=2,99/5=2) pseudo=read geom=check guess=(read
 ,tcheck) scf=(maxcycle=1)\\title\\0,1\C,0,1.24092,-0.137598,0.241001\C
 ,0,-1.29172,-0.110925,-0.174458\H,0,2.62367,-0.916861,-0.813772\H,0,2.
 82597,0.836853,-0.610799\H,0,-2.87308,-1.0879,0.237015\N,0,2.34881,-0.
 0733432,-0.430558\N,0,0.603557,0.714122,0.987036\N,0,0.0400763,1.70407
 ,0.0519513\N,0,-0.849285,1.18191,-0.562391\N,0,-2.5398,-0.17587,-0.031
 4382\N,0,-0.6016,-1.42278,0.00834784\N,0,0.673703,-1.54824,0.0896661\\

 Normal termination of Gaussian 16 at Tue Apr  8 21:46:18 2025.
