 Gaussian 16, Revision C.01,

 ----------------------------------------------------------------------
 #t hf aug-cc-pvdz symm=none int=(grid=ultrafine) guess=(read,tcheck) s
 table=(opt,rrhf)
 ----------------------------------------------------------------------
 -----
 title
 -----
 Symbolic Z-matrix:
 Charge =  0 Multiplicity = 1

 SCF Done:  E(RHF) =  -432.537420022     A.U. after   15 cycles
 Normal termination of Gaussian 16 at Tue Apr  8 21:47:00 2025.
 Gaussian 16:  ES64L-G16RevC.01  3-Jul-2019

 ----------------------------------------------------------------------
 #t hf aug-cc-pvdz iop(5/13=1,5/36=2,99/5=2) pseudo=read geom=check gue
 ss=(read,tcheck) scf=(maxcycle=1)
 ----------------------------------------------------------------------
 -----
 title
 -----
 Structure from the checkpoint file:  "ANI1ccx_535_conf1_mol1.chk"
 Charge =  0 Multiplicity = 1

                         Standard orientation:
 ---------------------------------------------------------------------
 Center     Atomic      Atomic             Coordinates (Angstroms)
 Number     Number       Type             X           Y           Z
 ---------------------------------------------------------------------
      1          6           0       -0.648525    0.866802    0.042860
      2          6           0       -0.235445   -1.339631    0.125051
      3          1           0        2.599560   -0.166435    0.394942
      4          1           0        3.525399    0.459688   -0.650982
      5          1           0       -2.720571    0.300864    0.500024
      6          1           0       -0.135518   -1.432091    1.188430
      7          1           0        0.310619   -2.019940   -0.453550
      8          7           0       -1.821970    0.195862    0.048854
      9          8           0        3.538930   -0.158060    0.075074
     10          8           0       -0.446548    2.035669   -0.004017
     11          8           0       -1.602069   -1.249442   -0.174513
     12          8           0        0.319453   -0.087686   -0.187583
 ---------------------------------------------------------------------

 SCF Done:  E(RHF) =  -434.327692995     A.U. after    2 cycles

 The electronic state is 1-A.
 Alpha  occ. eigenvalues --  -21.13132 -21.11989 -21.08524 -21.06884 -15.83805
 Alpha  occ. eigenvalues --  -11.56626 -11.49155  -1.96463  -1.77477  -1.69503
 Alpha  occ. eigenvalues --   -1.64359  -1.31908  -0.99469  -0.89809  -0.76226
 Alpha  occ. eigenvalues --   -0.71651  -0.62920  -0.62083  -0.59969  -0.58491
 Alpha  occ. eigenvalues --   -0.52760  -0.48251  -0.45791  -0.42442  -0.35572
 Alpha  occ. eigenvalues --   -0.34217  -0.32725  -0.31021
 Alpha virt. eigenvalues --    0.02995   0.04568   0.05253   0.06532   0.08018
 Alpha virt. eigenvalues --    0.09203   0.10300   0.10854   0.11435   0.13284
 Alpha virt. eigenvalues --    0.14587   0.15713   0.16433   0.16632   0.17273

 Mulliken charges:
               1
     1  C    5.899228
     2  C   -0.497986
     3  H    1.050828
     4  H    0.914283
     5  H    0.786036
     6  H    1.564525
     7  H    1.555674
     8  N   -1.105000
     9  O   -1.975394
    10  O   -3.033724
    11  O   -2.418661
    12  O   -2.739809
 Sum of Mulliken charges =  -0.00000

 Dipole moment (field-independent basis, Debye):
    X=             -2.2011    Y=             -2.1194    Z=              0.2518  Tot=              3.0660

 Test job not archived.
 1\1\GINC-SE126\SP\RHF\Aug-CC-pVDZ\C2H5N1O4\OHZDE\08-Apr-2025\0\\#t hf
 aug-cc-pvdz iop(5/13=1,5/36=2,99/5=2) pseudo=read geom=check guess=(re
 ad,tcheck) scf=(maxcycle=1)\\title\\0,1\C,0,-0.648524,0.866803,0.04286
 03\C,0,-0.235446,-1.33963,0.125051\H,0,2.59956,-0.166437,0.394942\H,0,
 3.5254,0.459685,-0.650982\H,0,-2.72057,0.300867,0.500024\H,0,-0.135519
 ,-1.43209,1.18843\H,0,0.310617,-2.01994,-0.45355\N,0,-1.82197,0.195864
 ,0.0488535\O,0,3.53893,-0.158063,0.0750744\O,0,-0.446546,2.03567,-0.00
 401738\O,0,-1.60207,-1.24944,-0.174513\O,0,0.319453,-0.0876857,-0.1875

 Normal termination of Gaussian 16 at Tue Apr  8 21:47:04 2025.
