 Gaussian 16, Revision C.01,

 ----------------------------------------------------------------------
 #t hf aug-cc-pvdz symm=none int=(grid=ultrafine) guess=(read,tcheck) s
 table=(opt,rrhf)
 ----------------------------------------------------------------------
 -----
 title
 -----
 Symbolic Z-matrix:
 Charge =  0 Multiplicity = 1

 SCF Done:  E(RHF) =  -410.992071416     A.U. after   14 cycles
 Normal termination of Gaussian 16 at Tue Apr  8 21:57:32 2025.
 Gaussian 16:  ES64L-G16RevC.01  3-Jul-2019

 ----------------------------------------------------------------------
 #t hf aug-cc-pvdz iop(5/13=1,5/36=2,99/5=2) pseudo=read geom=check gue
 ss=(read,tcheck) scf=(maxcycle=1)
 ----------------------------------------------------------------------
 -----
 title
 -----
 Structure from the checkpoint file:  "ANI1ccx_767_conf1_mol2.chk"
 Charge =  0 Multiplicity = 1

                         Standard orientation:
 ---------------------------------------------------------------------
 Center     Atomic      Atomic             Coordinates (Angstroms)
 Number     Number       Type             X           Y           Z
 ---------------------------------------------------------------------
      1          6           0        0.168896    1.726480    0.497681
      2          6           0       -1.241809   -0.228608    0.035199
      3          6           0        1.176291   -0.374671   -0.124694
      4          1           0        0.689333    1.645140    1.400380
      5          1           0       -0.839057    2.135171    0.692985
      6          1           0        0.732245    2.369700   -0.170243
      7          1           0       -3.162679    0.138382   -0.436322
      8          1           0       -2.068939    1.015831   -1.370430
      9          1           0       -0.769391   -1.876209    0.908100
     10          1           0        2.411011    1.297619   -0.291562
     11          1           0        3.123391   -0.259870   -0.310189
     12          7           0        0.036105    0.423397   -0.141719
     13          7           0       -2.228579    0.524992   -0.512224
     14          7           0       -1.561410   -1.324409    0.555873
     15          7           0        2.338601    0.313939   -0.100668
     16          8           0        1.146350   -1.596300   -0.185083
 ---------------------------------------------------------------------

 SCF Done:  E(RHF) =  -412.864471424     A.U. after    2 cycles

 The electronic state is 1-A.
 Alpha  occ. eigenvalues --  -21.01848 -15.78675 -15.76013 -15.75363 -15.69720
 Alpha  occ. eigenvalues --  -11.50905 -11.46916 -11.41766  -1.72522  -1.51023
 Alpha  occ. eigenvalues --   -1.39706  -1.30642  -1.22904  -1.03461  -0.90824
 Alpha  occ. eigenvalues --   -0.78535  -0.74185  -0.68837  -0.67492  -0.65889
 Alpha  occ. eigenvalues --   -0.61272  -0.57446  -0.56683  -0.55267  -0.51222
 Alpha  occ. eigenvalues --   -0.48818  -0.40505  -0.36707  -0.32153  -0.31795
 Alpha  occ. eigenvalues --   -0.28617
 Alpha virt. eigenvalues --    0.02894   0.04459   0.04906   0.05408   0.06258
 Alpha virt. eigenvalues --    0.06533   0.07751   0.08504   0.10504   0.11454
 Alpha virt. eigenvalues --    0.12747   0.13306   0.13760   0.14665   0.15479

 Mulliken charges:
               1
     1  C   -3.747905
     2  C    4.799085
     3  C    5.536525
     4  H    1.407536
     5  H    1.375609
     6  H    1.349217
     7  H    0.659033
     8  H    0.579016
     9  H    0.609336
    10  H    0.706731
    11  H    0.602336
    12  N   -2.048119
    13  N   -2.865062
    14  N   -3.046440
    15  N   -2.831274
    16  O   -3.085623
 Sum of Mulliken charges =  -0.00000

 Dipole moment (field-independent basis, Debye):
    X=              1.5985    Y=              4.0579    Z=             -1.1262  Tot=              4.5045

 Test job not archived.
 1\1\GINC-SE366\SP\RHF\Aug-CC-pVDZ\C3H8N4O1\OHZDE\08-Apr-2025\0\\#t hf
 aug-cc-pvdz iop(5/13=1,5/36=2,99/5=2) pseudo=read geom=check guess=(re
 ad,tcheck) scf=(maxcycle=1)\\title\\0,1\C,0,0.168895,1.72648,0.497681\
 C,0,-1.24181,-0.228609,0.0351987\C,0,1.17629,-0.374671,-0.124694\H,0,0
 .689332,1.64514,1.40038\H,0,-0.839059,2.13517,0.692985\H,0,0.732243,2.
 3697,-0.170243\H,0,-3.16268,0.13838,-0.436322\H,0,-2.06894,1.01583,-1.
 37043\H,0,-0.769391,-1.87621,0.9081\H,0,2.41101,1.29762,-0.291562\H,0,
 3.12339,-0.259869,-0.310189\N,0,0.0361045,0.423397,-0.141719\N,0,-2.22

 Normal termination of Gaussian 16 at Tue Apr  8 21:57:37 2025.
