 Gaussian 16, Revision C.01,

 ----------------------------------------------------------------------
 #t hf aug-cc-pvdz symm=none int=(grid=ultrafine) guess=(read,tcheck) s
 table=(opt,rrhf)
 ----------------------------------------------------------------------
 -----
 title
 -----
 Symbolic Z-matrix:
 Charge =  0 Multiplicity = 1

 SCF Done:  E(RHF) =  -389.480530150     A.U. after   15 cycles
 Normal termination of Gaussian 16 at Tue Apr  8 21:42:36 2025.
 Gaussian 16:  ES64L-G16RevC.01  3-Jul-2019

 ----------------------------------------------------------------------
 #t hf aug-cc-pvdz iop(5/13=1,5/36=2,99/5=2) pseudo=read geom=check gue
 ss=(read,tcheck) scf=(maxcycle=1)
 ----------------------------------------------------------------------
 -----
 title
 -----
 Structure from the checkpoint file:  "ANI1ccx_473_conf10_mol1.chk"
 Charge =  0 Multiplicity = 1

                         Standard orientation:
 ---------------------------------------------------------------------
 Center     Atomic      Atomic             Coordinates (Angstroms)
 Number     Number       Type             X           Y           Z
 ---------------------------------------------------------------------
      1          6           0       -0.878491    1.068069    0.024340
      2          6           0       -1.514029   -1.108682    0.046054
      3          1           0       -2.447818   -1.629013    0.188377
      4          7           0       -1.786250    0.256478    0.039725
      5          7           0        2.836370   -0.543389   -0.054233
      6          7           0        1.984930    0.142451    0.152358
      7          8           0       -0.124050    1.965670   -0.087569
      8          8           0       -0.431251   -1.605181   -0.109393
 ---------------------------------------------------------------------

 SCF Done:  E(RHF) =  -391.081047928     A.U. after    2 cycles

 The electronic state is 1-A.
 Alpha  occ. eigenvalues --  -21.16535 -21.08833 -15.86448 -15.86127 -15.79812
 Alpha  occ. eigenvalues --  -11.61205 -11.53041  -1.80088  -1.75306  -1.54773
 Alpha  occ. eigenvalues --   -1.43109  -0.97762  -0.78750  -0.74082  -0.67560
 Alpha  occ. eigenvalues --   -0.64703  -0.61606  -0.58236  -0.56302  -0.56114
 Alpha  occ. eigenvalues --   -0.54013  -0.50177  -0.42712  -0.35402  -0.33295
 Alpha virt. eigenvalues --    0.03513   0.07626   0.09327   0.10197   0.10383
 Alpha virt. eigenvalues --    0.10861   0.10929   0.11557   0.12596   0.13595
 Alpha virt. eigenvalues --    0.14575   0.15619   0.15959   0.16696   0.17428

 Mulliken charges:
               1
     1  C    3.703006
     2  C    1.929698
     3  H    1.661310
     4  N   -2.499548
     5  N    0.491430
     6  N   -0.403169
     7  O   -2.400244
     8  O   -2.482484
 Sum of Mulliken charges =  -0.00000

 Dipole moment (field-independent basis, Debye):
    X=              0.2815    Y=              0.8422    Z=              0.0737  Tot=              0.8911

 Test job not archived.
 1\1\GINC-SE059\SP\RHF\Aug-CC-pVDZ\C2H1N3O2\OHZDE\08-Apr-2025\0\\#t hf
 aug-cc-pvdz iop(5/13=1,5/36=2,99/5=2) pseudo=read geom=check guess=(re
 ad,tcheck) scf=(maxcycle=1)\\title\\0,1\C,0,-0.87849,1.06807,0.0243399
 \C,0,-1.51403,-1.10868,0.0460535\H,0,-2.44782,-1.62901,0.188377\N,0,-1
 .78625,0.25648,0.0397253\N,0,2.83637,-0.543391,-0.0542329\N,0,1.98493,
 0.142449,0.152358\O,0,-0.124048,1.96567,-0.0875687\O,0,-0.431253,-1.60
 518,-0.109393\\Version=ES64L-G16RevC.01\State=1-A\HF=-391.0810479\RMSD
 =8.443e-02\Dipole=0.1107568,0.3313504,0.0290114\Quadrupole=-1.4261245,

 Normal termination of Gaussian 16 at Tue Apr  8 21:42:39 2025.
