 Gaussian 16, Revision C.01,

 ----------------------------------------------------------------------
 #t hf aug-cc-pvdz symm=none int=(grid=ultrafine) guess=(read,tcheck) s
 table=(opt,rrhf)
 ----------------------------------------------------------------------
 -----
 title
 -----
 Symbolic Z-matrix:
 Charge =  0 Multiplicity = 1

 SCF Done:  E(RHF) =  -430.216501915     A.U. after   14 cycles
 Normal termination of Gaussian 16 at Tue Apr  8 21:42:08 2025.
 Gaussian 16:  ES64L-G16RevC.01  3-Jul-2019

 ----------------------------------------------------------------------
 #t hf aug-cc-pvdz iop(5/13=1,5/36=2,99/5=2) pseudo=read geom=check gue
 ss=(read,tcheck) scf=(maxcycle=1)
 ----------------------------------------------------------------------
 -----
 title
 -----
 Structure from the checkpoint file:  "ANI1ccx_470_conf9_mol1.chk"
 Charge =  0 Multiplicity = 1

                         Standard orientation:
 ---------------------------------------------------------------------
 Center     Atomic      Atomic             Coordinates (Angstroms)
 Number     Number       Type             X           Y           Z
 ---------------------------------------------------------------------
      1          6           0        1.092270   -0.236715   -0.023121
      2          6           0       -1.059890   -0.144131    0.029043
      3          1           0        0.972033    1.902350   -0.328169
      4          7           0        0.564839    1.085890    0.286943
      5          8           0        2.224460   -0.510858   -0.033829
      6          8           0       -0.728109    1.171681   -0.190699
      7          8           0       -2.130370   -0.608007    0.058113
      8          8           0       -0.006004   -0.955129   -0.048079
 ---------------------------------------------------------------------

 SCF Done:  E(RHF) =  -431.929940460     A.U. after    2 cycles

 The electronic state is 1-A.
 Alpha  occ. eigenvalues --  -21.19348 -21.17609 -21.11459 -21.10158 -15.84157
 Alpha  occ. eigenvalues --  -11.60887 -11.58324  -2.07661  -1.86528  -1.78891
 Alpha  occ. eigenvalues --   -1.73119  -1.27580  -0.92758  -0.92188  -0.76574
 Alpha  occ. eigenvalues --   -0.69911  -0.64851  -0.60634  -0.57480  -0.56241
 Alpha  occ. eigenvalues --   -0.53987  -0.49592  -0.39894  -0.38328  -0.34109
 Alpha  occ. eigenvalues --   -0.32305
 Alpha virt. eigenvalues --    0.03297   0.07634   0.09423   0.09816   0.10365
 Alpha virt. eigenvalues --    0.10985   0.11189   0.11465   0.13464   0.15413
 Alpha virt. eigenvalues --    0.15680   0.15939   0.16960   0.19368   0.21583

 Mulliken charges:
               1
     1  C    5.188833
     2  C    5.768088
     3  H    0.687304
     4  N   -0.286567
     5  O   -2.953354
     6  O   -2.721077
     7  O   -2.925893
     8  O   -2.757335
 Sum of Mulliken charges =   0.00000

 Dipole moment (field-independent basis, Debye):
    X=              0.6051    Y=              1.5452    Z=             -0.8560  Tot=              1.8672

 Test job not archived.
 1\1\GINC-SE334\SP\RHF\Aug-CC-pVDZ\C2H1N1O4\OHZDE\08-Apr-2025\0\\#t hf
 aug-cc-pvdz iop(5/13=1,5/36=2,99/5=2) pseudo=read geom=check guess=(re
 ad,tcheck) scf=(maxcycle=1)\\title\\0,1\C,0,1.09227,-0.236715,-0.02312
 11\C,0,-1.05989,-0.144132,0.0290431\H,0,0.972032,1.90235,-0.328169\N,0
 ,0.564838,1.08589,0.286943\O,0,2.22446,-0.510858,-0.0338293\O,0,-0.728
 11,1.17168,-0.190699\O,0,-2.13037,-0.608008,0.0581127\O,0,-0.00600381,
 -0.95513,-0.0480794\\Version=ES64L-G16RevC.01\State=1-A\HF=-431.929940
 5\RMSD=5.655e-02\Dipole=0.2380528,0.6079401,-0.3367687\Quadrupole=-3.8

 Normal termination of Gaussian 16 at Tue Apr  8 21:42:11 2025.
