 Gaussian 16, Revision C.01,

 ----------------------------------------------------------------------
 #t hf aug-cc-pvdz symm=none int=(grid=ultrafine) guess=(read,tcheck) s
 table=(opt,rrhf)
 ----------------------------------------------------------------------
 -----
 title
 -----
 Symbolic Z-matrix:
 Charge =  0 Multiplicity = 1

 SCF Done:  E(RHF) =  -696.475526782     A.U. after   14 cycles
 Normal termination of Gaussian 16 at Tue Apr  8 19:29:02 2025.
 Gaussian 16:  ES64L-G16RevC.01  3-Jul-2019

 ----------------------------------------------------------------------
 #t hf aug-cc-pvdz iop(5/13=1,5/36=2,99/5=2) pseudo=read geom=check gue
 ss=(read,tcheck) scf=(maxcycle=1)
 ----------------------------------------------------------------------
 -----
 title
 -----
 Structure from the checkpoint file:  "ANI1ccx_1205_conf48_mol1.chk"
 Charge =  0 Multiplicity = 1

                         Standard orientation:
 ---------------------------------------------------------------------
 Center     Atomic      Atomic             Coordinates (Angstroms)
 Number     Number       Type             X           Y           Z
 ---------------------------------------------------------------------
      1          6           0        1.074990    0.919489    0.311553
      2          6           0       -0.066331    1.615100   -0.357056
      3          6           0        1.696900   -0.145806   -0.587861
      4          6           0        2.874430   -0.756654   -0.064076
      5          6           0       -2.107490    0.314831    0.637758
      6          6           0       -3.025400   -0.780840    0.058211
      7          1           0       -3.188721   -1.880080   -1.276579
      8          1           0       -2.938980    0.738124    1.216721
      9          1           0       -1.579260   -0.172735    1.410961
     10          1           0       -1.887510    2.000210   -0.613103
     11          1           0        2.651719   -2.070500   -1.541109
     12          1           0        4.141629   -2.233750   -0.847188
     13          1           0        1.698320    0.130165   -1.623559
     14          1           0        0.845376   -0.918370   -0.619586
     15          1           0        1.876020    1.617790    0.506028
     16          1           0        0.152438    0.800039    2.232241
     17          1           0        1.574300   -0.175778    1.965641
     18          7           0        0.721747    0.176416    1.625181
     19          7           0        3.212359   -1.713090   -0.854556
     20          7           0       -1.329600    1.339750   -0.078452
     21          8           0        0.226141    2.527880   -1.137309
     22          8           0        3.317180   -0.414069    1.035581
     23          8           0       -4.045571   -1.331120    0.515472
     24          8           0       -2.530181   -1.214360   -1.119599
 ---------------------------------------------------------------------

 SCF Done:  E(RHF) =  -699.540295346     A.U. after    2 cycles

 The electronic state is 1-A.
 Alpha  occ. eigenvalues --  -21.14336 -21.07635 -21.03051 -21.02345 -15.80331
 Alpha  occ. eigenvalues --  -15.79561 -15.72857 -11.56173 -11.53962 -11.52499
 Alpha  occ. eigenvalues --  -11.46586 -11.46383 -11.40093  -1.85421  -1.73067
 Alpha  occ. eigenvalues --   -1.70241  -1.65501  -1.42060  -1.40773  -1.32099
 Alpha  occ. eigenvalues --   -1.14018  -1.11492  -0.99053  -0.85679  -0.83505
 Alpha  occ. eigenvalues --   -0.80223  -0.73119  -0.71124  -0.69240  -0.67652
 Alpha  occ. eigenvalues --   -0.65309  -0.64183  -0.63012  -0.59071  -0.58251
 Alpha  occ. eigenvalues --   -0.55667  -0.54581  -0.51431  -0.50446  -0.49273
 Alpha  occ. eigenvalues --   -0.47132  -0.45730  -0.45615  -0.36251  -0.34933
 Alpha  occ. eigenvalues --   -0.34279  -0.33869  -0.30235  -0.29757  -0.29050
 Alpha virt. eigenvalues --    0.02760   0.04027   0.04910   0.05112   0.05903
 Alpha virt. eigenvalues --    0.06196   0.06781   0.06969   0.07393   0.08645
 Alpha virt. eigenvalues --    0.09198   0.10491   0.10769   0.11011   0.12043

 Mulliken charges:
               1
     1  C   -2.611868
     2  C    6.374638
     3  C   -2.556200
     4  C    5.164026
     5  C   -4.036952
     6  C    6.757661
     7  H    0.882788
     8  H    1.176292
     9  H    1.896242
    10  H    0.554415
    11  H    0.874604
    12  H    0.752763
    13  H    1.602959
    14  H    1.579795
    15  H    1.727369
    16  H    0.619230
    17  H    0.789133
    18  N   -2.420338
    19  N   -3.462774
    20  N   -2.702063
    21  O   -3.764033
    22  O   -3.217077
    23  O   -3.117609
    24  O   -2.862999
 Sum of Mulliken charges =  -0.00000

 Dipole moment (field-independent basis, Debye):
    X=              0.6972    Y=             -2.3332    Z=             -1.3738  Tot=              2.7959

 Test job not archived.
 1\1\GINC-SE462\SP\RHF\Aug-CC-pVDZ\C6H11N3O4\OHZDE\08-Apr-2025\0\\#t hf
  aug-cc-pvdz iop(5/13=1,5/36=2,99/5=2) pseudo=read geom=check guess=(r
 ead,tcheck) scf=(maxcycle=1)\\title\\0,1\C,0,1.07499,0.919489,0.311552
 \C,0,-0.0663306,1.6151,-0.357057\C,0,1.6969,-0.145806,-0.587862\C,0,2.
 87443,-0.756654,-0.064077\C,0,-2.10749,0.314831,0.637757\C,0,-3.0254,-
 0.78084,0.0582102\H,0,-3.18872,-1.88008,-1.27658\H,0,-2.93898,0.738124
 ,1.21672\H,0,-1.57926,-0.172735,1.41096\H,0,-1.88751,2.00021,-0.613104
 \H,0,2.65172,-2.0705,-1.54111\H,0,4.14163,-2.23375,-0.847189\H,0,1.698

 Normal termination of Gaussian 16 at Tue Apr  8 19:29:21 2025.
