 Gaussian 16, Revision C.01,

 ----------------------------------------------------------------------
 #t hf aug-cc-pvdz symm=none int=(grid=ultrafine) guess=(read,tcheck) s
 table=(opt,rrhf)
 ----------------------------------------------------------------------
 -----
 title
 -----
 Symbolic Z-matrix:
 Charge =  0 Multiplicity = 1

 SCF Done:  E(RHF) =  -717.454359190     A.U. after   15 cycles
 Normal termination of Gaussian 16 at Tue Apr  8 19:30:12 2025.
 Gaussian 16:  ES64L-G16RevC.01  3-Jul-2019

 ----------------------------------------------------------------------
 #t hf aug-cc-pvdz iop(5/13=1,5/36=2,99/5=2) pseudo=read geom=check gue
 ss=(read,tcheck) scf=(maxcycle=1)
 ----------------------------------------------------------------------
 -----
 title
 -----
 Structure from the checkpoint file:  "ANI1ccx_1215_conf18_mol1.chk"
 Charge =  0 Multiplicity = 1

                         Standard orientation:
 ---------------------------------------------------------------------
 Center     Atomic      Atomic             Coordinates (Angstroms)
 Number     Number       Type             X           Y           Z
 ---------------------------------------------------------------------
      1          6           0       -1.951900    0.041423   -0.368311
      2          6           0       -1.250960    0.343112    0.951811
      3          6           0       -1.540700   -1.298580   -0.900198
      4          6           0        1.017130    0.331710   -0.092983
      5          6           0        2.052750   -0.779623    0.003235
      6          6           0        1.648360    1.646019   -0.250472
      7          1           0        0.460865   -1.880321    0.044941
      8          1           0       -0.112948    2.234340   -0.869862
      9          1           0        2.352160    1.514509   -1.162820
     10          1           0        2.274181    1.879479    0.643101
     11          1           0        0.315217    0.277494   -0.931121
     12          1           0        0.525715    0.412759    1.918320
     13          1           0       -2.340160   -1.622590   -1.620710
     14          1           0       -0.479328   -1.273620   -1.486120
     15          1           0       -3.042810    0.007530   -0.085389
     16          1           0       -2.257380    1.000890   -2.159150
     17          1           0       -2.082349    1.902020   -0.820470
     18          1           0       -1.623661   -2.185250    0.946242
     19          7           0       -1.758140    1.054710   -1.305940
     20          7           0        0.105254    0.174154    1.026500
     21          8           0        0.682549    2.624999   -0.431032
     22          8           0       -1.859800    0.823978    1.883680
     23          8           0       -1.304721   -2.383350    0.029426
     24          8           0        3.212560   -0.660763    0.185230
     25          8           0        1.485989   -1.976571   -0.232222
 ---------------------------------------------------------------------

 SCF Done:  E(RHF) =  -720.612551530     A.U. after    2 cycles

 The electronic state is 1-A.
 Alpha  occ. eigenvalues --  -21.11832 -21.09324 -21.07093 -21.06470 -21.05969
 Alpha  occ. eigenvalues --  -15.79618 -15.78479 -11.56046 -11.54112 -11.53358
 Alpha  occ. eigenvalues --  -11.49579 -11.46188 -11.44212  -1.82268  -1.75977
 Alpha  occ. eigenvalues --   -1.73959  -1.72856  -1.65512  -1.45630  -1.41286
 Alpha  occ. eigenvalues --   -1.14632  -1.11582  -0.96696  -0.93000  -0.85218
 Alpha  occ. eigenvalues --   -0.80726  -0.74546  -0.73017  -0.71455  -0.69502
 Alpha  occ. eigenvalues --   -0.65759  -0.64940  -0.63670  -0.59142  -0.59020
 Alpha  occ. eigenvalues --   -0.56558  -0.55730  -0.54070  -0.52706  -0.50995
 Alpha  occ. eigenvalues --   -0.49770  -0.47065  -0.44803  -0.42653  -0.39023
 Alpha  occ. eigenvalues --   -0.37594  -0.34883  -0.33657  -0.32709  -0.31662
 Alpha  occ. eigenvalues --   -0.28153
 Alpha virt. eigenvalues --    0.02556   0.03778   0.04235   0.04548   0.05689
 Alpha virt. eigenvalues --    0.06074   0.06694   0.06930   0.07238   0.08093
 Alpha virt. eigenvalues --    0.08864   0.09462   0.10912   0.11161   0.11554

 Mulliken charges:
               1
     1  C   -1.040293
     2  C    7.335483
     3  C   -0.865481
     4  C   -3.684307
     5  C    7.136317
     6  C   -1.000711
     7  H    1.900156
     8  H    1.161466
     9  H    0.903967
    10  H    1.203876
    11  H    3.615930
    12  H    0.694423
    13  H    0.853715
    14  H    1.271648
    15  H    1.399485
    16  H    0.682131
    17  H    0.548261
    18  H    0.815112
    19  N   -2.945113
    20  N   -2.402369
    21  O   -3.372372
    22  O   -4.130506
    23  O   -2.953815
    24  O   -3.662860
    25  O   -3.464141
 Sum of Mulliken charges =  -0.00000

 Dipole moment (field-independent basis, Debye):
    X=             -3.5823    Y=              0.1474    Z=             -1.6381  Tot=              3.9418

 Test job not archived.
 1\1\GINC-SE398\SP\RHF\Aug-CC-pVDZ\C6H12N2O5\OHZDE\08-Apr-2025\0\\#t hf
  aug-cc-pvdz iop(5/13=1,5/36=2,99/5=2) pseudo=read geom=check guess=(r
 ead,tcheck) scf=(maxcycle=1)\\title\\0,1\C,0,-1.9519,0.0414229,-0.3683
 11\C,0,-1.25096,0.343112,0.951811\C,0,-1.5407,-1.29858,-0.900198\C,0,1
 .01713,0.331711,-0.0929823\C,0,2.05275,-0.779622,0.00323505\C,0,1.6483
 6,1.64602,-0.250472\H,0,0.460866,-1.88032,0.0449409\H,0,-0.112949,2.23
 434,-0.869862\H,0,2.35216,1.51451,-1.16282\H,0,2.27418,1.87948,0.64310
 1\H,0,0.315217,0.277495,-0.931121\H,0,0.525715,0.41276,1.91832\H,0,-2.

 Normal termination of Gaussian 16 at Tue Apr  8 19:30:34 2025.
