 Gaussian 16, Revision C.01,

 ----------------------------------------------------------------------
 #t hf aug-cc-pvdz symm=none int=(grid=ultrafine) guess=(read,tcheck) s
 table=(opt,rrhf)
 ----------------------------------------------------------------------
 -----
 title
 -----
 Symbolic Z-matrix:
 Charge =  0 Multiplicity = 1

 SCF Done:  E(RHF) =  -603.574787557     A.U. after   15 cycles
 Normal termination of Gaussian 16 at Tue Apr  8 22:21:15 2025.
 Gaussian 16:  ES64L-G16RevC.01  3-Jul-2019

 ----------------------------------------------------------------------
 #t hf aug-cc-pvdz iop(5/13=1,5/36=2,99/5=2) pseudo=read geom=check gue
 ss=(read,tcheck) scf=(maxcycle=1)
 ----------------------------------------------------------------------
 -----
 title
 -----
 Structure from the checkpoint file:  "ANI1ccx_999_conf7_mol1.chk"
 Charge =  0 Multiplicity = 1

                         Standard orientation:
 ---------------------------------------------------------------------
 Center     Atomic      Atomic             Coordinates (Angstroms)
 Number     Number       Type             X           Y           Z
 ---------------------------------------------------------------------
      1          6           0       -1.845812   -1.036167    0.356615
      2          6           0       -1.427211    0.219741   -0.568367
      3          6           0        1.195949    0.316940   -0.387717
      4          6           0        1.671668   -1.092361    0.020659
      5          6           0        1.411400    1.327179    0.726795
      6          1           0        0.672989   -1.651080   -1.469570
      7          1           0        0.188149    2.673460   -0.011154
      8          1           0        0.795139    1.150490    1.623370
      9          1           0        2.465300    1.389448    0.970568
     10          1           0        1.897099    0.551220   -1.227430
     11          1           0       -2.123373   -1.859857   -0.330771
     12          1           0       -1.001033   -1.421368    1.022090
     13          1           0       -3.845742   -0.414510    0.618218
     14          1           0       -2.808801    0.049951    1.812670
     15          1           0       -0.160468    0.810235   -1.888480
     16          7           0       -3.081882   -0.732863    1.198080
     17          7           0       -0.115317    0.241632   -0.992603
     18          8           0        1.093152    2.675609    0.297259
     19          8           0       -2.243390    1.078483   -0.820227
     20          8           0        2.571938   -1.204142    0.815634
     21          8           0        1.111447   -2.081371   -0.723385
 ---------------------------------------------------------------------

 SCF Done:  E(RHF) =  -606.213219438     A.U. after    2 cycles

 The electronic state is 1-A.
 Alpha  occ. eigenvalues --  -21.14290 -21.08593 -21.07713 -21.07643 -15.79077
 Alpha  occ. eigenvalues --  -15.74734 -11.56134 -11.54358 -11.50529 -11.44294
 Alpha  occ. eigenvalues --  -11.44160  -1.84020  -1.74827  -1.72008  -1.68474
 Alpha  occ. eigenvalues --   -1.43433  -1.31411  -1.15042  -1.01477  -0.95809
 Alpha  occ. eigenvalues --   -0.84251  -0.77720  -0.74550  -0.72523  -0.68621
 Alpha  occ. eigenvalues --   -0.67816  -0.64065  -0.59987  -0.57951  -0.56214
 Alpha  occ. eigenvalues --   -0.55798  -0.54541  -0.52893  -0.51677  -0.49038
 Alpha  occ. eigenvalues --   -0.48544  -0.42562  -0.38417  -0.36972  -0.35947
 Alpha  occ. eigenvalues --   -0.34422  -0.32271  -0.29864
 Alpha virt. eigenvalues --    0.02582   0.04203   0.05084   0.05356   0.05693
 Alpha virt. eigenvalues --    0.06196   0.06657   0.06771   0.07875   0.08358
 Alpha virt. eigenvalues --    0.09464   0.10368   0.11539   0.11985   0.12529

 Mulliken charges:
               1
     1  C   -2.654977
     2  C    4.999177
     3  C   -2.998031
     4  C    6.335257
     5  C   -0.605904
     6  H    1.094923
     7  H    0.856827
     8  H    1.479439
     9  H    1.320855
    10  H    1.815660
    11  H    1.411395
    12  H    1.368894
    13  H    0.627247
    14  H    0.572356
    15  H    0.173461
    16  N   -2.208645
    17  N   -1.203610
    18  O   -2.734390
    19  O   -3.287757
    20  O   -3.217787
    21  O   -3.144389
 Sum of Mulliken charges =   0.00000

 Dipole moment (field-independent basis, Debye):
    X=             -0.3367    Y=              0.8314    Z=             -1.7000  Tot=              1.9221

 Test job not archived.
 1\1\GINC-SE454\SP\RHF\Aug-CC-pVDZ\C5H10N2O4\OHZDE\08-Apr-2025\0\\#t hf
  aug-cc-pvdz iop(5/13=1,5/36=2,99/5=2) pseudo=read geom=check guess=(r
 ead,tcheck) scf=(maxcycle=1)\\title\\0,1\C,0,-1.84581,-1.03617,0.35661
 5\C,0,-1.42721,0.219739,-0.568367\C,0,1.19595,0.316941,-0.387717\C,0,1
 .67167,-1.09236,0.0206595\C,0,1.4114,1.32718,0.726795\H,0,0.672992,-1.
 65108,-1.46957\H,0,0.188147,2.67346,-0.0111536\H,0,0.795139,1.15049,1.
 62337\H,0,2.4653,1.38945,0.970568\H,0,1.8971,0.551221,-1.22743\H,0,-2.
 12337,-1.85986,-0.330771\H,0,-1.00103,-1.42137,1.02209\H,0,-3.84574,-0

 Normal termination of Gaussian 16 at Tue Apr  8 22:21:27 2025.
