 Gaussian 16, Revision C.01,

 ----------------------------------------------------------------------
 #t hf aug-cc-pvdz symm=none int=(grid=ultrafine) guess=(read,tcheck) s
 table=(opt,rrhf)
 ----------------------------------------------------------------------
 -----
 title
 -----
 Symbolic Z-matrix:
 Charge =  0 Multiplicity = 1

 SCF Done:  E(RHF) =  -542.585069567     A.U. after   16 cycles
 Normal termination of Gaussian 16 at Tue Apr  8 20:01:45 2025.
 Gaussian 16:  ES64L-G16RevC.01  3-Jul-2019

 ----------------------------------------------------------------------
 #t hf aug-cc-pvdz iop(5/13=1,5/36=2,99/5=2) pseudo=read geom=check gue
 ss=(read,tcheck) scf=(maxcycle=1)
 ----------------------------------------------------------------------
 -----
 title
 -----
 Structure from the checkpoint file:  "ANI1ccx_1538_conf1_mol1.chk"
 Charge =  0 Multiplicity = 1

                         Standard orientation:
 ---------------------------------------------------------------------
 Center     Atomic      Atomic             Coordinates (Angstroms)
 Number     Number       Type             X           Y           Z
 ---------------------------------------------------------------------
      1          6           0       -2.792148    0.860021    0.670691
      2          6           0       -2.395079    0.082178   -0.521682
      3          6           0       -1.035721   -1.930338   -0.089662
      4          6           0        0.925161   -1.198900    0.085504
      5          6           0        2.683601    0.177138   -0.005906
      6          6           0        0.672677    1.263540   -0.048437
      7          6           0        0.205561    0.015130   -0.149553
      8          1           0       -0.637113    2.686471   -0.778458
      9          1           0        0.684823    3.162360    0.049080
     10          1           0        3.778361    0.268187    0.005090
     11          1           0       -1.921302   -2.574087   -0.138586
     12          1           0       -3.099370   -0.761991   -0.550330
     13          1           0       -3.741058    1.337405    0.444948
     14          1           0       -2.966469    0.042221    1.485900
     15          1           0       -2.050197    1.510843    1.030420
     16          1           0       -2.382478    0.647759   -1.501260
     17          7           0        2.018742    1.348888   -0.078343
     18          7           0       -1.070230   -0.593656   -0.360026
     19          7           0        0.140761   -2.401919    0.197568
     20          7           0        2.204990   -1.108082    0.226958
     21          7           0       -0.044194    2.478801    0.057766
 ---------------------------------------------------------------------

 SCF Done:  E(RHF) =  -545.112217783     A.U. after    2 cycles

 The electronic state is 1-A.
 Alpha  occ. eigenvalues --  -15.77943 -15.77768 -15.74228 -15.73312 -15.73137
 Alpha  occ. eigenvalues --  -11.52914 -11.49234 -11.47080 -11.46027 -11.44092
 Alpha  occ. eigenvalues --  -11.43083 -11.38845  -1.60744  -1.48128  -1.38866
 Alpha  occ. eigenvalues --   -1.31435  -1.25776  -1.16994  -1.09677  -0.93953
 Alpha  occ. eigenvalues --   -0.92581  -0.88496  -0.81079  -0.72589  -0.70326
 Alpha  occ. eigenvalues --   -0.67645  -0.66747  -0.64303  -0.61950  -0.60287
 Alpha  occ. eigenvalues --   -0.59042  -0.56054  -0.53809  -0.52251  -0.51173
 Alpha  occ. eigenvalues --   -0.50109  -0.46672  -0.42346  -0.39951  -0.39846
 Alpha  occ. eigenvalues --   -0.34794  -0.34658  -0.28917
 Alpha virt. eigenvalues --    0.02863   0.04431   0.04520   0.04941   0.05533
 Alpha virt. eigenvalues --    0.05986   0.06523   0.06950   0.08249   0.09717
 Alpha virt. eigenvalues --    0.10039   0.10726   0.11178   0.11674   0.11803

 Mulliken charges:
               1
     1  C   -3.546518
     2  C   -2.975094
     3  C    0.481322
     4  C    3.393065
     5  C    0.527542
     6  C    5.432983
     7  C    3.020731
     8  H    0.491906
     9  H    0.774339
    10  H    1.727603
    11  H    1.656056
    12  H    1.601282
    13  H    1.112107
    14  H    1.188145
    15  H    1.631720
    16  H    1.573406
    17  N   -3.835912
    18  N   -3.859496
    19  N   -3.312172
    20  N   -3.542978
    21  N   -3.540038
 Sum of Mulliken charges =   0.00000

 Dipole moment (field-independent basis, Debye):
    X=             -4.7966    Y=              2.9570    Z=             -1.6581  Tot=              5.8737

 Test job not archived.
 1\1\GINC-SE095\SP\RHF\Aug-CC-pVDZ\C7H9N5\OHZDE\08-Apr-2025\0\\#t hf au
 g-cc-pvdz iop(5/13=1,5/36=2,99/5=2) pseudo=read geom=check guess=(read
 ,tcheck) scf=(maxcycle=1)\\title\\0,1\C,0,-2.79215,0.860017,0.670691\C
 ,0,-2.39508,0.0821748,-0.521682\C,0,-1.03572,-1.93034,-0.0896621\C,0,0
 .925161,-1.1989,0.0855038\C,0,2.6836,0.17714,-0.00590595\C,0,0.672675,
 1.26354,-0.0484368\C,0,0.20556,0.0151296,-0.149553\H,0,-0.637117,2.686
 47,-0.778458\H,0,0.684819,3.16236,0.0490799\H,0,3.77836,0.26819,0.0050
 9035\H,0,-1.9213,-2.57409,-0.138586\H,0,-3.09937,-0.761995,-0.55033\H,

 Normal termination of Gaussian 16 at Tue Apr  8 20:02:00 2025.
