 Gaussian 16, Revision C.01,

 ----------------------------------------------------------------------
 #t hf aug-cc-pvdz symm=none int=(grid=ultrafine) guess=(read,tcheck) s
 table=(opt,rrhf)
 ----------------------------------------------------------------------
 -----
 title
 -----
 Symbolic Z-matrix:
 Charge =  0 Multiplicity = 1

 SCF Done:  E(RHF) =  -256.797810749     A.U. after   15 cycles
 Normal termination of Gaussian 16 at Tue Apr  8 21:35:30 2025.
 Gaussian 16:  ES64L-G16RevC.01  3-Jul-2019

 ----------------------------------------------------------------------
 #t hf aug-cc-pvdz iop(5/13=1,5/36=2,99/5=2) pseudo=read geom=check gue
 ss=(read,tcheck) scf=(maxcycle=1)
 ----------------------------------------------------------------------
 -----
 title
 -----
 Structure from the checkpoint file:  "ANI1ccx_377_conf35_mol2.chk"
 Charge =  0 Multiplicity = 1

                         Standard orientation:
 ---------------------------------------------------------------------
 Center     Atomic      Atomic             Coordinates (Angstroms)
 Number     Number       Type             X           Y           Z
 ---------------------------------------------------------------------
      1          6           0       -1.057661   -0.301953    0.000274
      2          1           0       -2.100002   -0.587747    0.022400
      3          1           0        1.929078   -0.663160    0.026097
      4          7           0       -0.638392    0.989906   -0.002078
      5          7           0        0.660468    0.947502    0.001345
      6          7           0        0.969170   -0.341490   -0.002745
      7          7           0       -0.060262   -1.158400   -0.003685
 ---------------------------------------------------------------------

 SCF Done:  E(RHF) =  -257.931255907     A.U. after    2 cycles

 The electronic state is 1-A.
 Alpha  occ. eigenvalues --  -15.86619 -15.82734 -15.79814 -15.77759 -11.43133
 Alpha  occ. eigenvalues --   -1.77304  -1.39920  -1.28842  -0.93170  -0.88017
 Alpha  occ. eigenvalues --   -0.77218  -0.69289  -0.61960  -0.53109  -0.45058
 Alpha  occ. eigenvalues --   -0.42001  -0.41863  -0.38904
 Alpha virt. eigenvalues --    0.03700   0.04963   0.10163   0.10965   0.11278
 Alpha virt. eigenvalues --    0.12666   0.14315   0.14774   0.16721   0.17471
 Alpha virt. eigenvalues --    0.17495   0.19347   0.19479   0.20225   0.20771

 Mulliken charges:
               1
     1  C    1.216088
     2  H    1.562691
     3  H    0.984668
     4  N   -1.612952
     5  N   -0.120045
     6  N   -0.369700
     7  N   -1.660750
 Sum of Mulliken charges =  -0.00000

 Dipole moment (field-independent basis, Debye):
    X=              1.2511    Y=             -1.7626    Z=              0.0552  Tot=              2.1622

 Test job not archived.
 1\1\GINC-SE016\SP\RHF\Aug-CC-pVDZ\C1H2N4\OHZDE\08-Apr-2025\0\\#t hf au
 g-cc-pvdz iop(5/13=1,5/36=2,99/5=2) pseudo=read geom=check guess=(read
 ,tcheck) scf=(maxcycle=1)\\title\\0,1\C,0,-1.05766,-0.301957,0.0002736
 5\H,0,-2.1,-0.587754,0.0223999\H,0,1.92908,-0.663153,0.0260971\N,0,-0.
 638396,0.989904,-0.00207764\N,0,0.660464,0.947504,0.00134516\N,0,0.969
 171,-0.341487,-0.00274532\N,0,-0.0602578,-1.1584,-0.00368491\\Version=
 ES64L-G16RevC.01\State=1-A\HF=-257.9312559\RMSD=9.830e-02\Dipole=0.492
 2258,-0.6934534,0.0217094\Quadrupole=4.8919077,-4.4489572,-0.4429504,-

 Normal termination of Gaussian 16 at Tue Apr  8 21:35:32 2025.
