 Gaussian 16, Revision C.01,

 ----------------------------------------------------------------------
 #t hf aug-cc-pvdz symm=none int=(grid=ultrafine) guess=(read,tcheck) s
 table=(opt,rrhf)
 ----------------------------------------------------------------------
 -----
 title
 -----
 Symbolic Z-matrix:
 Charge =  0 Multiplicity = 1

 SCF Done:  E(RHF) =  -371.278671053     A.U. after   15 cycles
 Normal termination of Gaussian 16 at Tue Apr  8 21:40:43 2025.
 Gaussian 16:  ES64L-G16RevC.01  3-Jul-2019

 ----------------------------------------------------------------------
 #t hf aug-cc-pvdz iop(5/13=1,5/36=2,99/5=2) pseudo=read geom=check gue
 ss=(read,tcheck) scf=(maxcycle=1)
 ----------------------------------------------------------------------
 -----
 title
 -----
 Structure from the checkpoint file:  "ANI1ccx_455_conf27_mol1.chk"
 Charge =  0 Multiplicity = 1

                         Standard orientation:
 ---------------------------------------------------------------------
 Center     Atomic      Atomic             Coordinates (Angstroms)
 Number     Number       Type             X           Y           Z
 ---------------------------------------------------------------------
      1          6           0       -0.748608    0.022440   -0.065383
      2          7           0        1.371481   -0.640570    0.064088
      3          7           0        1.362170    0.569171   -0.005072
      4          8           0       -1.953650   -0.062145    0.053046
      5          8           0        0.073434   -1.006090   -0.049449
      6          8           0        0.049727    1.113880   -0.006200
 ---------------------------------------------------------------------

 SCF Done:  E(RHF) =  -372.757865283     A.U. after    2 cycles

 The electronic state is 1-A.
 Alpha  occ. eigenvalues --  -21.20618 -21.19732 -21.09913 -15.92874 -15.91344
 Alpha  occ. eigenvalues --  -11.59375  -2.12646  -1.84284  -1.74639  -1.49348
 Alpha  occ. eigenvalues --   -0.98313  -0.91523  -0.76934  -0.75486  -0.59816
 Alpha  occ. eigenvalues --   -0.58275  -0.57218  -0.53609  -0.49106  -0.44955
 Alpha  occ. eigenvalues --   -0.34794  -0.33930
 Alpha virt. eigenvalues --    0.07137   0.10002   0.10331   0.10489   0.10884
 Alpha virt. eigenvalues --    0.11818   0.12874   0.14604   0.15555   0.17598
 Alpha virt. eigenvalues --    0.18837   0.19988   0.21861   0.22677   0.23952

 Mulliken charges:
               1
     1  C    5.227330
     2  N    1.143626
     3  N    1.285193
     4  O   -2.600624
     5  O   -2.595943
     6  O   -2.459582
 Sum of Mulliken charges =  -0.00000

 Dipole moment (field-independent basis, Debye):
    X=              0.6812    Y=              0.2585    Z=             -0.0489  Tot=              0.7302

 Test job not archived.
 1\1\GINC-SE458\SP\RHF\Aug-CC-pVDZ\C1N2O3\OHZDE\08-Apr-2025\0\\#t hf au
 g-cc-pvdz iop(5/13=1,5/36=2,99/5=2) pseudo=read geom=check guess=(read
 ,tcheck) scf=(maxcycle=1)\\title\\0,1\C,0,-0.748608,0.02244,-0.0653825
 \N,0,1.37148,-0.640571,0.0640881\N,0,1.36217,0.56917,-0.00507174\O,0,-
 1.95365,-0.0621444,0.053046\O,0,0.0734337,-1.00609,-0.0494488\O,0,0.04
 97273,1.11388,-0.00619963\\Version=ES64L-G16RevC.01\State=1-A\HF=-372.
 7578653\RMSD=9.196e-02\Dipole=0.2679924,0.1016907,-0.0192292\Quadrupol
 e=-2.9791342,0.6218584,2.3572758,-0.5279128,-0.0093998,0.0098665\PG=C0

 Normal termination of Gaussian 16 at Tue Apr  8 21:40:45 2025.
