 Gaussian 16, Revision C.01,

 ----------------------------------------------------------------------
 #t hf aug-cc-pvdz symm=none int=(grid=ultrafine) guess=(read,tcheck) s
 table=(opt,rrhf)
 ----------------------------------------------------------------------
 -----
 title
 -----
 Symbolic Z-matrix:
 Charge =  0 Multiplicity = 1

 SCF Done:  E(RHF) =  -595.593783896     A.U. after   16 cycles
 Normal termination of Gaussian 16 at Tue Apr  8 19:25:38 2025.
 Gaussian 16:  ES64L-G16RevC.01  3-Jul-2019

 ----------------------------------------------------------------------
 #t hf aug-cc-pvdz iop(5/13=1,5/36=2,99/5=2) pseudo=read geom=check gue
 ss=(read,tcheck) scf=(maxcycle=1)
 ----------------------------------------------------------------------
 -----
 title
 -----
 Structure from the checkpoint file:  "ANI1ccx_1158_conf7_mol2.chk"
 Charge =  0 Multiplicity = 1

                         Standard orientation:
 ---------------------------------------------------------------------
 Center     Atomic      Atomic             Coordinates (Angstroms)
 Number     Number       Type             X           Y           Z
 ---------------------------------------------------------------------
      1          6           0       -4.228060   -0.298486    0.047911
      2          6           0       -0.059892    0.219412   -0.017299
      3          6           0        0.551943    2.304861    0.025274
      4          6           0        1.303829    0.309533   -0.038099
      5          6           0        2.280330   -0.819845   -0.016180
      6          1           0        3.828299    0.506174   -0.088365
      7          1           0        4.268410   -1.226707    0.026593
      8          1           0        0.469257    3.390741    0.076259
      9          1           0       -1.554041    1.643200   -0.004626
     10          1           0       -4.438830   -1.357251    0.165885
     11          1           0       -4.679100    0.261022    0.887713
     12          1           0       -4.674800    0.103297   -0.864909
     13          1           0       -0.221048   -1.808459   -0.054999
     14          7           0        3.580320   -0.485897    0.039585
     15          7           0       -2.776980   -0.009057   -0.002774
     16          7           0       -2.127740   -1.085560   -0.051302
     17          7           0       -0.799674   -0.960880   -0.073698
     18          7           0       -0.557254    1.482471    0.028478
     19          7           0        1.670789    1.639302   -0.037916
     20          8           0        1.873341   -1.983438    0.066274
 ---------------------------------------------------------------------

 SCF Done:  E(RHF) =  -598.283846051     A.U. after    2 cycles

 The electronic state is 1-A.
 Alpha  occ. eigenvalues --  -21.01393 -15.84317 -15.80618 -15.79837 -15.77449
 Alpha  occ. eigenvalues --  -15.77187 -15.73603 -11.52079 -11.51092 -11.43829
 Alpha  occ. eigenvalues --  -11.40050 -11.39589  -1.70374  -1.64374  -1.56473
 Alpha  occ. eigenvalues --   -1.36680  -1.34620  -1.28230  -1.12561  -1.03964
 Alpha  occ. eigenvalues --   -0.92240  -0.87265  -0.86596  -0.78532  -0.73124
 Alpha  occ. eigenvalues --   -0.69810  -0.68912  -0.66050  -0.62805  -0.61548
 Alpha  occ. eigenvalues --   -0.59403  -0.57493  -0.55200  -0.54964  -0.53267
 Alpha  occ. eigenvalues --   -0.53067  -0.47476  -0.40758  -0.40259  -0.37840
 Alpha  occ. eigenvalues --   -0.37110  -0.32077  -0.28944  -0.26518
 Alpha virt. eigenvalues --    0.03406   0.04469   0.05177   0.05834   0.05897
 Alpha virt. eigenvalues --    0.07085   0.07742   0.08085   0.09887   0.10426
 Alpha virt. eigenvalues --    0.10573   0.11924   0.12223   0.12395   0.12906

 Mulliken charges:
               1
     1  C   -3.059442
     2  C    3.075418
     3  C    0.814299
     4  C    1.916581
     5  C    7.152312
     6  H    0.711300
     7  H    0.867967
     8  H    1.667582
     9  H    0.874604
    10  H    1.367938
    11  H    1.402621
    12  H    1.460659
    13  H    0.765943
    14  N   -3.698344
    15  N   -1.958656
    16  N   -0.278319
    17  N   -1.956532
    18  N   -3.580960
    19  N   -3.825573
    20  O   -3.719398
 Sum of Mulliken charges =  -0.00000

 Dipole moment (field-independent basis, Debye):
    X=             -1.9112    Y=              1.5108    Z=             -0.0761  Tot=              2.4374

 Test job not archived.
 1\1\GINC-SE179\SP\RHF\Aug-CC-pVDZ\C5H8N6O1\OHZDE\08-Apr-2025\0\\#t hf
 aug-cc-pvdz iop(5/13=1,5/36=2,99/5=2) pseudo=read geom=check guess=(re
 ad,tcheck) scf=(maxcycle=1)\\title\\0,1\C,0,-4.22806,-0.298485,0.04791
 12\C,0,-0.0598916,0.219411,-0.0172988\C,0,0.551945,2.30486,0.025274\C,
 0,1.30383,0.309531,-0.0380986\C,0,2.28033,-0.819847,-0.0161797\H,0,3.8
 283,0.506171,-0.088365\H,0,4.26841,-1.22671,0.0265934\H,0,0.469259,3.3
 9074,0.0762587\H,0,-1.55404,1.6432,-0.00462573\H,0,-4.43883,-1.35725,0
 .165885\H,0,-4.6791,0.261023,0.887713\H,0,-4.6748,0.103298,-0.864909\H

 Normal termination of Gaussian 16 at Tue Apr  8 19:25:50 2025.
