 Gaussian 16, Revision C.01,

 ----------------------------------------------------------------------
 #t hf aug-cc-pvdz symm=none int=(grid=ultrafine) guess=(read,tcheck) s
 table=(opt,rrhf)
 ----------------------------------------------------------------------
 -----
 title
 -----
 Symbolic Z-matrix:
 Charge =  0 Multiplicity = 1

 SCF Done:  E(RHF) =  -489.702976037     A.U. after   14 cycles
 Normal termination of Gaussian 16 at Tue Apr  8 22:15:41 2025.
 Gaussian 16:  ES64L-G16RevC.01  3-Jul-2019

 ----------------------------------------------------------------------
 #t hf aug-cc-pvdz iop(5/13=1,5/36=2,99/5=2) pseudo=read geom=check gue
 ss=(read,tcheck) scf=(maxcycle=1)
 ----------------------------------------------------------------------
 -----
 title
 -----
 Structure from the checkpoint file:  "ANI1ccx_957_conf11_mol1.chk"
 Charge =  0 Multiplicity = 1

                         Standard orientation:
 ---------------------------------------------------------------------
 Center     Atomic      Atomic             Coordinates (Angstroms)
 Number     Number       Type             X           Y           Z
 ---------------------------------------------------------------------
      1          6           0        0.729403    0.656612    0.330619
      2          6           0        1.167721   -0.791151    0.205919
      3          6           0       -0.498875    0.946900   -0.530346
      4          6           0       -1.734709    0.096985   -0.289216
      5          1           0        2.593431   -0.032459   -0.710732
      6          1           0       -3.076979   -0.297676    1.176710
      7          1           0       -0.275290    0.867581   -1.604200
      8          1           0       -0.788926    1.991040   -0.231945
      9          1           0       -2.081659    1.057740    1.558460
     10          1           0        2.539551    1.552269    0.618852
     11          1           0        1.866101    1.942419   -0.843523
     12          1           0        0.354759    0.736610    1.357700
     13          7           0        1.697421    1.697749    0.134869
     14          7           0       -2.271749    0.251932    0.946580
     15          8           0       -2.304379   -0.656393   -1.070610
     16          8           0        0.640037   -1.752290    0.709301
     17          8           0        2.277851   -0.956488   -0.537858
 ---------------------------------------------------------------------

 SCF Done:  E(RHF) =  -491.851989154     A.U. after    2 cycles

 The electronic state is 1-A.
 Alpha  occ. eigenvalues --  -21.12625 -21.05266 -21.02651 -15.78672 -15.77388
 Alpha  occ. eigenvalues --  -11.54098 -11.51776 -11.49454 -11.42462  -1.83253
 Alpha  occ. eigenvalues --   -1.70249  -1.65412  -1.41442  -1.33944  -1.15783
 Alpha  occ. eigenvalues --   -0.99836  -0.83101  -0.79715  -0.73251  -0.73183
 Alpha  occ. eigenvalues --   -0.69571  -0.64476  -0.62734  -0.59750  -0.55031
 Alpha  occ. eigenvalues --   -0.53730  -0.51045  -0.48404  -0.47640  -0.45572
 Alpha  occ. eigenvalues --   -0.42101  -0.33966  -0.32193  -0.28984  -0.28694
 Alpha virt. eigenvalues --    0.02823   0.03730   0.04404   0.04820   0.05645
 Alpha virt. eigenvalues --    0.06486   0.06742   0.08380   0.10716   0.11102
 Alpha virt. eigenvalues --    0.11245   0.12264   0.12757   0.13379   0.14466

 Mulliken charges:
               1
     1  C   -0.601048
     2  C    6.708542
     3  C   -3.637854
     4  C    5.855801
     5  H    1.054894
     6  H    0.770394
     7  H    1.256160
     8  H    1.305464
     9  H    0.741480
    10  H    0.635375
    11  H    0.500764
    12  H    1.609023
    13  N   -2.934480
    14  N   -3.094119
    15  O   -3.501953
    16  O   -3.394395
    17  O   -3.274048
 Sum of Mulliken charges =  -0.00000

 Dipole moment (field-independent basis, Debye):
    X=              1.4248    Y=              3.2572    Z=              1.0857  Tot=              3.7173

 Test job not archived.
 1\1\GINC-SE036\SP\RHF\Aug-CC-pVDZ\C4H8N2O3\OHZDE\08-Apr-2025\0\\#t hf
 aug-cc-pvdz iop(5/13=1,5/36=2,99/5=2) pseudo=read geom=check guess=(re
 ad,tcheck) scf=(maxcycle=1)\\title\\0,1\C,0,0.729402,0.656612,0.330619
 \C,0,1.16772,-0.79115,0.205919\C,0,-0.498876,0.9469,-0.530346\C,0,-1.7
 3471,0.0969852,-0.289216\H,0,2.59343,-0.0324579,-0.710732\H,0,-3.07698
 ,-0.297676,1.17671\H,0,-0.275291,0.867581,-1.6042\H,0,-0.788927,1.9910
 4,-0.231945\H,0,-2.08166,1.05774,1.55846\H,0,2.53955,1.55227,0.618852\
 H,0,1.8661,1.94242,-0.843523\H,0,0.354758,0.73661,1.3577\N,0,1.69742,1

 Normal termination of Gaussian 16 at Tue Apr  8 22:15:49 2025.
