 Gaussian 16, Revision C.01,

 ----------------------------------------------------------------------
 #t hf aug-cc-pvdz symm=none int=(grid=ultrafine) guess=(read,tcheck) s
 table=(opt,rrhf)
 ----------------------------------------------------------------------
 -----
 title
 -----
 Symbolic Z-matrix:
 Charge =  0 Multiplicity = 1

 SCF Done:  E(RHF) =  -356.585547784     A.U. after   14 cycles
 Normal termination of Gaussian 16 at Tue Apr  8 21:14:26 2025.
 Gaussian 16:  ES64L-G16RevC.01  3-Jul-2019

 ----------------------------------------------------------------------
 #t hf aug-cc-pvdz iop(5/13=1,5/36=2,99/5=2) pseudo=read geom=check gue
 ss=(read,tcheck) scf=(maxcycle=1)
 ----------------------------------------------------------------------
 -----
 title
 -----
 Structure from the checkpoint file:  "ANI1ccx_1890_conf3_mol2.chk"
 Charge =  0 Multiplicity = 1

                         Standard orientation:
 ---------------------------------------------------------------------
 Center     Atomic      Atomic             Coordinates (Angstroms)
 Number     Number       Type             X           Y           Z
 ---------------------------------------------------------------------
      1          1           0       -2.183309    1.379813   -0.758854
      2          1           0       -2.366611   -1.242577    0.682350
      3          1           0        3.106311    1.119948    0.165794
      4          1           0        2.181889   -0.646298    1.176730
      5          1           0        1.199730    0.032697    0.054622
      6          7           0        2.054009   -0.510685    0.173622
      7          8           0       -1.977149    1.191033    0.174578
      8          8           0       -1.167950    0.006605   -0.002572
      9          8           0       -2.061431   -1.082237   -0.225700
     10          8           0        3.167020    0.251001   -0.263305
 ---------------------------------------------------------------------

 SCF Done:  E(RHF) =  -358.054217626     A.U. after    2 cycles

 The electronic state is 1-A.
 Alpha  occ. eigenvalues --  -21.16810 -21.15311 -21.15123 -21.08118 -15.76658
 Alpha  occ. eigenvalues --   -2.06242  -1.74847  -1.70287  -1.30190  -1.14567
 Alpha  occ. eigenvalues --   -0.69412  -0.66301  -0.63851  -0.59187  -0.56872
 Alpha  occ. eigenvalues --   -0.55261  -0.46261  -0.37599  -0.36418  -0.35103
 Alpha  occ. eigenvalues --   -0.32986  -0.32473
 Alpha virt. eigenvalues --    0.04058   0.05109   0.05418   0.06351   0.09689
 Alpha virt. eigenvalues --    0.13862   0.14703   0.15990   0.16638   0.18383
 Alpha virt. eigenvalues --    0.19468   0.19879   0.21267   0.22017   0.22825

 Mulliken charges:
               1
     1  H    0.925321
     2  H    0.915371
     3  H    0.694967
     4  H    0.662772
     5  H    0.845647
     6  N   -0.282054
     7  O   -1.124483
     8  O    0.383877
     9  O   -1.125853
    10  O   -1.895565
 Sum of Mulliken charges =   0.00000

 Dipole moment (field-independent basis, Debye):
    X=             -2.0139    Y=              1.1862    Z=              1.2229  Tot=              2.6378

 Test job not archived.
 1\1\GINC-SE036\SP\RHF\Aug-CC-pVDZ\H5N1O4\OHZDE\08-Apr-2025\0\\#t hf au
 g-cc-pvdz iop(5/13=1,5/36=2,99/5=2) pseudo=read geom=check guess=(read
 ,tcheck) scf=(maxcycle=1)\\title\\0,1\H,0,-2.18331,1.37981,-0.758854\H
 ,0,-2.36661,-1.24258,0.68235\H,0,3.10631,1.11995,0.165794\H,0,2.18189,
 -0.646297,1.17673\H,0,1.19973,0.0326967,0.0546224\N,0,2.05401,-0.51068
 4,0.173622\O,0,-1.97715,1.19103,0.174578\O,0,-1.16795,0.00660235,-0.00
 257183\O,0,-2.06143,-1.08224,-0.2257\O,0,3.16702,0.251003,-0.263305\\V
 ersion=ES64L-G16RevC.01\State=1-A\HF=-358.0542176\RMSD=3.057e-02\Dipol

 Normal termination of Gaussian 16 at Tue Apr  8 21:14:29 2025.
