 Gaussian 16, Revision C.01,

 ----------------------------------------------------------------------
 #t hf aug-cc-pvdz symm=none int=(grid=ultrafine) guess=(read,tcheck) s
 table=(opt,rrhf)
 ----------------------------------------------------------------------
 -----
 title
 -----
 Symbolic Z-matrix:
 Charge =  0 Multiplicity = 1

 SCF Done:  E(RHF) =  -506.622178039     A.U. after   17 cycles
 Normal termination of Gaussian 16 at Tue Apr  8 21:59:05 2025.
 Gaussian 16:  ES64L-G16RevC.01  3-Jul-2019

 ----------------------------------------------------------------------
 #t hf aug-cc-pvdz iop(5/13=1,5/36=2,99/5=2) pseudo=read geom=check gue
 ss=(read,tcheck) scf=(maxcycle=1)
 ----------------------------------------------------------------------
 -----
 title
 -----
 Structure from the checkpoint file:  "ANI1ccx_787_conf10_mol1.chk"
 Charge =  0 Multiplicity = 1

                         Standard orientation:
 ---------------------------------------------------------------------
 Center     Atomic      Atomic             Coordinates (Angstroms)
 Number     Number       Type             X           Y           Z
 ---------------------------------------------------------------------
      1          6           0        0.553507    1.643260   -0.532532
      2          6           0        1.126610   -0.052324    1.162660
      3          6           0        1.886060   -0.993461    0.260707
      4          1           0       -1.761600   -0.944507   -1.195980
      5          1           0        3.428960   -0.854378   -0.977160
      6          1           0        2.464320   -1.672690    0.948281
      7          1           0        0.696583   -0.632812    1.977020
      8          1           0        1.248220   -1.619920   -0.333177
      9          1           0       -0.217634    2.392560   -0.803906
     10          1           0        1.319040    2.177990    0.020087
     11          1           0        1.062850    1.067670   -1.306570
     12          1           0        1.914090    0.705139    1.460940
     13          7           0        0.047143    0.737917    0.592360
     14          7           0       -1.004500   -0.018187    0.116395
     15          7           0       -2.227620    0.098112    0.588863
     16          8           0       -0.827632   -0.551561   -1.129880
     17          8           0        2.755560   -0.221696   -0.564091
     18          8           0       -3.085060   -0.467840   -0.083262
 ---------------------------------------------------------------------

 SCF Done:  E(RHF) =  -508.880712606     A.U. after    2 cycles

 The electronic state is 1-A.
 Alpha  occ. eigenvalues --  -21.11662 -21.08164 -21.07692 -15.89121 -15.84211
 Alpha  occ. eigenvalues --  -15.76509 -11.46889 -11.40208 -11.39623  -1.93350
 Alpha  occ. eigenvalues --   -1.79164  -1.71585  -1.49796  -1.28044  -1.10807
 Alpha  occ. eigenvalues --   -0.99775  -0.91556  -0.79197  -0.74012  -0.70803
 Alpha  occ. eigenvalues --   -0.70510  -0.65092  -0.63547  -0.59443  -0.58003
 Alpha  occ. eigenvalues --   -0.54706  -0.53188  -0.51106  -0.49903  -0.46557
 Alpha  occ. eigenvalues --   -0.43693  -0.42783  -0.35581  -0.33390  -0.29845
 Alpha  occ. eigenvalues --   -0.27429
 Alpha virt. eigenvalues --    0.03553   0.04997   0.05220   0.05624   0.06031
 Alpha virt. eigenvalues --    0.06255   0.06814   0.07650   0.08425   0.11640
 Alpha virt. eigenvalues --    0.12473   0.12873   0.13363   0.13853   0.14660

 Mulliken charges:
               1
     1  C   -3.948505
     2  C   -2.414287
     3  C   -0.628534
     4  H    1.009405
     5  H    0.766897
     6  H    1.249919
     7  H    1.471913
     8  H    1.669915
     9  H    1.325721
    10  H    1.175407
    11  H    1.813143
    12  H    1.476261
    13  N   -0.780188
    14  N    2.734146
    15  N    1.294770
    16  O   -3.320695
    17  O   -2.568729
    18  O   -2.326558
 Sum of Mulliken charges =  -0.00000

 Dipole moment (field-independent basis, Debye):
    X=              3.2746    Y=             -0.5456    Z=             -1.1458  Tot=              3.5119

 Test job not archived.
 1\1\GINC-SE343\SP\RHF\Aug-CC-pVDZ\C3H9N3O3\OHZDE\08-Apr-2025\0\\#t hf
 aug-cc-pvdz iop(5/13=1,5/36=2,99/5=2) pseudo=read geom=check guess=(re
 ad,tcheck) scf=(maxcycle=1)\\title\\0,1\C,0,0.553507,1.64326,-0.532532
 \C,0,1.12661,-0.0523238,1.16266\C,0,1.88606,-0.993461,0.260707\H,0,-1.
 7616,-0.944507,-1.19598\H,0,3.42896,-0.854378,-0.97716\H,0,2.46432,-1.
 67269,0.948281\H,0,0.696583,-0.632812,1.97702\H,0,1.24822,-1.61992,-0.
 333177\H,0,-0.217634,2.39256,-0.803906\H,0,1.31904,2.17799,0.0200869\H
 ,0,1.06285,1.06767,-1.30657\H,0,1.91409,0.705139,1.46094\N,0,0.0471433

 Normal termination of Gaussian 16 at Tue Apr  8 21:59:13 2025.
