 Gaussian 16, Revision C.01,

 ----------------------------------------------------------------------
 #t hf aug-cc-pvdz symm=none int=(grid=ultrafine) guess=(read,tcheck) s
 table=(opt,rrhf)
 ----------------------------------------------------------------------
 -----
 title
 -----
 Symbolic Z-matrix:
 Charge =  0 Multiplicity = 1

 SCF Done:  E(RHF) =  -577.529989169     A.U. after   15 cycles
 Normal termination of Gaussian 16 at Tue Apr  8 22:15:51 2025.
 Gaussian 16:  ES64L-G16RevC.01  3-Jul-2019

 ----------------------------------------------------------------------
 #t hf aug-cc-pvdz iop(5/13=1,5/36=2,99/5=2) pseudo=read geom=check gue
 ss=(read,tcheck) scf=(maxcycle=1)
 ----------------------------------------------------------------------
 -----
 title
 -----
 Structure from the checkpoint file:  "ANI1ccx_949_conf2_mol1.chk"
 Charge =  0 Multiplicity = 1

                         Standard orientation:
 ---------------------------------------------------------------------
 Center     Atomic      Atomic             Coordinates (Angstroms)
 Number     Number       Type             X           Y           Z
 ---------------------------------------------------------------------
      1          6           0       -1.306540    0.788186   -0.046397
      2          6           0       -1.707720   -1.324270   -0.040389
      3          6           0        1.454580   -1.151170   -0.550463
      4          6           0        2.084660   -0.181443    0.354160
      5          1           0        2.763140    1.588880    0.368030
      6          1           0        1.200480   -2.058300    0.078604
      7          1           0        0.250159   -0.720209   -2.211770
      8          1           0        2.133660   -1.636680   -1.306170
      9          1           0       -1.000529    2.758930    0.331855
     10          1           0        0.132818    1.922040   -0.759672
     11          1           0       -1.514880   -2.333480   -0.230844
     12          7           0       -0.830732    2.036930   -0.433139
     13          7           0       -2.354950    0.559760    0.709463
     14          7           0       -2.558470   -0.758880    0.735857
     15          7           0       -0.823113   -0.368637   -0.501860
     16          7           0        0.282986   -0.554628   -1.200270
     17          8           0        2.297020    1.019140   -0.239940
     18          8           0        2.312380   -0.357990    1.522210
 ---------------------------------------------------------------------

 SCF Done:  E(RHF) =  -580.077240756     A.U. after    2 cycles

 The electronic state is 1-A.
 Alpha  occ. eigenvalues --  -21.14494 -21.08059 -15.81644 -15.79682 -15.77314
 Alpha  occ. eigenvalues --  -15.73841 -15.71246 -11.55575 -11.47518 -11.46273
 Alpha  occ. eigenvalues --  -11.41366  -1.85653  -1.69990  -1.68020  -1.50438
 Alpha  occ. eigenvalues --   -1.36396  -1.24989  -1.13441  -1.07174  -0.88674
 Alpha  occ. eigenvalues --   -0.84470  -0.82349  -0.75752  -0.72789  -0.68160
 Alpha  occ. eigenvalues --   -0.65920  -0.64064  -0.63375  -0.59282  -0.58573
 Alpha  occ. eigenvalues --   -0.58075  -0.53559  -0.48516  -0.46484  -0.43899
 Alpha  occ. eigenvalues --   -0.42546  -0.39011  -0.36562  -0.33708  -0.31314
 Alpha  occ. eigenvalues --   -0.29135
 Alpha virt. eigenvalues --    0.02379   0.03932   0.04718   0.05338   0.05583
 Alpha virt. eigenvalues --    0.06582   0.07838   0.08230   0.09954   0.11627
 Alpha virt. eigenvalues --    0.11709   0.11805   0.12327   0.12960   0.13237

 Mulliken charges:
               1
     1  C    4.159506
     2  C    1.227473
     3  C   -3.384242
     4  C    6.646097
     5  H    0.959841
     6  H    1.443202
     7  H    0.764943
     8  H    1.461573
     9  H    0.593183
    10  H    0.683266
    11  H    1.640608
    12  N   -2.979465
    13  N   -1.731949
    14  N   -1.992622
    15  N   -1.985437
    16  N   -1.076096
    17  O   -3.211341
    18  O   -3.218538
 Sum of Mulliken charges =   0.00000

 Dipole moment (field-independent basis, Debye):
    X=              5.0810    Y=             -0.0282    Z=             -3.7250  Tot=              6.3003

 Test job not archived.
 1\1\GINC-SE458\SP\RHF\Aug-CC-pVDZ\C4H7N5O2\OHZDE\08-Apr-2025\0\\#t hf
 aug-cc-pvdz iop(5/13=1,5/36=2,99/5=2) pseudo=read geom=check guess=(re
 ad,tcheck) scf=(maxcycle=1)\\title\\0,1\C,0,-1.30654,0.788186,-0.04639
 71\C,0,-1.70772,-1.32427,-0.0403886\C,0,1.45458,-1.15117,-0.550463\C,0
 ,2.08466,-0.181443,0.35416\H,0,2.76314,1.58888,0.36803\H,0,1.20048,-2.
 0583,0.0786042\H,0,0.250159,-0.720209,-2.21177\H,0,2.13366,-1.63668,-1
 .30617\H,0,-1.00053,2.75893,0.331855\H,0,0.132817,1.92204,-0.759672\H,
 0,-1.51488,-2.33348,-0.230844\N,0,-0.830733,2.03693,-0.433139\N,0,-2.3

 Normal termination of Gaussian 16 at Tue Apr  8 22:16:00 2025.
