 Gaussian 16, Revision C.01,

 ----------------------------------------------------------------------
 #t hf aug-cc-pvdz symm=none int=(grid=ultrafine) guess=(read,tcheck) s
 table=(opt,rrhf)
 ----------------------------------------------------------------------
 -----
 title
 -----
 Symbolic Z-matrix:
 Charge =  0 Multiplicity = 1

 SCF Done:  E(RHF) =  -281.808130286     A.U. after   13 cycles
 Normal termination of Gaussian 16 at Tue Apr  8 21:13:21 2025.
 Gaussian 16:  ES64L-G16RevC.01  3-Jul-2019

 ----------------------------------------------------------------------
 #t hf aug-cc-pvdz iop(5/13=1,5/36=2,99/5=2) pseudo=read geom=check gue
 ss=(read,tcheck) scf=(maxcycle=1)
 ----------------------------------------------------------------------
 -----
 title
 -----
 Structure from the checkpoint file:  "ANI1ccx_1889_conf7_mol1.chk"
 Charge =  0 Multiplicity = 1

                         Standard orientation:
 ---------------------------------------------------------------------
 Center     Atomic      Atomic             Coordinates (Angstroms)
 Number     Number       Type             X           Y           Z
 ---------------------------------------------------------------------
      1          1           0       -2.608412   -0.930591   -0.083112
      2          1           0       -1.769272    1.117300   -0.746981
      3          1           0        2.219778    1.178039    0.305122
      4          1           0        1.170078   -0.692849    1.006150
      5          1           0        0.513760   -0.167561   -0.401783
      6          7           0        1.344918   -0.567348    0.019992
      7          8           0       -1.688862   -0.627012   -0.081492
      8          8           0       -1.890252    0.752012    0.159148
      9          8           0        2.461568    0.308387   -0.105074
 ---------------------------------------------------------------------

 SCF Done:  E(RHF) =  -282.986464499     A.U. after    2 cycles

 The electronic state is 1-A.
 Alpha  occ. eigenvalues --  -21.14089 -21.13669 -21.07592 -15.76020  -1.96670
 Alpha  occ. eigenvalues --   -1.73459  -1.41107  -1.14214  -0.66784  -0.64763
 Alpha  occ. eigenvalues --   -0.63498  -0.62156  -0.49237  -0.45652  -0.36694
 Alpha  occ. eigenvalues --   -0.35686  -0.34495  -0.32453
 Alpha virt. eigenvalues --    0.03550   0.04691   0.05691   0.06835   0.08666
 Alpha virt. eigenvalues --    0.14340   0.16608   0.16789   0.18822   0.19930
 Alpha virt. eigenvalues --    0.20650   0.22112   0.22756   0.23283   0.23787

 Mulliken charges:
               1
     1  H    1.047518
     2  H    0.889449
     3  H    0.677479
     4  H    0.709532
     5  H    0.861058
     6  N   -0.474984
     7  O   -1.135811
     8  O   -0.752354
     9  O   -1.821887
 Sum of Mulliken charges =   0.00000

 Dipole moment (field-independent basis, Debye):
    X=             -2.5180    Y=              1.0076    Z=              0.2426  Tot=              2.7229

 Test job not archived.
 1\1\GINC-SE074\SP\RHF\Aug-CC-pVDZ\H5N1O3\OHZDE\08-Apr-2025\0\\#t hf au
 g-cc-pvdz iop(5/13=1,5/36=2,99/5=2) pseudo=read geom=check guess=(read
 ,tcheck) scf=(maxcycle=1)\\title\\0,1\H,0,-2.60841,-0.930591,-0.083112
 6\H,0,-1.76927,1.1173,-0.746981\H,0,2.21978,1.17804,0.305122\H,0,1.170
 08,-0.692849,1.00615\H,0,0.513762,-0.167561,-0.401783\N,0,1.34492,-0.5
 67348,0.019992\O,0,-1.68886,-0.627012,-0.0814925\O,0,-1.89025,0.752012
 ,0.159148\O,0,2.46157,0.308388,-0.105074\\Version=ES64L-G16RevC.01\Sta
 te=1-A\HF=-282.9864645\RMSD=3.112e-02\Dipole=-0.9906485,0.3964397,0.09

 Normal termination of Gaussian 16 at Tue Apr  8 21:13:23 2025.
