 Gaussian 16, Revision C.01,

 ----------------------------------------------------------------------
 #t hf aug-cc-pvdz symm=none int=(grid=ultrafine) guess=(read,tcheck) s
 table=(opt,rrhf)
 ----------------------------------------------------------------------
 -----
 title
 -----
 Symbolic Z-matrix:
 Charge =  0 Multiplicity = 1

 SCF Done:  E(RHF) =  -294.632537614     A.U. after   16 cycles
 Normal termination of Gaussian 16 at Tue Apr  8 21:43:46 2025.
 Gaussian 16:  ES64L-G16RevC.01  3-Jul-2019

 ----------------------------------------------------------------------
 #t hf aug-cc-pvdz iop(5/13=1,5/36=2,99/5=2) pseudo=read geom=check gue
 ss=(read,tcheck) scf=(maxcycle=1)
 ----------------------------------------------------------------------
 -----
 title
 -----
 Structure from the checkpoint file:  "ANI1ccx_486_conf11_mol1.chk"
 Charge =  0 Multiplicity = 1

                         Standard orientation:
 ---------------------------------------------------------------------
 Center     Atomic      Atomic             Coordinates (Angstroms)
 Number     Number       Type             X           Y           Z
 ---------------------------------------------------------------------
      1          6           0        0.291737    1.198819   -0.072170
      2          6           0       -1.200742   -0.323213   -0.042046
      3          1           0        0.723794    2.169066   -0.217984
      4          1           0       -2.189474   -0.651311   -0.035185
      5          7           0       -0.999528    0.962368    0.121129
      6          7           0       -0.328079   -1.306438   -0.072033
      7          7           0        1.000445   -0.929131    0.088975
      8          7           0        1.315692    0.305859   -0.004004
 ---------------------------------------------------------------------

 SCF Done:  E(RHF) =  -295.931846143     A.U. after    2 cycles

 The electronic state is 1-A.
 Alpha  occ. eigenvalues --  -15.85451 -15.80824 -15.79955 -15.79342 -11.49602
 Alpha  occ. eigenvalues --  -11.47355  -1.67521  -1.43381  -1.35799  -1.04405
 Alpha  occ. eigenvalues --   -0.98974  -0.78495  -0.71912  -0.65729  -0.60856
 Alpha  occ. eigenvalues --   -0.60272  -0.52049  -0.46682  -0.42909  -0.40675
 Alpha  occ. eigenvalues --   -0.37136
 Alpha virt. eigenvalues --    0.03125   0.05039   0.06342   0.08630   0.09905
 Alpha virt. eigenvalues --    0.10058   0.10349   0.10529   0.13968   0.14128
 Alpha virt. eigenvalues --    0.15333   0.15796   0.16693   0.17713   0.18962

 Mulliken charges:
               1
     1  C    1.178677
     2  C    1.368882
     3  H    1.554157
     4  H    1.576415
     5  N   -2.560873
     6  N   -1.762311
     7  N    0.060152
     8  N   -1.415099
 Sum of Mulliken charges =  -0.00000

 Dipole moment (field-independent basis, Debye):
    X=             -1.3942    Y=              1.6820    Z=             -0.3171  Tot=              2.2076

 Test job not archived.
 1\1\GINC-SE398\SP\RHF\Aug-CC-pVDZ\C2H2N4\OHZDE\08-Apr-2025\0\\#t hf au
 g-cc-pvdz iop(5/13=1,5/36=2,99/5=2) pseudo=read geom=check guess=(read
 ,tcheck) scf=(maxcycle=1)\\title\\0,1\C,0,0.29173,1.19882,-0.0721704\C
 ,0,-1.20074,-0.32322,-0.0420463\H,0,0.723782,2.16907,-0.217984\H,0,-2.
 18947,-0.651324,-0.0351853\N,0,-0.999533,0.962362,0.121129\N,0,-0.3280
 71,-1.30644,-0.0720327\N,0,1.00045,-0.929126,0.0889747\N,0,1.31569,0.3
 05866,-0.00400418\\Version=ES64L-G16RevC.01\State=1-A\HF=-295.9318461\
 RMSD=9.446e-02\Dipole=-0.5485078,0.6617485,-0.1247395\Quadrupole=-0.57

 Normal termination of Gaussian 16 at Tue Apr  8 21:43:48 2025.
