 Gaussian 16, Revision C.01,

 ----------------------------------------------------------------------
 #t hf aug-cc-pvdz symm=none int=(grid=ultrafine) guess=(read,tcheck) s
 table=(opt,rrhf)
 ----------------------------------------------------------------------
 -----
 title
 -----
 Symbolic Z-matrix:
 Charge =  0 Multiplicity = 1

 SCF Done:  E(RHF) =  -281.817221804     A.U. after   14 cycles
 Normal termination of Gaussian 16 at Tue Apr  8 21:13:21 2025.
 Gaussian 16:  ES64L-G16RevC.01  3-Jul-2019

 ----------------------------------------------------------------------
 #t hf aug-cc-pvdz iop(5/13=1,5/36=2,99/5=2) pseudo=read geom=check gue
 ss=(read,tcheck) scf=(maxcycle=1)
 ----------------------------------------------------------------------
 -----
 title
 -----
 Structure from the checkpoint file:  "ANI1ccx_1889_conf2_mol1.chk"
 Charge =  0 Multiplicity = 1

                         Standard orientation:
 ---------------------------------------------------------------------
 Center     Atomic      Atomic             Coordinates (Angstroms)
 Number     Number       Type             X           Y           Z
 ---------------------------------------------------------------------
      1          1           0        0.729647   -0.648781   -0.186316
      2          1           0        2.736230    0.868844   -0.255518
      3          1           0       -1.428500    1.333131   -0.192758
      4          1           0       -1.896671   -0.934909    1.101150
      5          1           0       -1.692091   -1.248649   -0.458057
      6          7           0       -1.476430   -0.581449    0.231760
      7          8           0        1.646220   -0.662430   -0.273970
      8          8           0        1.967200    0.613739    0.276875
      9          8           0       -2.127620    0.636255   -0.206757
 ---------------------------------------------------------------------

 SCF Done:  E(RHF) =  -282.984573511     A.U. after    2 cycles

 The electronic state is 1-A.
 Alpha  occ. eigenvalues --  -21.11166 -21.10790 -21.09909 -15.79663  -1.93109
 Alpha  occ. eigenvalues --   -1.74755  -1.39466  -1.18281  -0.68179  -0.63016
 Alpha  occ. eigenvalues --   -0.60448  -0.58457  -0.55721  -0.47459  -0.38161
 Alpha  occ. eigenvalues --   -0.36035  -0.34406  -0.26944
 Alpha virt. eigenvalues --    0.04173   0.05006   0.05908   0.06329   0.08800
 Alpha virt. eigenvalues --    0.14436   0.15442   0.17572   0.19542   0.20244
 Alpha virt. eigenvalues --    0.20538   0.21652   0.21899   0.22534   0.23395

 Mulliken charges:
               1
     1  H    1.551075
     2  H    0.977389
     3  H    0.851830
     4  H    0.757809
     5  H    0.773421
     6  N   -0.450371
     7  O   -1.475346
     8  O   -1.034407
     9  O   -1.951401
 Sum of Mulliken charges =  -0.00000

 Dipole moment (field-independent basis, Debye):
    X=             -1.1141    Y=             -0.1972    Z=             -0.1788  Tot=              1.1455

 Test job not archived.
 1\1\GINC-SE398\SP\RHF\Aug-CC-pVDZ\H5N1O3\OHZDE\08-Apr-2025\0\\#t hf au
 g-cc-pvdz iop(5/13=1,5/36=2,99/5=2) pseudo=read geom=check guess=(read
 ,tcheck) scf=(maxcycle=1)\\title\\0,1\H,0,0.729647,-0.648781,-0.186316
 \H,0,2.73623,0.868845,-0.255518\H,0,-1.4285,1.33313,-0.192758\H,0,-1.8
 9667,-0.93491,1.10115\H,0,-1.69209,-1.24865,-0.458057\N,0,-1.47643,-0.
 58145,0.23176\O,0,1.64622,-0.66243,-0.27397\O,0,1.9672,0.61374,0.27687
 5\O,0,-2.12762,0.636254,-0.206757\\Version=ES64L-G16RevC.01\State=1-A\
 HF=-282.9845735\RMSD=3.213e-02\Dipole=-0.4383191,-0.0775956,-0.0703593

 Normal termination of Gaussian 16 at Tue Apr  8 21:13:23 2025.
