 Gaussian 16, Revision C.01,

 ----------------------------------------------------------------------
 #t hf aug-cc-pvdz symm=none int=(grid=ultrafine) guess=(read,tcheck) s
 table=(opt,rrhf)
 ----------------------------------------------------------------------
 -----
 title
 -----
 Symbolic Z-matrix:
 Charge =  0 Multiplicity = 1

 SCF Done:  E(RHF) =  -908.375220920     A.U. after   14 cycles
 Normal termination of Gaussian 16 at Tue Apr  8 21:15:41 2025.
 Gaussian 16:  ES64L-G16RevC.01  3-Jul-2019

 ----------------------------------------------------------------------
 #t hf aug-cc-pvdz iop(5/13=1,5/36=2,99/5=2) pseudo=read geom=check gue
 ss=(read,tcheck) scf=(maxcycle=1)
 ----------------------------------------------------------------------
 -----
 title
 -----
 Structure from the checkpoint file:  "ANI1ccx_1761_conf17_mol1.chk"
 Charge =  0 Multiplicity = 1

                         Standard orientation:
 ---------------------------------------------------------------------
 Center     Atomic      Atomic             Coordinates (Angstroms)
 Number     Number       Type             X           Y           Z
 ---------------------------------------------------------------------
      1          6           0        2.229920   -0.067078   -0.685697
      2          6           0       -2.916990    0.961054    0.879342
      3          6           0       -2.086290   -0.135911    1.572740
      4          6           0       -2.002319   -1.570189   -0.508044
      5          6           0       -2.158950    2.007190    0.102058
      6          6           0        3.959210   -0.790476    1.066100
      7          6           0        3.221090    0.368163    0.403334
      8          6           0        1.144281   -0.992973   -0.113457
      9          6           0       -1.216759   -1.016329    0.696372
     10          1           0       -0.901343   -1.901139    1.250970
     11          1           0       -3.367049   -2.727220   -1.020780
     12          1           0       -0.682686    3.185351    0.221042
     13          1           0       -3.636420    0.534056    0.162100
     14          1           0       -3.481430    1.500250    1.686720
     15          1           0       -2.730130   -0.787504    2.243510
     16          1           0       -1.328030    0.321123    2.250920
     17          1           0        0.039011    0.551856    0.001163
     18          1           0        4.738750   -0.453384    1.748900
     19          1           0        4.468271   -1.416989    0.299056
     20          1           0        3.278891   -1.419649    1.641900
     21          1           0        4.763870    0.771790   -0.693861
     22          1           0        2.611240    0.890685    1.165760
     23          1           0        2.776400   -0.716087   -1.386970
     24          1           0        2.227630    1.803191   -1.439660
     25          1           0        1.124720    0.725884   -2.194430
     26          7           0        1.557370    1.058101   -1.336180
     27          7           0        0.033899   -0.405884    0.329344
     28          8           0        1.236991   -2.209219   -0.113858
     29          8           0        4.149970    1.277891   -0.160983
     30          8           0       -1.725759   -1.165579   -1.628450
     31          8           0       -2.618730    2.562750   -0.878331
     32          8           0       -0.928920    2.301741    0.564686
     33          8           0       -2.873519   -2.518640   -0.203686
 ---------------------------------------------------------------------

 SCF Done:  E(RHF) =  -912.376597533     A.U. after    2 cycles

 The electronic state is 1-A.
 Alpha  occ. eigenvalues --  -21.14522 -21.13031 -21.08003 -21.05641 -21.05357
 Alpha  occ. eigenvalues --  -21.00971 -15.74322 -15.74055 -11.55143 -11.54023
 Alpha  occ. eigenvalues --  -11.52186 -11.49886 -11.48455 -11.44975 -11.43133
 Alpha  occ. eigenvalues --  -11.41118 -11.37846  -1.84309  -1.83663  -1.73895
 Alpha  occ. eigenvalues --   -1.69605  -1.66125  -1.65482  -1.42167  -1.34313
 Alpha  occ. eigenvalues --   -1.22259  -1.14092  -1.08725  -0.99904  -0.94186
 Alpha  occ. eigenvalues --   -0.87940  -0.83436  -0.79938  -0.77338  -0.71446
 Alpha  occ. eigenvalues --   -0.68318  -0.67370  -0.65703  -0.64854  -0.63329
 Alpha  occ. eigenvalues --   -0.62603  -0.61252  -0.60219  -0.59651  -0.58328
 Alpha  occ. eigenvalues --   -0.57441  -0.56262  -0.53405  -0.52333  -0.51620
 Alpha  occ. eigenvalues --   -0.50541  -0.49723  -0.48750  -0.47318  -0.45452
 Alpha  occ. eigenvalues --   -0.44656  -0.43311  -0.40378  -0.37972  -0.35014
 Alpha  occ. eigenvalues --   -0.33885  -0.32864  -0.30721  -0.29987  -0.29539
 Alpha  occ. eigenvalues --   -0.26731
 Alpha virt. eigenvalues --    0.03562   0.03988   0.04532   0.04898   0.05234
 Alpha virt. eigenvalues --    0.05461   0.05651   0.06112   0.06333   0.06552
 Alpha virt. eigenvalues --    0.06963   0.07513   0.08471   0.09089   0.09862

 Mulliken charges:
               1
     1  C   -2.305534
     2  C   -4.554813
     3  C   -3.191043
     4  C    8.149156
     5  C    6.812188
     6  C   -4.398973
     7  C    1.583787
     8  C    7.323576
     9  C   -2.641332
    10  H    1.883975
    11  H    0.791751
    12  H    0.902932
    13  H    1.491518
    14  H    1.377545
    15  H    1.246473
    16  H    1.477637
    17  H    1.458813
    18  H    1.139248
    19  H    1.139941
    20  H    1.331644
    21  H    0.752310
    22  H    1.803908
    23  H    1.778046
    24  H    0.715887
    25  H    0.602959
    26  N   -3.180547
    27  N   -2.434347
    28  O   -4.189339
    29  O   -3.476288
    30  O   -3.227505
    31  O   -3.319554
    32  O   -3.372740
    33  O   -3.471280
 Sum of Mulliken charges =   0.00000

 Dipole moment (field-independent basis, Debye):
    X=              0.0774    Y=              1.1128    Z=              1.0304  Tot=              1.5185

 Test job not archived.
 1\1\GINC-SE071\SP\RHF\Aug-CC-pVDZ\C9H16N2O6\OHZDE\08-Apr-2025\0\\#t hf
  aug-cc-pvdz iop(5/13=1,5/36=2,99/5=2) pseudo=read geom=check guess=(r
 ead,tcheck) scf=(maxcycle=1)\\title\\0,1\C,0,2.22992,-0.0670788,-0.685
 697\C,0,-2.91699,0.961054,0.879342\C,0,-2.08629,-0.135911,1.57274\C,0,
 -2.00232,-1.57019,-0.508044\C,0,-2.15895,2.00719,0.102058\C,0,3.95921,
 -0.790477,1.0661\C,0,3.22109,0.368162,0.403334\C,0,1.14428,-0.992974,-
 0.113457\C,0,-1.21676,-1.01633,0.696372\H,0,-0.901344,-1.90114,1.25097
 \H,0,-3.36705,-2.72722,-1.02078\H,0,-0.682686,3.18535,0.221042\H,0,-3.

 Normal termination of Gaussian 16 at Tue Apr  8 21:16:30 2025.
