 Gaussian 16, Revision C.01,

 ----------------------------------------------------------------------
 #t hf aug-cc-pvdz symm=none int=(grid=ultrafine) guess=(read,tcheck) s
 table=(opt,rrhf)
 ----------------------------------------------------------------------
 -----
 title
 -----
 Symbolic Z-matrix:
 Charge =  0 Multiplicity = 1

 SCF Done:  E(RHF) =  -380.202739841     A.U. after   11 cycles
 Normal termination of Gaussian 16 at Tue Apr  8 21:04:26 2025.
 Gaussian 16:  ES64L-G16RevC.01  3-Jul-2019

 ----------------------------------------------------------------------
 #t hf aug-cc-pvdz iop(5/13=1,5/36=2,99/5=2) pseudo=read geom=check gue
 ss=(read,tcheck) scf=(maxcycle=1)
 ----------------------------------------------------------------------
 -----
 title
 -----
 Structure from the checkpoint file:  "ANI1ccx_1843_conf189_mol1.chk"
 Charge =  0 Multiplicity = 1

                         Standard orientation:
 ---------------------------------------------------------------------
 Center     Atomic      Atomic             Coordinates (Angstroms)
 Number     Number       Type             X           Y           Z
 ---------------------------------------------------------------------
      1          1           0       -1.285920   -1.188259   -0.097848
      2          1           0       -0.516766   -2.611219    0.049606
      3          1           0       -1.732649    0.908393   -0.322541
      4          1           0       -2.623120    0.298683    0.764226
      5          1           0        0.526800    2.476260   -0.346863
      6          1           0        0.408638    1.298321    0.617583
      7          1           0        1.833110   -0.126421    0.401773
      8          1           0        0.613855   -0.584014    1.169441
      9          1           0        0.967871    0.394025   -1.093989
     10          1           0        0.926592   -1.139310   -0.941488
     11          8           0       -0.433417   -1.630719    0.136715
     12          8           0       -2.353790    0.181673   -0.131947
     13          8           0       -0.000745    1.742221   -0.146049
     14          8           0        1.364410    0.100165    1.244341
     15          8           0        1.533740   -0.359147   -1.128049
 ---------------------------------------------------------------------

 SCF Done:  E(RHF) =  -381.845584299     A.U. after    2 cycles

 The electronic state is 1-A.
 Alpha  occ. eigenvalues --  -21.11205 -21.10609 -21.09529 -21.06491 -21.03816
 Alpha  occ. eigenvalues --   -1.71637  -1.69667  -1.68602  -1.65671  -1.61008
 Alpha  occ. eigenvalues --   -0.68142  -0.67297  -0.65993  -0.64742  -0.60775
 Alpha  occ. eigenvalues --   -0.55341  -0.51227  -0.49178  -0.47083  -0.41182
 Alpha  occ. eigenvalues --   -0.37445  -0.36111  -0.35545  -0.31878  -0.28925
 Alpha virt. eigenvalues --    0.03432   0.04849   0.05045   0.07113   0.07510
 Alpha virt. eigenvalues --    0.07614   0.08182   0.08468   0.08940   0.10876
 Alpha virt. eigenvalues --    0.17100   0.19584   0.20225   0.21323   0.21985

 Mulliken charges:
               1
     1  H    1.522638
     2  H    0.996994
     3  H    1.257225
     4  H    0.829382
     5  H    0.907869
     6  H    1.436625
     7  H    1.456812
     8  H    1.271722
     9  H    1.256279
    10  H    1.280514
    11  O   -2.744772
    12  O   -2.167314
    13  O   -2.350984
    14  O   -2.509076
    15  O   -2.443914
 Sum of Mulliken charges =  -0.00000

 Dipole moment (field-independent basis, Debye):
    X=             -1.5194    Y=             -0.1306    Z=              0.1948  Tot=              1.5374

 Test job not archived.
 1\1\GINC-SE454\SP\RHF\Aug-CC-pVDZ\H10O5\OHZDE\08-Apr-2025\0\\#t hf aug
 -cc-pvdz iop(5/13=1,5/36=2,99/5=2) pseudo=read geom=check guess=(read,
 tcheck) scf=(maxcycle=1)\\title\\0,1\H,0,-1.28592,-1.18826,-0.0978494\
 H,0,-0.516765,-2.61122,0.0496044\H,0,-1.73265,0.908391,-0.322542\H,0,-
 2.62312,0.298681,0.764225\H,0,0.526799,2.47626,-0.346864\H,0,0.408637,
 1.29832,0.617582\H,0,1.83311,-0.126421,0.401772\H,0,0.613855,-0.584014
 ,1.16944\H,0,0.967871,0.394025,-1.09399\H,0,0.926592,-1.13931,-0.94148
 9\O,0,-0.433416,-1.63072,0.136714\O,0,-2.35379,0.181671,-0.131948\O,0,

 Normal termination of Gaussian 16 at Tue Apr  8 21:04:29 2025.
