 Gaussian 16, Revision C.01,

 ----------------------------------------------------------------------
 #t hf aug-cc-pvdz symm=none int=(grid=ultrafine) guess=(read,tcheck) s
 table=(opt,rrhf)
 ----------------------------------------------------------------------
 -----
 title
 -----
 Symbolic Z-matrix:
 Charge =  0 Multiplicity = 1

 SCF Done:  E(RHF) =  -207.045495167     A.U. after   13 cycles
 Normal termination of Gaussian 16 at Tue Apr  8 21:13:19 2025.
 Gaussian 16:  ES64L-G16RevC.01  3-Jul-2019

 ----------------------------------------------------------------------
 #t hf aug-cc-pvdz iop(5/13=1,5/36=2,99/5=2) pseudo=read geom=check gue
 ss=(read,tcheck) scf=(maxcycle=1)
 ----------------------------------------------------------------------
 -----
 title
 -----
 Structure from the checkpoint file:  "ANI1ccx_1888_conf24_mol1.chk"
 Charge =  0 Multiplicity = 1

                         Standard orientation:
 ---------------------------------------------------------------------
 Center     Atomic      Atomic             Coordinates (Angstroms)
 Number     Number       Type             X           Y           Z
 ---------------------------------------------------------------------
      1          1           0        0.418417    0.979802   -0.784340
      2          1           0        2.392039   -0.248609   -0.175109
      3          1           0        1.439489   -1.042880    0.783457
      4          1           0       -1.206211   -0.493639    0.089405
      5          1           0       -2.232731    0.539252    0.494928
      6          7           0        1.471889   -0.564049   -0.114419
      7          8           0        0.741013    0.743737    0.123958
      8          8           0       -2.130291   -0.216935   -0.074884
 ---------------------------------------------------------------------

 SCF Done:  E(RHF) =  -207.935825805     A.U. after    2 cycles

 The electronic state is 1-A.
 Alpha  occ. eigenvalues --  -21.10065 -21.08213 -15.80714  -1.72318  -1.64433
 Alpha  occ. eigenvalues --   -1.19736  -0.68432  -0.61515  -0.58492  -0.55364
 Alpha  occ. eigenvalues --   -0.45975  -0.38974  -0.34822  -0.32385
 Alpha virt. eigenvalues --    0.03691   0.05292   0.05625   0.07292   0.09130
 Alpha virt. eigenvalues --    0.13023   0.16652   0.18442   0.19489   0.20243
 Alpha virt. eigenvalues --    0.21069   0.22374   0.23245   0.24865   0.26222

 Mulliken charges:
               1
     1  H    0.837834
     2  H    0.729608
     3  H    0.730109
     4  H    1.159665
     5  H    0.803468
     6  N   -0.576469
     7  O   -1.713425
     8  O   -1.970790
 Sum of Mulliken charges =  -0.00000

 Dipole moment (field-independent basis, Debye):
    X=              1.7925    Y=              0.6987    Z=              0.9247  Tot=              2.1345

 Test job not archived.
 1\1\GINC-SE030\SP\RHF\Aug-CC-pVDZ\H5N1O2\OHZDE\08-Apr-2025\0\\#t hf au
 g-cc-pvdz iop(5/13=1,5/36=2,99/5=2) pseudo=read geom=check guess=(read
 ,tcheck) scf=(maxcycle=1)\\title\\0,1\H,0,0.418418,0.979802,-0.78434\H
 ,0,2.39204,-0.248609,-0.175109\H,0,1.43949,-1.04288,0.783457\H,0,-1.20
 621,-0.493639,0.089405\H,0,-2.23273,0.539252,0.494928\N,0,1.47189,-0.5
 64049,-0.114419\O,0,0.741014,0.743737,0.123958\O,0,-2.13029,-0.216935,
 -0.0748841\\Version=ES64L-G16RevC.01\State=1-A\HF=-207.9358258\RMSD=2.
 707e-02\Dipole=0.7052292,0.2748726,0.3637897\Quadrupole=0.0833975,-0.1

 Normal termination of Gaussian 16 at Tue Apr  8 21:13:21 2025.
