 Gaussian 16, Revision C.01,

 ----------------------------------------------------------------------
 #t hf aug-cc-pvdz symm=none int=(grid=ultrafine) guess=(read,tcheck) s
 table=(opt,rrhf)
 ----------------------------------------------------------------------
 -----
 title
 -----
 Symbolic Z-matrix:
 Charge =  0 Multiplicity = 1

 SCF Done:  E(RHF) =  -301.514316415     A.U. after   16 cycles
 Normal termination of Gaussian 16 at Tue Apr  8 21:43:44 2025.
 Gaussian 16:  ES64L-G16RevC.01  3-Jul-2019

 ----------------------------------------------------------------------
 #t hf aug-cc-pvdz iop(5/13=1,5/36=2,99/5=2) pseudo=read geom=check gue
 ss=(read,tcheck) scf=(maxcycle=1)
 ----------------------------------------------------------------------
 -----
 title
 -----
 Structure from the checkpoint file:  "ANI1ccx_493_conf14_mol1.chk"
 Charge =  0 Multiplicity = 1

                         Standard orientation:
 ---------------------------------------------------------------------
 Center     Atomic      Atomic             Coordinates (Angstroms)
 Number     Number       Type             X           Y           Z
 ---------------------------------------------------------------------
      1          6           0       -0.581630   -0.038045    0.132991
      2          6           0        0.803747   -0.613831    0.154312
      3          1           0        0.261504    1.548719    0.082906
      4          1           0        0.681859   -1.709700    0.250885
      5          8           0       -0.655690    1.309228    0.006545
      6          8           0       -1.402309   -0.858404   -0.130028
      7          8           0        1.773490    0.058205   -0.133718
 ---------------------------------------------------------------------

 SCF Done:  E(RHF) =  -302.737925208     A.U. after    2 cycles

 The electronic state is 1-A.
 Alpha  occ. eigenvalues --  -21.15594 -21.12726 -21.09985 -11.55791 -11.51182
 Alpha  occ. eigenvalues --   -1.86287  -1.74914  -1.71045  -1.02653  -0.81140
 Alpha  occ. eigenvalues --   -0.73745  -0.61516  -0.60592  -0.54943  -0.50702
 Alpha  occ. eigenvalues --   -0.47512  -0.39624  -0.36975  -0.31071
 Alpha virt. eigenvalues --    0.03573   0.06141   0.08100   0.09445   0.10379
 Alpha virt. eigenvalues --    0.10894   0.11566   0.11767   0.13473   0.15654
 Alpha virt. eigenvalues --    0.17950   0.19594   0.21512   0.21905   0.23922

 Mulliken charges:
               1
     1  C    4.758750
     2  C    0.572497
     3  H    1.048458
     4  H    1.592962
     5  O   -2.814803
     6  O   -2.684676
     7  O   -2.473187
 Sum of Mulliken charges =  -0.00000

 Dipole moment (field-independent basis, Debye):
    X=              1.1366    Y=              0.5246    Z=              0.3043  Tot=              1.2883

 Test job not archived.
 1\1\GINC-SE457\SP\RHF\Aug-CC-pVDZ\C2H2O3\OHZDE\08-Apr-2025\0\\#t hf au
 g-cc-pvdz iop(5/13=1,5/36=2,99/5=2) pseudo=read geom=check guess=(read
 ,tcheck) scf=(maxcycle=1)\\title\\0,1\C,0,-0.58163,-0.038043,0.132991\
 C,0,0.803746,-0.613831,0.154312\H,0,0.261506,1.54872,0.0829063\H,0,0.6
 81857,-1.7097,0.250885\O,0,-0.655688,1.30923,0.0065455\O,0,-1.40231,-0
 .858401,-0.130028\O,0,1.77349,0.0582031,-0.133718\\Version=ES64L-G16Re
 vC.01\State=1-A\HF=-302.7379252\RMSD=1.443e-01\Dipole=0.4471775,0.2064
 105,0.1197259\Quadrupole=-2.3067315,1.2674334,1.0392981,-0.1547877,-0.

 Normal termination of Gaussian 16 at Tue Apr  8 21:43:45 2025.
