 Gaussian 16, Revision C.01,

 ----------------------------------------------------------------------
 #t hf aug-cc-pvdz symm=none int=(grid=ultrafine) guess=(read,tcheck) s
 table=(opt,rrhf)
 ----------------------------------------------------------------------
 -----
 title
 -----
 Symbolic Z-matrix:
 Charge =  0 Multiplicity = 1

 SCF Done:  E(RHF) =  -795.516174682     A.U. after   14 cycles
 Normal termination of Gaussian 16 at Tue Apr  8 20:36:00 2025.
 Gaussian 16:  ES64L-G16RevC.01  3-Jul-2019

 ----------------------------------------------------------------------
 #t hf aug-cc-pvdz iop(5/13=1,5/36=2,99/5=2) pseudo=read geom=check gue
 ss=(read,tcheck) scf=(maxcycle=1)
 ----------------------------------------------------------------------
 -----
 title
 -----
 Structure from the checkpoint file:  "ANI1ccx_1619_conf14_mol1.chk"
 Charge =  0 Multiplicity = 1

                         Standard orientation:
 ---------------------------------------------------------------------
 Center     Atomic      Atomic             Coordinates (Angstroms)
 Number     Number       Type             X           Y           Z
 ---------------------------------------------------------------------
      1          6           0       -2.097750   -0.300331    0.739570
      2          6           0       -0.740717   -0.693020    0.069833
      3          6           0       -3.100490    0.466683   -0.259759
      4          6           0       -3.234980   -0.144706   -1.662569
      5          6           0        1.527860   -0.042848   -0.467432
      6          6           0        2.512259   -1.146082   -0.047798
      7          6           0        2.405670    1.307348   -0.500085
      8          6           0        1.645101    2.510329   -0.784737
      9          1           0        1.054799   -2.359761   -0.364816
     10          1           0        0.815467    2.779109   -0.144925
     11          1           0        2.374412    3.420978   -0.827485
     12          1           0        1.360411    2.340989   -1.850029
     13          1           0        3.858630    0.574695    0.712580
     14          1           0        3.048110    1.071838   -1.359819
     15          1           0        1.115710   -0.228089   -1.493889
     16          1           0        0.132844    0.591347    1.072721
     17          1           0       -3.096101   -1.204589   -1.556489
     18          1           0       -4.189720    0.224118   -2.118169
     19          1           0       -2.387460    0.205489   -2.267359
     20          1           0       -4.901610    1.214592    0.701333
     21          1           0       -2.746489    1.523781   -0.375850
     22          1           0       -2.302901   -1.340929    0.979624
     23          1           0       -2.691030    0.048871    2.585291
     24          1           0       -2.076209    1.492600    1.694161
     25          7           0       -1.936150    0.458043    1.923081
     26          7           0        0.286403    0.032282    0.337591
     27          8           0       -0.725433   -1.719190   -0.592004
     28          8           0       -4.478900    0.366990    0.311332
     29          8           0        3.607319   -0.933660    0.472179
     30          8           0        3.233831    1.457248    0.649095
     31          8           0        1.947889   -2.362832   -0.057312
 ---------------------------------------------------------------------

 SCF Done:  E(RHF) =  -799.093438805     A.U. after    2 cycles

 The electronic state is 1-A.
 Alpha  occ. eigenvalues --  -21.12652 -21.07443 -21.07165 -21.04169 -21.02191
 Alpha  occ. eigenvalues --  -15.80195 -15.76095 -11.56733 -11.53984 -11.50762
 Alpha  occ. eigenvalues --  -11.49816 -11.46560 -11.44721 -11.39191 -11.38407
 Alpha  occ. eigenvalues --   -1.84275  -1.74671  -1.70109  -1.68376  -1.64957
 Alpha  occ. eigenvalues --   -1.45692  -1.36454  -1.18113  -1.13547  -1.07755
 Alpha  occ. eigenvalues --   -1.00019  -0.88564  -0.86344  -0.83555  -0.82411
 Alpha  occ. eigenvalues --   -0.74614  -0.72118  -0.68192  -0.66763  -0.66112
 Alpha  occ. eigenvalues --   -0.63695  -0.62762  -0.61392  -0.57340  -0.56834
 Alpha  occ. eigenvalues --   -0.56403  -0.54911  -0.53293  -0.52668  -0.52225
 Alpha  occ. eigenvalues --   -0.50609  -0.49290  -0.48132  -0.46517  -0.43556
 Alpha  occ. eigenvalues --   -0.41142  -0.40595  -0.39200  -0.35830  -0.34803
 Alpha  occ. eigenvalues --   -0.32527  -0.30771  -0.29446  -0.26506
 Alpha virt. eigenvalues --    0.03077   0.03753   0.03933   0.04588   0.05249
 Alpha virt. eigenvalues --    0.05367   0.05835   0.06119   0.06500   0.07270
 Alpha virt. eigenvalues --    0.07776   0.08338   0.08526   0.08934   0.09340

 Mulliken charges:
               1
     1  C   -1.525456
     2  C    7.567692
     3  C    0.870597
     4  C   -4.061305
     5  C   -2.693987
     6  C    5.957462
     7  C    1.271063
     8  C   -3.911186
     9  H    1.395794
    10  H    1.465887
    11  H    1.018872
    12  H    1.112683
    13  H    0.974799
    14  H    1.621979
    15  H    2.055497
    16  H    0.776955
    17  H    1.453582
    18  H    1.145746
    19  H    1.189402
    20  H    0.704793
    21  H    1.771175
    22  H    1.518080
    23  H    0.498431
    24  H    0.486370
    25  N   -3.026636
    26  N   -3.183064
    27  O   -3.813943
    28  O   -2.737395
    29  O   -3.228092
    30  O   -3.038860
    31  O   -3.636936
 Sum of Mulliken charges =   0.00000

 Dipole moment (field-independent basis, Debye):
    X=             -3.3451    Y=              2.0879    Z=              0.3685  Tot=              3.9604

 Test job not archived.
 1\1\GINC-SE163\SP\RHF\Aug-CC-pVDZ\C8H16N2O5\OHZDE\08-Apr-2025\0\\#t hf
  aug-cc-pvdz iop(5/13=1,5/36=2,99/5=2) pseudo=read geom=check guess=(r
 ead,tcheck) scf=(maxcycle=1)\\title\\0,1\C,0,-2.09775,-0.300331,0.7395
 69\C,0,-0.740716,-0.69302,0.0698328\C,0,-3.10049,0.466682,-0.25976\C,0
 ,-3.23498,-0.144707,-1.66257\C,0,1.52786,-0.0428467,-0.467433\C,0,2.51
 226,-1.14608,-0.0477983\C,0,2.40567,1.30735,-0.500086\C,0,1.6451,2.510
 33,-0.784738\H,0,1.0548,-2.35976,-0.364817\H,0,0.815466,2.77911,-0.144
 926\H,0,2.37441,3.42098,-0.827486\H,0,1.36041,2.34099,-1.85003\H,0,3.8

 Normal termination of Gaussian 16 at Tue Apr  8 20:36:39 2025.
