 Gaussian 16, Revision C.01,

 ----------------------------------------------------------------------
 #t hf aug-cc-pvdz symm=none int=(grid=ultrafine) guess=(read,tcheck) s
 table=(opt,rrhf)
 ----------------------------------------------------------------------
 -----
 title
 -----
 Symbolic Z-matrix:
 Charge =  0 Multiplicity = 1

 SCF Done:  E(RHF) =  -505.033098251     A.U. after   15 cycles
 Normal termination of Gaussian 16 at Tue Apr  8 21:42:13 2025.
 Gaussian 16:  ES64L-G16RevC.01  3-Jul-2019

 ----------------------------------------------------------------------
 #t hf aug-cc-pvdz iop(5/13=1,5/36=2,99/5=2) pseudo=read geom=check gue
 ss=(read,tcheck) scf=(maxcycle=1)
 ----------------------------------------------------------------------
 -----
 title
 -----
 Structure from the checkpoint file:  "ANI1ccx_471_conf12_mol1.chk"
 Charge =  0 Multiplicity = 1

                         Standard orientation:
 ---------------------------------------------------------------------
 Center     Atomic      Atomic             Coordinates (Angstroms)
 Number     Number       Type             X           Y           Z
 ---------------------------------------------------------------------
      1          6           0        1.400140   -0.079984    0.003999
      2          6           0       -0.673353    0.783107    0.140392
      3          1           0       -2.041641   -0.503022   -0.726125
      4          7           0       -0.785412   -0.572498    0.521980
      5          8           0       -1.699501   -1.270499   -0.244249
      6          8           0        0.529391   -1.061421    0.078783
      7          8           0        2.557680   -0.085458   -0.237926
      8          8           0        0.683490    1.139469    0.115912
      9          8           0       -1.673709    1.314381   -0.186781
 ---------------------------------------------------------------------

 SCF Done:  E(RHF) =  -507.046845384     A.U. after    2 cycles

 The electronic state is 1-A.
 Alpha  occ. eigenvalues --  -21.19194 -21.18069 -21.17386 -21.14610 -21.11298
 Alpha  occ. eigenvalues --  -15.90064 -11.62377 -11.60125  -2.05616  -1.88325
 Alpha  occ. eigenvalues --   -1.84319  -1.73997  -1.73684  -1.26304  -0.92027
 Alpha  occ. eigenvalues --   -0.88964  -0.76292  -0.72302  -0.69128  -0.63801
 Alpha  occ. eigenvalues --   -0.61000  -0.58239  -0.57056  -0.50673  -0.48776
 Alpha  occ. eigenvalues --   -0.41042  -0.40359  -0.39219  -0.35741  -0.33396
 Alpha virt. eigenvalues --    0.04588   0.07548   0.08948   0.09614   0.10071
 Alpha virt. eigenvalues --    0.10878   0.11119   0.11532   0.11921   0.14290
 Alpha virt. eigenvalues --    0.15274   0.15755   0.17400   0.19616   0.20419

 Mulliken charges:
               1
     1  C    5.679107
     2  C    5.434199
     3  H    0.608656
     4  N    1.547915
     5  O   -2.230323
     6  O   -2.497624
     7  O   -2.899370
     8  O   -2.716936
     9  O   -2.925625
 Sum of Mulliken charges =  -0.00000

 Dipole moment (field-independent basis, Debye):
    X=             -1.1274    Y=             -0.1635    Z=             -0.4263  Tot=              1.2163

 Test job not archived.
 1\1\GINC-SE453\SP\RHF\Aug-CC-pVDZ\C2H1N1O5\OHZDE\08-Apr-2025\0\\#t hf
 aug-cc-pvdz iop(5/13=1,5/36=2,99/5=2) pseudo=read geom=check guess=(re
 ad,tcheck) scf=(maxcycle=1)\\title\\0,1\C,0,1.40014,-0.0799824,0.00399
 853\C,0,-0.673353,0.783107,0.140392\H,0,-2.04164,-0.503023,-0.726125\N
 ,0,-0.785411,-0.572498,0.52198\O,0,-1.6995,-1.2705,-0.244249\O,0,0.529
 392,-1.06142,0.078783\O,0,2.55768,-0.0854556,-0.237926\O,0,0.683489,1.
 13947,0.115912\O,0,-1.67371,1.31438,-0.186781\\Version=ES64L-G16RevC.0
 1\State=1-A\HF=-507.0468454\RMSD=5.693e-02\Dipole=-0.4435381,-0.064336

 Normal termination of Gaussian 16 at Tue Apr  8 21:42:16 2025.
