 Gaussian 16, Revision C.01,

 ----------------------------------------------------------------------
 #t hf aug-cc-pvdz symm=none int=(grid=ultrafine) guess=(read,tcheck) s
 table=(opt,rrhf)
 ----------------------------------------------------------------------
 -----
 title
 -----
 Symbolic Z-matrix:
 Charge =  0 Multiplicity = 1

 SCF Done:  E(RHF) =  -505.044429741     A.U. after   15 cycles
 Normal termination of Gaussian 16 at Tue Apr  8 21:42:41 2025.
 Gaussian 16:  ES64L-G16RevC.01  3-Jul-2019

 ----------------------------------------------------------------------
 #t hf aug-cc-pvdz iop(5/13=1,5/36=2,99/5=2) pseudo=read geom=check gue
 ss=(read,tcheck) scf=(maxcycle=1)
 ----------------------------------------------------------------------
 -----
 title
 -----
 Structure from the checkpoint file:  "ANI1ccx_471_conf5_mol1.chk"
 Charge =  0 Multiplicity = 1

                         Standard orientation:
 ---------------------------------------------------------------------
 Center     Atomic      Atomic             Coordinates (Angstroms)
 Number     Number       Type             X           Y           Z
 ---------------------------------------------------------------------
      1          6           0        1.389990   -0.095785   -0.004387
      2          6           0       -0.660074    0.787773    0.097793
      3          1           0       -2.374857   -1.620954    0.374793
      4          7           0       -0.786113   -0.580868    0.432272
      5          8           0       -1.806908   -1.232583   -0.327540
      6          8           0        0.555607   -1.106789    0.015140
      7          8           0        2.572050   -0.148569   -0.059106
      8          8           0        0.657133    1.140981   -0.080589
      9          8           0       -1.540613    1.538848   -0.043047
 ---------------------------------------------------------------------

 SCF Done:  E(RHF) =  -507.065306401     A.U. after    2 cycles

 The electronic state is 1-A.
 Alpha  occ. eigenvalues --  -21.18928 -21.18720 -21.17663 -21.11272 -21.10644
 Alpha  occ. eigenvalues --  -15.90891 -11.61093 -11.58210  -2.03016  -1.85652
 Alpha  occ. eigenvalues --   -1.82935  -1.73033  -1.71643  -1.26999  -0.89893
 Alpha  occ. eigenvalues --   -0.87350  -0.76325  -0.71310  -0.65120  -0.64287
 Alpha  occ. eigenvalues --   -0.60865  -0.57533  -0.55453  -0.50482  -0.46725
 Alpha  occ. eigenvalues --   -0.43697  -0.38174  -0.37710  -0.34524  -0.33125
 Alpha virt. eigenvalues --    0.03118   0.07357   0.09592   0.10022   0.10498
 Alpha virt. eigenvalues --    0.11162   0.11444   0.11995   0.12695   0.14134
 Alpha virt. eigenvalues --    0.14942   0.16257   0.18333   0.18853   0.19839

 Mulliken charges:
               1
     1  C    5.673863
     2  C    5.704887
     3  H    0.801975
     4  N    0.927413
     5  O   -2.170899
     6  O   -2.365953
     7  O   -2.903625
     8  O   -2.649006
     9  O   -3.018653
 Sum of Mulliken charges =  -0.00000

 Dipole moment (field-independent basis, Debye):
    X=             -1.8598    Y=             -1.5434    Z=              0.0531  Tot=              2.4174

 Test job not archived.
 1\1\GINC-SE029\SP\RHF\Aug-CC-pVDZ\C2H1N1O5\OHZDE\08-Apr-2025\0\\#t hf
 aug-cc-pvdz iop(5/13=1,5/36=2,99/5=2) pseudo=read geom=check guess=(re
 ad,tcheck) scf=(maxcycle=1)\\title\\0,1\C,0,1.38999,-0.0957875,-0.0043
 8698\C,0,-0.660072,0.787774,0.0977931\H,0,-2.37486,-1.62095,0.374793\N
 ,0,-0.786114,-0.580867,0.432272\O,0,-1.80691,-1.23258,-0.32754\O,0,0.5
 55605,-1.10679,0.0151396\O,0,2.57205,-0.148574,-0.0591062\O,0,0.657135
 ,1.14098,-0.0805886\O,0,-1.54061,1.53885,-0.0430466\\Version=ES64L-G16
 RevC.01\State=1-A\HF=-507.0653064\RMSD=5.772e-02\Dipole=-0.7317137,-0.

 Normal termination of Gaussian 16 at Tue Apr  8 21:42:45 2025.
