 Gaussian 16, Revision C.01,

 ----------------------------------------------------------------------
 #t hf aug-cc-pvdz symm=none int=(grid=ultrafine) guess=(read,tcheck) s
 table=(opt,rrhf)
 ----------------------------------------------------------------------
 -----
 title
 -----
 Symbolic Z-matrix:
 Charge =  0 Multiplicity = 1

 SCF Done:  E(RHF) =  -336.778083637     A.U. after   15 cycles
 Normal termination of Gaussian 16 at Tue Apr  8 21:45:52 2025.
 Gaussian 16:  ES64L-G16RevC.01  3-Jul-2019

 ----------------------------------------------------------------------
 #t hf aug-cc-pvdz iop(5/13=1,5/36=2,99/5=2) pseudo=read geom=check gue
 ss=(read,tcheck) scf=(maxcycle=1)
 ----------------------------------------------------------------------
 -----
 title
 -----
 Structure from the checkpoint file:  "ANI1ccx_515_conf3_mol1.chk"
 Charge =  0 Multiplicity = 1

                         Standard orientation:
 ---------------------------------------------------------------------
 Center     Atomic      Atomic             Coordinates (Angstroms)
 Number     Number       Type             X           Y           Z
 ---------------------------------------------------------------------
      1          6           0        0.738275   -0.221844   -0.035169
      2          6           0       -0.736688    0.244056    0.001671
      3          1           0        2.541993    0.694423    0.297228
      4          1           0        1.157155    1.697666    0.229300
      5          1           0       -2.600841   -0.745018   -0.016998
      6          1           0       -1.171614   -1.711748    0.136420
      7          7           0        1.561793    0.797698    0.065137
      8          7           0       -1.590351   -0.824993    0.129612
      9          8           0        1.049867   -1.414763   -0.111894
     10          8           0       -1.016905    1.430072   -0.114132
 ---------------------------------------------------------------------

 SCF Done:  E(RHF) =  -338.225593310     A.U. after    2 cycles

 The electronic state is 1-A.
 Alpha  occ. eigenvalues --  -21.05768 -21.04557 -15.79914 -15.79528 -11.53818
 Alpha  occ. eigenvalues --  -11.49343  -1.74453  -1.69772  -1.37733  -1.35770
 Alpha  occ. eigenvalues --   -0.97112  -0.80221  -0.76073  -0.70762  -0.61855
 Alpha  occ. eigenvalues --   -0.59825  -0.56196  -0.50680  -0.48776  -0.37312
 Alpha  occ. eigenvalues --   -0.35321  -0.33322  -0.27405
 Alpha virt. eigenvalues --    0.03312   0.05061   0.06591   0.07063   0.10348
 Alpha virt. eigenvalues --    0.11723   0.12025   0.12154   0.12815   0.12948
 Alpha virt. eigenvalues --    0.14778   0.15957   0.16629   0.17253   0.19026

 Mulliken charges:
               1
     1  C    4.238602
     2  C    4.229567
     3  H    0.712417
     4  H    0.771308
     5  H    0.717511
     6  H    0.795658
     7  N   -2.736922
     8  N   -2.728415
     9  O   -3.007004
    10  O   -2.992720
 Sum of Mulliken charges =   0.00000

 Dipole moment (field-independent basis, Debye):
    X=             -0.0109    Y=              0.1786    Z=              0.5318  Tot=              0.5611

 Test job not archived.
 1\1\GINC-SE127\SP\RHF\Aug-CC-pVDZ\C2H4N2O2\OHZDE\08-Apr-2025\0\\#t hf
 aug-cc-pvdz iop(5/13=1,5/36=2,99/5=2) pseudo=read geom=check guess=(re
 ad,tcheck) scf=(maxcycle=1)\\title\\0,1\C,0,0.738275,-0.221841,-0.0351
 687\C,0,-0.73669,0.244055,0.00167048\H,0,2.54199,0.69443,0.297228\H,0,
 1.15715,1.69767,0.2293\H,0,-2.60084,-0.745024,-0.0169976\H,0,-1.17161,
 -1.71175,0.13642\N,0,1.56179,0.797703,0.0651373\N,0,-1.59035,-0.824997
 ,0.129612\O,0,1.04987,-1.41476,-0.111894\O,0,-1.01691,1.43007,-0.11413
 2\\Version=ES64L-G16RevC.01\State=1-A\HF=-338.2255933\RMSD=1.641e-01\D

 Normal termination of Gaussian 16 at Tue Apr  8 21:45:55 2025.
