 Gaussian 16, Revision C.01,

 ----------------------------------------------------------------------
 #t hf aug-cc-pvdz symm=none int=(grid=ultrafine) guess=(read,tcheck) s
 table=(opt,rrhf)
 ----------------------------------------------------------------------
 -----
 title
 -----
 Symbolic Z-matrix:
 Charge =  0 Multiplicity = 1

 SCF Done:  E(RHF) =  -353.623566392     A.U. after   14 cycles
 Normal termination of Gaussian 16 at Tue Apr  8 21:51:57 2025.
 Gaussian 16:  ES64L-G16RevC.01  3-Jul-2019

 ----------------------------------------------------------------------
 #t hf aug-cc-pvdz iop(5/13=1,5/36=2,99/5=2) pseudo=read geom=check gue
 ss=(read,tcheck) scf=(maxcycle=1)
 ----------------------------------------------------------------------
 -----
 title
 -----
 Structure from the checkpoint file:  "ANI1ccx_675_conf3_mol2.chk"
 Charge =  0 Multiplicity = 1

                         Standard orientation:
 ---------------------------------------------------------------------
 Center     Atomic      Atomic             Coordinates (Angstroms)
 Number     Number       Type             X           Y           Z
 ---------------------------------------------------------------------
      1          6           0        0.865849    0.048972   -0.016594
      2          6           0       -1.037893   -1.140238    0.000447
      3          6           0       -1.111460    1.091512    0.031146
      4          1           0        2.474808   -0.850009    0.094596
      5          1           0       -1.569184   -2.058197    0.000658
      6          1           0       -1.720199    1.991813   -0.031294
      7          7           0        0.280455   -1.141129   -0.035184
      8          7           0       -1.785901   -0.074004    0.024122
      9          7           0        0.209253    1.233241   -0.039400
     10          8           0        2.198619    0.098520    0.024909
 ---------------------------------------------------------------------

 SCF Done:  E(RHF) =  -355.164942962     A.U. after    2 cycles

 The electronic state is 1-A.
 Alpha  occ. eigenvalues --  -21.13785 -15.75860 -15.75535 -15.74786 -11.52279
 Alpha  occ. eigenvalues --  -11.47485 -11.46432  -1.81452  -1.55926  -1.34172
 Alpha  occ. eigenvalues --   -1.31095  -0.98001  -0.93587  -0.76463  -0.72010
 Alpha  occ. eigenvalues --   -0.64675  -0.61983  -0.58913  -0.56646  -0.50168
 Alpha  occ. eigenvalues --   -0.49350  -0.43324  -0.38018  -0.37451  -0.34359
 Alpha virt. eigenvalues --    0.03503   0.05286   0.05516   0.08981   0.09758
 Alpha virt. eigenvalues --    0.09948   0.10209   0.11016   0.12466   0.12643
 Alpha virt. eigenvalues --    0.13999   0.14602   0.14834   0.15299   0.16354

 Mulliken charges:
               1
     1  C    5.117483
     2  C    1.659715
     3  C    1.130007
     4  H    0.638143
     5  H    1.667513
     6  H    1.632047
     7  N   -2.908899
     8  N   -2.969176
     9  N   -3.088891
    10  O   -2.877943
 Sum of Mulliken charges =   0.00000

 Dipole moment (field-independent basis, Debye):
    X=              0.6312    Y=             -0.7217    Z=              0.1023  Tot=              0.9642

 Test job not archived.
 1\1\GINC-SE393\SP\RHF\Aug-CC-pVDZ\C3H3N3O1\OHZDE\08-Apr-2025\0\\#t hf
 aug-cc-pvdz iop(5/13=1,5/36=2,99/5=2) pseudo=read geom=check guess=(re
 ad,tcheck) scf=(maxcycle=1)\\title\\0,1\C,0,0.86585,0.0489722,-0.01659
 36\C,0,-1.03789,-1.14024,0.0004472\C,0,-1.11146,1.09151,0.0311457\H,0,
 2.47481,-0.850007,0.0945963\H,0,-1.56918,-2.0582,0.00065835\H,0,-1.720
 2,1.99181,-0.0312938\N,0,0.280458,-1.14113,-0.0351839\N,0,-1.7859,-0.0
 740075,0.0241221\N,0,0.209253,1.23324,-0.0394\O,0,2.19862,0.0985219,0.
 0249095\\Version=ES64L-G16RevC.01\State=1-A\HF=-355.164943\RMSD=7.618e

 Normal termination of Gaussian 16 at Tue Apr  8 21:52:00 2025.
