 Gaussian 16, Revision C.01,

 ----------------------------------------------------------------------
 #t hf aug-cc-pvdz symm=none int=(grid=ultrafine) guess=(read,tcheck) s
 table=(opt,rrhf)
 ----------------------------------------------------------------------
 -----
 title
 -----
 Symbolic Z-matrix:
 Charge =  0 Multiplicity = 1

 SCF Done:  E(RHF) =  -809.785073495     A.U. after   14 cycles
 Normal termination of Gaussian 16 at Tue Apr  8 20:48:16 2025.
 Gaussian 16:  ES64L-G16RevC.01  3-Jul-2019

 ----------------------------------------------------------------------
 #t hf aug-cc-pvdz iop(5/13=1,5/36=2,99/5=2) pseudo=read geom=check gue
 ss=(read,tcheck) scf=(maxcycle=1)
 ----------------------------------------------------------------------
 -----
 title
 -----
 Structure from the checkpoint file:  "ANI1ccx_1634_conf21_mol1.chk"
 Charge =  0 Multiplicity = 1

                         Standard orientation:
 ---------------------------------------------------------------------
 Center     Atomic      Atomic             Coordinates (Angstroms)
 Number     Number       Type             X           Y           Z
 ---------------------------------------------------------------------
      1          6           0       -3.206140   -0.445666   -0.695079
      2          6           0       -2.840550   -0.242648    0.716677
      3          6           0       -0.258300    0.066364    0.367663
      4          6           0       -0.112102    1.315060   -0.549645
      5          6           0       -0.097224   -1.314640   -0.385830
      6          6           0        1.186650   -2.067801   -0.210540
      7          6           0        2.465680   -1.638521   -0.953585
      8          6           0        3.310540    0.223810    0.434891
      9          1           0       -1.338919    2.446290    0.602505
     10          1           0        3.552561    2.049199   -0.289115
     11          1           0        4.009011    1.990008    1.304711
     12          1           0        3.805940   -0.284603    2.192681
     13          1           0        2.130081    0.420400   -1.193569
     14          1           0        2.454200   -1.800271   -2.038449
     15          1           0        3.246430   -2.213821   -0.500286
     16          1           0        1.371560   -2.091681    0.885109
     17          1           0        1.008729   -3.081000   -0.502406
     18          1           0       -0.367599   -1.118450   -1.418079
     19          1           0       -0.919170   -1.923610   -0.070838
     20          1           0        0.519417    0.082482    1.134151
     21          1           0       -1.431170   -0.012747    2.094591
     22          1           0       -3.048930   -1.500039   -0.923816
     23          1           0       -2.519380    0.136120   -1.363289
     24          1           0       -5.138470   -0.671532   -0.265074
     25          1           0       -4.761679    0.818723   -0.579730
     26          7           0       -4.611790   -0.095906   -0.898480
     27          7           0       -1.516010    0.101394    1.092941
     28          7           0        2.838440   -0.204066   -0.765642
     29          7           0        3.536410   -0.694132    1.291251
     30          7           0        3.378641    1.606699    0.593566
     31          8           0       -3.670760   -0.399561    1.634811
     32          8           0        0.622658    1.282770   -1.507529
     33          8           0       -0.782371    2.414400   -0.203759
 ---------------------------------------------------------------------

 SCF Done:  E(RHF) =  -813.482024421     A.U. after    2 cycles

 The electronic state is 1-A.
 Alpha  occ. eigenvalues --  -21.14435 -21.07191 -21.04476 -15.77835 -15.77191
 Alpha  occ. eigenvalues --  -15.74613 -15.71666 -15.68417 -11.57090 -11.54134
 Alpha  occ. eigenvalues --  -11.50752 -11.46795 -11.45691 -11.43704 -11.42521
 Alpha  occ. eigenvalues --  -11.37450  -1.84972  -1.71597  -1.68750  -1.49239
 Alpha  occ. eigenvalues --   -1.42371  -1.35050  -1.30884  -1.22754  -1.19635
 Alpha  occ. eigenvalues --   -1.08850  -1.03828  -0.98112  -0.87497  -0.84399
 Alpha  occ. eigenvalues --   -0.79497  -0.78713  -0.73467  -0.71273  -0.70764
 Alpha  occ. eigenvalues --   -0.69710  -0.68084  -0.65713  -0.62646  -0.60509
 Alpha  occ. eigenvalues --   -0.59793  -0.59269  -0.57550  -0.56597  -0.56020
 Alpha  occ. eigenvalues --   -0.55009  -0.53969  -0.50547  -0.49920  -0.48568
 Alpha  occ. eigenvalues --   -0.48216  -0.46138  -0.45939  -0.44113  -0.38329
 Alpha  occ. eigenvalues --   -0.37233  -0.36485  -0.36069  -0.34882  -0.31588
 Alpha  occ. eigenvalues --   -0.30521  -0.29021
 Alpha virt. eigenvalues --    0.03379   0.04081   0.04264   0.05005   0.05363
 Alpha virt. eigenvalues --    0.05556   0.05869   0.06090   0.06799   0.07114
 Alpha virt. eigenvalues --    0.07361   0.07873   0.08279   0.08687   0.09016

 Mulliken charges:
               1
     1  C   -2.461020
     2  C    4.754164
     3  C   -1.565729
     4  C    7.017576
     5  C   -2.622974
     6  C   -3.340558
     7  C   -3.415497
     8  C    5.860941
     9  H    1.043602
    10  H    0.694712
    11  H    0.700246
    12  H    0.729243
    13  H    1.245380
    14  H    1.448342
    15  H    1.491556
    16  H    1.495173
    17  H    1.200617
    18  H    1.828411
    19  H    1.829594
    20  H    2.797427
    21  H    0.493379
    22  H    1.483117
    23  H    1.596556
    24  H    0.596368
    25  H    0.543325
    26  N   -2.773868
    27  N   -2.856051
    28  N   -2.317843
    29  N   -3.551456
    30  N   -3.260031
    31  O   -3.454593
    32  O   -3.492484
    33  O   -3.737624
 Sum of Mulliken charges =   0.00000

 Dipole moment (field-independent basis, Debye):
    X=              0.3930    Y=              1.8440    Z=              0.6472  Tot=              1.9934

 Test job not archived.
 1\1\GINC-SE058\SP\RHF\Aug-CC-pVDZ\C8H17N5O3\OHZDE\08-Apr-2025\0\\#t hf
  aug-cc-pvdz iop(5/13=1,5/36=2,99/5=2) pseudo=read geom=check guess=(r
 ead,tcheck) scf=(maxcycle=1)\\title\\0,1\C,0,-3.20614,-0.445667,-0.695
 08\C,0,-2.84055,-0.242649,0.716676\C,0,-0.2583,0.0663636,0.367662\C,0,
 -0.112103,1.31506,-0.549646\C,0,-0.0972243,-1.31464,-0.385831\C,0,1.18
 665,-2.0678,-0.210541\C,0,2.46568,-1.63852,-0.953586\C,0,3.31054,0.223
 811,0.43489\H,0,-1.33892,2.44629,0.602504\H,0,3.55256,2.0492,-0.289116
 \H,0,4.00901,1.99001,1.30471\H,0,3.80594,-0.284602,2.19268\H,0,2.13008

 Normal termination of Gaussian 16 at Tue Apr  8 20:49:02 2025.
