 Gaussian 16, Revision C.01,

 ----------------------------------------------------------------------
 #t hf aug-cc-pvdz symm=none int=(grid=ultrafine) guess=(read,tcheck) s
 table=(opt,rrhf)
 ----------------------------------------------------------------------
 -----
 title
 -----
 Symbolic Z-matrix:
 Charge =  0 Multiplicity = 1

 SCF Done:  E(RHF) =  -595.577673787     A.U. after   16 cycles
 Normal termination of Gaussian 16 at Tue Apr  8 19:25:35 2025.
 Gaussian 16:  ES64L-G16RevC.01  3-Jul-2019

 ----------------------------------------------------------------------
 #t hf aug-cc-pvdz iop(5/13=1,5/36=2,99/5=2) pseudo=read geom=check gue
 ss=(read,tcheck) scf=(maxcycle=1)
 ----------------------------------------------------------------------
 -----
 title
 -----
 Structure from the checkpoint file:  "ANI1ccx_1158_conf7_mol1.chk"
 Charge =  0 Multiplicity = 1

                         Standard orientation:
 ---------------------------------------------------------------------
 Center     Atomic      Atomic             Coordinates (Angstroms)
 Number     Number       Type             X           Y           Z
 ---------------------------------------------------------------------
      1          6           0       -4.187421   -0.307562    0.039280
      2          6           0       -0.054829    0.218063    0.048889
      3          6           0        0.505666    2.325069   -0.093468
      4          6           0        1.342160    0.349164    0.116859
      5          6           0        2.258199   -0.806459   -0.021693
      6          1           0        3.922290    0.372552    0.227068
      7          1           0        4.369589   -1.238012    0.101320
      8          1           0        0.392561    3.378909   -0.296569
      9          1           0       -1.604250    1.670040   -0.177856
     10          1           0       -4.444051   -1.351169   -0.053706
     11          1           0       -4.592211    0.201889    0.941567
     12          1           0       -4.622720    0.273061   -0.752620
     13          1           0       -0.227664   -1.744830   -0.175640
     14          7           0        3.611349   -0.563667    0.094509
     15          7           0       -2.743571   -0.063777    0.097632
     16          7           0       -2.089141   -1.131600   -0.050991
     17          7           0       -0.779914   -0.922551    0.024705
     18          7           0       -0.585023    1.448920   -0.079387
     19          7           0        1.639450    1.724229    0.040311
     20          8           0        1.781469   -1.959121   -0.155028
 ---------------------------------------------------------------------

 SCF Done:  E(RHF) =  -598.268977317     A.U. after    2 cycles

 The electronic state is 1-A.
 Alpha  occ. eigenvalues --  -21.01266 -15.84593 -15.80207 -15.79620 -15.77527
 Alpha  occ. eigenvalues --  -15.77123 -15.73896 -11.52587 -11.51518 -11.43435
 Alpha  occ. eigenvalues --  -11.40284 -11.39891  -1.69463  -1.65185  -1.55705
 Alpha  occ. eigenvalues --   -1.37419  -1.33486  -1.27796  -1.13128  -1.04492
 Alpha  occ. eigenvalues --   -0.92851  -0.87418  -0.85625  -0.79335  -0.73062
 Alpha  occ. eigenvalues --   -0.69880  -0.68031  -0.66370  -0.62885  -0.61264
 Alpha  occ. eigenvalues --   -0.59651  -0.57459  -0.54942  -0.54693  -0.54420
 Alpha  occ. eigenvalues --   -0.52157  -0.47178  -0.40816  -0.39963  -0.37928
 Alpha  occ. eigenvalues --   -0.37040  -0.31836  -0.28879  -0.26092
 Alpha virt. eigenvalues --    0.03228   0.04471   0.05092   0.05734   0.05872
 Alpha virt. eigenvalues --    0.07094   0.07695   0.08056   0.10031   0.10419
 Alpha virt. eigenvalues --    0.10453   0.11398   0.12223   0.12360   0.12791

 Mulliken charges:
               1
     1  C   -3.032591
     2  C    3.435748
     3  C    1.026979
     4  C    1.528600
     5  C    6.179444
     6  H    0.692363
     7  H    0.868081
     8  H    1.691759
     9  H    0.906740
    10  H    1.401876
    11  H    1.399404
    12  H    1.391698
    13  H    0.779278
    14  N   -3.546051
    15  N   -1.669029
    16  N   -0.476420
    17  N   -1.996295
    18  N   -3.464566
    19  N   -3.618039
    20  O   -3.498978
 Sum of Mulliken charges =  -0.00000

 Dipole moment (field-independent basis, Debye):
    X=             -2.3352    Y=              1.3598    Z=             -0.4299  Tot=              2.7363

 Test job not archived.
 1\1\GINC-SE049\SP\RHF\Aug-CC-pVDZ\C5H8N6O1\OHZDE\08-Apr-2025\0\\#t hf
 aug-cc-pvdz iop(5/13=1,5/36=2,99/5=2) pseudo=read geom=check guess=(re
 ad,tcheck) scf=(maxcycle=1)\\title\\0,1\C,0,-4.18742,-0.307563,0.03928
 04\C,0,-0.0548285,0.218064,0.0488887\C,0,0.505666,2.32507,-0.0934681\C
 ,0,1.34216,0.349165,0.116859\C,0,2.2582,-0.806458,-0.0216934\H,0,3.922
 29,0.372554,0.227068\H,0,4.36959,-1.23801,0.10132\H,0,0.392561,3.37891
 ,-0.296569\H,0,-1.60425,1.67004,-0.177856\H,0,-4.44405,-1.35117,-0.053
 706\H,0,-4.59221,0.201888,0.941567\H,0,-4.62272,0.27306,-0.75262\H,0,-

 Normal termination of Gaussian 16 at Tue Apr  8 19:25:48 2025.
