 Gaussian 16, Revision C.01,

 ----------------------------------------------------------------------
 #t hf aug-cc-pvdz symm=none int=(grid=ultrafine) guess=(read,tcheck) s
 table=(opt,rrhf)
 ----------------------------------------------------------------------
 -----
 title
 -----
 Symbolic Z-matrix:
 Charge =  0 Multiplicity = 1

 SCF Done:  E(RHF) =  -505.054939512     A.U. after   15 cycles
 Normal termination of Gaussian 16 at Tue Apr  8 21:42:13 2025.
 Gaussian 16:  ES64L-G16RevC.01  3-Jul-2019

 ----------------------------------------------------------------------
 #t hf aug-cc-pvdz iop(5/13=1,5/36=2,99/5=2) pseudo=read geom=check gue
 ss=(read,tcheck) scf=(maxcycle=1)
 ----------------------------------------------------------------------
 -----
 title
 -----
 Structure from the checkpoint file:  "ANI1ccx_471_conf10_mol2.chk"
 Charge =  0 Multiplicity = 1

                         Standard orientation:
 ---------------------------------------------------------------------
 Center     Atomic      Atomic             Coordinates (Angstroms)
 Number     Number       Type             X           Y           Z
 ---------------------------------------------------------------------
      1          6           0        1.309170   -0.032184   -0.004508
      2          6           0       -0.780341   -0.752939   -0.117855
      3          1           0       -1.790129    2.149670    0.069176
      4          7           0       -0.771249    0.637178   -0.490199
      5          8           0       -1.430600    1.373980    0.513965
      6          8           0        0.631253    1.067070   -0.342561
      7          8           0        2.482040   -0.054137    0.223368
      8          8           0        0.516152   -1.140860    0.097713
      9          8           0       -1.696860   -1.483450    0.019564
 ---------------------------------------------------------------------

 SCF Done:  E(RHF) =  -507.066732137     A.U. after    2 cycles

 The electronic state is 1-A.
 Alpha  occ. eigenvalues --  -21.19050 -21.18559 -21.17794 -21.12737 -21.09424
 Alpha  occ. eigenvalues --  -15.90613 -11.61300 -11.58228  -2.05119  -1.88370
 Alpha  occ. eigenvalues --   -1.82243  -1.73267  -1.71232  -1.26222  -0.91066
 Alpha  occ. eigenvalues --   -0.89440  -0.77063  -0.71288  -0.65421  -0.64669
 Alpha  occ. eigenvalues --   -0.60418  -0.57587  -0.54928  -0.50493  -0.49050
 Alpha  occ. eigenvalues --   -0.41825  -0.38943  -0.37484  -0.34762  -0.32903
 Alpha virt. eigenvalues --    0.03192   0.07382   0.09564   0.10010   0.10767
 Alpha virt. eigenvalues --    0.11097   0.11355   0.11584   0.12481   0.13397
 Alpha virt. eigenvalues --    0.15828   0.16406   0.18190   0.18573   0.19865

 Mulliken charges:
               1
     1  C    5.781727
     2  C    5.609553
     3  H    0.849531
     4  N    1.060784
     5  O   -2.285662
     6  O   -2.319122
     7  O   -2.950371
     8  O   -2.722486
     9  O   -3.023954
 Sum of Mulliken charges =  -0.00000

 Dipole moment (field-independent basis, Debye):
    X=             -1.5226    Y=              1.7334    Z=             -0.0031  Tot=              2.3071

 Test job not archived.
 1\1\GINC-SE339\SP\RHF\Aug-CC-pVDZ\C2H1N1O5\OHZDE\08-Apr-2025\0\\#t hf
 aug-cc-pvdz iop(5/13=1,5/36=2,99/5=2) pseudo=read geom=check guess=(re
 ad,tcheck) scf=(maxcycle=1)\\title\\0,1\C,0,1.30917,-0.0321832,-0.0045
 0793\C,0,-0.780341,-0.752939,-0.117855\H,0,-1.79013,2.14967,0.0691761\
 N,0,-0.771249,0.637178,-0.490199\O,0,-1.4306,1.37398,0.513965\O,0,0.63
 1253,1.06707,-0.342561\O,0,2.48204,-0.054136,0.223368\O,0,0.516152,-1.
 14086,0.0977132\O,0,-1.69686,-1.48345,0.0195636\\Version=ES64L-G16RevC
 .01\State=1-A\HF=-507.0667321\RMSD=6.131e-02\Dipole=-0.5990199,0.68197

 Normal termination of Gaussian 16 at Tue Apr  8 21:42:16 2025.
