 Gaussian 16, Revision C.01,

 ----------------------------------------------------------------------
 #t hf aug-cc-pvdz symm=none int=(grid=ultrafine) guess=(read,tcheck) s
 table=(opt,rrhf)
 ----------------------------------------------------------------------
 -----
 title
 -----
 Symbolic Z-matrix:
 Charge =  0 Multiplicity = 1

 SCF Done:  E(RHF) =  -758.572112610     A.U. after   14 cycles
 Normal termination of Gaussian 16 at Tue Apr  8 21:02:51 2025.
 Gaussian 16:  ES64L-G16RevC.01  3-Jul-2019

 ----------------------------------------------------------------------
 #t hf aug-cc-pvdz iop(5/13=1,5/36=2,99/5=2) pseudo=read geom=check gue
 ss=(read,tcheck) scf=(maxcycle=1)
 ----------------------------------------------------------------------
 -----
 title
 -----
 Structure from the checkpoint file:  "ANI1ccx_1759_conf16_mol2.chk"
 Charge =  0 Multiplicity = 1

                         Standard orientation:
 ---------------------------------------------------------------------
 Center     Atomic      Atomic             Coordinates (Angstroms)
 Number     Number       Type             X           Y           Z
 ---------------------------------------------------------------------
      1          6           0       -1.851230    0.812998    0.331064
      2          6           0        2.540581    1.779999    0.638503
      3          6           0        2.869280    1.046429   -0.654767
      4          6           0        2.351150   -1.339731   -0.079776
      5          6           0        0.969397    1.831809    0.636029
      6          6           0       -3.791280   -0.612698   -0.878038
      7          6           0       -3.045970   -0.132477    0.412013
      8          6           0       -0.590344   -0.025232   -0.094493
      9          6           0        1.811750   -0.029750   -0.736123
     10          1           0        3.882400    0.715253   -0.631099
     11          1           0        0.509570   -1.871751   -0.093464
     12          1           0        0.571255    1.915139    1.644650
     13          1           0        0.657194    2.701569    0.047573
     14          1           0        2.771620    1.264189    1.549670
     15          1           0        2.899511    2.769789    0.733875
     16          1           0        2.740821    1.741569   -1.479640
     17          1           0        1.507000   -0.286333   -1.725240
     18          1           0       -3.827180    0.212225   -1.593860
     19          1           0       -4.783600   -0.924531   -0.585157
     20          1           0       -1.892670   -1.548041    0.761627
     21          1           0       -3.809600    0.463015    0.995395
     22          1           0       -1.589220    1.217069    1.344480
     23          1           0       -3.010689    2.344249   -0.195839
     24          1           0       -1.475259    2.602899   -0.591455
     25          1           0       -3.193360   -1.465911   -1.297260
     26          7           0       -2.157759    1.897479   -0.611088
     27          7           0        0.620895    0.576811   -0.001930
     28          8           0        3.520020   -1.564411    0.096949
     29          8           0       -0.794531   -1.102301   -0.565973
     30          8           0       -2.698810   -1.236021    1.201690
     31          8           0        1.375850   -2.242081    0.262383
 ---------------------------------------------------------------------

 SCF Done:  E(RHF) =  -762.022383396     A.U. after    2 cycles

 The electronic state is 1-A.
 Alpha  occ. eigenvalues --  -21.08635 -21.07154 -21.05204 -21.05060 -15.78586
 Alpha  occ. eigenvalues --  -15.76554 -11.57253 -11.54348 -11.50087 -11.49315
 Alpha  occ. eigenvalues --  -11.48223 -11.44310 -11.43756 -11.39674 -11.37050
 Alpha  occ. eigenvalues --   -1.82282  -1.78360  -1.71027  -1.64509  -1.50374
 Alpha  occ. eigenvalues --   -1.37025  -1.22327  -1.13948  -1.11118  -1.03240
 Alpha  occ. eigenvalues --   -0.96400  -0.90094  -0.87363  -0.80565  -0.77369
 Alpha  occ. eigenvalues --   -0.75351  -0.70518  -0.68767  -0.66990  -0.65450
 Alpha  occ. eigenvalues --   -0.64714  -0.61974  -0.60558  -0.58819  -0.57270
 Alpha  occ. eigenvalues --   -0.56548  -0.55015  -0.52414  -0.52047  -0.51130
 Alpha  occ. eigenvalues --   -0.50202  -0.49006  -0.48502  -0.47534  -0.46530
 Alpha  occ. eigenvalues --   -0.44190  -0.40406  -0.39362  -0.34294  -0.32651
 Alpha  occ. eigenvalues --   -0.31156  -0.30091  -0.28348
 Alpha virt. eigenvalues --    0.02961   0.03583   0.03753   0.04096   0.04933
 Alpha virt. eigenvalues --    0.05078   0.06024   0.06192   0.06840   0.07212
 Alpha virt. eigenvalues --    0.07338   0.07726   0.08522   0.08871   0.09580

 Mulliken charges:
               1
     1  C   -1.297008
     2  C   -3.420553
     3  C   -2.205702
     4  C    6.487282
     5  C   -2.610691
     6  C   -4.219462
     7  C    2.471884
     8  C    6.828157
     9  C   -4.132290
    10  H    1.448739
    11  H    1.806271
    12  H    1.830878
    13  H    1.851426
    14  H    1.395727
    15  H    1.170528
    16  H    1.280322
    17  H    2.108051
    18  H    1.348365
    19  H    1.140174
    20  H    0.969877
    21  H    1.170448
    22  H    1.798374
    23  H    0.510979
    24  H    0.753345
    25  H    1.353353
    26  N   -3.056785
    27  N   -2.393985
    28  O   -3.309854
    29  O   -3.980478
    30  O   -3.682238
    31  O   -3.415134
 Sum of Mulliken charges =  -0.00000

 Dipole moment (field-independent basis, Debye):
    X=             -0.1474    Y=              4.8711    Z=              0.0117  Tot=              4.8734

 Test job not archived.
 1\1\GINC-SE454\SP\RHF\Aug-CC-pVDZ\C9H16N2O4\OHZDE\08-Apr-2025\0\\#t hf
  aug-cc-pvdz iop(5/13=1,5/36=2,99/5=2) pseudo=read geom=check guess=(r
 ead,tcheck) scf=(maxcycle=1)\\title\\0,1\C,0,-1.85123,0.812999,0.33106
 4\C,0,2.54058,1.78,0.638503\C,0,2.86928,1.04643,-0.654767\C,0,2.35115,
 -1.33973,-0.0797759\C,0,0.969396,1.83181,0.636029\C,0,-3.79128,-0.6126
 97,-0.878038\C,0,-3.04597,-0.132476,0.412013\C,0,-0.590344,-0.0252309,
 -0.0944935\C,0,1.81175,-0.0297491,-0.736123\H,0,3.8824,0.715254,-0.631
 099\H,0,0.50957,-1.87175,-0.0934636\H,0,0.571254,1.91514,1.64465\H,0,0

 Normal termination of Gaussian 16 at Tue Apr  8 21:03:30 2025.
