 Gaussian 16, Revision C.01,

 ----------------------------------------------------------------------
 #t hf aug-cc-pvdz symm=none int=(grid=ultrafine) guess=(read,tcheck) s
 table=(opt,rrhf)
 ----------------------------------------------------------------------
 -----
 title
 -----
 Symbolic Z-matrix:
 Charge =  0 Multiplicity = 1

 SCF Done:  E(RHF) =  -603.931398585     A.U. after   16 cycles
 Normal termination of Gaussian 16 at Tue Apr  8 19:31:22 2025.
 Gaussian 16:  ES64L-G16RevC.01  3-Jul-2019

 ----------------------------------------------------------------------
 #t hf aug-cc-pvdz iop(5/13=1,5/36=2,99/5=2) pseudo=read geom=check gue
 ss=(read,tcheck) scf=(maxcycle=1)
 ----------------------------------------------------------------------
 -----
 title
 -----
 Structure from the checkpoint file:  "ANI1ccx_1299_conf1_mol2.chk"
 Charge =  0 Multiplicity = 1

                         Standard orientation:
 ---------------------------------------------------------------------
 Center     Atomic      Atomic             Coordinates (Angstroms)
 Number     Number       Type             X           Y           Z
 ---------------------------------------------------------------------
      1          6           0       -1.585750   -0.878443   -0.007166
      2          6           0       -0.758125    0.321438   -0.043233
      3          6           0       -1.206738    1.570720   -0.093661
      4          6           0        0.923665    1.750949   -0.003731
      5          6           0        0.689287    0.433388    0.022721
      6          6           0        1.867030   -0.562855    0.053379
      7          1           0       -3.076799    0.249428    0.338435
      8          1           0       -2.238988    1.946601   -0.153093
      9          1           0        1.884902    2.252219    0.030088
     10          1           0        0.565539   -1.941050   -0.228178
     11          8           0       -2.881060   -0.731587    0.263490
     12          8           0       -1.068620   -1.966770   -0.208415
     13          8           0       -0.211169    2.473780   -0.094874
     14          8           0        1.553350   -1.846131   -0.084420
     15          8           0        3.018641   -0.219091    0.179581
 ---------------------------------------------------------------------

 SCF Done:  E(RHF) =  -606.480820054     A.U. after    2 cycles

 The electronic state is 1-A.
 Alpha  occ. eigenvalues --  -21.18086 -21.17290 -21.09621 -21.09117 -21.04255
 Alpha  occ. eigenvalues --  -11.59226 -11.54412 -11.53223 -11.49677 -11.49511
 Alpha  occ. eigenvalues --  -11.43626  -1.92806  -1.86744  -1.81171  -1.70759
 Alpha  occ. eigenvalues --   -1.64054  -1.28233  -1.14337  -0.96238  -0.90611
 Alpha  occ. eigenvalues --   -0.85978  -0.80662  -0.74987  -0.67165  -0.66286
 Alpha  occ. eigenvalues --   -0.63940  -0.61706  -0.59163  -0.56605  -0.54987
 Alpha  occ. eigenvalues --   -0.53178  -0.52587  -0.48068  -0.43863  -0.39984
 Alpha  occ. eigenvalues --   -0.37706  -0.37001  -0.33308  -0.31686  -0.30006
 Alpha virt. eigenvalues --    0.01897   0.04571   0.04909   0.06781   0.07255
 Alpha virt. eigenvalues --    0.08757   0.09005   0.09388   0.10130   0.10649
 Alpha virt. eigenvalues --    0.11186   0.11729   0.11990   0.12287   0.12891

 Mulliken charges:
               1
     1  C    6.296888
     2  C    2.146644
     3  C   -1.171980
     4  C   -1.356916
     5  C    0.022402
     6  C    5.850925
     7  H    1.087708
     8  H    1.431466
     9  H    1.487104
    10  H    1.719126
    11  O   -3.293521
    12  O   -3.399216
    13  O   -4.121830
    14  O   -3.386740
    15  O   -3.312060
 Sum of Mulliken charges =  -0.00000

 Dipole moment (field-independent basis, Debye):
    X=             -3.8008    Y=              3.1847    Z=             -0.0335  Tot=              4.9588

 Test job not archived.
 1\1\GINC-SE051\SP\RHF\Aug-CC-pVDZ\C6H4O5\OHZDE\08-Apr-2025\0\\#t hf au
 g-cc-pvdz iop(5/13=1,5/36=2,99/5=2) pseudo=read geom=check guess=(read
 ,tcheck) scf=(maxcycle=1)\\title\\0,1\C,0,-1.58575,-0.878444,-0.007166
 21\C,0,-0.758126,0.321438,-0.0432326\C,0,-1.20674,1.57072,-0.093661\C,
 0,0.923663,1.75095,-0.00373079\C,0,0.689286,0.433389,0.0227206\C,0,1.8
 6703,-0.562854,0.0533792\H,0,-3.0768,0.249427,0.338435\H,0,-2.23899,1.
 9466,-0.153093\H,0,1.8849,2.25222,0.030088\H,0,0.565539,-1.94105,-0.22
 8178\O,0,-2.88106,-0.731588,0.26349\O,0,-1.06862,-1.96677,-0.208415\O,

 Normal termination of Gaussian 16 at Tue Apr  8 19:31:51 2025.
