 Gaussian 16, Revision C.01,

 ----------------------------------------------------------------------
 #t hf aug-cc-pvdz symm=none int=(grid=ultrafine) guess=(read,tcheck) s
 table=(opt,rrhf)
 ----------------------------------------------------------------------
 -----
 title
 -----
 Symbolic Z-matrix:
 Charge =  0 Multiplicity = 1

 SCF Done:  E(RHF) =  -369.531607679     A.U. after   16 cycles
 Normal termination of Gaussian 16 at Tue Apr  8 21:43:49 2025.
 Gaussian 16:  ES64L-G16RevC.01  3-Jul-2019

 ----------------------------------------------------------------------
 #t hf aug-cc-pvdz iop(5/13=1,5/36=2,99/5=2) pseudo=read geom=check gue
 ss=(read,tcheck) scf=(maxcycle=1)
 ----------------------------------------------------------------------
 -----
 title
 -----
 Structure from the checkpoint file:  "ANI1ccx_487_conf3_mol1.chk"
 Charge =  0 Multiplicity = 1

                         Standard orientation:
 ---------------------------------------------------------------------
 Center     Atomic      Atomic             Coordinates (Angstroms)
 Number     Number       Type             X           Y           Z
 ---------------------------------------------------------------------
      1          6           0       -0.969693    0.082223   -0.013680
      2          6           0        1.004311    1.110218    0.056011
      3          1           0        1.522802    2.016498    0.003295
      4          1           0       -0.677436   -1.964550   -0.004239
      5          7           0       -0.289029    1.286099   -0.007014
      6          7           0        1.752880   -0.056808   -0.028976
      7          7           0        1.106979   -1.178832   -0.081130
      8          7           0       -0.244859   -1.082251    0.131797
      9          8           0       -2.166860    0.001992   -0.044472
 ---------------------------------------------------------------------

 SCF Done:  E(RHF) =  -371.117079275     A.U. after    2 cycles

 The electronic state is 1-A.
 Alpha  occ. eigenvalues --  -21.04934 -15.90503 -15.85606 -15.82336 -15.78923
 Alpha  occ. eigenvalues --  -11.53496 -11.49592  -1.76988  -1.66604  -1.42561
 Alpha  occ. eigenvalues --   -1.37640  -1.06852  -0.97751  -0.79468  -0.76015
 Alpha  occ. eigenvalues --   -0.71375  -0.69149  -0.55804  -0.53538  -0.52599
 Alpha  occ. eigenvalues --   -0.49632  -0.49026  -0.40591  -0.33110  -0.31596
 Alpha virt. eigenvalues --    0.03205   0.04480   0.04991   0.09442   0.09640
 Alpha virt. eigenvalues --    0.09817   0.11661   0.12091   0.12599   0.14113
 Alpha virt. eigenvalues --    0.14470   0.15072   0.15706   0.16903   0.17545

 Mulliken charges:
               1
     1  C    5.310049
     2  C    1.095648
     3  H    1.671386
     4  H    0.842525
     5  N   -2.601281
     6  N   -1.447883
     7  N   -0.161457
     8  N   -1.730240
     9  O   -2.978747
 Sum of Mulliken charges =  -0.00000

 Dipole moment (field-independent basis, Debye):
    X=              0.9868    Y=             -1.1638    Z=              0.1114  Tot=              1.5299

 Test job not archived.
 1\1\GINC-SE453\SP\RHF\Aug-CC-pVDZ\C2H2N4O1\OHZDE\08-Apr-2025\0\\#t hf
 aug-cc-pvdz iop(5/13=1,5/36=2,99/5=2) pseudo=read geom=check guess=(re
 ad,tcheck) scf=(maxcycle=1)\\title\\0,1\C,0,-0.969693,0.0822232,-0.013
 6803\C,0,1.00431,1.11022,0.0560111\H,0,1.5228,2.0165,0.00329458\H,0,-0
 .677435,-1.96455,-0.00423905\N,0,-0.28903,1.2861,-0.00701453\N,0,1.752
 88,-0.056806,-0.0289756\N,0,1.10698,-1.17883,-0.0811305\N,0,-0.244858,
 -1.08225,0.131797\O,0,-2.16686,0.00199132,-0.0444721\\Version=ES64L-G1
 6RevC.01\State=1-A\HF=-371.1170793\RMSD=7.855e-02\Dipole=0.3882345,-0.

 Normal termination of Gaussian 16 at Tue Apr  8 21:43:52 2025.
