 Gaussian 16, Revision C.01,

 ----------------------------------------------------------------------
 #t hf aug-cc-pvdz symm=none int=(grid=ultrafine) guess=(read,tcheck) s
 table=(opt,rrhf)
 ----------------------------------------------------------------------
 -----
 title
 -----
 Symbolic Z-matrix:
 Charge =  0 Multiplicity = 1

 SCF Done:  E(RHF) =  -451.826990891     A.U. after   13 cycles
 Normal termination of Gaussian 16 at Tue Apr  8 21:56:37 2025.
 Gaussian 16:  ES64L-G16RevC.01  3-Jul-2019

 ----------------------------------------------------------------------
 #t hf aug-cc-pvdz iop(5/13=1,5/36=2,99/5=2) pseudo=read geom=check gue
 ss=(read,tcheck) scf=(maxcycle=1)
 ----------------------------------------------------------------------
 -----
 title
 -----
 Structure from the checkpoint file:  "ANI1ccx_764_conf10_mol1.chk"
 Charge =  0 Multiplicity = 1

                         Standard orientation:
 ---------------------------------------------------------------------
 Center     Atomic      Atomic             Coordinates (Angstroms)
 Number     Number       Type             X           Y           Z
 ---------------------------------------------------------------------
      1          6           0       -1.908150   -0.742304    0.520882
      2          6           0       -0.098847    0.754187    0.085341
      3          6           0        2.337601    0.054082    0.214867
      4          1           0       -2.343119    0.369188   -0.967387
      5          1           0       -2.111090   -1.731619    0.972642
      6          1           0       -2.392340   -0.102403    1.238210
      7          1           0        0.235129   -1.240270    0.451617
      8          1           0        1.450811    1.908439   -0.391222
      9          1           0        3.281221    0.502086   -0.082195
     10          1           0        2.352130   -0.132662    1.318620
     11          1           0        2.022970   -1.192871   -1.234060
     12          7           0       -0.488847   -0.505079    0.395781
     13          7           0        1.241971    0.917397   -0.185413
     14          8           0       -2.535230   -0.581138   -0.704203
     15          8           0       -0.913581    1.646120    0.032651
     16          8           0        2.229910   -1.272721   -0.291616
 ---------------------------------------------------------------------

 SCF Done:  E(RHF) =  -453.798009485     A.U. after    2 cycles

 The electronic state is 1-A.
 Alpha  occ. eigenvalues --  -21.10007 -21.05114 -21.02044 -15.77069 -15.75052
 Alpha  occ. eigenvalues --  -11.51015 -11.46539 -11.42778  -1.76015  -1.73967
 Alpha  occ. eigenvalues --   -1.69839  -1.41268  -1.33214  -1.00933  -0.95386
 Alpha  occ. eigenvalues --   -0.80709  -0.75277  -0.70406  -0.66833  -0.65022
 Alpha  occ. eigenvalues --   -0.61136  -0.58497  -0.56354  -0.53773  -0.50248
 Alpha  occ. eigenvalues --   -0.46104  -0.42412  -0.36638  -0.35361  -0.32496
 Alpha  occ. eigenvalues --   -0.30518  -0.29987
 Alpha virt. eigenvalues --    0.03220   0.04972   0.05202   0.05455   0.06010
 Alpha virt. eigenvalues --    0.06735   0.07948   0.08976   0.10460   0.10683
 Alpha virt. eigenvalues --    0.12166   0.12829   0.13466   0.14655   0.15042

 Mulliken charges:
               1
     1  C   -0.277119
     2  C    5.569176
     3  C   -0.799126
     4  H    0.783741
     5  H    1.523236
     6  H    1.447741
     7  H    0.737762
     8  H    0.470204
     9  H    1.447331
    10  H    1.532872
    11  H    0.701368
    12  N   -2.956180
    13  N   -2.391484
    14  O   -2.555684
    15  O   -2.976116
    16  O   -2.257722
 Sum of Mulliken charges =  -0.00000

 Dipole moment (field-independent basis, Debye):
    X=              2.8532    Y=             -0.8686    Z=              0.4525  Tot=              3.0166

 Test job not archived.
 1\1\GINC-SE074\SP\RHF\Aug-CC-pVDZ\C3H8N2O3\OHZDE\08-Apr-2025\0\\#t hf
 aug-cc-pvdz iop(5/13=1,5/36=2,99/5=2) pseudo=read geom=check guess=(re
 ad,tcheck) scf=(maxcycle=1)\\title\\0,1\C,0,-1.90815,-0.742304,0.52088
 2\C,0,-0.0988478,0.754187,0.0853405\C,0,2.3376,0.0540833,0.214867\H,0,
 -2.34312,0.369187,-0.967387\H,0,-2.11109,-1.73162,0.972642\H,0,-2.3923
 4,-0.102404,1.23821\H,0,0.235129,-1.24027,0.451617\H,0,1.45081,1.90844
 ,-0.391222\H,0,3.28122,0.502087,-0.0821946\H,0,2.35213,-0.132661,1.318
 62\H,0,2.02297,-1.19287,-1.23406\N,0,-0.488847,-0.505079,0.395781\N,0,

 Normal termination of Gaussian 16 at Tue Apr  8 21:56:43 2025.
