 Gaussian 16, Revision C.01,

 ----------------------------------------------------------------------
 #t hf aug-cc-pvdz symm=none int=(grid=ultrafine) guess=(read,tcheck) s
 table=(opt,rrhf)
 ----------------------------------------------------------------------
 -----
 title
 -----
 Symbolic Z-matrix:
 Charge =  0 Multiplicity = 1

 SCF Done:  E(RHF) =  -406.480550445     A.U. after   15 cycles
 Normal termination of Gaussian 16 at Tue Apr  8 21:36:46 2025.
 Gaussian 16:  ES64L-G16RevC.01  3-Jul-2019

 ----------------------------------------------------------------------
 #t hf aug-cc-pvdz iop(5/13=1,5/36=2,99/5=2) pseudo=read geom=check gue
 ss=(read,tcheck) scf=(maxcycle=1)
 ----------------------------------------------------------------------
 -----
 title
 -----
 Structure from the checkpoint file:  "ANI1ccx_379_conf9_mol1.chk"
 Charge =  0 Multiplicity = 1

                         Standard orientation:
 ---------------------------------------------------------------------
 Center     Atomic      Atomic             Coordinates (Angstroms)
 Number     Number       Type             X           Y           Z
 ---------------------------------------------------------------------
      1          6           0        0.009224    0.774338   -0.066972
      2          1           0        2.168740   -0.724926    1.010000
      3          1           0        2.209310   -0.302386   -0.667239
      4          7           0        1.811779   -0.878759   -0.000082
      5          7           0        0.446237   -0.500147   -0.067356
      6          7           0       -0.557972   -1.314469   -0.048281
      7          7           0       -1.614820   -0.670105    0.082422
      8          8           0       -1.294287    0.705776   -0.003031
      9          8           0        0.665542    1.784928    0.039549
 ---------------------------------------------------------------------

 SCF Done:  E(RHF) =  -408.183382800     A.U. after    2 cycles

 The electronic state is 1-A.
 Alpha  occ. eigenvalues --  -21.16623 -21.06109 -15.87978 -15.86685 -15.85881
 Alpha  occ. eigenvalues --  -15.83477 -11.55963  -2.01838  -1.72337  -1.66710
 Alpha  occ. eigenvalues --   -1.44855  -1.24269  -0.97960  -0.87410  -0.79273
 Alpha  occ. eigenvalues --   -0.74635  -0.69715  -0.61422  -0.58250  -0.53543
 Alpha  occ. eigenvalues --   -0.50769  -0.47802  -0.46634  -0.43631  -0.32589
 Alpha  occ. eigenvalues --   -0.30706
 Alpha virt. eigenvalues --    0.03442   0.05355   0.09059   0.10972   0.11394
 Alpha virt. eigenvalues --    0.11699   0.12238   0.12631   0.13534   0.15140
 Alpha virt. eigenvalues --    0.16586   0.16938   0.18036   0.18355   0.19931

 Mulliken charges:
               1
     1  C    5.468630
     2  H    0.619660
     3  H    0.702050
     4  N   -1.850603
     5  N    0.177915
     6  N    0.414601
     7  N   -0.018602
     8  O   -2.669363
     9  O   -2.844288
 Sum of Mulliken charges =  -0.00000

 Dipole moment (field-independent basis, Debye):
    X=              2.1087    Y=             -0.5610    Z=              0.2915  Tot=              2.2014

 Test job not archived.
 1\1\GINC-SE126\SP\RHF\Aug-CC-pVDZ\C1H2N4O2\OHZDE\08-Apr-2025\0\\#t hf
 aug-cc-pvdz iop(5/13=1,5/36=2,99/5=2) pseudo=read geom=check guess=(re
 ad,tcheck) scf=(maxcycle=1)\\title\\0,1\C,0,0.00922069,0.774339,-0.066
 9721\H,0,2.16874,-0.724921,1.01\H,0,2.20931,-0.30238,-0.667239\N,0,1.8
 1178,-0.878754,-0.00008149\N,0,0.446237,-0.500145,-0.0673557\N,0,-0.55
 797,-1.31447,-0.0482805\N,0,-1.61482,-0.670108,0.0824217\O,0,-1.29429,
 0.705774,-0.00303093\O,0,0.665537,1.78493,0.0395492\\Version=ES64L-G16
 RevC.01\State=1-A\HF=-408.1833828\RMSD=1.091e-01\Dipole=0.8296217,-0.2

 Normal termination of Gaussian 16 at Tue Apr  8 21:36:49 2025.
