 Gaussian 16, Revision C.01,

 ----------------------------------------------------------------------
 #t hf aug-cc-pvdz symm=none int=(grid=ultrafine) guess=(read,tcheck) s
 table=(opt,rrhf)
 ----------------------------------------------------------------------
 -----
 title
 -----
 Symbolic Z-matrix:
 Charge =  0 Multiplicity = 1

 SCF Done:  E(RHF) =  -380.218047663     A.U. after   11 cycles
 Normal termination of Gaussian 16 at Tue Apr  8 21:07:28 2025.
 Gaussian 16:  ES64L-G16RevC.01  3-Jul-2019

 ----------------------------------------------------------------------
 #t hf aug-cc-pvdz iop(5/13=1,5/36=2,99/5=2) pseudo=read geom=check gue
 ss=(read,tcheck) scf=(maxcycle=1)
 ----------------------------------------------------------------------
 -----
 title
 -----
 Structure from the checkpoint file:  "ANI1ccx_1843_conf86_mol1.chk"
 Charge =  0 Multiplicity = 1

                         Standard orientation:
 ---------------------------------------------------------------------
 Center     Atomic      Atomic             Coordinates (Angstroms)
 Number     Number       Type             X           Y           Z
 ---------------------------------------------------------------------
      1          1           0        0.835443    1.313379   -0.162563
      2          1           0        0.087639    2.595179    0.232916
      3          1           0        1.889500   -0.599095   -0.233641
      4          1           0        2.930650    0.341784    0.446703
      5          1           0        0.467660   -2.596361   -0.432543
      6          1           0       -0.070527   -1.370911    0.492697
      7          1           0       -1.616010   -0.248864    0.870065
      8          1           0       -0.319821    0.260020    1.532130
      9          1           0       -1.311850   -0.502354   -1.242340
     10          1           0       -1.501969    1.007169   -1.040130
     11          8           0       -0.021251    1.663689    0.189814
     12          8           0        2.330480    0.280269   -0.347272
     13          8           0        0.427032   -1.619611   -0.374264
     14          8           0       -0.891522   -0.509392    1.511180
     15          8           0       -2.018580    0.160052   -1.037370
 ---------------------------------------------------------------------

 SCF Done:  E(RHF) =  -381.865539155     A.U. after    2 cycles

 The electronic state is 1-A.
 Alpha  occ. eigenvalues --  -21.10090 -21.09087 -21.08189 -21.07567 -21.06952
 Alpha  occ. eigenvalues --   -1.69647  -1.67861  -1.66244  -1.63429  -1.62958
 Alpha  occ. eigenvalues --   -0.66381  -0.65782  -0.63708  -0.63151  -0.60527
 Alpha  occ. eigenvalues --   -0.53818  -0.48473  -0.47664  -0.47156  -0.41557
 Alpha  occ. eigenvalues --   -0.37184  -0.35617  -0.35018  -0.33625  -0.32170
 Alpha virt. eigenvalues --    0.03469   0.04795   0.04918   0.07213   0.07415
 Alpha virt. eigenvalues --    0.08018   0.08058   0.08445   0.09297   0.10713
 Alpha virt. eigenvalues --    0.17718   0.19361   0.20393   0.21464   0.22374

 Mulliken charges:
               1
     1  H    1.377494
     2  H    1.045352
     3  H    1.339068
     4  H    0.778040
     5  H    0.868553
     6  H    1.592573
     7  H    1.137439
     8  H    1.193320
     9  H    1.001428
    10  H    1.188513
    11  O   -2.539331
    12  O   -2.034907
    13  O   -2.227282
    14  O   -2.606202
    15  O   -2.114057
 Sum of Mulliken charges =   0.00000

 Dipole moment (field-independent basis, Debye):
    X=              1.3634    Y=              0.5219    Z=              0.6394  Tot=              1.5937

 Test job not archived.
 1\1\GINC-SE044\SP\RHF\Aug-CC-pVDZ\H10O5\OHZDE\08-Apr-2025\0\\#t hf aug
 -cc-pvdz iop(5/13=1,5/36=2,99/5=2) pseudo=read geom=check guess=(read,
 tcheck) scf=(maxcycle=1)\\title\\0,1\H,0,0.835442,1.31338,-0.162563\H,
 0,0.0876377,2.59518,0.232916\H,0,1.8895,-0.599094,-0.233641\H,0,2.9306
 5,0.341785,0.446703\H,0,0.46766,-2.59636,-0.432543\H,0,-0.0705273,-1.3
 7091,0.492697\H,0,-1.61601,-0.248863,0.870065\H,0,-0.319821,0.260021,1
 .53213\H,0,-1.31185,-0.502353,-1.24234\H,0,-1.50197,1.00717,-1.04013\O
 ,0,-0.0212514,1.66369,0.189814\O,0,2.33048,0.28027,-0.347272\O,0,0.427

 Normal termination of Gaussian 16 at Tue Apr  8 21:07:32 2025.
