 Gaussian 16, Revision C.01,

 ----------------------------------------------------------------------
 #t hf aug-cc-pvdz symm=none int=(grid=ultrafine) guess=(read,tcheck) s
 table=(opt,rrhf)
 ----------------------------------------------------------------------
 -----
 title
 -----
 Symbolic Z-matrix:
 Charge =  0 Multiplicity = 1

 SCF Done:  E(RHF) =  -908.378201653     A.U. after   14 cycles
 Normal termination of Gaussian 16 at Tue Apr  8 21:14:31 2025.
 Gaussian 16:  ES64L-G16RevC.01  3-Jul-2019

 ----------------------------------------------------------------------
 #t hf aug-cc-pvdz iop(5/13=1,5/36=2,99/5=2) pseudo=read geom=check gue
 ss=(read,tcheck) scf=(maxcycle=1)
 ----------------------------------------------------------------------
 -----
 title
 -----
 Structure from the checkpoint file:  "ANI1ccx_1761_conf10_mol1.chk"
 Charge =  0 Multiplicity = 1

                         Standard orientation:
 ---------------------------------------------------------------------
 Center     Atomic      Atomic             Coordinates (Angstroms)
 Number     Number       Type             X           Y           Z
 ---------------------------------------------------------------------
      1          6           0       -2.250041   -0.095835    0.702244
      2          6           0        2.955519    0.886162   -0.892051
      3          6           0        2.112949   -0.163360   -1.604960
      4          6           0        1.872399   -1.549100    0.575623
      5          6           0        2.247319    1.958290   -0.099492
      6          6           0       -3.984401   -0.702635   -1.091300
      7          6           0       -3.224031    0.415982   -0.402577
      8          6           0       -1.186831   -1.006870    0.094912
      9          6           0        1.188619   -1.011980   -0.714508
     10          1           0        0.850998   -1.920830   -1.244770
     11          1           0        3.150349   -2.820620    1.101020
     12          1           0        0.627634    2.941710   -0.036480
     13          1           0        3.706839    0.485822   -0.207971
     14          1           0        3.530809    1.380720   -1.698160
     15          1           0        2.784359   -0.796098   -2.239630
     16          1           0        1.492009    0.334753   -2.372140
     17          1           0       -0.046821    0.570757    0.022960
     18          1           0       -4.735891   -0.253631   -1.772210
     19          1           0       -4.443261   -1.358751   -0.308735
     20          1           0       -3.318351   -1.364591   -1.667010
     21          1           0       -4.617431    0.731771    0.739097
     22          1           0       -2.559451    0.959970   -1.097460
     23          1           0       -2.808621   -0.658792    1.482120
     24          1           0       -2.275461    1.742020    1.625580
     25          1           0       -1.257721    0.712023    2.250420
     26          7           0       -1.585781    1.061490    1.346910
     27          7           0       -0.039268   -0.370770   -0.341069
     28          8           0       -1.296481   -2.222770    0.007841
     29          8           0       -4.119451    1.315409    0.155437
     30          8           0        1.745599   -1.144610    1.686140
     31          8           0        2.662599    2.562650    0.838617
     32          8           0        1.013059    2.219500   -0.572667
     33          8           0        2.857969   -2.468330    0.256525
 ---------------------------------------------------------------------

 SCF Done:  E(RHF) =  -912.382953882     A.U. after    2 cycles

 The electronic state is 1-A.
 Alpha  occ. eigenvalues --  -21.12090 -21.11990 -21.08679 -21.06875 -21.05704
 Alpha  occ. eigenvalues --  -21.02670 -15.74930 -15.74587 -11.55177 -11.53889
 Alpha  occ. eigenvalues --  -11.53797 -11.50008 -11.48456 -11.45146 -11.43956
 Alpha  occ. eigenvalues --  -11.41242 -11.38124  -1.84325  -1.82705  -1.75830
 Alpha  occ. eigenvalues --   -1.70285  -1.66329  -1.65769  -1.41945  -1.34725
 Alpha  occ. eigenvalues --   -1.22373  -1.14109  -1.08282  -1.00258  -0.94698
 Alpha  occ. eigenvalues --   -0.87669  -0.82928  -0.79822  -0.77286  -0.71256
 Alpha  occ. eigenvalues --   -0.67738  -0.66913  -0.66049  -0.64904  -0.63800
 Alpha  occ. eigenvalues --   -0.62171  -0.60823  -0.60299  -0.59024  -0.58933
 Alpha  occ. eigenvalues --   -0.57128  -0.56748  -0.53972  -0.52346  -0.51136
 Alpha  occ. eigenvalues --   -0.50373  -0.49946  -0.49206  -0.47334  -0.46742
 Alpha  occ. eigenvalues --   -0.45521  -0.44599  -0.41779  -0.39271  -0.35005
 Alpha  occ. eigenvalues --   -0.33940  -0.33366  -0.31733  -0.29885  -0.29726
 Alpha  occ. eigenvalues --   -0.27948
 Alpha virt. eigenvalues --    0.03534   0.04309   0.04636   0.04779   0.05160
 Alpha virt. eigenvalues --    0.05439   0.05831   0.05960   0.06356   0.06603
 Alpha virt. eigenvalues --    0.06879   0.07571   0.08455   0.09184   0.09768

 Mulliken charges:
               1
     1  C   -2.527922
     2  C   -4.157985
     3  C   -3.346797
     4  C    7.483833
     5  C    6.756012
     6  C   -4.451252
     7  C    2.121823
     8  C    7.188411
     9  C   -2.723425
    10  H    1.990238
    11  H    0.838553
    12  H    0.985510
    13  H    1.390239
    14  H    1.313867
    15  H    1.274143
    16  H    1.418396
    17  H    1.635344
    18  H    1.073609
    19  H    1.112392
    20  H    1.320726
    21  H    0.706733
    22  H    1.785467
    23  H    1.758015
    24  H    0.758195
    25  H    0.496755
    26  N   -2.880748
    27  N   -2.272277
    28  O   -4.165721
    29  O   -3.582809
    30  O   -3.312610
    31  O   -3.447058
    32  O   -3.333240
    33  O   -3.206419
 Sum of Mulliken charges =  -0.00000

 Dipole moment (field-independent basis, Debye):
    X=             -0.4712    Y=              0.8332    Z=             -0.8768  Tot=              1.2981

 Test job not archived.
 1\1\GINC-SE187\SP\RHF\Aug-CC-pVDZ\C9H16N2O6\OHZDE\08-Apr-2025\0\\#t hf
  aug-cc-pvdz iop(5/13=1,5/36=2,99/5=2) pseudo=read geom=check guess=(r
 ead,tcheck) scf=(maxcycle=1)\\title\\0,1\C,0,-2.25004,-0.0958344,0.702
 244\C,0,2.95552,0.886162,-0.892051\C,0,2.11295,-0.16336,-1.60496\C,0,1
 .8724,-1.5491,0.575623\C,0,2.24732,1.95829,-0.0994921\C,0,-3.9844,-0.7
 02634,-1.0913\C,0,-3.22403,0.415983,-0.402577\C,0,-1.18683,-1.00687,0.
 094912\C,0,1.18862,-1.01198,-0.714508\H,0,0.850999,-1.92083,-1.24477\H
 ,0,3.15035,-2.82062,1.10102\H,0,0.627635,2.94171,-0.0364797\H,0,3.7068

 Normal termination of Gaussian 16 at Tue Apr  8 21:15:20 2025.
