 Gaussian 16, Revision C.01,

 ----------------------------------------------------------------------
 #t hf aug-cc-pvdz symm=none int=(grid=ultrafine) guess=(read,tcheck) s
 table=(opt,rrhf)
 ----------------------------------------------------------------------
 -----
 title
 -----
 Symbolic Z-matrix:
 Charge =  0 Multiplicity = 1

 SCF Done:  E(RHF) =  -538.506569086     A.U. after   16 cycles
 Normal termination of Gaussian 16 at Tue Apr  8 21:54:53 2025.
 Gaussian 16:  ES64L-G16RevC.01  3-Jul-2019

 ----------------------------------------------------------------------
 #t hf aug-cc-pvdz iop(5/13=1,5/36=2,99/5=2) pseudo=read geom=check gue
 ss=(read,tcheck) scf=(maxcycle=1)
 ----------------------------------------------------------------------
 -----
 title
 -----
 Structure from the checkpoint file:  "ANI1ccx_716_conf3_mol1.chk"
 Charge =  0 Multiplicity = 1

                         Standard orientation:
 ---------------------------------------------------------------------
 Center     Atomic      Atomic             Coordinates (Angstroms)
 Number     Number       Type             X           Y           Z
 ---------------------------------------------------------------------
      1          6           0       -0.742434    0.449828    0.533068
      2          6           0       -1.764461   -0.463995   -0.136404
      3          6           0        0.690865    0.104188    0.297052
      4          1           0       -2.106470    1.921781    0.493360
      5          1           0       -1.040400    2.039480   -0.742877
      6          1           0       -0.956656    0.283824    1.623440
      7          1           0       -0.717308   -1.995130    0.357712
      8          1           0        1.436970    1.991990   -0.275406
      9          7           0       -1.064250    1.856700    0.267074
     10          7           0        1.260969   -1.095730    0.309030
     11          7           0        2.540339   -0.872552   -0.114748
     12          7           0        2.717890    0.343936   -0.409411
     13          7           0        1.549380    1.001700   -0.171004
     14          8           0       -1.581691   -1.763019   -0.010569
     15          8           0       -2.762090    0.085463   -0.587571
 ---------------------------------------------------------------------

 SCF Done:  E(RHF) =  -540.841812985     A.U. after    2 cycles

 The electronic state is 1-A.
 Alpha  occ. eigenvalues --  -21.14967 -21.06924 -15.86228 -15.82840 -15.81914
 Alpha  occ. eigenvalues --  -15.78225 -15.77313 -11.56664 -11.54101 -11.46889
 Alpha  occ. eigenvalues --   -1.85354  -1.76963  -1.68355  -1.41522  -1.38657
 Alpha  occ. eigenvalues --   -1.30639  -1.08503  -0.93124  -0.90692  -0.83473
 Alpha  occ. eigenvalues --   -0.77496  -0.74759  -0.69968  -0.68018  -0.61656
 Alpha  occ. eigenvalues --   -0.59921  -0.56444  -0.53217  -0.52972  -0.49996
 Alpha  occ. eigenvalues --   -0.44084  -0.43959  -0.42978  -0.41335  -0.38894
 Alpha  occ. eigenvalues --   -0.35734  -0.32013
 Alpha virt. eigenvalues --    0.03047   0.04439   0.05465   0.06267   0.07095
 Alpha virt. eigenvalues --    0.08909   0.09563   0.10525   0.11099   0.11531
 Alpha virt. eigenvalues --    0.12716   0.13154   0.13943   0.14364   0.14556

 Mulliken charges:
               1
     1  C   -0.665073
     2  C    6.069872
     3  C    4.029826
     4  H    0.553674
     5  H    0.549094
     6  H    1.501896
     7  H    1.228855
     8  H    0.901223
     9  N   -2.757084
    10  N   -2.004532
    11  N   -0.413134
    12  N   -0.298644
    13  N   -2.247440
    14  O   -3.454601
    15  O   -2.993932
 Sum of Mulliken charges =   0.00000

 Dipole moment (field-independent basis, Debye):
    X=             -1.4565    Y=              2.9281    Z=              0.4430  Tot=              3.3002

 Test job not archived.
 1\1\GINC-SE398\SP\RHF\Aug-CC-pVDZ\C3H5N5O2\OHZDE\08-Apr-2025\0\\#t hf
 aug-cc-pvdz iop(5/13=1,5/36=2,99/5=2) pseudo=read geom=check guess=(re
 ad,tcheck) scf=(maxcycle=1)\\title\\0,1\C,0,-0.742434,0.449828,0.53306
 8\C,0,-1.76446,-0.463996,-0.136404\C,0,0.690865,0.104188,0.297052\H,0,
 -2.10647,1.92178,0.49336\H,0,-1.0404,2.03948,-0.742877\H,0,-0.956656,0
 .283824,1.62344\H,0,-0.717307,-1.99513,0.357712\H,0,1.43697,1.99199,-0
 .275406\N,0,-1.06425,1.8567,0.267074\N,0,1.26097,-1.09573,0.30903\N,0,
 2.54034,-0.872551,-0.114748\N,0,2.71789,0.343937,-0.409411\N,0,1.54938

 Normal termination of Gaussian 16 at Tue Apr  8 21:55:00 2025.
