 Gaussian 16, Revision C.01,

 ----------------------------------------------------------------------
 #t hf aug-cc-pvdz symm=none int=(grid=ultrafine) guess=(read,tcheck) s
 table=(opt,rrhf)
 ----------------------------------------------------------------------
 -----
 title
 -----
 Symbolic Z-matrix:
 Charge =  0 Multiplicity = 1

 SCF Done:  E(RHF) =  -528.736581913     A.U. after   14 cycles
 Normal termination of Gaussian 16 at Tue Apr  8 22:20:23 2025.
 Gaussian 16:  ES64L-G16RevC.01  3-Jul-2019

 ----------------------------------------------------------------------
 #t hf aug-cc-pvdz iop(5/13=1,5/36=2,99/5=2) pseudo=read geom=check gue
 ss=(read,tcheck) scf=(maxcycle=1)
 ----------------------------------------------------------------------
 -----
 title
 -----
 Structure from the checkpoint file:  "ANI1ccx_998_conf3_mol1.chk"
 Charge =  0 Multiplicity = 1

                         Standard orientation:
 ---------------------------------------------------------------------
 Center     Atomic      Atomic             Coordinates (Angstroms)
 Number     Number       Type             X           Y           Z
 ---------------------------------------------------------------------
      1          6           0        0.920029    0.109761    0.366080
      2          6           0        2.321420   -0.247920   -0.072568
      3          6           0       -0.096618   -0.997719    0.126670
      4          6           0       -1.421100   -0.745339    0.885825
      5          6           0       -2.456600   -0.047399    0.059751
      6          1           0        2.763769    1.296411    0.817788
      7          1           0       -3.127251    1.694229   -0.598124
      8          1           0       -1.882950   -1.704160    1.175630
      9          1           0       -1.197190   -0.162632    1.790670
     10          1           0       -1.432281    1.748380   -0.241366
     11          1           0        1.199789    2.040840   -0.127565
     12          1           0        0.469690    1.116050   -1.342680
     13          1           0        0.974601    0.280219    1.457870
     14          1           0       -0.211014   -1.156550   -0.948716
     15          1           0        0.340385   -1.973800    0.378555
     16          7           0        0.513840    1.325710   -0.339139
     17          7           0       -2.341201    1.309609   -0.100904
     18          8           0       -3.376500   -0.673372   -0.471025
     19          8           0        2.502860   -1.126789   -0.868746
     20          8           0        3.285040    0.543346    0.405233
 ---------------------------------------------------------------------

 SCF Done:  E(RHF) =  -531.089378209     A.U. after    2 cycles

 The electronic state is 1-A.
 Alpha  occ. eigenvalues --  -21.15103 -21.06456 -21.01848 -15.78542 -15.75374
 Alpha  occ. eigenvalues --  -11.54852 -11.50907 -11.48785 -11.44005 -11.39422
 Alpha  occ. eigenvalues --   -1.85069  -1.69224  -1.67868  -1.41110  -1.32704
 Alpha  occ. eigenvalues --   -1.19649  -1.05491  -0.93687  -0.80482  -0.79180
 Alpha  occ. eigenvalues --   -0.74445  -0.72634  -0.69833  -0.66056  -0.62608
 Alpha  occ. eigenvalues --   -0.59098  -0.57659  -0.55736  -0.54174  -0.50958
 Alpha  occ. eigenvalues --   -0.49659  -0.48663  -0.47247  -0.43592  -0.41953
 Alpha  occ. eigenvalues --   -0.35937  -0.32335  -0.30020  -0.27426
 Alpha virt. eigenvalues --    0.02600   0.03752   0.04363   0.05376   0.05971
 Alpha virt. eigenvalues --    0.06060   0.06665   0.07396   0.07975   0.09174
 Alpha virt. eigenvalues --    0.10317   0.10877   0.11363   0.11865   0.12627

 Mulliken charges:
               1
     1  C   -0.609927
     2  C    6.475249
     3  C   -2.943150
     4  C   -3.929402
     5  C    5.881408
     6  H    0.997116
     7  H    0.713854
     8  H    1.266885
     9  H    1.491934
    10  H    0.767311
    11  H    0.531743
    12  H    0.520571
    13  H    1.712588
    14  H    1.579507
    15  H    1.249137
    16  N   -2.542787
    17  N   -3.230732
    18  O   -3.417187
    19  O   -3.319591
    20  O   -3.194528
 Sum of Mulliken charges =  -0.00000

 Dipole moment (field-independent basis, Debye):
    X=              2.1915    Y=              2.6497    Z=              0.7431  Tot=              3.5180

 Test job not archived.
 1\1\GINC-SE179\SP\RHF\Aug-CC-pVDZ\C5H10N2O3\OHZDE\08-Apr-2025\0\\#t hf
  aug-cc-pvdz iop(5/13=1,5/36=2,99/5=2) pseudo=read geom=check guess=(r
 ead,tcheck) scf=(maxcycle=1)\\title\\0,1\C,0,0.920029,0.109761,0.36608
 \C,0,2.32142,-0.247921,-0.0725674\C,0,-0.096618,-0.997719,0.12667\C,0,
 -1.4211,-0.745339,0.885825\C,0,-2.4566,-0.0473987,0.0597514\H,0,2.7637
 7,1.29641,0.817788\H,0,-3.12725,1.69423,-0.598124\H,0,-1.88295,-1.7041
 6,1.17563\H,0,-1.19719,-0.162632,1.79067\H,0,-1.43228,1.74838,-0.24136
 6\H,0,1.19979,2.04084,-0.127565\H,0,0.469691,1.11605,-1.34268\H,0,0.97

 Normal termination of Gaussian 16 at Tue Apr  8 22:20:34 2025.
