 Gaussian 16, Revision C.01,

 ----------------------------------------------------------------------
 #t hf aug-cc-pvdz symm=none int=(grid=ultrafine) guess=(read,tcheck) s
 table=(opt,rrhf)
 ----------------------------------------------------------------------
 -----
 title
 -----
 Symbolic Z-matrix:
 Charge =  0 Multiplicity = 1

 SCF Done:  E(RHF) =  -923.683065612     A.U. after   15 cycles
 Normal termination of Gaussian 16 at Tue Apr  8 21:32:23 2025.
 Gaussian 16:  ES64L-G16RevC.01  3-Jul-2019

 ----------------------------------------------------------------------
 #t hf aug-cc-pvdz iop(5/13=1,5/36=2,99/5=2) pseudo=read geom=check gue
 ss=(read,tcheck) scf=(maxcycle=1)
 ----------------------------------------------------------------------
 -----
 title
 -----
 Structure from the checkpoint file:  "ANI1ccx_1787_conf1_mol1.chk"
 Charge =  0 Multiplicity = 1

                         Standard orientation:
 ---------------------------------------------------------------------
 Center     Atomic      Atomic             Coordinates (Angstroms)
 Number     Number       Type             X           Y           Z
 ---------------------------------------------------------------------
      1          6           0       -1.712050   -1.275078   -0.225659
      2          6           0        1.665572    2.255479    0.388413
      3          6           0        2.394472    1.415219   -0.649790
      4          6           0        1.568421    0.321206   -1.312310
      5          6           0       -0.803144    2.606031   -0.156027
      6          6           0        1.365040   -0.911744   -0.442924
      7          6           0       -3.168530   -0.801323   -0.069370
      8          6           0       -0.800068   -0.671925    0.858850
      9          6           0        2.650740   -1.687111   -0.016903
     10          1           0        2.667112    2.109509   -1.468600
     11          1           0        1.615159   -2.322861    1.345730
     12          1           0       -2.309668    2.417052    1.250830
     13          1           0       -0.877614    2.477911    1.973640
     14          1           0       -0.979960    2.102521   -2.048410
     15          1           0        0.550285    3.997390    0.313438
     16          1           0        1.317622    1.659170    1.256350
     17          1           0        2.416593    2.976839    0.778235
     18          1           0        3.349271    1.027488   -0.212991
     19          1           0        2.097071    0.004798   -2.230870
     20          1           0        0.592951    0.699164   -1.609660
     21          1           0       -1.908691   -3.145768    0.621475
     22          1           0       -1.321950   -0.872795   -1.190460
     23          1           0       -3.198309    0.277393   -0.269379
     24          1           0       -2.202721   -3.132648   -0.920134
     25          1           0       -4.816880   -1.258386   -1.061220
     26          1           0        1.025661   -0.262710    1.519400
     27          1           0        0.810516   -1.650960   -1.057410
     28          1           0       -3.479740   -1.046837    0.935305
     29          7           0       -1.577621   -2.705538   -0.229920
     30          7           0        0.591007   -0.785419    0.773453
     31          7           0        0.602427    3.135360   -0.210690
     32          7           0       -1.517938    2.203142   -1.183080
     33          7           0       -1.380387    2.767421    1.146090
     34          8           0        3.692520   -1.670932   -0.657373
     35          8           0       -1.255969   -0.091414    1.820520
     36          8           0       -3.897480   -1.556307   -1.024650
     37          8           0        2.544449   -2.414541    1.081270
 ---------------------------------------------------------------------

 SCF Done:  E(RHF) =  -927.869319652     A.U. after    2 cycles

 The electronic state is 1-A.
 Alpha  occ. eigenvalues --  -21.12626 -21.07914 -21.05636 -21.04330 -15.78147
 Alpha  occ. eigenvalues --  -15.76624 -15.75112 -15.74820 -15.73207 -11.57125
 Alpha  occ. eigenvalues --  -11.54641 -11.50893 -11.49838 -11.48044 -11.47540
 Alpha  occ. eigenvalues --  -11.44093 -11.42254 -11.39170  -1.83724  -1.75283
 Alpha  occ. eigenvalues --   -1.71745  -1.64790  -1.45825  -1.43751  -1.35706
 Alpha  occ. eigenvalues --   -1.31359  -1.23941  -1.20310  -1.08755  -1.07761
 Alpha  occ. eigenvalues --   -0.98003  -0.93205  -0.86804  -0.81468  -0.80560
 Alpha  occ. eigenvalues --   -0.78795  -0.73576  -0.71796  -0.70771  -0.69641
 Alpha  occ. eigenvalues --   -0.67233  -0.66250  -0.63761  -0.62489  -0.61484
 Alpha  occ. eigenvalues --   -0.60703  -0.59807  -0.58955  -0.57683  -0.56570
 Alpha  occ. eigenvalues --   -0.53752  -0.53242  -0.52495  -0.52252  -0.51888
 Alpha  occ. eigenvalues --   -0.48638  -0.47482  -0.46092  -0.44958  -0.44223
 Alpha  occ. eigenvalues --   -0.42607  -0.38896  -0.37538  -0.37108  -0.35222
 Alpha  occ. eigenvalues --   -0.34028  -0.33053  -0.32918  -0.31617  -0.28195
 Alpha virt. eigenvalues --    0.03624   0.04287   0.04479   0.04630   0.05186
 Alpha virt. eigenvalues --    0.05624   0.05652   0.06102   0.06280   0.06510
 Alpha virt. eigenvalues --    0.06972   0.07844   0.07875   0.08274   0.08912

 Mulliken charges:
               1
     1  C   -1.625417
     2  C   -3.432446
     3  C   -3.344288
     4  C   -3.401702
     5  C    6.811619
     6  C   -2.448457
     7  C   -1.509575
     8  C    7.961129
     9  C    6.911724
    10  H    1.454295
    11  H    1.283257
    12  H    0.785495
    13  H    0.711904
    14  H    0.837515
    15  H    0.702526
    16  H    1.978643
    17  H    1.315842
    18  H    1.519634
    19  H    1.142450
    20  H    2.454561
    21  H    0.596196
    22  H    1.818883
    23  H    1.420002
    24  H    0.654015
    25  H    0.864500
    26  H    1.003399
    27  H    2.199525
    28  H    1.472766
    29  N   -2.954542
    30  N   -2.675210
    31  N   -2.695225
    32  N   -3.850705
    33  N   -3.751561
    34  O   -3.395553
    35  O   -4.360176
    36  O   -2.929584
    37  O   -3.525436
 Sum of Mulliken charges =  -0.00000

 Dipole moment (field-independent basis, Debye):
    X=             -1.7469    Y=              0.8807    Z=              1.6493  Tot=              2.5588

 Test job not archived.
 1\1\GINC-SE273\SP\RHF\Aug-CC-pVDZ\C9H19N5O4\OHZDE\08-Apr-2025\0\\#t hf
  aug-cc-pvdz iop(5/13=1,5/36=2,99/5=2) pseudo=read geom=check guess=(r
 ead,tcheck) scf=(maxcycle=1)\\title\\0,1\C,0,-1.71205,-1.27508,-0.2256
 59\C,0,1.66557,2.25548,0.388413\C,0,2.39447,1.41522,-0.64979\C,0,1.568
 42,0.321206,-1.31231\C,0,-0.803146,2.60603,-0.156027\C,0,1.36504,-0.91
 1744,-0.442924\C,0,-3.16853,-0.801326,-0.0693698\C,0,-0.800068,-0.6719
 26,0.85885\C,0,2.65074,-1.68711,-0.0169021\H,0,2.66711,2.10951,-1.4686
 \H,0,1.61516,-2.32286,1.34573\H,0,-2.30967,2.41705,1.25083\H,0,-0.8776

 Normal termination of Gaussian 16 at Tue Apr  8 21:33:33 2025.
