 Gaussian 16, Revision C.01,

 ----------------------------------------------------------------------
 #t hf aug-cc-pvdz symm=none int=(grid=ultrafine) guess=(read,tcheck) s
 table=(opt,rrhf)
 ----------------------------------------------------------------------
 -----
 title
 -----
 Symbolic Z-matrix:
 Charge =  0 Multiplicity = 1

 SCF Done:  E(RHF) =  -298.815135234     A.U. after   14 cycles
 Normal termination of Gaussian 16 at Tue Apr  8 21:38:43 2025.
 Gaussian 16:  ES64L-G16RevC.01  3-Jul-2019

 ----------------------------------------------------------------------
 #t hf aug-cc-pvdz iop(5/13=1,5/36=2,99/5=2) pseudo=read geom=check gue
 ss=(read,tcheck) scf=(maxcycle=1)
 ----------------------------------------------------------------------
 -----
 title
 -----
 Structure from the checkpoint file:  "ANI1ccx_398_conf43_mol1.chk"
 Charge =  0 Multiplicity = 1

                         Standard orientation:
 ---------------------------------------------------------------------
 Center     Atomic      Atomic             Coordinates (Angstroms)
 Number     Number       Type             X           Y           Z
 ---------------------------------------------------------------------
      1          6           0       -0.449114    0.087133    0.064718
      2          1           0       -1.738970   -1.230420   -0.716905
      3          1           0       -2.504660    0.216252    0.041924
      4          1           0        0.709661   -1.344340    0.877563
      5          1           0        1.499200    0.804093    0.222441
      6          7           0       -1.723390   -0.442358   -0.002533
      7          7           0        0.613941   -0.780321    0.027725
      8          8           0       -0.272010    1.257500    0.015327
      9          8           0        1.833960   -0.058703   -0.139036
 ---------------------------------------------------------------------

 SCF Done:  E(RHF) =  -300.085426896     A.U. after    2 cycles

 The electronic state is 1-A.
 Alpha  occ. eigenvalues --  -21.09448 -21.04757 -15.79822 -15.78281 -11.51411
 Alpha  occ. eigenvalues --   -1.82858  -1.71327  -1.36512  -1.22211  -0.83486
 Alpha  occ. eigenvalues --   -0.73986  -0.69272  -0.67531  -0.55620  -0.53442
 Alpha  occ. eigenvalues --   -0.48025  -0.41640  -0.36636  -0.32435  -0.31184
 Alpha virt. eigenvalues --    0.03500   0.05145   0.05761   0.07243   0.11249
 Alpha virt. eigenvalues --    0.11943   0.13246   0.14586   0.15492   0.16550
 Alpha virt. eigenvalues --    0.17338   0.17973   0.19437   0.19854   0.20926

 Mulliken charges:
               1
     1  C    5.464500
     2  H    0.539251
     3  H    0.596631
     4  H    0.653333
     5  H    0.754459
     6  N   -2.643039
     7  N   -0.742898
     8  O   -2.500174
     9  O   -2.122061
 Sum of Mulliken charges =  -0.00000

 Dipole moment (field-independent basis, Debye):
    X=             -1.4383    Y=             -0.9802    Z=              0.2803  Tot=              1.7630

 Test job not archived.
 1\1\GINC-SE088\SP\RHF\Aug-CC-pVDZ\C1H4N2O2\OHZDE\08-Apr-2025\0\\#t hf
 aug-cc-pvdz iop(5/13=1,5/36=2,99/5=2) pseudo=read geom=check guess=(re
 ad,tcheck) scf=(maxcycle=1)\\title\\0,1\C,0,-0.449114,0.0871327,0.0647
 176\H,0,-1.73897,-1.23042,-0.716905\H,0,-2.50466,0.216253,0.0419238\H,
 0,0.709661,-1.34434,0.877563\H,0,1.4992,0.804093,0.222441\N,0,-1.72339
 ,-0.442358,-0.00253284\N,0,0.613941,-0.780321,0.0277251\O,0,-0.27201,1
 .2575,0.0153266\O,0,1.83396,-0.0587033,-0.139036\\Version=ES64L-G16Rev
 C.01\State=1-A\HF=-300.0854269\RMSD=4.785e-02\Dipole=-0.5658821,-0.385

 Normal termination of Gaussian 16 at Tue Apr  8 21:38:46 2025.
