 Gaussian 16, Revision C.01,

 ----------------------------------------------------------------------
 #t hf aug-cc-pvdz symm=none int=(grid=ultrafine) guess=(read,tcheck) s
 table=(opt,rrhf)
 ----------------------------------------------------------------------
 -----
 title
 -----
 Symbolic Z-matrix:
 Charge =  0 Multiplicity = 1

 SCF Done:  E(RHF) =  -798.774516674     A.U. after   14 cycles
 Normal termination of Gaussian 16 at Tue Apr  8 22:25:19 2025.
 Gaussian 16:  ES64L-G16RevC.01  3-Jul-2019

 ----------------------------------------------------------------------
 #t hf aug-cc-pvdz iop(5/13=1,5/36=2,99/5=2) pseudo=read geom=check gue
 ss=(read,tcheck) scf=(maxcycle=1)
 ----------------------------------------------------------------------
 -----
 title
 -----
 Structure from the checkpoint file:  "ANI1ccx_86_conf2_mol1.chk"
 Charge =  0 Multiplicity = 1

                         Standard orientation:
 ---------------------------------------------------------------------
 Center     Atomic      Atomic             Coordinates (Angstroms)
 Number     Number       Type             X           Y           Z
 ---------------------------------------------------------------------
      1          6           0       -1.772550   -0.443581   -0.643792
      2          6           0        2.193900    0.912388    0.834067
      3          6           0        2.004480   -0.986171   -0.851033
      4          6           0        1.199590    0.017956    0.010554
      5          6           0       -1.352061    2.628129   -1.125910
      6          6           0        3.139860    0.123617    1.674590
      7          6           0       -3.646870    0.187023    0.963802
      8          6           0       -2.725610    0.692317   -0.149271
      9          6           0       -0.966286   -1.073671    0.560371
     10          6           0       -1.953211    2.013719    0.130484
     11          1           0       -0.626760    2.014479   -1.660920
     12          1           0        3.093690    0.390322   -1.162600
     13          1           0        3.818660   -0.446822    1.032490
     14          1           0        3.781930    0.831887    2.213840
     15          1           0        2.657710   -0.474125    2.422750
     16          1           0        3.615049    2.257670    0.394133
     17          1           0        1.509869    1.555640    1.482210
     18          1           0        0.574634    0.652622   -0.634615
     19          1           0        0.651027   -1.101981    1.718670
     20          1           0       -0.953107    3.589419   -0.920972
     21          1           0       -1.218151    1.795919    0.866763
     22          1           0       -2.685461    2.763768    0.618902
     23          1           0       -3.131500   -0.125736    1.901200
     24          1           0       -4.252460    1.037468    1.257470
     25          1           0       -4.293730   -0.664374    0.699460
     26          1           0       -3.390890    0.887599   -1.023320
     27          1           0       -1.083300    0.021715   -1.409010
     28          1           0       -2.031989   -2.224381   -1.565790
     29          1           0       -3.127499   -1.949502   -0.441159
     30          1           0       -2.220851    2.741829   -1.846790
     31          7           0       -2.585720   -1.507992   -1.160060
     32          7           0        0.301639   -0.668662    0.881299
     33          8           0        2.924979    1.731560   -0.047106
     34          8           0       -1.562419   -1.922571    1.196890
     35          8           0        1.689781   -2.146280   -0.881039
     36          8           0        3.019440   -0.506109   -1.570570
 ---------------------------------------------------------------------

 SCF Done:  E(RHF) =  -802.469816438     A.U. after    2 cycles

 The electronic state is 1-A.
 Alpha  occ. eigenvalues --  -21.12371 -21.12058 -21.04954 -21.02002 -15.77288
 Alpha  occ. eigenvalues --  -15.71534 -11.54645 -11.53031 -11.52381 -11.48133
 Alpha  occ. eigenvalues --  -11.47192 -11.44023 -11.41925 -11.40875 -11.38186
 Alpha  occ. eigenvalues --  -11.36269  -1.84090  -1.77822  -1.71117  -1.66035
 Alpha  occ. eigenvalues --   -1.42739  -1.35835  -1.22279  -1.18706  -1.08629
 Alpha  occ. eigenvalues --   -1.07340  -0.99337  -0.91692  -0.90810  -0.85001
 Alpha  occ. eigenvalues --   -0.80077  -0.76882  -0.76235  -0.70607  -0.68324
 Alpha  occ. eigenvalues --   -0.66352  -0.65776  -0.64444  -0.62214  -0.60710
 Alpha  occ. eigenvalues --   -0.59868  -0.57737  -0.57355  -0.55704  -0.55523
 Alpha  occ. eigenvalues --   -0.54982  -0.52792  -0.52133  -0.51548  -0.49866
 Alpha  occ. eigenvalues --   -0.48946  -0.48425  -0.46937  -0.45108  -0.43103
 Alpha  occ. eigenvalues --   -0.42566  -0.40461  -0.37068  -0.34041  -0.33726
 Alpha  occ. eigenvalues --   -0.31721  -0.29158  -0.28047
 Alpha virt. eigenvalues --    0.02457   0.03583   0.04082   0.04307   0.05014
 Alpha virt. eigenvalues --    0.05149   0.06104   0.06177   0.06360   0.06525
 Alpha virt. eigenvalues --    0.07223   0.07483   0.07760   0.08768   0.08919

 Mulliken charges:
               1
     1  C    1.619217
     2  C    1.557483
     3  C    6.289594
     4  C   -2.911619
     5  C   -4.372786
     6  C   -4.328622
     7  C   -5.196970
     8  C   -1.235151
     9  C    6.271949
    10  C   -3.797488
    11  H    1.918080
    12  H    1.285286
    13  H    1.300809
    14  H    1.084683
    15  H    1.392860
    16  H    0.863388
    17  H    1.574405
    18  H    3.076602
    19  H    0.748328
    20  H    1.255760
    21  H    2.104234
    22  H    1.277554
    23  H    1.249186
    24  H    1.209696
    25  H    1.182837
    26  H    1.727585
    27  H    2.103145
    28  H    0.595575
    29  H    0.650074
    30  H    1.147806
    31  N   -4.025784
    32  N   -3.189686
    33  O   -3.434348
    34  O   -4.089660
    35  O   -3.513602
    36  O   -3.390420
 Sum of Mulliken charges =  -0.00000

 Dipole moment (field-independent basis, Debye):
    X=              2.7102    Y=              3.3944    Z=              1.6787  Tot=              4.6568

 Test job not archived.
 1\1\GINC-SE102\SP\RHF\Aug-CC-pVDZ\C10H20N2O4\OHZDE\08-Apr-2025\0\\#t h
 f aug-cc-pvdz iop(5/13=1,5/36=2,99/5=2) pseudo=read geom=check guess=(
 read,tcheck) scf=(maxcycle=1)\\title\\0,1\C,0,-1.77255,-0.44358,-0.643
 792\C,0,2.1939,0.912388,0.834067\C,0,2.00448,-0.986171,-0.851033\C,0,1
 .19959,0.0179561,0.0105538\C,0,-1.35206,2.62813,-1.12591\C,0,3.13986,0
 .123617,1.67459\C,0,-3.64687,0.187025,0.963802\C,0,-2.72561,0.692319,-
 0.149271\C,0,-0.966286,-1.07367,0.560371\C,0,-1.95321,2.01372,0.130484
 \H,0,-0.626759,2.01448,-1.66092\H,0,3.09369,0.390322,-1.1626\H,0,3.818

 Normal termination of Gaussian 16 at Tue Apr  8 22:26:16 2025.
