 Gaussian 16, Revision C.01,

 ----------------------------------------------------------------------
 #t hf aug-cc-pvdz symm=none int=(grid=ultrafine) guess=(read,tcheck) s
 table=(opt,rrhf)
 ----------------------------------------------------------------------
 -----
 title
 -----
 Symbolic Z-matrix:
 Charge =  0 Multiplicity = 1

 SCF Done:  E(RHF) =  -396.755270975     A.U. after   14 cycles
 Normal termination of Gaussian 16 at Tue Apr  8 21:55:16 2025.
 Gaussian 16:  ES64L-G16RevC.01  3-Jul-2019

 ----------------------------------------------------------------------
 #t hf aug-cc-pvdz iop(5/13=1,5/36=2,99/5=2) pseudo=read geom=check gue
 ss=(read,tcheck) scf=(maxcycle=1)
 ----------------------------------------------------------------------
 -----
 title
 -----
 Structure from the checkpoint file:  "ANI1ccx_744_conf28_mol1.chk"
 Charge =  0 Multiplicity = 1

                         Standard orientation:
 ---------------------------------------------------------------------
 Center     Atomic      Atomic             Coordinates (Angstroms)
 Number     Number       Type             X           Y           Z
 ---------------------------------------------------------------------
      1          6           0        0.175098    0.028650   -0.413998
      2          6           0       -1.250471   -0.298737   -0.010222
      3          6           0        1.195609   -0.628580    0.487214
      4          1           0        1.242387    1.674871   -0.044469
      5          1           0        0.249300    1.829820   -1.251780
      6          1           0        0.328955   -0.190087   -1.453920
      7          1           0        0.964861   -1.718479    0.367427
      8          1           0        1.098658   -0.252589    1.545090
      9          1           0        3.082848   -0.246842    0.745274
     10          1           0       -1.130693    1.475429    0.381880
     11          7           0        0.294752    1.463950   -0.306921
     12          8           0       -1.734641   -1.356711   -0.356419
     13          8           0        2.504869   -0.327068   -0.072265
     14          8           0       -1.847852    0.755308    0.613805
 ---------------------------------------------------------------------

 SCF Done:  E(RHF) =  -398.493704694     A.U. after    2 cycles

 The electronic state is 1-A.
 Alpha  occ. eigenvalues --  -21.09812 -21.08441 -21.04453 -15.77240 -11.52321
 Alpha  occ. eigenvalues --  -11.49069 -11.42042  -1.79646  -1.72033  -1.64639
 Alpha  occ. eigenvalues --   -1.40134  -1.10266  -0.93120  -0.77583  -0.73715
 Alpha  occ. eigenvalues --   -0.72444  -0.65833  -0.62201  -0.57481  -0.56237
 Alpha  occ. eigenvalues --   -0.49543  -0.48138  -0.46147  -0.44960  -0.39092
 Alpha  occ. eigenvalues --   -0.34915  -0.32084  -0.27817
 Alpha virt. eigenvalues --    0.03102   0.04196   0.04988   0.05813   0.05985
 Alpha virt. eigenvalues --    0.06684   0.07531   0.10660   0.11955   0.12530
 Alpha virt. eigenvalues --    0.13111   0.13471   0.14093   0.14968   0.15688

 Mulliken charges:
               1
     1  C   -1.884225
     2  C    6.371929
     3  C   -0.629383
     4  H    0.711388
     5  H    0.491355
     6  H    1.776787
     7  H    1.200205
     8  H    1.396121
     9  H    0.660693
    10  H    1.296840
    11  N   -2.607762
    12  O   -3.194835
    13  O   -2.453649
    14  O   -3.135462
 Sum of Mulliken charges =   0.00000

 Dipole moment (field-independent basis, Debye):
    X=              3.4176    Y=              2.0657    Z=             -0.1635  Tot=              3.9967

 Test job not archived.
 1\1\GINC-SE080\SP\RHF\Aug-CC-pVDZ\C3H7N1O3\OHZDE\08-Apr-2025\0\\#t hf
 aug-cc-pvdz iop(5/13=1,5/36=2,99/5=2) pseudo=read geom=check guess=(re
 ad,tcheck) scf=(maxcycle=1)\\title\\0,1\C,0,0.1751,0.0286499,-0.413998
 \C,0,-1.25047,-0.298736,-0.0102221\C,0,1.19561,-0.628581,0.487214\H,0,
 1.24239,1.67487,-0.0444689\H,0,0.249303,1.82982,-1.25178\H,0,0.328957,
 -0.190087,-1.45392\H,0,0.964861,-1.71848,0.367427\H,0,1.09866,-0.25259
 ,1.54509\H,0,3.08285,-0.246845,0.745274\H,0,-1.13069,1.47543,0.38188\N
 ,0,0.294755,1.46395,-0.306921\O,0,-1.73464,-1.35671,-0.356419\O,0,2.50

 Normal termination of Gaussian 16 at Tue Apr  8 21:55:21 2025.
