 Gaussian 16, Revision C.01,

 ----------------------------------------------------------------------
 #t hf aug-cc-pvdz symm=none int=(grid=ultrafine) guess=(read,tcheck) s
 table=(opt,rrhf)
 ----------------------------------------------------------------------
 -----
 title
 -----
 Symbolic Z-matrix:
 Charge =  0 Multiplicity = 1

 SCF Done:  E(RHF) =  -410.439618598     A.U. after   14 cycles
 Normal termination of Gaussian 16 at Tue Apr  8 21:43:51 2025.
 Gaussian 16:  ES64L-G16RevC.01  3-Jul-2019

 ----------------------------------------------------------------------
 #t hf aug-cc-pvdz iop(5/13=1,5/36=2,99/5=2) pseudo=read geom=check gue
 ss=(read,tcheck) scf=(maxcycle=1)
 ----------------------------------------------------------------------
 -----
 title
 -----
 Structure from the checkpoint file:  "ANI1ccx_483_conf3_mol1.chk"
 Charge =  0 Multiplicity = 1

                         Standard orientation:
 ---------------------------------------------------------------------
 Center     Atomic      Atomic             Coordinates (Angstroms)
 Number     Number       Type             X           Y           Z
 ---------------------------------------------------------------------
      1          6           0        1.103851   -0.195981    0.035067
      2          6           0       -1.131069   -0.125310   -0.005481
      3          1           0        1.235621    1.642410    0.623849
      4          1           0       -1.207729    1.863690   -0.433089
      5          7           0        0.735059    1.109540   -0.081883
      6          7           0       -0.678427    1.105570    0.035507
      7          8           0        2.225141   -0.569617   -0.006927
      8          8           0       -2.247539   -0.571110    0.047489
      9          8           0       -0.010230   -0.994788   -0.046018
 ---------------------------------------------------------------------

 SCF Done:  E(RHF) =  -412.126679970     A.U. after    2 cycles

 The electronic state is 1-A.
 Alpha  occ. eigenvalues --  -21.15019 -21.07800 -21.07486 -15.84668 -15.83986
 Alpha  occ. eigenvalues --  -11.57708 -11.55205  -1.94393  -1.75942  -1.68754
 Alpha  occ. eigenvalues --   -1.57306  -1.26481  -0.91780  -0.88860  -0.76859
 Alpha  occ. eigenvalues --   -0.75017  -0.66043  -0.58235  -0.57414  -0.54026
 Alpha  occ. eigenvalues --   -0.51259  -0.50325  -0.36497  -0.35622  -0.33708
 Alpha  occ. eigenvalues --   -0.31521
 Alpha virt. eigenvalues --    0.02568   0.04378   0.08327   0.09783   0.11041
 Alpha virt. eigenvalues --    0.11076   0.11517   0.12052   0.12342   0.14690
 Alpha virt. eigenvalues --    0.15129   0.15775   0.16972   0.17585   0.18542

 Mulliken charges:
               1
     1  C    5.523142
     2  C    5.480425
     3  H    0.721861
     4  H    0.760569
     5  N   -1.888477
     6  N   -1.974794
     7  O   -3.025421
     8  O   -2.957410
     9  O   -2.639896
 Sum of Mulliken charges =  -0.00000

 Dipole moment (field-independent basis, Debye):
    X=             -0.1336    Y=              2.9375    Z=              0.1457  Tot=              2.9441

 Test job not archived.
 1\1\GINC-SE186\SP\RHF\Aug-CC-pVDZ\C2H2N2O3\OHZDE\08-Apr-2025\0\\#t hf
 aug-cc-pvdz iop(5/13=1,5/36=2,99/5=2) pseudo=read geom=check guess=(re
 ad,tcheck) scf=(maxcycle=1)\\title\\0,1\C,0,1.10385,-0.195981,0.035066
 9\C,0,-1.13107,-0.12531,-0.00548136\H,0,1.23562,1.64241,0.623849\H,0,-
 1.20773,1.86369,-0.433089\N,0,0.735058,1.10954,-0.0818828\N,0,-0.67842
 8,1.10557,0.0355069\O,0,2.22514,-0.569617,-0.00692657\O,0,-2.24754,-0.
 57111,0.0474893\O,0,-0.0102315,-0.994788,-0.0460181\\Version=ES64L-G16
 RevC.01\State=1-A\HF=-412.12668\RMSD=6.791e-02\Dipole=-0.0525497,1.155

 Normal termination of Gaussian 16 at Tue Apr  8 21:43:54 2025.
