 Gaussian 16, Revision C.01,

 ----------------------------------------------------------------------
 #t hf aug-cc-pvdz symm=none int=(grid=ultrafine) guess=(read,tcheck) s
 table=(opt,rrhf)
 ----------------------------------------------------------------------
 -----
 title
 -----
 Symbolic Z-matrix:
 Charge =  0 Multiplicity = 1

 SCF Done:  E(RHF) =  -456.277922083     A.U. after   11 cycles
 Normal termination of Gaussian 16 at Tue Apr  8 21:09:50 2025.
 Gaussian 16:  ES64L-G16RevC.01  3-Jul-2019

 ----------------------------------------------------------------------
 #t hf aug-cc-pvdz iop(5/13=1,5/36=2,99/5=2) pseudo=read geom=check gue
 ss=(read,tcheck) scf=(maxcycle=1)
 ----------------------------------------------------------------------
 -----
 title
 -----
 Structure from the checkpoint file:  "ANI1ccx_1844_conf42_mol1.chk"
 Charge =  0 Multiplicity = 1

                         Standard orientation:
 ---------------------------------------------------------------------
 Center     Atomic      Atomic             Coordinates (Angstroms)
 Number     Number       Type             X           Y           Z
 ---------------------------------------------------------------------
      1          1           0        2.350130    0.506325   -0.535236
      2          1           0       -2.284991   -1.689848   -1.316080
      3          1           0       -2.485200   -0.415727   -0.435662
      4          1           0        2.736849   -1.674413   -1.164030
      5          1           0        1.637119   -1.475582   -0.040225
      6          1           0       -0.008181   -1.929490    1.576500
      7          1           0        2.815042    1.818807    0.173918
      8          1           0       -0.809818   -1.520350    0.317747
      9          1           0       -0.085782    0.468018    1.078200
     10          1           0        0.654058    1.593369    0.289488
     11          1           0       -1.496889    1.409711   -0.036087
     12          1           0       -3.034559    1.775432    0.073430
     13          8           0        2.572819   -1.250542   -0.283537
     14          8           0       -0.109496    1.429270    0.914133
     15          8           0       -2.350431   -1.406068   -0.393885
     16          8           0        0.063374   -1.392010    0.767820
     17          8           0        2.217901    1.495238   -0.544177
     18          8           0       -2.392639    1.265832   -0.458101
 ---------------------------------------------------------------------

 SCF Done:  E(RHF) =  -458.263098624     A.U. after    2 cycles

 The electronic state is 1-A.
 Alpha  occ. eigenvalues --  -21.10388 -21.09131 -21.08661 -21.07692 -21.07355
 Alpha  occ. eigenvalues --  -21.05874  -1.70353  -1.67389  -1.66811  -1.65335
 Alpha  occ. eigenvalues --   -1.63961  -1.61933  -0.66533  -0.65066  -0.64994
 Alpha  occ. eigenvalues --   -0.63537  -0.62618  -0.62018  -0.53733  -0.50191
 Alpha  occ. eigenvalues --   -0.48254  -0.47298  -0.44824  -0.41581  -0.36888
 Alpha  occ. eigenvalues --   -0.35218  -0.34994  -0.34138  -0.33779  -0.31623
 Alpha virt. eigenvalues --    0.03626   0.04903   0.05067   0.05590   0.06000
 Alpha virt. eigenvalues --    0.07696   0.08450   0.08789   0.09210   0.10102
 Alpha virt. eigenvalues --    0.11073   0.12511   0.17393   0.18712   0.20000

 Mulliken charges:
               1
     1  H    1.470677
     2  H    0.754656
     3  H    1.516806
     4  H    0.760946
     5  H    1.638540
     6  H    0.873902
     7  H    0.750583
     8  H    1.718698
     9  H    1.427922
    10  H    1.357647
    11  H    1.620353
    12  H    0.741362
    13  O   -2.146217
    14  O   -2.733850
    15  O   -2.266189
    16  O   -2.963572
    17  O   -2.170496
    18  O   -2.351767
 Sum of Mulliken charges =  -0.00000

 Dipole moment (field-independent basis, Debye):
    X=              0.0279    Y=             -1.4633    Z=              0.0716  Tot=              1.4653

 Test job not archived.
 1\1\GINC-SE177\SP\RHF\Aug-CC-pVDZ\H12O6\OHZDE\08-Apr-2025\0\\#t hf aug
 -cc-pvdz iop(5/13=1,5/36=2,99/5=2) pseudo=read geom=check guess=(read,
 tcheck) scf=(maxcycle=1)\\title\\0,1\H,0,2.35013,0.506327,-0.535236\H,
 0,-2.28499,-1.68985,-1.31608\H,0,-2.4852,-0.415729,-0.435662\H,0,2.736
 85,-1.67441,-1.16403\H,0,1.63712,-1.47558,-0.0402251\H,0,-0.0081798,-1
 .92949,1.5765\H,0,2.81504,1.81881,0.173918\H,0,-0.809817,-1.52035,0.31
 7747\H,0,-0.0857821,0.468018,1.0782\H,0,0.654057,1.59337,0.289488\H,0,
 -1.49689,1.40971,-0.0360874\H,0,-3.03456,1.77543,0.0734299\O,0,2.57282

 Normal termination of Gaussian 16 at Tue Apr  8 21:09:55 2025.
