 Gaussian 16, Revision C.01,

 ----------------------------------------------------------------------
 #t hf aug-cc-pvdz symm=none int=(grid=ultrafine) guess=(read,tcheck) s
 table=(opt,rrhf)
 ----------------------------------------------------------------------
 -----
 title
 -----
 Symbolic Z-matrix:
 Charge =  0 Multiplicity = 1

 SCF Done:  E(RHF) =  -541.247421607     A.U. after   15 cycles
 Normal termination of Gaussian 16 at Tue Apr  8 22:05:18 2025.
 Gaussian 16:  ES64L-G16RevC.01  3-Jul-2019

 ----------------------------------------------------------------------
 #t hf aug-cc-pvdz iop(5/13=1,5/36=2,99/5=2) pseudo=read geom=check gue
 ss=(read,tcheck) scf=(maxcycle=1)
 ----------------------------------------------------------------------
 -----
 title
 -----
 Structure from the checkpoint file:  "ANI1ccx_869_conf9_mol1.chk"
 Charge =  0 Multiplicity = 1

                         Standard orientation:
 ---------------------------------------------------------------------
 Center     Atomic      Atomic             Coordinates (Angstroms)
 Number     Number       Type             X           Y           Z
 ---------------------------------------------------------------------
      1          6           0       -1.288719    0.069861   -0.089656
      2          6           0       -0.428414    1.349160   -0.100125
      3          6           0        1.701321   -0.050201    0.002433
      4          6           0       -0.447138   -1.278310   -0.014497
      5          1           0       -2.869860   -0.875185    0.216697
      6          1           0        1.470232    2.033369    0.297738
      7          1           0        1.369600   -2.145821   -0.062996
      8          7           0       -2.537609    0.076221    0.184089
      9          7           0        0.911855    1.147469    0.190415
     10          7           0        0.938118   -1.229281   -0.154215
     11          8           0       -0.977872    2.407850   -0.145875
     12          8           0        2.930541    0.021883    0.049828
     13          8           0       -1.000020   -2.369270   -0.001753
 ---------------------------------------------------------------------

 SCF Done:  E(RHF) =  -543.533750814     A.U. after    2 cycles

 The electronic state is 1-A.
 Alpha  occ. eigenvalues --  -21.09506 -21.09280 -21.08643 -15.84619 -15.83207
 Alpha  occ. eigenvalues --  -15.81794 -11.58595 -11.57030 -11.56372 -11.48838
 Alpha  occ. eigenvalues --   -1.78346  -1.75655  -1.75351  -1.47946  -1.38947
 Alpha  occ. eigenvalues --   -1.37878  -1.05669  -0.94416  -0.92051  -0.80228
 Alpha  occ. eigenvalues --   -0.76085  -0.68051  -0.67866  -0.63292  -0.60875
 Alpha  occ. eigenvalues --   -0.58040  -0.55149  -0.54653  -0.54324  -0.45789
 Alpha  occ. eigenvalues --   -0.43362  -0.38382  -0.37795  -0.37256  -0.35072
 Alpha  occ. eigenvalues --   -0.30424
 Alpha virt. eigenvalues --    0.03244   0.04360   0.05749   0.06134   0.07832
 Alpha virt. eigenvalues --    0.08857   0.09347   0.10544   0.10669   0.11667
 Alpha virt. eigenvalues --    0.12604   0.13087   0.13502   0.13780   0.14533

 Mulliken charges:
               1
     1  C    1.889570
     2  C    5.413298
     3  C    4.418033
     4  C    4.000625
     5  H    0.797842
     6  H    0.577826
     7  H    0.685546
     8  N   -3.241791
     9  N   -2.509500
    10  N   -2.557295
    11  O   -3.302452
    12  O   -2.933242
    13  O   -3.238461
 Sum of Mulliken charges =  -0.00000

 Dipole moment (field-independent basis, Debye):
    X=              0.9637    Y=             -1.2161    Z=              0.1554  Tot=              1.5594

 Test job not archived.
 1\1\GINC-SE250\SP\RHF\Aug-CC-pVDZ\C4H3N3O3\OHZDE\08-Apr-2025\0\\#t hf
 aug-cc-pvdz iop(5/13=1,5/36=2,99/5=2) pseudo=read geom=check guess=(re
 ad,tcheck) scf=(maxcycle=1)\\title\\0,1\C,0,-1.28872,0.0698609,-0.0896
 556\C,0,-0.428415,1.34916,-0.100125\C,0,1.70132,-0.0501998,0.00243298\
 C,0,-0.447138,-1.27831,-0.0144973\H,0,-2.86986,-0.875186,0.216697\H,0,
 1.47023,2.03337,0.297738\H,0,1.3696,-2.14582,-0.0629962\N,0,-2.53761,0
 .0762205,0.184089\N,0,0.911854,1.14747,0.190415\N,0,0.938118,-1.22928,
 -0.154215\O,0,-0.977874,2.40785,-0.145875\O,0,2.93054,0.0218842,0.0498

 Normal termination of Gaussian 16 at Tue Apr  8 22:05:23 2025.
