 Gaussian 16, Revision C.01,

 ----------------------------------------------------------------------
 #t hf aug-cc-pvdz symm=none int=(grid=ultrafine) guess=(read,tcheck) s
 table=(opt,rrhf)
 ----------------------------------------------------------------------
 -----
 title
 -----
 Symbolic Z-matrix:
 Charge =  0 Multiplicity = 1

 SCF Done:  E(RHF) =  -645.329538174     A.U. after   17 cycles
 Normal termination of Gaussian 16 at Tue Apr  8 21:33:00 2025.
 Gaussian 16:  ES64L-G16RevC.01  3-Jul-2019

 ----------------------------------------------------------------------
 #t hf aug-cc-pvdz iop(5/13=1,5/36=2,99/5=2) pseudo=read geom=check gue
 ss=(read,tcheck) scf=(maxcycle=1)
 ----------------------------------------------------------------------
 -----
 title
 -----
 Structure from the checkpoint file:  "ANI1ccx_33_conf1_mol1.chk"
 Charge =  0 Multiplicity = 1

                         Standard orientation:
 ---------------------------------------------------------------------
 Center     Atomic      Atomic             Coordinates (Angstroms)
 Number     Number       Type             X           Y           Z
 ---------------------------------------------------------------------
      1          6           0       -5.006330    0.905029   -0.113798
      2          6           0        4.133180    0.783062    0.124020
      3          6           0        1.144620   -0.667178    0.912318
      4          6           0        1.616590    0.504460    0.298623
      5          6           0        0.632866    1.389709   -0.283572
      6          6           0       -0.211628   -0.995196    0.908921
      7          6           0       -1.134610   -0.085399    0.244560
      8          6           0       -3.288860   -0.713537   -0.607874
      9          6           0       -4.761240   -0.557269   -0.252687
     10          6           0       -0.656688    1.042440   -0.477602
     11          1           0        1.060321    2.325109   -0.545063
     12          1           0        4.268830   -1.860841   -1.339810
     13          1           0        5.445920   -0.316397   -0.866376
     14          1           0        4.819010    1.602258    0.506704
     15          1           0       -0.690922   -1.838830    1.396860
     16          1           0        1.896700   -1.107091    1.491850
     17          1           0       -1.320290    1.764090   -0.982864
     18          1           0       -4.830790   -1.100229    0.692402
     19          1           0       -2.986100   -0.217852   -1.469650
     20          1           0       -5.427760   -1.196189   -0.841172
     21          1           0       -4.302530    1.370620    0.504561
     22          1           0       -5.926040    1.202921    0.351498
     23          1           0       -4.952200    1.130971   -1.147270
     24          1           0       -3.050270   -1.804620   -0.717476
     25          7           0        2.872690    1.027759    0.575769
     26          7           0        4.498990   -0.278960   -0.507849
     27          8           0       -2.472090   -0.413138    0.504956
     28          8           0        3.670460   -1.440891   -0.758341
 ---------------------------------------------------------------------

 SCF Done:  E(RHF) =  -648.322243365     A.U. after    2 cycles

 The electronic state is 1-A.
 Alpha  occ. eigenvalues --  -21.16064 -21.03559 -15.83201 -15.69245 -11.50067
 Alpha  occ. eigenvalues --  -11.48559 -11.43504 -11.42852 -11.41303 -11.40989
 Alpha  occ. eigenvalues --  -11.38206 -11.37693 -11.34590 -11.34117  -1.81721
 Alpha  occ. eigenvalues --   -1.75300  -1.40944  -1.31088  -1.21322  -1.18337
 Alpha  occ. eigenvalues --   -1.07793  -1.02910  -0.96408  -0.87410  -0.85621
 Alpha  occ. eigenvalues --   -0.83311  -0.78414  -0.76665  -0.67989  -0.65794
 Alpha  occ. eigenvalues --   -0.64014  -0.62034  -0.60971  -0.60030  -0.58084
 Alpha  occ. eigenvalues --   -0.56920  -0.56124  -0.53074  -0.52388  -0.51309
 Alpha  occ. eigenvalues --   -0.48366  -0.47203  -0.45776  -0.43867  -0.42902
 Alpha  occ. eigenvalues --   -0.40841  -0.38405  -0.36103  -0.31389  -0.29842
 Alpha  occ. eigenvalues --   -0.27879  -0.21801
 Alpha virt. eigenvalues --    0.02185   0.04200   0.04892   0.05526   0.05625
 Alpha virt. eigenvalues --    0.06098   0.06353   0.06695   0.07074   0.07377
 Alpha virt. eigenvalues --    0.07531   0.08110   0.09065   0.09553   0.10620

 Mulliken charges:
               1
     1  C   -3.827562
     2  C    1.111049
     3  C   -0.391551
     4  C    2.572284
     5  C   -0.445740
     6  C   -3.299499
     7  C    3.325668
     8  C   -2.505863
     9  C   -3.452428
    10  C   -0.979895
    11  H    1.537410
    12  H    0.907188
    13  H    0.885142
    14  H    1.771851
    15  H    1.722077
    16  H    1.637679
    17  H    1.828758
    18  H    1.497048
    19  H    2.014665
    20  H    1.199541
    21  H    1.463484
    22  H    1.196733
    23  H    1.352169
    24  H    1.400447
    25  N   -4.294034
    26  N   -1.316996
    27  O   -4.676508
    28  O   -2.233119
 Sum of Mulliken charges =   0.00000

 Dipole moment (field-independent basis, Debye):
    X=              4.1375    Y=             -1.9167    Z=             -2.3576  Tot=              5.1333

 Test job not archived.
 1\1\GINC-SE250\SP\RHF\Aug-CC-pVDZ\C10H14N2O2\OHZDE\08-Apr-2025\0\\#t h
 f aug-cc-pvdz iop(5/13=1,5/36=2,99/5=2) pseudo=read geom=check guess=(
 read,tcheck) scf=(maxcycle=1)\\title\\0,1\C,0,-5.00633,0.905028,-0.113
 798\C,0,4.13318,0.783063,0.12402\C,0,1.14462,-0.667177,0.912318\C,0,1.
 61659,0.504461,0.298623\C,0,0.632866,1.38971,-0.283572\C,0,-0.211628,-
 0.995196,0.908921\C,0,-1.13461,-0.0853983,0.24456\C,0,-3.28886,-0.7135
 37,-0.607874\C,0,-4.76124,-0.55727,-0.252687\C,0,-0.656688,1.04244,-0.
 477602\H,0,1.06032,2.32511,-0.545063\H,0,4.26883,-1.86084,-1.33981\H,0

 Normal termination of Gaussian 16 at Tue Apr  8 21:33:23 2025.
