 Gaussian 16, Revision C.01,

 ----------------------------------------------------------------------
 #t hf aug-cc-pvdz symm=none int=(grid=ultrafine) guess=(read,tcheck) s
 table=(opt,rrhf)
 ----------------------------------------------------------------------
 -----
 title
 -----
 Symbolic Z-matrix:
 Charge =  0 Multiplicity = 1

 SCF Done:  E(RHF) =  -830.225785075     A.U. after   14 cycles
 Normal termination of Gaussian 16 at Tue Apr  8 19:49:11 2025.
 Gaussian 16:  ES64L-G16RevC.01  3-Jul-2019

 ----------------------------------------------------------------------
 #t hf aug-cc-pvdz iop(5/13=1,5/36=2,99/5=2) pseudo=read geom=check gue
 ss=(read,tcheck) scf=(maxcycle=1)
 ----------------------------------------------------------------------
 -----
 title
 -----
 Structure from the checkpoint file:  "ANI1ccx_1406_conf27_mol1.chk"
 Charge =  0 Multiplicity = 1

                         Standard orientation:
 ---------------------------------------------------------------------
 Center     Atomic      Atomic             Coordinates (Angstroms)
 Number     Number       Type             X           Y           Z
 ---------------------------------------------------------------------
      1          6           0       -2.469909   -0.799140   -0.391932
      2          6           0       -1.352750   -0.231747    0.500823
      3          6           0       -3.374890    0.376560   -0.683208
      4          6           0        0.952484    0.420656    0.690328
      5          6           0        1.585359    1.792561    0.260073
      6          6           0        2.075290   -0.622235    0.850994
      7          6           0        2.267041   -1.459559   -0.426832
      8          1           0        3.112218    2.501142   -0.314739
      9          1           0        2.569252   -3.035458    0.714192
     10          1           0        3.018430   -0.046389    1.049360
     11          1           0        1.828891   -1.458529    1.559990
     12          1           0        0.614866    0.650787    1.766140
     13          1           0        0.064785   -0.091273   -1.092070
     14          1           0       -3.923120    0.034296   -1.589090
     15          1           0       -4.215870    0.446971    0.071419
     16          1           0       -2.137599   -1.368072   -1.365200
     17          1           0       -2.606488   -2.561312    0.669886
     18          1           0       -3.738299   -1.523063    1.160640
     19          1           0       -2.412331    2.026018   -0.152770
     20          7           0       -3.270339   -1.825352    0.302812
     21          7           0       -0.200962   -0.021331   -0.120482
     22          8           0        2.455872   -2.726438   -0.277545
     23          8           0       -1.469550    0.099903    1.716820
     24          8           0       -2.821151    1.637238   -0.955481
     25          8           0        1.065008    2.825491    0.008411
     26          8           0        2.142271   -0.876409   -1.513180
     27          8           0        2.881129    1.601352   -0.048468
 ---------------------------------------------------------------------

 SCF Done:  E(RHF) =  -833.824428888     A.U. after    2 cycles

 The electronic state is 1-A.
 Alpha  occ. eigenvalues --  -21.15990 -21.13030 -21.07371 -21.07271 -21.05262
 Alpha  occ. eigenvalues --  -21.03020 -15.78916 -15.74406 -11.56636 -11.55094
 Alpha  occ. eigenvalues --  -11.54552 -11.50399 -11.48396 -11.43863 -11.41580
 Alpha  occ. eigenvalues --   -1.86810  -1.84972  -1.72171  -1.69619  -1.67169
 Alpha  occ. eigenvalues --   -1.66402  -1.42228  -1.34331  -1.19197  -1.07296
 Alpha  occ. eigenvalues --   -1.01616  -0.91997  -0.82926  -0.82147  -0.80855
 Alpha  occ. eigenvalues --   -0.72176  -0.71108  -0.68452  -0.67402  -0.65852
 Alpha  occ. eigenvalues --   -0.62616  -0.61146  -0.60667  -0.58720  -0.58191
 Alpha  occ. eigenvalues --   -0.55794  -0.54069  -0.53053  -0.52120  -0.50780
 Alpha  occ. eigenvalues --   -0.50080  -0.47964  -0.46935  -0.45388  -0.39895
 Alpha  occ. eigenvalues --   -0.37582  -0.35973  -0.34830  -0.33224  -0.32198
 Alpha  occ. eigenvalues --   -0.30735  -0.30079  -0.29215
 Alpha virt. eigenvalues --    0.02495   0.04357   0.04444   0.05109   0.05740
 Alpha virt. eigenvalues --    0.05971   0.06285   0.06748   0.07256   0.07607
 Alpha virt. eigenvalues --    0.08697   0.09113   0.09598   0.10584   0.10889

 Mulliken charges:
               1
     1  C   -3.891858
     2  C    8.160996
     3  C    0.112247
     4  C   -3.053778
     5  C    6.975120
     6  C   -3.235200
     7  C    6.151607
     8  H    0.950173
     9  H    0.823260
    10  H    1.587127
    11  H    1.425929
    12  H    1.873335
    13  H    0.874262
    14  H    1.120477
    15  H    1.335844
    16  H    1.530941
    17  H    0.580180
    18  H    0.562518
    19  H    0.795469
    20  N   -2.100506
    21  N   -3.200932
    22  O   -3.270653
    23  O   -3.599655
    24  O   -2.877425
    25  O   -3.476430
    26  O   -3.055684
    27  O   -3.097363
 Sum of Mulliken charges =   0.00000

 Dipole moment (field-independent basis, Debye):
    X=              2.5276    Y=             -1.5710    Z=              1.0554  Tot=              3.1577

 Test job not archived.
 1\1\GINC-SE368\SP\RHF\Aug-CC-pVDZ\C7H12N2O6\OHZDE\08-Apr-2025\0\\#t hf
  aug-cc-pvdz iop(5/13=1,5/36=2,99/5=2) pseudo=read geom=check guess=(r
 ead,tcheck) scf=(maxcycle=1)\\title\\0,1\C,0,-2.46991,-0.799138,-0.391
 932\C,0,-1.35275,-0.231746,0.500823\C,0,-3.37489,0.376562,-0.683208\C,
 0,0.952484,0.420655,0.690328\C,0,1.58536,1.79256,0.260073\C,0,2.07529,
 -0.622236,0.850994\C,0,2.26704,-1.45956,-0.426832\H,0,3.11222,2.50114,
 -0.314739\H,0,2.56925,-3.03546,0.714192\H,0,3.01843,-0.0463912,1.04936
 \H,0,1.82889,-1.45853,1.55999\H,0,0.614866,0.650787,1.76614\H,0,0.0647

 Normal termination of Gaussian 16 at Tue Apr  8 19:49:34 2025.
