 Gaussian 16, Revision C.01,

 ----------------------------------------------------------------------
 #t hf aug-cc-pvdz symm=none int=(grid=ultrafine) guess=(read,tcheck) s
 table=(opt,rrhf)
 ----------------------------------------------------------------------
 -----
 title
 -----
 Symbolic Z-matrix:
 Charge =  0 Multiplicity = 1

 SCF Done:  E(RHF) =  -456.239408259     A.U. after   11 cycles
 Normal termination of Gaussian 16 at Tue Apr  8 21:08:47 2025.
 Gaussian 16:  ES64L-G16RevC.01  3-Jul-2019

 ----------------------------------------------------------------------
 #t hf aug-cc-pvdz iop(5/13=1,5/36=2,99/5=2) pseudo=read geom=check gue
 ss=(read,tcheck) scf=(maxcycle=1)
 ----------------------------------------------------------------------
 -----
 title
 -----
 Structure from the checkpoint file:  "ANI1ccx_1844_conf298_mol1.chk"
 Charge =  0 Multiplicity = 1

                         Standard orientation:
 ---------------------------------------------------------------------
 Center     Atomic      Atomic             Coordinates (Angstroms)
 Number     Number       Type             X           Y           Z
 ---------------------------------------------------------------------
      1          1           0       -0.209458   -0.617126    1.819590
      2          1           0       -1.605131   -0.518253   -0.887596
      3          1           0       -1.807862   -1.900941   -1.625920
      4          1           0        2.059589   -0.554914    0.860592
      5          1           0        1.382139    0.767508    1.205040
      6          1           0       -0.171133    1.725359   -0.614852
      7          1           0       -1.306632   -1.325071    0.804402
      8          1           0        1.127749    2.577199   -1.169790
      9          1           0        1.571989   -0.033165   -1.097210
     10          1           0        1.026448   -1.488651   -1.382730
     11          1           0       -2.465201    1.839139    0.115454
     12          1           0       -1.575241    0.682470    0.654706
     13          8           0        1.654189   -0.084794    1.606390
     14          8           0        1.805758   -0.970408   -1.040550
     15          8           0       -1.072772   -1.389821   -1.069390
     16          8           0        0.822860    1.788119   -0.646664
     17          8           0       -1.213121   -0.662659    1.528850
     18          8           0       -1.750321    1.175369   -0.213848
 ---------------------------------------------------------------------

 SCF Done:  E(RHF) =  -458.228200056     A.U. after    2 cycles

 The electronic state is 1-A.
 Alpha  occ. eigenvalues --  -21.10460 -21.09908 -21.08593 -21.06919 -21.06461
 Alpha  occ. eigenvalues --  -21.05799  -1.69981  -1.66182  -1.65068  -1.64261
 Alpha  occ. eigenvalues --   -1.63020  -1.61713  -0.67415  -0.66039  -0.63610
 Alpha  occ. eigenvalues --   -0.61990  -0.60862  -0.60131  -0.53067  -0.50302
 Alpha  occ. eigenvalues --   -0.47567  -0.46128  -0.45891  -0.40557  -0.37680
 Alpha  occ. eigenvalues --   -0.36050  -0.35392  -0.34357  -0.33146  -0.30579
 Alpha virt. eigenvalues --    0.03077   0.03878   0.04539   0.06840   0.07265
 Alpha virt. eigenvalues --    0.07649   0.08279   0.08497   0.08880   0.10397
 Alpha virt. eigenvalues --    0.10798   0.10837   0.17243   0.18820   0.19541

 Mulliken charges:
               1
     1  H    1.170539
     2  H    1.410693
     3  H    0.780542
     4  H    1.259284
     5  H    1.185102
     6  H    1.681188
     7  H    1.299353
     8  H    0.983260
     9  H    1.380141
    10  H    1.189076
    11  H    0.806443
    12  H    1.477824
    13  O   -2.401592
    14  O   -2.404335
    15  O   -2.212520
    16  O   -2.555360
    17  O   -2.655442
    18  O   -2.394194
 Sum of Mulliken charges =  -0.00000

 Dipole moment (field-independent basis, Debye):
    X=             -2.3474    Y=              1.1757    Z=             -1.4891  Tot=              3.0183

 Test job not archived.
 1\1\GINC-SE220\SP\RHF\Aug-CC-pVDZ\H12O6\OHZDE\08-Apr-2025\0\\#t hf aug
 -cc-pvdz iop(5/13=1,5/36=2,99/5=2) pseudo=read geom=check guess=(read,
 tcheck) scf=(maxcycle=1)\\title\\0,1\H,0,-0.209457,-0.617125,1.81959\H
 ,0,-1.60513,-0.518252,-0.887596\H,0,-1.80786,-1.90094,-1.62592\H,0,2.0
 5959,-0.554912,0.860592\H,0,1.38214,0.767509,1.20504\H,0,-0.171132,1.7
 2536,-0.614852\H,0,-1.30663,-1.32507,0.804402\H,0,1.12775,2.5772,-1.16
 979\H,0,1.57199,-0.0331636,-1.09721\H,0,1.02645,-1.48865,-1.38273\H,0,
 -2.4652,1.83914,0.115454\H,0,-1.57524,0.682471,0.654706\O,0,1.65419,-0

 Normal termination of Gaussian 16 at Tue Apr  8 21:08:53 2025.
