 Gaussian 16, Revision C.01,

 ----------------------------------------------------------------------
 #t hf aug-cc-pvdz symm=none int=(grid=ultrafine) guess=(read,tcheck) s
 table=(opt,rrhf)
 ----------------------------------------------------------------------
 -----
 title
 -----
 Symbolic Z-matrix:
 Charge =  0 Multiplicity = 1

 SCF Done:  E(RHF) =  -637.015139195     A.U. after   17 cycles
 Normal termination of Gaussian 16 at Tue Apr  8 21:05:53 2025.
 Gaussian 16:  ES64L-G16RevC.01  3-Jul-2019

 ----------------------------------------------------------------------
 #t hf aug-cc-pvdz iop(5/13=1,5/36=2,99/5=2) pseudo=read geom=check gue
 ss=(read,tcheck) scf=(maxcycle=1)
 ----------------------------------------------------------------------
 -----
 title
 -----
 Structure from the checkpoint file:  "ANI1ccx_1814_conf1_mol1.chk"
 Charge =  0 Multiplicity = 1

                         Standard orientation:
 ---------------------------------------------------------------------
 Center     Atomic      Atomic             Coordinates (Angstroms)
 Number     Number       Type             X           Y           Z
 ---------------------------------------------------------------------
      1          6           0        1.612680    1.215749    0.074859
      2          6           0        2.956540    0.623243   -0.233053
      3          6           0        0.817514   -1.142681    0.099546
      4          6           0       -1.281011   -0.999456    0.159445
      5          6           0       -2.618691   -1.236849    0.058907
      6          6           0       -3.428450   -0.129530   -0.107492
      7          6           0       -2.984130    1.187651   -0.191555
      8          6           0       -1.621480    1.417690   -0.172760
      9          6           0       -0.820818    0.312275    0.033058
     10          1           0       -1.164969    2.397630   -0.237816
     11          1           0       -3.687909    1.986961   -0.353633
     12          1           0       -4.511240   -0.370881   -0.132691
     13          1           0        3.796240    1.222688   -0.537562
     14          1           0        2.389838   -2.468992   -0.125837
     15          1           0       -2.981411   -2.289159    0.010582
     16          7           0        0.580691    0.246810   -0.052576
     17          7           0        3.127989   -0.648469   -0.299662
     18          7           0        2.144899   -1.516242    0.005916
     19          7           0       -0.238008   -1.842670    0.244679
     20          8           0        1.382191    2.294649    0.470341
 ---------------------------------------------------------------------

 SCF Done:  E(RHF) =  -639.889802750     A.U. after    2 cycles

 The electronic state is 1-A.
 Alpha  occ. eigenvalues --  -21.08094 -15.83919 -15.83091 -15.80278 -15.73447
 Alpha  occ. eigenvalues --  -11.56235 -11.52647 -11.52267 -11.46243 -11.45348
 Alpha  occ. eigenvalues --  -11.44671 -11.41775 -11.41382 -11.37456  -1.77689
 Alpha  occ. eigenvalues --   -1.65204  -1.54454  -1.35418  -1.31510  -1.25077
 Alpha  occ. eigenvalues --   -1.10891  -1.09034  -0.97413  -0.93353  -0.87749
 Alpha  occ. eigenvalues --   -0.86482  -0.78466  -0.74061  -0.70664  -0.69473
 Alpha  occ. eigenvalues --   -0.67052  -0.64332  -0.61840  -0.59478  -0.57745
 Alpha  occ. eigenvalues --   -0.56471  -0.56184  -0.54154  -0.49587  -0.47964
 Alpha  occ. eigenvalues --   -0.47141  -0.45216  -0.41260  -0.39463  -0.37073
 Alpha  occ. eigenvalues --   -0.32351  -0.30305  -0.28015
 Alpha virt. eigenvalues --    0.03232   0.04878   0.05278   0.05814   0.06010
 Alpha virt. eigenvalues --    0.07370   0.08717   0.09179   0.09646   0.10007
 Alpha virt. eigenvalues --    0.10412   0.11023   0.11599   0.11853   0.12355

 Mulliken charges:
               1
     1  C    5.729378
     2  C   -1.440586
     3  C    3.971322
     4  C    3.550677
     5  C   -2.797091
     6  C   -0.458580
     7  C   -2.222608
     8  C   -1.750685
     9  C    3.013406
    10  H    1.755813
    11  H    1.503564
    12  H    1.361752
    13  H    1.596737
    14  H    0.882424
    15  H    1.549483
    16  N   -3.966968
    17  N   -2.061795
    18  N   -2.259610
    19  N   -4.296017
    20  O   -3.660617
 Sum of Mulliken charges =   0.00000

 Dipole moment (field-independent basis, Debye):
    X=              1.1723    Y=             -0.1986    Z=             -0.8440  Tot=              1.4581

 Test job not archived.
 1\1\GINC-SE365\SP\RHF\Aug-CC-pVDZ\C9H6N4O1\OHZDE\08-Apr-2025\0\\#t hf
 aug-cc-pvdz iop(5/13=1,5/36=2,99/5=2) pseudo=read geom=check guess=(re
 ad,tcheck) scf=(maxcycle=1)\\title\\0,1\C,0,1.61268,1.21575,0.0748588\
 C,0,2.95654,0.623245,-0.233053\C,0,0.817515,-1.14268,0.0995458\C,0,-1.
 28101,-0.999456,0.159445\C,0,-2.61869,-1.23685,0.0589075\C,0,-3.42845,
 -0.129531,-0.107492\C,0,-2.98413,1.18765,-0.191555\C,0,-1.62148,1.4176
 9,-0.17276\C,0,-0.820818,0.312275,0.0330584\H,0,-1.16497,2.39763,-0.23
 7816\H,0,-3.68791,1.98696,-0.353633\H,0,-4.51124,-0.370883,-0.132691\H

 Normal termination of Gaussian 16 at Tue Apr  8 21:06:07 2025.
