 Gaussian 16, Revision C.01,

 ----------------------------------------------------------------------
 #t hf aug-cc-pvdz symm=none int=(grid=ultrafine) guess=(read,tcheck) s
 table=(opt,rrhf)
 ----------------------------------------------------------------------
 -----
 title
 -----
 Symbolic Z-matrix:
 Charge =  0 Multiplicity = 1

 SCF Done:  E(RHF) =  -569.268325627     A.U. after   14 cycles
 Normal termination of Gaussian 16 at Tue Apr  8 19:59:05 2025.
 Gaussian 16:  ES64L-G16RevC.01  3-Jul-2019

 ----------------------------------------------------------------------
 #t hf aug-cc-pvdz iop(5/13=1,5/36=2,99/5=2) pseudo=read geom=check gue
 ss=(read,tcheck) scf=(maxcycle=1)
 ----------------------------------------------------------------------
 -----
 title
 -----
 Structure from the checkpoint file:  "ANI1ccx_1526_conf3_mol2.chk"
 Charge =  0 Multiplicity = 1

                         Standard orientation:
 ---------------------------------------------------------------------
 Center     Atomic      Atomic             Coordinates (Angstroms)
 Number     Number       Type             X           Y           Z
 ---------------------------------------------------------------------
      1          6           0        2.096889    0.118249   -0.428390
      2          6           0        1.813429   -0.368748    1.007470
      3          6           0        0.525977   -1.268450    1.026810
      4          6           0       -0.646448   -0.696063    0.239742
      5          6           0       -1.638861   -1.361730   -0.364150
      6          6           0       -2.774591   -0.386369   -0.703342
      7          6           0       -1.090061    0.705797    0.414070
      8          1           0       -3.679031   -0.647572   -0.155125
      9          1           0       -2.941781   -0.293206   -1.790800
     10          1           0       -1.765041   -2.439910   -0.421046
     11          1           0        0.842199   -2.233030    0.554609
     12          1           0        2.653959   -0.985966    1.405660
     13          1           0        1.657439    0.557392    1.585300
     14          1           0        1.039479    1.646170    0.002696
     15          1           0        0.266245   -1.399790    2.077930
     16          8           0       -2.281121    0.826037   -0.221634
     17          8           0        1.591219    1.277520   -0.730714
     18          8           0        2.663319   -0.565612   -1.222410
     19          8           0       -0.447352    1.629530    0.873199
 ---------------------------------------------------------------------

 SCF Done:  E(RHF) =  -571.744710464     A.U. after    2 cycles

 The electronic state is 1-A.
 Alpha  occ. eigenvalues --  -21.11953 -21.09520 -21.07461 -21.02482 -11.56738
 Alpha  occ. eigenvalues --  -11.51564 -11.51061 -11.47359 -11.46614 -11.43050
 Alpha  occ. eigenvalues --  -11.40229  -1.89042  -1.82220  -1.71126  -1.63938
 Alpha  occ. eigenvalues --   -1.28462  -1.15778  -1.07029  -0.95856  -0.86891
 Alpha  occ. eigenvalues --   -0.78735  -0.76941  -0.70060  -0.69827  -0.67294
 Alpha  occ. eigenvalues --   -0.64525  -0.61346  -0.59540  -0.55912  -0.55368
 Alpha  occ. eigenvalues --   -0.53414  -0.51581  -0.48575  -0.46865  -0.45047
 Alpha  occ. eigenvalues --   -0.42019  -0.38804  -0.34544  -0.32265  -0.30981
 Alpha  occ. eigenvalues --   -0.27524
 Alpha virt. eigenvalues --    0.02654   0.03780   0.04275   0.04637   0.05770
 Alpha virt. eigenvalues --    0.06517   0.06825   0.07725   0.08629   0.08980
 Alpha virt. eigenvalues --    0.10057   0.10434   0.11277   0.11837   0.12706

 Mulliken charges:
               1
     1  C    6.285923
     2  C   -3.480070
     3  C   -3.724497
     4  C    4.065141
     5  C   -3.314267
     6  C   -1.991574
     7  C    4.912786
     8  H    1.424678
     9  H    1.388907
    10  H    1.429017
    11  H    1.286831
    12  H    1.148268
    13  H    1.486384
    14  H    1.488503
    15  H    1.261337
    16  O   -3.467139
    17  O   -3.356111
    18  O   -3.358009
    19  O   -3.486108
 Sum of Mulliken charges =  -0.00000

 Dipole moment (field-independent basis, Debye):
    X=             -3.9006    Y=             -2.1419    Z=              1.2022  Tot=              4.6095

 Test job not archived.
 1\1\GINC-SE143\SP\RHF\Aug-CC-pVDZ\C7H8O4\OHZDE\08-Apr-2025\0\\#t hf au
 g-cc-pvdz iop(5/13=1,5/36=2,99/5=2) pseudo=read geom=check guess=(read
 ,tcheck) scf=(maxcycle=1)\\title\\0,1\C,0,2.09689,0.118249,-0.42839\C,
 0,1.81343,-0.368748,1.00747\C,0,0.525978,-1.26845,1.02681\C,0,-0.64644
 7,-0.696063,0.239742\C,0,-1.63886,-1.36173,-0.36415\C,0,-2.77459,-0.38
 637,-0.703342\C,0,-1.09006,0.705797,0.41407\H,0,-3.67903,-0.647573,-0.
 155125\H,0,-2.94178,-0.293207,-1.7908\H,0,-1.76504,-2.43991,-0.421046\
 H,0,0.8422,-2.23303,0.554609\H,0,2.65396,-0.985965,1.40566\H,0,1.65744

 Normal termination of Gaussian 16 at Tue Apr  8 19:59:17 2025.
