 Gaussian 16, Revision C.01,

 ----------------------------------------------------------------------
 #t hf aug-cc-pvdz symm=none int=(grid=ultrafine) guess=(read,tcheck) s
 table=(opt,rrhf)
 ----------------------------------------------------------------------
 -----
 title
 -----
 Symbolic Z-matrix:
 Charge =  0 Multiplicity = 1

 SCF Done:  E(RHF) =  -923.189932457     A.U. after   14 cycles
 Normal termination of Gaussian 16 at Tue Apr  8 20:24:34 2025.
 Gaussian 16:  ES64L-G16RevC.01  3-Jul-2019

 ----------------------------------------------------------------------
 #t hf aug-cc-pvdz iop(5/13=1,5/36=2,99/5=2) pseudo=read geom=check gue
 ss=(read,tcheck) scf=(maxcycle=1)
 ----------------------------------------------------------------------
 -----
 title
 -----
 Structure from the checkpoint file:  "ANI1ccx_1584_conf18_mol1.chk"
 Charge =  0 Multiplicity = 1

                         Standard orientation:
 ---------------------------------------------------------------------
 Center     Atomic      Atomic             Coordinates (Angstroms)
 Number     Number       Type             X           Y           Z
 ---------------------------------------------------------------------
      1          6           0       -1.227272    1.896929    0.341007
      2          6           0        0.118495    1.435990    0.017433
      3          6           0       -2.270211    1.205678   -0.595406
      4          6           0       -2.689280   -0.242019   -0.073151
      5          6           0        1.716531   -0.455270    0.695181
      6          6           0        3.051250    0.086072    0.101724
      7          6           0        1.243662   -1.535248   -0.373686
      8          6           0       -0.043610   -2.180190   -0.052617
      9          1           0        2.298758    1.645173   -0.618344
     10          1           0       -0.214466   -2.858540   -1.944950
     11          1           0       -1.464116   -3.392821   -0.988007
     12          1           0        2.085263   -2.195717   -0.571783
     13          1           0        0.958484   -1.005959   -1.403160
     14          1           0        1.876431   -0.904425    1.653380
     15          1           0       -0.118862   -0.022417    1.522750
     16          1           0       -2.245799   -1.218642    1.421980
     17          1           0       -3.175102    1.828317   -0.473702
     18          1           0       -1.856602    1.329928   -1.665980
     19          1           0       -1.581912    1.634298    1.302580
     20          1           0       -0.984669    3.390039   -0.966373
     21          1           0       -1.856464    3.866318    0.302406
     22          7           0       -1.041434    3.341239    0.051296
     23          7           0        0.591489    0.483270    0.912946
     24          7           0       -0.535338   -3.021700   -1.036570
     25          8           0        0.821440    1.857421   -0.884825
     26          8           0       -3.113609   -1.117683   -0.767918
     27          8           0       -2.459990   -0.300684    1.178840
     28          8           0        3.932241   -0.732195    0.179608
     29          8           0       -0.651391   -2.122591    1.052920
     30          8           0        3.193639    1.292374   -0.437058
 ---------------------------------------------------------------------

 SCF Done:  E(RHF) =  -927.220065059     A.U. after    2 cycles

 The electronic state is 1-A.
 Alpha  occ. eigenvalues --  -21.13872 -21.09589 -21.06907 -21.06391 -21.06115
 Alpha  occ. eigenvalues --  -21.03903 -15.80531 -15.77960 -15.75633 -11.57737
 Alpha  occ. eigenvalues --  -11.57146 -11.55968 -11.53734 -11.49724 -11.48788
 Alpha  occ. eigenvalues --  -11.43959 -11.43654  -1.88032  -1.82236  -1.76522
 Alpha  occ. eigenvalues --   -1.73415  -1.68499  -1.65303  -1.43164  -1.38277
 Alpha  occ. eigenvalues --   -1.36518  -1.18469  -1.14156  -1.04135  -0.97412
 Alpha  occ. eigenvalues --   -0.85667  -0.83779  -0.82321  -0.78208  -0.75686
 Alpha  occ. eigenvalues --   -0.72473  -0.71239  -0.69627  -0.67646  -0.65851
 Alpha  occ. eigenvalues --   -0.65170  -0.64292  -0.62095  -0.60720  -0.59591
 Alpha  occ. eigenvalues --   -0.57373  -0.55933  -0.53299  -0.52717  -0.51898
 Alpha  occ. eigenvalues --   -0.51483  -0.50712  -0.48803  -0.47193  -0.45653
 Alpha  occ. eigenvalues --   -0.45120  -0.39582  -0.38515  -0.35026  -0.34211
 Alpha  occ. eigenvalues --   -0.33149  -0.32414  -0.30780  -0.30430  -0.28732
 Alpha virt. eigenvalues --    0.03037   0.03665   0.04160   0.05126   0.05418
 Alpha virt. eigenvalues --    0.05763   0.05893   0.06155   0.07051   0.07575
 Alpha virt. eigenvalues --    0.08082   0.08782   0.08959   0.09610   0.10346

 Mulliken charges:
               1
     1  C   -1.830167
     2  C    7.427457
     3  C   -4.231888
     4  C    6.679213
     5  C   -1.695812
     6  C    6.265479
     7  C   -2.448155
     8  C    5.407076
     9  H    1.650780
    10  H    0.746375
    11  H    0.846240
    12  H    1.446870
    13  H    1.353869
    14  H    1.917638
    15  H    0.784341
    16  H    1.451286
    17  H    1.333157
    18  H    1.148887
    19  H    2.412775
    20  H    0.608518
    21  H    0.567705
    22  N   -2.947219
    23  N   -3.257681
    24  N   -3.754235
    25  O   -4.421278
    26  O   -3.548745
    27  O   -3.543745
    28  O   -3.355695
    29  O   -3.477588
    30  O   -3.535460
 Sum of Mulliken charges =   0.00000

 Dipole moment (field-independent basis, Debye):
    X=             -4.0844    Y=             -0.4491    Z=             -0.3508  Tot=              4.1240

 Test job not archived.
 1\1\GINC-SE195\SP\RHF\Aug-CC-pVDZ\C8H13N3O6\OHZDE\08-Apr-2025\0\\#t hf
  aug-cc-pvdz iop(5/13=1,5/36=2,99/5=2) pseudo=read geom=check guess=(r
 ead,tcheck) scf=(maxcycle=1)\\title\\0,1\C,0,-1.22727,1.89693,0.341007
 \C,0,0.118497,1.43599,0.0174329\C,0,-2.27021,1.20568,-0.595406\C,0,-2.
 68928,-0.242016,-0.0731513\C,0,1.71653,-0.455272,0.695181\C,0,3.05125,
 0.0860679,0.101724\C,0,1.24366,-1.53525,-0.373686\C,0,-0.0436124,-2.18
 019,-0.052617\H,0,2.29876,1.64517,-0.618344\H,0,-0.214469,-2.85854,-1.
 94495\H,0,-1.46412,-3.39282,-0.988007\H,0,2.08526,-2.19572,-0.571783\H

 Normal termination of Gaussian 16 at Tue Apr  8 20:25:18 2025.
