 Gaussian 16, Revision C.01,

 ----------------------------------------------------------------------
 #t hf aug-cc-pvdz symm=none int=(grid=ultrafine) guess=(read,tcheck) s
 table=(opt,rrhf)
 ----------------------------------------------------------------------
 -----
 title
 -----
 Symbolic Z-matrix:
 Charge =  0 Multiplicity = 1

 SCF Done:  E(RHF) =  -724.124415716     A.U. after   15 cycles
 Normal termination of Gaussian 16 at Tue Apr  8 20:33:42 2025.
 Gaussian 16:  ES64L-G16RevC.01  3-Jul-2019

 ----------------------------------------------------------------------
 #t hf aug-cc-pvdz iop(5/13=1,5/36=2,99/5=2) pseudo=read geom=check gue
 ss=(read,tcheck) scf=(maxcycle=1)
 ----------------------------------------------------------------------
 -----
 title
 -----
 Structure from the checkpoint file:  "ANI1ccx_161_conf1_mol2.chk"
 Charge =  0 Multiplicity = 1

                         Standard orientation:
 ---------------------------------------------------------------------
 Center     Atomic      Atomic             Coordinates (Angstroms)
 Number     Number       Type             X           Y           Z
 ---------------------------------------------------------------------
      1          6           0        5.110991   -0.008325    1.003410
      2          6           0       -0.469210    1.387240   -0.251914
      3          6           0       -1.802149    1.581091    0.078381
      4          6           0       -4.057919    0.352920    0.628141
      5          6           0       -4.354650   -1.099758    0.342339
      6          6           0       -2.589489    0.492744    0.239911
      7          6           0       -0.844888   -1.019800   -0.454146
      8          6           0        0.008586    0.130107   -0.444299
      9          6           0        2.274050   -0.253060    0.264057
     10          6           0        3.505400   -0.593550   -0.600389
     11          6           0       -2.170800   -0.717074   -0.089470
     12          1           0       -4.799560   -1.703618    1.214950
     13          1           0       -0.068220    3.245570   -0.258261
     14          1           0       -2.179729    2.614891    0.298687
     15          1           0       -4.231489    0.563292    1.706570
     16          1           0       -4.674449    1.036142    0.133957
     17          1           0       -5.026700   -1.131758   -0.552295
     18          1           0       -0.587645   -1.955140   -0.858429
     19          1           0        3.793001    0.329077   -1.106630
     20          1           0        1.756500   -1.048701    0.832746
     21          1           0        3.308730   -1.371791   -1.341340
     22          1           0        5.922830   -0.474282    1.542970
     23          1           0        5.363001    0.829643    0.521038
     24          1           0        4.486941    0.265175    1.758420
     25          1           0        2.514101    0.613147    0.862760
     26          8           0       -3.131810   -1.635919   -0.136496
     27          8           0        4.630590   -1.072722    0.157119
     28          8           0        1.367681   -0.133196   -0.801737
     29          8           0        0.478933    2.425980   -0.350295
 ---------------------------------------------------------------------

 SCF Done:  E(RHF) =  -727.433411213     A.U. after    2 cycles

 The electronic state is 1-A.
 Alpha  occ. eigenvalues --  -21.09615 -21.06713 -21.04687 -21.03105 -11.54135
 Alpha  occ. eigenvalues --  -11.49190 -11.47429 -11.46529 -11.45129 -11.44070
 Alpha  occ. eigenvalues --  -11.43284 -11.40875 -11.39435 -11.38548 -11.38288
 Alpha  occ. eigenvalues --   -1.82922  -1.78129  -1.72450  -1.70616  -1.31855
 Alpha  occ. eigenvalues --   -1.18391  -1.09565  -1.07486  -1.03730  -0.98986
 Alpha  occ. eigenvalues --   -0.91243  -0.86554  -0.85955  -0.79796  -0.69952
 Alpha  occ. eigenvalues --   -0.68476  -0.67855  -0.67186  -0.65069  -0.63029
 Alpha  occ. eigenvalues --   -0.60911  -0.58521  -0.57817  -0.55826  -0.55119
 Alpha  occ. eigenvalues --   -0.53550  -0.53197  -0.52267  -0.49805  -0.47771
 Alpha  occ. eigenvalues --   -0.47208  -0.45995  -0.43362  -0.41003  -0.39761
 Alpha  occ. eigenvalues --   -0.36556  -0.34918  -0.32545  -0.30587  -0.27670
 Alpha  occ. eigenvalues --   -0.22758
 Alpha virt. eigenvalues --    0.03345   0.04186   0.04697   0.04827   0.05106
 Alpha virt. eigenvalues --    0.05581   0.06032   0.06475   0.06827   0.07253
 Alpha virt. eigenvalues --    0.07304   0.07499   0.08611   0.08986   0.09799

 Mulliken charges:
               1
     1  C   -3.052518
     2  C    4.001596
     3  C   -1.950543
     4  C   -4.465052
     5  C   -2.379686
     6  C    3.496041
     7  C   -6.552185
     8  C    5.482859
     9  C   -3.318640
    10  C   -1.430782
    11  C    7.145658
    12  H    1.431006
    13  H    0.990344
    14  H    1.971169
    15  H    0.906941
    16  H    0.908927
    17  H    1.377354
    18  H    1.814050
    19  H    1.643785
    20  H    1.855310
    21  H    1.417618
    22  H    1.222044
    23  H    1.379585
    24  H    1.413518
    25  H    1.904874
    26  O   -4.638393
    27  O   -2.988438
    28  O   -5.169798
    29  O   -4.416645
 Sum of Mulliken charges =   0.00000

 Dipole moment (field-independent basis, Debye):
    X=             -1.8572    Y=              1.4000    Z=              0.6725  Tot=              2.4210

 Test job not archived.
 1\1\GINC-SE095\SP\RHF\Aug-CC-pVDZ\C11H14O4\OHZDE\08-Apr-2025\0\\#t hf
 aug-cc-pvdz iop(5/13=1,5/36=2,99/5=2) pseudo=read geom=check guess=(re
 ad,tcheck) scf=(maxcycle=1)\\title\\0,1\C,0,5.11099,-0.00832287,1.0034
 1\C,0,-0.469211,1.38724,-0.251914\C,0,-1.80215,1.58109,0.0783814\C,0,-
 4.05792,0.352919,0.628141\C,0,-4.35465,-1.09976,0.342339\C,0,-2.58949,
 0.492743,0.239911\C,0,-0.844888,-1.0198,-0.454146\C,0,0.00858544,0.130
 107,-0.444299\C,0,2.27405,-0.253059,0.264057\C,0,3.5054,-0.593549,-0.6
 00389\C,0,-2.1708,-0.717075,-0.0894703\H,0,-4.79956,-1.70362,1.21495\H

 Normal termination of Gaussian 16 at Tue Apr  8 20:34:12 2025.
