 Gaussian 16, Revision C.01,

 ----------------------------------------------------------------------
 #t hf aug-cc-pvdz symm=none int=(grid=ultrafine) guess=(read,tcheck) s
 table=(opt,rrhf)
 ----------------------------------------------------------------------
 -----
 title
 -----
 Symbolic Z-matrix:
 Charge =  0 Multiplicity = 1

 SCF Done:  E(RHF) =  -446.837756422     A.U. after   13 cycles
 Normal termination of Gaussian 16 at Tue Apr  8 21:48:24 2025.
 Gaussian 16:  ES64L-G16RevC.01  3-Jul-2019

 ----------------------------------------------------------------------
 #t hf aug-cc-pvdz iop(5/13=1,5/36=2,99/5=2) pseudo=read geom=check gue
 ss=(read,tcheck) scf=(maxcycle=1)
 ----------------------------------------------------------------------
 -----
 title
 -----
 Structure from the checkpoint file:  "ANI1ccx_555_conf1_mol1.chk"
 Charge =  0 Multiplicity = 1

                         Standard orientation:
 ---------------------------------------------------------------------
 Center     Atomic      Atomic             Coordinates (Angstroms)
 Number     Number       Type             X           Y           Z
 ---------------------------------------------------------------------
      1          6           0        1.501440   -0.151520   -0.063843
      2          6           0       -1.677190    0.016541    0.049231
      3          1           0        3.416620   -0.023763   -0.797927
      4          1           0        2.885870    1.404029   -0.015356
      5          1           0        0.920279    0.881412    1.573380
      6          1           0       -0.348624   -1.237230    0.729829
      7          1           0       -0.709453    1.715640   -0.549348
      8          1           0       -2.335950    1.464131   -1.167230
      9          7           0        2.778670    0.400929   -0.103546
     10          7           0        0.553708    0.492519    0.675855
     11          7           0       -0.624501   -0.283677    0.913252
     12          7           0       -1.600800    1.210101   -0.590678
     13          8           0        1.288139   -1.234571   -0.616434
     14          8           0       -2.603611   -0.782110   -0.127299
 ---------------------------------------------------------------------

 SCF Done:  E(RHF) =  -448.787358181     A.U. after    2 cycles

 The electronic state is 1-A.
 Alpha  occ. eigenvalues --  -21.04400 -21.01250 -15.81007 -15.79931 -15.78929
 Alpha  occ. eigenvalues --  -15.77927 -11.52424 -11.49775  -1.74929  -1.70060
 Alpha  occ. eigenvalues --   -1.52654  -1.37123  -1.33786  -1.19780  -0.87144
 Alpha  occ. eigenvalues --   -0.84174  -0.75910  -0.74415  -0.71582  -0.65317
 Alpha  occ. eigenvalues --   -0.64210  -0.58774  -0.55581  -0.51867  -0.47953
 Alpha  occ. eigenvalues --   -0.42656  -0.39977  -0.35441  -0.32362  -0.31148
 Alpha  occ. eigenvalues --   -0.28829
 Alpha virt. eigenvalues --    0.02300   0.04303   0.04660   0.05290   0.06986
 Alpha virt. eigenvalues --    0.08004   0.10601   0.11664   0.12571   0.13056
 Alpha virt. eigenvalues --    0.13598   0.14545   0.14975   0.15422   0.16654

 Mulliken charges:
               1
     1  C    5.422301
     2  C    5.756998
     3  H    0.525458
     4  H    0.687543
     5  H    0.753835
     6  H    0.501691
     7  H    0.725898
     8  H    0.738108
     9  N   -2.711685
    10  N   -1.754058
    11  N   -1.909606
    12  N   -2.914857
    13  O   -2.817473
    14  O   -3.004152
 Sum of Mulliken charges =  -0.00000

 Dipole moment (field-independent basis, Debye):
    X=              3.6506    Y=              3.5385    Z=             -0.2033  Tot=              5.0881

 Test job not archived.
 1\1\GINC-SE186\SP\RHF\Aug-CC-pVDZ\C2H6N4O2\OHZDE\08-Apr-2025\0\\#t hf
 aug-cc-pvdz iop(5/13=1,5/36=2,99/5=2) pseudo=read geom=check guess=(re
 ad,tcheck) scf=(maxcycle=1)\\title\\0,1\C,0,1.50144,-0.151519,-0.06384
 35\C,0,-1.67719,0.0165399,0.0492313\H,0,3.41662,-0.0237619,-0.797927\H
 ,0,2.88587,1.40403,-0.0153562\H,0,0.920279,0.881412,1.57338\H,0,-0.348
 623,-1.23723,0.729829\H,0,-0.709453,1.71564,-0.549348\H,0,-2.33595,1.4
 6413,-1.16723\N,0,2.77867,0.40093,-0.103546\N,0,0.553708,0.492519,0.67
 5855\N,0,-0.624501,-0.283677,0.913252\N,0,-1.6008,1.2101,-0.590678\O,0

 Normal termination of Gaussian 16 at Tue Apr  8 21:48:29 2025.
