 Gaussian 16, Revision C.01,

 ----------------------------------------------------------------------
 #t hf aug-cc-pvdz symm=none int=(grid=ultrafine) guess=(read,tcheck) s
 table=(opt,rrhf)
 ----------------------------------------------------------------------
 -----
 title
 -----
 Symbolic Z-matrix:
 Charge =  0 Multiplicity = 1

 SCF Done:  E(RHF) =  -263.691954750     A.U. after   12 cycles
 Normal termination of Gaussian 16 at Tue Apr  8 21:36:37 2025.
 Gaussian 16:  ES64L-G16RevC.01  3-Jul-2019

 ----------------------------------------------------------------------
 #t hf aug-cc-pvdz iop(5/13=1,5/36=2,99/5=2) pseudo=read geom=check gue
 ss=(read,tcheck) scf=(maxcycle=1)
 ----------------------------------------------------------------------
 -----
 title
 -----
 Structure from the checkpoint file:  "ANI1ccx_383_conf80_mol1.chk"
 Charge =  0 Multiplicity = 1

                         Standard orientation:
 ---------------------------------------------------------------------
 Center     Atomic      Atomic             Coordinates (Angstroms)
 Number     Number       Type             X           Y           Z
 ---------------------------------------------------------------------
      1          6           0       -0.002458    0.048630   -0.018065
      2          1           0       -1.923841   -0.006204    0.162017
      3          1           0        1.745520   -0.104386    0.057761
      4          8           0       -1.135359   -0.574690   -0.017402
      5          8           0        1.059031   -0.716238    0.006487
      6          8           0        0.100461    1.268279   -0.003009
 ---------------------------------------------------------------------

 SCF Done:  E(RHF) =  -264.743636237     A.U. after    2 cycles

 The electronic state is 1-A.
 Alpha  occ. eigenvalues --  -21.15492 -21.14776 -21.04325 -11.55136  -1.93164
 Alpha  occ. eigenvalues --   -1.75093  -1.65028  -0.88042  -0.66632  -0.64873
 Alpha  occ. eigenvalues --   -0.63239  -0.57685  -0.44022  -0.40539  -0.33340
 Alpha  occ. eigenvalues --   -0.30705
 Alpha virt. eigenvalues --    0.03364   0.05819   0.10769   0.11419   0.11920
 Alpha virt. eigenvalues --    0.15860   0.16793   0.18433   0.19412   0.21086
 Alpha virt. eigenvalues --    0.21551   0.22889   0.24043   0.25043   0.28439

 Mulliken charges:
               1
     1  C    6.273469
     2  H    0.617957
     3  H    0.477838
     4  O   -2.597169
     5  O   -2.442890
     6  O   -2.329205
 Sum of Mulliken charges =   0.00000

 Dipole moment (field-independent basis, Debye):
    X=             -0.2967    Y=             -0.8752    Z=              0.2130  Tot=              0.9483

 Test job not archived.
 1\1\GINC-SE340\SP\RHF\Aug-CC-pVDZ\C1H2O3\OHZDE\08-Apr-2025\0\\#t hf au
 g-cc-pvdz iop(5/13=1,5/36=2,99/5=2) pseudo=read geom=check guess=(read
 ,tcheck) scf=(maxcycle=1)\\title\\0,1\C,0,-0.00245697,0.0486314,-0.018
 0651\H,0,-1.92384,-0.00619869,0.162017\H,0,1.74552,-0.104389,0.0577613
 \O,0,-1.13536,-0.574686,-0.017402\O,0,1.05903,-0.71624,0.00648738\O,0,
 0.100465,1.26828,-0.00300882\\Version=ES64L-G16RevC.01\State=1-A\HF=-2
 64.7436362\RMSD=4.951e-02\Dipole=-0.1167333,-0.3443133,0.0838162\Quadr
 upole=4.5971846,-4.0341569,-0.5630277,-0.3432287,-0.2973034,0.0826833\

 Normal termination of Gaussian 16 at Tue Apr  8 21:36:38 2025.
