 Gaussian 16, Revision C.01,

 ----------------------------------------------------------------------
 #t hf aug-cc-pvdz symm=none int=(grid=ultrafine) guess=(read,tcheck) s
 table=(opt,rrhf)
 ----------------------------------------------------------------------
 -----
 title
 -----
 Symbolic Z-matrix:
 Charge =  0 Multiplicity = 1

 SCF Done:  E(RHF) =  -380.207305102     A.U. after   11 cycles
 Normal termination of Gaussian 16 at Tue Apr  8 21:05:26 2025.
 Gaussian 16:  ES64L-G16RevC.01  3-Jul-2019

 ----------------------------------------------------------------------
 #t hf aug-cc-pvdz iop(5/13=1,5/36=2,99/5=2) pseudo=read geom=check gue
 ss=(read,tcheck) scf=(maxcycle=1)
 ----------------------------------------------------------------------
 -----
 title
 -----
 Structure from the checkpoint file:  "ANI1ccx_1843_conf271_mol1.chk"
 Charge =  0 Multiplicity = 1

                         Standard orientation:
 ---------------------------------------------------------------------
 Center     Atomic      Atomic             Coordinates (Angstroms)
 Number     Number       Type             X           Y           Z
 ---------------------------------------------------------------------
      1          1           0       -1.625710    0.537877   -0.917397
      2          1           0       -3.116310    0.279983   -0.359085
      3          1           0        0.857473    0.005085    0.996421
      4          1           0       -0.327293   -0.606480    1.870570
      5          1           0       -0.909076   -1.525469   -0.023515
      6          1           0        0.459798   -1.586939   -0.632687
      7          1           0        1.821840    0.643049   -0.754772
      8          1           0        3.026480   -0.185113   -0.596497
      9          1           0       -0.329872    1.519231    0.551397
     10          1           0        0.238522    2.829141    0.184602
     11          8           0       -2.297380   -0.157777   -0.723303
     12          8           0        0.140814    0.167109    1.621300
     13          8           0       -0.061919   -1.970279    0.114433
     14          8           0        2.135010   -0.299669   -0.831489
     15          8           0        0.071494    2.021821   -0.220818
 ---------------------------------------------------------------------

 SCF Done:  E(RHF) =  -381.834502471     A.U. after    2 cycles

 The electronic state is 1-A.
 Alpha  occ. eigenvalues --  -21.11508 -21.10429 -21.10022 -21.08610 -21.05691
 Alpha  occ. eigenvalues --   -1.69490  -1.68403  -1.66171  -1.65941  -1.62397
 Alpha  occ. eigenvalues --   -0.67953  -0.65081  -0.63678  -0.62286  -0.59814
 Alpha  occ. eigenvalues --   -0.51633  -0.50012  -0.47446  -0.44989  -0.43476
 Alpha  occ. eigenvalues --   -0.37850  -0.36940  -0.36462  -0.34272  -0.30407
 Alpha virt. eigenvalues --    0.03440   0.04677   0.04824   0.06726   0.07433
 Alpha virt. eigenvalues --    0.08032   0.08343   0.08972   0.10258   0.11001
 Alpha virt. eigenvalues --    0.18375   0.19983   0.20439   0.21273   0.21488

 Mulliken charges:
               1
     1  H    1.067621
     2  H    0.887833
     3  H    1.361730
     4  H    1.096651
     5  H    1.202376
     6  H    1.059714
     7  H    1.076542
     8  H    0.901250
     9  H    1.496753
    10  H    0.703470
    11  O   -2.089298
    12  O   -2.712190
    13  O   -2.119743
    14  O   -2.030357
    15  O   -1.902353
 Sum of Mulliken charges =  -0.00000

 Dipole moment (field-independent basis, Debye):
    X=              0.2923    Y=              1.8290    Z=              0.3227  Tot=              1.8801

 Test job not archived.
 1\1\GINC-SE454\SP\RHF\Aug-CC-pVDZ\H10O5\OHZDE\08-Apr-2025\0\\#t hf aug
 -cc-pvdz iop(5/13=1,5/36=2,99/5=2) pseudo=read geom=check guess=(read,
 tcheck) scf=(maxcycle=1)\\title\\0,1\H,0,-1.62571,0.537876,-0.917397\H
 ,0,-3.11631,0.279982,-0.359085\H,0,0.857473,0.00508462,0.996421\H,0,-0
 .327293,-0.606481,1.87057\H,0,-0.909076,-1.52547,-0.023515\H,0,0.45979
 8,-1.58694,-0.632687\H,0,1.82184,0.643048,-0.754772\H,0,3.02648,-0.185
 113,-0.596497\H,0,-0.329872,1.51923,0.551397\H,0,0.238522,2.82914,0.18
 4602\O,0,-2.29738,-0.157778,-0.723303\O,0,0.140814,0.167108,1.6213\O,0

 Normal termination of Gaussian 16 at Tue Apr  8 21:05:29 2025.
