 Gaussian 16, Revision C.01,

 ----------------------------------------------------------------------
 #t hf aug-cc-pvdz symm=none int=(grid=ultrafine) guess=(read,tcheck) s
 table=(opt,rrhf)
 ----------------------------------------------------------------------
 -----
 title
 -----
 Symbolic Z-matrix:
 Charge =  0 Multiplicity = 1

 SCF Done:  E(RHF) =  -809.787087047     A.U. after   14 cycles
 Normal termination of Gaussian 16 at Tue Apr  8 20:48:42 2025.
 Gaussian 16:  ES64L-G16RevC.01  3-Jul-2019

 ----------------------------------------------------------------------
 #t hf aug-cc-pvdz iop(5/13=1,5/36=2,99/5=2) pseudo=read geom=check gue
 ss=(read,tcheck) scf=(maxcycle=1)
 ----------------------------------------------------------------------
 -----
 title
 -----
 Structure from the checkpoint file:  "ANI1ccx_1634_conf13_mol1.chk"
 Charge =  0 Multiplicity = 1

                         Standard orientation:
 ---------------------------------------------------------------------
 Center     Atomic      Atomic             Coordinates (Angstroms)
 Number     Number       Type             X           Y           Z
 ---------------------------------------------------------------------
      1          6           0        2.856563    1.167382   -0.428060
      2          6           0        2.340480   -0.238485   -0.282707
      3          6           0        0.343884   -1.602261   -0.464110
      4          6           0       -1.006264   -1.478747   -1.146920
      5          6           0        0.154099   -2.047000    0.979373
      6          6           0       -0.215674   -1.047559    2.093520
      7          6           0       -1.274650    0.006869    1.952060
      8          6           0       -1.418675    1.725184    0.124413
      9          1           0       -2.046731   -0.558208   -2.380660
     10          1           0       -3.216094    2.072619   -0.729463
     11          1           0       -3.279335    1.692139    0.902703
     12          1           0       -1.255743    2.656443   -1.522080
     13          1           0        0.196523    1.178519    1.268530
     14          1           0       -1.483279    0.234651    3.031330
     15          1           0       -2.218301   -0.371224    1.566350
     16          1           0       -0.497401   -1.667239    3.046390
     17          1           0        0.690642   -0.462612    2.335560
     18          1           0       -0.639636   -2.788308    1.002890
     19          1           0        1.114063   -2.469103    1.352090
     20          1           0        0.851931   -2.387892   -1.000460
     21          1           0        0.494276    0.353561   -0.931389
     22          1           0        3.116794    1.387332   -1.472470
     23          1           0        3.716173    1.189720    0.161457
     24          1           0        1.112596    2.266127   -0.506951
     25          1           0        2.372179    3.119044    0.069649
     26          7           0        1.943746    2.170295    0.113168
     27          7           0        1.099729   -0.438357   -0.763926
     28          7           0       -0.806634    1.191042    1.259930
     29          7           0       -0.683689    2.264552   -0.764569
     30          7           0       -2.797786    1.508008    0.035962
     31          8           0        2.968817   -1.174588    0.175706
     32          8           0       -1.907216   -2.304135   -0.971911
     33          8           0       -1.185951   -0.424606   -1.994150
 ---------------------------------------------------------------------

 SCF Done:  E(RHF) =  -813.480587345     A.U. after    2 cycles

 The electronic state is 1-A.
 Alpha  occ. eigenvalues --  -21.13425 -21.05476 -21.01654 -15.78833 -15.74785
 Alpha  occ. eigenvalues --  -15.74657 -15.71076 -15.70978 -11.55796 -11.50968
 Alpha  occ. eigenvalues --  -11.50340 -11.48495 -11.47341 -11.43061 -11.40306
 Alpha  occ. eigenvalues --  -11.37448  -1.83577  -1.70730  -1.65334  -1.50782
 Alpha  occ. eigenvalues --   -1.42374  -1.34149  -1.32026  -1.26060  -1.19201
 Alpha  occ. eigenvalues --   -1.09198  -1.00658  -0.96942  -0.86477  -0.84358
 Alpha  occ. eigenvalues --   -0.80785  -0.79123  -0.72001  -0.70872  -0.68110
 Alpha  occ. eigenvalues --   -0.67020  -0.64984  -0.64620  -0.62930  -0.61299
 Alpha  occ. eigenvalues --   -0.60593  -0.59846  -0.58652  -0.57513  -0.54619
 Alpha  occ. eigenvalues --   -0.53870  -0.53161  -0.51512  -0.48928  -0.47397
 Alpha  occ. eigenvalues --   -0.47169  -0.45534  -0.44606  -0.43422  -0.39847
 Alpha  occ. eigenvalues --   -0.37821  -0.35961  -0.34345  -0.32247  -0.30474
 Alpha  occ. eigenvalues --   -0.29789  -0.27643
 Alpha virt. eigenvalues --    0.03029   0.04078   0.04340   0.04759   0.05310
 Alpha virt. eigenvalues --    0.05474   0.06536   0.06651   0.06930   0.07225
 Alpha virt. eigenvalues --    0.07520   0.07870   0.08227   0.08784   0.09575

 Mulliken charges:
               1
     1  C   -4.068623
     2  C    6.312518
     3  C   -2.680856
     4  C    7.558226
     5  C   -2.253134
     6  C   -2.270809
     7  C   -3.310431
     8  C    6.122076
     9  H    0.964748
    10  H    0.581487
    11  H    0.639797
    12  H    0.658276
    13  H    1.086297
    14  H    1.107166
    15  H    2.060501
    16  H    0.986676
    17  H    1.626161
    18  H    1.250281
    19  H    1.331624
    20  H    1.882728
    21  H    1.248310
    22  H    1.469065
    23  H    1.315449
    24  H    1.295856
    25  H    0.462279
    26  N   -2.158990
    27  N   -2.730576
    28  N   -2.650853
    29  N   -3.455347
    30  N   -3.254153
    31  O   -4.018103
    32  O   -3.642259
    33  O   -3.465390
 Sum of Mulliken charges =   0.00000

 Dipole moment (field-independent basis, Debye):
    X=             -3.8232    Y=              2.5710    Z=             -0.4511  Tot=              4.6293

 Test job not archived.
 1\1\GINC-SE029\SP\RHF\Aug-CC-pVDZ\C8H17N5O3\OHZDE\08-Apr-2025\0\\#t hf
  aug-cc-pvdz iop(5/13=1,5/36=2,99/5=2) pseudo=read geom=check guess=(r
 ead,tcheck) scf=(maxcycle=1)\\title\\0,1\C,0,2.85656,1.16739,-0.42806\
 C,0,2.34048,-0.238479,-0.282707\C,0,0.343888,-1.60226,-0.46411\C,0,-1.
 00626,-1.47875,-1.14692\C,0,0.154104,-2.047,0.979373\C,0,-0.215671,-1.
 04756,2.09352\C,0,-1.27465,0.00686542,1.95206\C,0,-1.41868,1.72518,0.1
 24413\H,0,-2.04673,-0.558213,-2.38066\H,0,-3.2161,2.07261,-0.729463\H,
 0,-3.27934,1.69213,0.902703\H,0,-1.25575,2.65644,-1.52208\H,0,0.19652,

 Normal termination of Gaussian 16 at Tue Apr  8 20:49:32 2025.
