 Gaussian 16, Revision C.01,

 ----------------------------------------------------------------------
 #t hf aug-cc-pvdz symm=none int=(grid=ultrafine) guess=(read,tcheck) s
 table=(opt,rrhf)
 ----------------------------------------------------------------------
 -----
 title
 -----
 Symbolic Z-matrix:
 Charge =  0 Multiplicity = 1

 SCF Done:  E(RHF) =  -532.286332084     A.U. after   11 cycles
 Normal termination of Gaussian 16 at Tue Apr  8 21:11:09 2025.
 Gaussian 16:  ES64L-G16RevC.01  3-Jul-2019

 ----------------------------------------------------------------------
 #t hf aug-cc-pvdz iop(5/13=1,5/36=2,99/5=2) pseudo=read geom=check gue
 ss=(read,tcheck) scf=(maxcycle=1)
 ----------------------------------------------------------------------
 -----
 title
 -----
 Structure from the checkpoint file:  "ANI1ccx_1845_conf241_mol1.chk"
 Charge =  0 Multiplicity = 1

                         Standard orientation:
 ---------------------------------------------------------------------
 Center     Atomic      Atomic             Coordinates (Angstroms)
 Number     Number       Type             X           Y           Z
 ---------------------------------------------------------------------
      1          1           0       -0.903522   -3.158681    0.671922
      2          1           0        1.529581   -2.216301   -1.159000
      3          1           0        0.369462   -1.794251   -0.167623
      4          1           0       -2.911289    0.054221    0.092769
      5          1           0       -3.644379   -1.339731   -0.395134
      6          1           0       -1.673139   -1.884701   -0.105192
      7          1           0       -1.688918    1.897019    0.027627
      8          1           0        2.788662    0.991824   -0.357955
      9          1           0       -2.792928    1.861139    1.117190
     10          1           0        2.708101   -1.014071    0.610394
     11          1           0        2.769771   -0.126683    1.890230
     12          1           0        0.077707    3.381809   -0.593265
     13          1           0        0.629490    2.043169   -0.138767
     14          1           0        1.772551    0.141227   -1.047480
     15          8           0       -0.931891   -2.563001   -0.142748
     16          8           0        2.025432    1.124659   -0.999709
     17          8           0       -2.906019   -1.005851    0.240297
     18          8           0        3.301641   -0.378876    1.104990
     19          8           0        1.244151   -1.480411   -0.537424
     20          8           0       -2.618228    1.711549    0.131801
     21          8           0        0.006019    2.737429    0.147077
 ---------------------------------------------------------------------

 SCF Done:  E(RHF) =  -534.616172705     A.U. after    2 cycles

 The electronic state is 1-A.
 Alpha  occ. eigenvalues --  -21.10505 -21.08737 -21.08054 -21.07746 -21.07535
 Alpha  occ. eigenvalues --  -21.07228 -21.05056  -1.70143  -1.68486  -1.65959
 Alpha  occ. eigenvalues --   -1.64531  -1.63797  -1.62146  -1.60969  -0.67628
 Alpha  occ. eigenvalues --   -0.65642  -0.64895  -0.62798  -0.62167  -0.61626
 Alpha  occ. eigenvalues --   -0.59044  -0.53325  -0.51050  -0.50596  -0.47165
 Alpha  occ. eigenvalues --   -0.45047  -0.43802  -0.40537  -0.36166  -0.35646
 Alpha  occ. eigenvalues --   -0.35102  -0.34563  -0.33821  -0.32798  -0.31837
 Alpha virt. eigenvalues --    0.03445   0.04565   0.05079   0.05657   0.06003
 Alpha virt. eigenvalues --    0.06089   0.08035   0.08672   0.09102   0.09379
 Alpha virt. eigenvalues --    0.10356   0.10620   0.11461   0.11741   0.17495

 Mulliken charges:
               1
     1  H    0.750847
     2  H    0.901084
     3  H    2.063828
     4  H    1.442441
     5  H    0.719663
     6  H    1.796907
     7  H    1.444894
     8  H    1.035080
     9  H    0.751079
    10  H    1.402414
    11  H    0.813430
    12  H    0.740403
    13  H    1.585773
    14  H    1.530405
    15  O   -2.491178
    16  O   -2.517522
    17  O   -2.375147
    18  O   -2.028289
    19  O   -3.014974
    20  O   -2.311093
    21  O   -2.240045
 Sum of Mulliken charges =  -0.00000

 Dipole moment (field-independent basis, Debye):
    X=             -2.3840    Y=             -0.8995    Z=              0.5196  Tot=              2.6005

 Test job not archived.
 1\1\GINC-SE095\SP\RHF\Aug-CC-pVDZ\H14O7\OHZDE\08-Apr-2025\0\\#t hf aug
 -cc-pvdz iop(5/13=1,5/36=2,99/5=2) pseudo=read geom=check guess=(read,
 tcheck) scf=(maxcycle=1)\\title\\0,1\H,0,-0.903523,-3.15868,0.671922\H
 ,0,1.52958,-2.2163,-1.159\H,0,0.369461,-1.79425,-0.167623\H,0,-2.91129
 ,0.0542218,0.0927692\H,0,-3.64438,-1.33973,-0.395134\H,0,-1.67314,-1.8
 847,-0.105192\H,0,-1.68892,1.89702,0.027627\H,0,2.78866,0.991825,-0.35
 7955\H,0,-2.79293,1.86114,1.11719\H,0,2.7081,-1.01407,0.610394\H,0,2.7
 6977,-0.126682,1.89023\H,0,0.0777053,3.38181,-0.593265\H,0,0.629488,2.

 Normal termination of Gaussian 16 at Tue Apr  8 21:11:16 2025.
