 Gaussian 16, Revision C.01,

 ----------------------------------------------------------------------
 #t hf aug-cc-pvdz symm=none int=(grid=ultrafine) guess=(read,tcheck) s
 table=(opt,rrhf)
 ----------------------------------------------------------------------
 -----
 title
 -----
 Symbolic Z-matrix:
 Charge =  0 Multiplicity = 1

 SCF Done:  E(RHF) =  -425.780699371     A.U. after   14 cycles
 Normal termination of Gaussian 16 at Tue Apr  8 21:47:19 2025.
 Gaussian 16:  ES64L-G16RevC.01  3-Jul-2019

 ----------------------------------------------------------------------
 #t hf aug-cc-pvdz iop(5/13=1,5/36=2,99/5=2) pseudo=read geom=check gue
 ss=(read,tcheck) scf=(maxcycle=1)
 ----------------------------------------------------------------------
 -----
 title
 -----
 Structure from the checkpoint file:  "ANI1ccx_543_conf1_mol2.chk"
 Charge =  0 Multiplicity = 1

                         Standard orientation:
 ---------------------------------------------------------------------
 Center     Atomic      Atomic             Coordinates (Angstroms)
 Number     Number       Type             X           Y           Z
 ---------------------------------------------------------------------
      1          6           0        1.296840   -0.064712    0.003099
      2          6           0       -0.785744    0.781636    0.012079
      3          1           0        3.003459   -1.085315   -0.260426
      4          1           0        3.200061    0.313733    0.666688
      5          1           0       -2.369272   -1.335607    0.834704
      6          1           0       -2.424771   -1.036447   -0.735866
      7          1           0        0.902610    2.072978   -0.020450
      8          7           0        2.675950   -0.120821   -0.091590
      9          7           0        0.509161   -1.124981    0.012439
     10          7           0       -0.731063   -0.617588    0.026345
     11          7           0       -1.837992   -1.450918   -0.017290
     12          7           0        0.577606    1.097299    0.020611
     13          8           0       -1.716787    1.536022   -0.028665
 ---------------------------------------------------------------------

 SCF Done:  E(RHF) =  -427.661824523     A.U. after    2 cycles

 The electronic state is 1-A.
 Alpha  occ. eigenvalues --  -21.03314 -15.80290 -15.78820 -15.78761 -15.77843
 Alpha  occ. eigenvalues --  -15.74772 -11.52266 -11.48813  -1.75031  -1.64171
 Alpha  occ. eigenvalues --   -1.46344  -1.34082  -1.28386  -1.08309  -0.89018
 Alpha  occ. eigenvalues --   -0.84077  -0.73821  -0.71367  -0.66903  -0.65568
 Alpha  occ. eigenvalues --   -0.63126  -0.59082  -0.52543  -0.49194  -0.44925
 Alpha  occ. eigenvalues --   -0.44642  -0.41177  -0.38607  -0.30468  -0.24236
 Alpha virt. eigenvalues --    0.02979   0.04866   0.05639   0.06154   0.07122
 Alpha virt. eigenvalues --    0.10283   0.10692   0.11389   0.12218   0.13203
 Alpha virt. eigenvalues --    0.14316   0.14505   0.15883   0.16139   0.17020

 Mulliken charges:
               1
     1  C    4.115080
     2  C    4.907674
     3  H    0.579472
     4  H    0.565909
     5  H    0.668709
     6  H    0.638208
     7  H    0.717997
     8  N   -2.822719
     9  N   -2.021731
    10  N    0.181961
    11  N   -2.041083
    12  N   -2.312761
    13  O   -3.176716
 Sum of Mulliken charges =   0.00000

 Dipole moment (field-independent basis, Debye):
    X=              2.4447    Y=              0.7990    Z=              0.9322  Tot=              2.7356

 Test job not archived.
 1\1\GINC-SE073\SP\RHF\Aug-CC-pVDZ\C2H5N5O1\OHZDE\08-Apr-2025\0\\#t hf
 aug-cc-pvdz iop(5/13=1,5/36=2,99/5=2) pseudo=read geom=check guess=(re
 ad,tcheck) scf=(maxcycle=1)\\title\\0,1\C,0,1.29684,-0.0647096,0.00309
 886\C,0,-0.785746,0.781635,0.0120786\H,0,3.00346,-1.08531,-0.260426\H,
 0,3.20006,0.313738,0.666688\H,0,-2.36927,-1.33561,0.834704\H,0,-2.4247
 7,-1.03645,-0.735866\H,0,0.902606,2.07298,-0.0204502\N,0,2.67595,-0.12
 0816,-0.0915902\N,0,0.509162,-1.12498,0.0124392\N,0,-0.731062,-0.61758
 9,0.0263451\N,0,-1.83799,-1.45092,-0.0172904\N,0,0.577604,1.0973,0.020

 Normal termination of Gaussian 16 at Tue Apr  8 21:47:23 2025.
