 Gaussian 16, Revision C.01,

 ----------------------------------------------------------------------
 #t hf aug-cc-pvdz symm=none int=(grid=ultrafine) guess=(read,tcheck) s
 table=(opt,rrhf)
 ----------------------------------------------------------------------
 -----
 title
 -----
 Symbolic Z-matrix:
 Charge =  0 Multiplicity = 1

 SCF Done:  E(RHF) =  -794.463662255     A.U. after   15 cycles
 Normal termination of Gaussian 16 at Tue Apr  8 20:23:06 2025.
 Gaussian 16:  ES64L-G16RevC.01  3-Jul-2019

 ----------------------------------------------------------------------
 #t hf aug-cc-pvdz iop(5/13=1,5/36=2,99/5=2) pseudo=read geom=check gue
 ss=(read,tcheck) scf=(maxcycle=1)
 ----------------------------------------------------------------------
 -----
 title
 -----
 Structure from the checkpoint file:  "ANI1ccx_1592_conf11_mol2.chk"
 Charge =  0 Multiplicity = 1

                         Standard orientation:
 ---------------------------------------------------------------------
 Center     Atomic      Atomic             Coordinates (Angstroms)
 Number     Number       Type             X           Y           Z
 ---------------------------------------------------------------------
      1          6           0        0.513180    1.351130   -0.330194
      2          6           0       -0.888175    1.757279    0.040301
      3          6           0        1.400280    1.089251    0.938929
      4          6           0        2.731690    0.437520    0.494689
      5          6           0        2.514432   -1.024688    0.150765
      6          6           0       -1.630129   -0.604722    0.642711
      7          6           0       -1.876908   -1.308912   -0.700893
      8          6           0       -2.601628   -1.146023    1.736630
      9          1           0       -0.085732   -1.942270   -0.624226
     10          1           0       -3.633048   -0.942898    1.396180
     11          1           0       -2.406169   -0.600026    2.687690
     12          1           0       -2.471857   -2.225852    1.883060
     13          1           0       -0.575857   -0.860297    0.898831
     14          1           0       -2.691240    1.212657    0.464520
     15          1           0        3.559403   -2.549807   -0.229885
     16          1           0        3.053770    0.966449   -0.404840
     17          1           0        3.508000    0.572953    1.262210
     18          1           0        1.583029    2.042491    1.456610
     19          1           0        0.823023    0.470938    1.661770
     20          1           0        0.352120    0.356236   -0.756552
     21          1           0        0.547561    2.363580   -2.066080
     22          1           0        0.963690    3.238011   -0.766477
     23          7           0        1.122979    2.338921   -1.211110
     24          7           0       -1.787310    0.839801    0.552941
     25          8           0       -1.243132    2.961339   -0.057247
     26          8           0        1.478732   -1.526129    0.046063
     27          8           0        3.706182   -1.648687   -0.024978
     28          8           0       -2.932898   -1.211003   -1.292930
     29          8           0       -0.865488   -2.032801   -1.182560
 ---------------------------------------------------------------------

 SCF Done:  E(RHF) =  -797.972839041     A.U. after    2 cycles

 The electronic state is 1-A.
 Alpha  occ. eigenvalues --  -21.15592 -21.11906 -21.10237 -21.04391 -21.02702
 Alpha  occ. eigenvalues --  -15.77396 -15.74326 -11.58663 -11.54536 -11.53511
 Alpha  occ. eigenvalues --  -11.48387 -11.47402 -11.44909 -11.41350 -11.40897
 Alpha  occ. eigenvalues --   -1.88445  -1.82634  -1.72573  -1.69612  -1.64987
 Alpha  occ. eigenvalues --   -1.42039  -1.36182  -1.20414  -1.14688  -1.05687
 Alpha  occ. eigenvalues --   -0.96600  -0.94315  -0.82689  -0.80783  -0.79308
 Alpha  occ. eigenvalues --   -0.72656  -0.72184  -0.69301  -0.67794  -0.66487
 Alpha  occ. eigenvalues --   -0.64949  -0.62241  -0.59921  -0.58783  -0.56960
 Alpha  occ. eigenvalues --   -0.55132  -0.54696  -0.54594  -0.53072  -0.51855
 Alpha  occ. eigenvalues --   -0.51139  -0.49985  -0.48135  -0.46319  -0.45690
 Alpha  occ. eigenvalues --   -0.42598  -0.38992  -0.37545  -0.34990  -0.33472
 Alpha  occ. eigenvalues --   -0.32347  -0.29075  -0.27871
 Alpha virt. eigenvalues --    0.03255   0.03576   0.04233   0.05046   0.05451
 Alpha virt. eigenvalues --    0.05860   0.06224   0.06859   0.07193   0.07478
 Alpha virt. eigenvalues --    0.07545   0.08731   0.09122   0.09831   0.10193

 Mulliken charges:
               1
     1  C   -1.126185
     2  C    5.950919
     3  C   -3.396749
     4  C   -4.079298
     5  C    6.461076
     6  C   -1.911579
     7  C    6.881150
     8  C   -5.416733
     9  H    1.849506
    10  H    1.317542
    11  H    1.244023
    12  H    1.173411
    13  H    2.902061
    14  H    0.721834
    15  H    1.002570
    16  H    1.564190
    17  H    1.364504
    18  H    1.329845
    19  H    1.836238
    20  H    2.684247
    21  H    0.505794
    22  H    0.535681
    23  N   -2.890527
    24  N   -2.953502
    25  O   -3.658956
    26  O   -3.395349
    27  O   -3.471448
    28  O   -3.458787
    29  O   -3.565477
 Sum of Mulliken charges =   0.00000

 Dipole moment (field-independent basis, Debye):
    X=              3.4801    Y=             -1.3877    Z=              1.9994  Tot=              4.2467

 Test job not archived.
 1\1\GINC-SE184\SP\RHF\Aug-CC-pVDZ\C8H14N2O5\OHZDE\08-Apr-2025\0\\#t hf
  aug-cc-pvdz iop(5/13=1,5/36=2,99/5=2) pseudo=read geom=check guess=(r
 ead,tcheck) scf=(maxcycle=1)\\title\\0,1\C,0,0.51318,1.35113,-0.330194
 \C,0,-0.888174,1.75728,0.0403014\C,0,1.40028,1.08925,0.938929\C,0,2.73
 169,0.437518,0.494689\C,0,2.51443,-1.02469,0.150765\C,0,-1.63013,-0.60
 472,0.642711\C,0,-1.87691,-1.30891,-0.700893\C,0,-2.60163,-1.14602,1.7
 3663\H,0,-0.0857349,-1.94227,-0.624226\H,0,-3.63305,-0.942895,1.39618\
 H,0,-2.40617,-0.600024,2.68769\H,0,-2.47186,-2.22585,1.88306\H,0,-0.57

 Normal termination of Gaussian 16 at Tue Apr  8 20:23:39 2025.
