 Gaussian 16, Revision C.01,

 ----------------------------------------------------------------------
 #t hf aug-cc-pvdz symm=none int=(grid=ultrafine) guess=(read,tcheck) s
 table=(opt,rrhf)
 ----------------------------------------------------------------------
 -----
 title
 -----
 Symbolic Z-matrix:
 Charge =  0 Multiplicity = 1

 SCF Done:  E(RHF) =  -565.457216582     A.U. after   15 cycles
 Normal termination of Gaussian 16 at Tue Apr  8 19:38:20 2025.
 Gaussian 16:  ES64L-G16RevC.01  3-Jul-2019

 ----------------------------------------------------------------------
 #t hf aug-cc-pvdz iop(5/13=1,5/36=2,99/5=2) pseudo=read geom=check gue
 ss=(read,tcheck) scf=(maxcycle=1)
 ----------------------------------------------------------------------
 -----
 title
 -----
 Structure from the checkpoint file:  "ANI1ccx_1346_conf8_mol1.chk"
 Charge =  0 Multiplicity = 1

                         Standard orientation:
 ---------------------------------------------------------------------
 Center     Atomic      Atomic             Coordinates (Angstroms)
 Number     Number       Type             X           Y           Z
 ---------------------------------------------------------------------
      1          6           0       -2.485559   -0.056636   -0.188594
      2          6           0       -1.038619    0.057687    0.234176
      3          6           0       -0.995812   -0.215318    1.764640
      4          6           0       -0.187613   -1.147450   -0.366212
      5          6           0        1.804051   -0.015315   -0.005817
      6          6           0       -0.281326    1.250410   -0.280812
      7          1           0        1.561849    2.050721   -0.095199
      8          1           0        1.538372   -2.059299    0.344266
      9          1           0       -0.018194   -0.122592    2.205740
     10          1           0       -1.668499    0.473695    2.288170
     11          1           0       -1.282788   -1.213521    1.912910
     12          1           0       -2.673159   -0.429708   -1.234740
     13          1           0       -3.012310    0.829864   -0.002319
     14          1           0       -3.008058   -0.857461    0.424496
     15          7           0        1.071762   -1.145329    0.054913
     16          7           0        1.123570    1.152111   -0.202298
     17          8           0       -0.728811   -2.021851   -1.045490
     18          8           0        3.021691   -0.043919    0.158556
     19          8           0       -0.754789    2.320839   -0.582557
 ---------------------------------------------------------------------

 SCF Done:  E(RHF) =  -567.948223665     A.U. after    2 cycles

 The electronic state is 1-A.
 Alpha  occ. eigenvalues --  -21.07851 -21.07812 -21.05176 -15.81799 -15.81484
 Alpha  occ. eigenvalues --  -11.56416 -11.55618 -11.54411 -11.47298 -11.42846
 Alpha  occ. eigenvalues --  -11.39979  -1.77665  -1.74394  -1.73160  -1.49641
 Alpha  occ. eigenvalues --   -1.38458  -1.27543  -1.04153  -1.01480  -0.93773
 Alpha  occ. eigenvalues --   -0.90393  -0.79407  -0.75117  -0.69356  -0.67889
 Alpha  occ. eigenvalues --   -0.65104  -0.60054  -0.59644  -0.57322  -0.56575
 Alpha  occ. eigenvalues --   -0.55664  -0.52118  -0.51673  -0.49693  -0.47102
 Alpha  occ. eigenvalues --   -0.45047  -0.37640  -0.34976  -0.33563  -0.32761
 Alpha  occ. eigenvalues --   -0.28984
 Alpha virt. eigenvalues --    0.03070   0.04632   0.04971   0.05367   0.05554
 Alpha virt. eigenvalues --    0.06013   0.07527   0.07680   0.09245   0.09452
 Alpha virt. eigenvalues --    0.10719   0.11283   0.12112   0.12225   0.12650

 Mulliken charges:
               1
     1  C   -4.510956
     2  C    0.319561
     3  C   -4.374345
     4  C    5.044484
     5  C    5.261663
     6  C    5.651929
     7  H    0.629326
     8  H    0.610638
     9  H    1.341026
    10  H    1.193075
    11  H    1.368989
    12  H    1.280297
    13  H    1.133763
    14  H    1.128601
    15  N   -2.735604
    16  N   -2.597799
    17  O   -3.652877
    18  O   -3.365866
    19  O   -3.725906
 Sum of Mulliken charges =  -0.00000

 Dipole moment (field-independent basis, Debye):
    X=             -1.1330    Y=             -0.4337    Z=              1.7359  Tot=              2.1178

 Test job not archived.
 1\1\GINC-SE179\SP\RHF\Aug-CC-pVDZ\C6H8N2O3\OHZDE\08-Apr-2025\0\\#t hf
 aug-cc-pvdz iop(5/13=1,5/36=2,99/5=2) pseudo=read geom=check guess=(re
 ad,tcheck) scf=(maxcycle=1)\\title\\0,1\C,0,-2.48556,-0.0566339,-0.188
 594\C,0,-1.03862,0.0576878,0.234176\C,0,-0.995813,-0.215317,1.76464\C,
 0,-0.187615,-1.14745,-0.366212\C,0,1.80405,-0.0153161,-0.0058172\C,0,-
 0.281326,1.25041,-0.280812\H,0,1.56185,2.05072,-0.0951992\H,0,1.53837,
 -2.0593,0.344266\H,0,-0.0181952,-0.122592,2.20574\H,0,-1.6685,0.473696
 ,2.28817\H,0,-1.28279,-1.21352,1.91291\H,0,-2.67316,-0.429706,-1.23474

 Normal termination of Gaussian 16 at Tue Apr  8 19:38:32 2025.
