 Gaussian 16, Revision C.01,

 ----------------------------------------------------------------------
 #t hf aug-cc-pvdz symm=none int=(grid=ultrafine) guess=(read,tcheck) s
 table=(opt,rrhf)
 ----------------------------------------------------------------------
 -----
 title
 -----
 Symbolic Z-matrix:
 Charge =  0 Multiplicity = 1

 SCF Done:  E(RHF) =  -371.976479100     A.U. after   13 cycles
 Normal termination of Gaussian 16 at Tue Apr  8 21:48:09 2025.
 Gaussian 16:  ES64L-G16RevC.01  3-Jul-2019

 ----------------------------------------------------------------------
 #t hf aug-cc-pvdz iop(5/13=1,5/36=2,99/5=2) pseudo=read geom=check gue
 ss=(read,tcheck) scf=(maxcycle=1)
 ----------------------------------------------------------------------
 -----
 title
 -----
 Structure from the checkpoint file:  "ANI1ccx_554_conf2_mol2.chk"
 Charge =  0 Multiplicity = 1

                         Standard orientation:
 ---------------------------------------------------------------------
 Center     Atomic      Atomic             Coordinates (Angstroms)
 Number     Number       Type             X           Y           Z
 ---------------------------------------------------------------------
      1          6           0        1.182869    0.078053   -0.054373
      2          6           0       -1.319491   -0.166213    0.004384
      3          1           0        3.126510   -0.473978    0.196914
      4          1           0        1.986750   -1.709439    0.563121
      5          1           0        2.205948    1.629691   -0.296071
      6          1           0        0.098366   -1.554430   -0.125083
      7          1           0       -2.321012    1.527679   -0.016043
      8          1           0       -0.593856    1.723269    0.016562
      9          7           0        2.176320   -0.867302    0.068182
     10          7           0        1.216539    1.342640   -0.199060
     11          7           0       -0.021400   -0.589870    0.022715
     12          7           0       -1.416341    1.179929    0.291899
     13          8           0       -2.171100   -1.008951   -0.165702
 ---------------------------------------------------------------------

 SCF Done:  E(RHF) =  -373.641678557     A.U. after    2 cycles

 The electronic state is 1-A.
 Alpha  occ. eigenvalues --  -21.01920 -15.79778 -15.77319 -15.75239 -15.72590
 Alpha  occ. eigenvalues --  -11.50958 -11.50414  -1.72375  -1.53354  -1.36195
 Alpha  occ. eigenvalues --   -1.28561  -1.27077  -0.91947  -0.81717  -0.75548
 Alpha  occ. eigenvalues --   -0.71826  -0.66194  -0.62948  -0.61055  -0.57686
 Alpha  occ. eigenvalues --   -0.53333  -0.50095  -0.42244  -0.38488  -0.36672
 Alpha  occ. eigenvalues --   -0.30966  -0.29703
 Alpha virt. eigenvalues --    0.02642   0.04594   0.05270   0.06479   0.07404
 Alpha virt. eigenvalues --    0.08857   0.10661   0.11036   0.12262   0.13274
 Alpha virt. eigenvalues --    0.14258   0.14642   0.15405   0.15778   0.17446

 Mulliken charges:
               1
     1  C    4.346050
     2  C    5.276449
     3  H    0.526771
     4  H    0.740083
     5  H    0.607017
     6  H    0.441691
     7  H    0.541909
     8  H    0.787544
     9  N   -2.740531
    10  N   -2.835496
    11  N   -1.949846
    12  N   -2.685564
    13  O   -3.056077
 Sum of Mulliken charges =  -0.00000

 Dipole moment (field-independent basis, Debye):
    X=              3.7888    Y=             -0.8000    Z=              0.3372  Tot=              3.8870

 Test job not archived.
 1\1\GINC-SE095\SP\RHF\Aug-CC-pVDZ\C2H6N4O1\OHZDE\08-Apr-2025\0\\#t hf
 aug-cc-pvdz iop(5/13=1,5/36=2,99/5=2) pseudo=read geom=check guess=(re
 ad,tcheck) scf=(maxcycle=1)\\title\\0,1\C,0,1.18287,0.0780522,-0.05437
 31\C,0,-1.31949,-0.166212,0.00438363\H,0,3.12651,-0.47398,0.196914\H,0
 ,1.98675,-1.70944,0.563121\H,0,2.20595,1.62969,-0.296071\H,0,0.0983658
 ,-1.55443,-0.125083\H,0,-2.32101,1.52768,-0.0160433\H,0,-0.593854,1.72
 327,0.016562\N,0,2.17632,-0.867303,0.0681822\N,0,1.21654,1.34264,-0.19
 906\N,0,-0.0213994,-0.58987,0.0227146\N,0,-1.41634,1.17993,0.291899\O,

 Normal termination of Gaussian 16 at Tue Apr  8 21:48:12 2025.
