 Gaussian 16, Revision C.01,

 ----------------------------------------------------------------------
 #t hf aug-cc-pvdz symm=none int=(grid=ultrafine) guess=(read,tcheck) s
 table=(opt,rrhf)
 ----------------------------------------------------------------------
 -----
 title
 -----
 Symbolic Z-matrix:
 Charge =  0 Multiplicity = 1

 SCF Done:  E(RHF) =  -424.679327977     A.U. after   15 cycles
 Normal termination of Gaussian 16 at Tue Apr  8 21:45:47 2025.
 Gaussian 16:  ES64L-G16RevC.01  3-Jul-2019

 ----------------------------------------------------------------------
 #t hf aug-cc-pvdz iop(5/13=1,5/36=2,99/5=2) pseudo=read geom=check gue
 ss=(read,tcheck) scf=(maxcycle=1)
 ----------------------------------------------------------------------
 -----
 title
 -----
 Structure from the checkpoint file:  "ANI1ccx_507_conf6_mol1.chk"
 Charge =  0 Multiplicity = 1

                         Standard orientation:
 ---------------------------------------------------------------------
 Center     Atomic      Atomic             Coordinates (Angstroms)
 Number     Number       Type             X           Y           Z
 ---------------------------------------------------------------------
      1          6           0       -1.228298   -0.467369   -0.086680
      2          6           0       -0.278418    1.543120   -0.011373
      3          1           0       -2.261787   -2.017311    0.592522
      4          1           0       -3.136687   -0.653856    0.728686
      5          1           0        1.432101    2.207571    0.468165
      6          7           0       -2.441857   -1.155321    0.188563
      7          7           0       -1.335758    0.909476    0.019133
      8          7           0        0.566473    2.402161    0.006886
      9          7           0        2.441222   -0.467543   -0.195149
     10          7           0        2.933793   -1.257828    0.385968
     11          8           0       -0.267555   -1.125940   -0.504858
 ---------------------------------------------------------------------

 SCF Done:  E(RHF) =  -426.504037545     A.U. after    2 cycles

 The electronic state is 1-A.
 Alpha  occ. eigenvalues --  -21.03914 -15.86385 -15.86225 -15.80602 -15.78171
 Alpha  occ. eigenvalues --  -15.78067 -11.56827 -11.52547  -1.72358  -1.55745
 Alpha  occ. eigenvalues --   -1.47426  -1.36929  -1.30767  -0.92135  -0.78452
 Alpha  occ. eigenvalues --   -0.77027  -0.71249  -0.66780  -0.63304  -0.60937
 Alpha  occ. eigenvalues --   -0.57756  -0.57073  -0.56898  -0.53466  -0.51172
 Alpha  occ. eigenvalues --   -0.43428  -0.38117  -0.33423  -0.30860
 Alpha virt. eigenvalues --    0.03530   0.04987   0.06225   0.07990   0.10053
 Alpha virt. eigenvalues --    0.10970   0.11255   0.11673   0.12536   0.13506
 Alpha virt. eigenvalues --    0.13713   0.13952   0.14918   0.15357   0.16212

 Mulliken charges:
               1
     1  C    5.380825
     2  C    3.520320
     3  H    0.545621
     4  H    0.708723
     5  H    0.757617
     6  N   -2.658112
     7  N   -2.662368
     8  N   -2.991965
     9  N    0.010215
    10  N    0.076952
    11  O   -2.687827
 Sum of Mulliken charges =  -0.00000

 Dipole moment (field-independent basis, Debye):
    X=              0.2500    Y=              0.1312    Z=              1.9334  Tot=              1.9539

 Test job not archived.
 1\1\GINC-SE132\SP\RHF\Aug-CC-pVDZ\C2H3N5O1\OHZDE\08-Apr-2025\0\\#t hf
 aug-cc-pvdz iop(5/13=1,5/36=2,99/5=2) pseudo=read geom=check guess=(re
 ad,tcheck) scf=(maxcycle=1)\\title\\0,1\C,0,-1.2283,-0.467369,-0.08668
 02\C,0,-0.278419,1.54312,-0.0113727\H,0,-2.26179,-2.01731,0.592522\H,0
 ,-3.13669,-0.653854,0.728686\H,0,1.4321,2.20757,0.468165\N,0,-2.44186,
 -1.15532,0.188563\N,0,-1.33576,0.909477,0.0191332\N,0,0.566472,2.40216
 ,0.00688556\N,0,2.44122,-0.467545,-0.195149\N,0,2.93379,-1.25783,0.385
 968\O,0,-0.267558,-1.12594,-0.504858\\Version=ES64L-G16RevC.01\State=1

 Normal termination of Gaussian 16 at Tue Apr  8 21:45:52 2025.
