 Gaussian 16, Revision C.01,

 ----------------------------------------------------------------------
 #t hf aug-cc-pvdz symm=none int=(grid=ultrafine) guess=(read,tcheck) s
 table=(opt,rrhf)
 ----------------------------------------------------------------------
 -----
 title
 -----
 Symbolic Z-matrix:
 Charge =  0 Multiplicity = 1

 SCF Done:  E(RHF) =  -467.582075802     A.U. after   15 cycles
 Normal termination of Gaussian 16 at Tue Apr  8 22:10:48 2025.
 Gaussian 16:  ES64L-G16RevC.01  3-Jul-2019

 ----------------------------------------------------------------------
 #t hf aug-cc-pvdz iop(5/13=1,5/36=2,99/5=2) pseudo=read geom=check gue
 ss=(read,tcheck) scf=(maxcycle=1)
 ----------------------------------------------------------------------
 -----
 title
 -----
 Structure from the checkpoint file:  "ANI1ccx_903_conf1_mol2.chk"
 Charge =  0 Multiplicity = 1

                         Standard orientation:
 ---------------------------------------------------------------------
 Center     Atomic      Atomic             Coordinates (Angstroms)
 Number     Number       Type             X           Y           Z
 ---------------------------------------------------------------------
      1          6           0        2.749441   -0.062310    0.009345
      2          6           0        1.274452   -0.092981   -0.010759
      3          6           0       -0.760465   -1.268449   -0.016966
      4          6           0       -0.787537    1.256230    0.011933
      5          1           0        3.114147   -0.548227    0.936200
      6          1           0        3.155920    0.949711   -0.002117
      7          1           0        3.190127   -0.602376   -0.849886
      8          1           0       -2.403150    0.021892    0.026300
      9          1           0        1.144687    1.996053   -0.033520
     10          7           0        0.639524   -1.253273   -0.012010
     11          7           0       -1.384010   -0.000960   -0.006397
     12          7           0        0.616136    1.129506   -0.004911
     13          8           0       -1.414983   -2.284597    0.013789
     14          8           0       -1.354846    2.292234    0.001827
 ---------------------------------------------------------------------

 SCF Done:  E(RHF) =  -469.610851831     A.U. after    2 cycles

 The electronic state is 1-A.
 Alpha  occ. eigenvalues --  -21.07147 -21.04079 -15.82762 -15.80094 -15.74575
 Alpha  occ. eigenvalues --  -11.55921 -11.54859 -11.52316 -11.42701  -1.77821
 Alpha  occ. eigenvalues --   -1.72744  -1.53483  -1.37750  -1.32913  -1.13777
 Alpha  occ. eigenvalues --   -0.93112  -0.92654  -0.80409  -0.74889  -0.68337
 Alpha  occ. eigenvalues --   -0.65311  -0.62043  -0.61180  -0.59102  -0.55454
 Alpha  occ. eigenvalues --   -0.53817  -0.50980  -0.48995  -0.41344  -0.35468
 Alpha  occ. eigenvalues --   -0.34772  -0.32725  -0.30076
 Alpha virt. eigenvalues --    0.02117   0.04723   0.05429   0.05630   0.06630
 Alpha virt. eigenvalues --    0.09037   0.09679   0.10216   0.10331   0.11562
 Alpha virt. eigenvalues --    0.11642   0.12176   0.13177   0.13928   0.14832

 Mulliken charges:
               1
     1  C   -4.728232
     2  C    3.654987
     3  C    5.579284
     4  C    5.548658
     5  H    1.239033
     6  H    1.348741
     7  H    1.262750
     8  H    0.573291
     9  H    0.617384
    10  N   -3.270161
    11  N   -2.444542
    12  N   -2.803268
    13  O   -3.262417
    14  O   -3.315508
 Sum of Mulliken charges =   0.00000

 Dipole moment (field-independent basis, Debye):
    X=              3.0974    Y=              2.8828    Z=              0.0080  Tot=              4.2313

 Test job not archived.
 1\1\GINC-SE095\SP\RHF\Aug-CC-pVDZ\C4H5N3O2\OHZDE\08-Apr-2025\0\\#t hf
 aug-cc-pvdz iop(5/13=1,5/36=2,99/5=2) pseudo=read geom=check guess=(re
 ad,tcheck) scf=(maxcycle=1)\\title\\0,1\C,0,2.74944,-0.0623411,0.00934
 502\C,0,1.27445,-0.0929949,-0.0107595\C,0,-0.76048,-1.26844,-0.0169656
 \C,0,-0.787523,1.25624,0.0119333\H,0,3.11414,-0.548262,0.9362\H,0,3.15
 593,0.949675,-0.00211735\H,0,3.19012,-0.602412,-0.849886\H,0,-2.40315,
 0.0219207,0.0262997\H,0,1.14471,1.99604,-0.03352\N,0,0.639509,-1.25328
 ,-0.0120102\N,0,-1.38401,-0.00094303,-0.00639675\N,0,0.616149,1.1295,-

 Normal termination of Gaussian 16 at Tue Apr  8 22:10:53 2025.
