 Gaussian 16, Revision C.01,

 ----------------------------------------------------------------------
 #t hf aug-cc-pvdz symm=none int=(grid=ultrafine) guess=(read,tcheck) s
 table=(opt,rrhf)
 ----------------------------------------------------------------------
 -----
 title
 -----
 Symbolic Z-matrix:
 Charge =  0 Multiplicity = 1

 SCF Done:  E(RHF) =  -557.492330726     A.U. after   16 cycles
 Normal termination of Gaussian 16 at Tue Apr  8 19:34:27 2025.
 Gaussian 16:  ES64L-G16RevC.01  3-Jul-2019

 ----------------------------------------------------------------------
 #t hf aug-cc-pvdz iop(5/13=1,5/36=2,99/5=2) pseudo=read geom=check gue
 ss=(read,tcheck) scf=(maxcycle=1)
 ----------------------------------------------------------------------
 -----
 title
 -----
 Structure from the checkpoint file:  "ANI1ccx_1322_conf3_mol1.chk"
 Charge =  0 Multiplicity = 1

                         Standard orientation:
 ---------------------------------------------------------------------
 Center     Atomic      Atomic             Coordinates (Angstroms)
 Number     Number       Type             X           Y           Z
 ---------------------------------------------------------------------
      1          6           0       -1.905000   -0.547735   -0.010162
      2          6           0       -0.595206    1.326931   -0.014334
      3          6           0        0.526564    0.468038    0.002083
      4          6           0        2.774270    0.189185    0.017550
      5          6           0        2.587720   -1.195020   -0.019575
      6          6           0        0.367224   -0.899112    0.012778
      7          1           0        3.472459   -1.864710    0.040542
      8          1           0        3.761470    0.576646    0.004257
      9          1           0        0.609771    2.928921    0.305498
     10          1           0       -1.139449    3.229121    0.319124
     11          1           0       -3.360341   -2.038068   -0.014744
     12          1           0       -3.966590   -0.479013   -0.212424
     13          7           0       -3.192900   -1.065488    0.038905
     14          7           0       -1.833040    0.787042   -0.089357
     15          7           0       -0.341695    2.671821   -0.012844
     16          7           0        1.772470    1.022550   -0.054046
     17          7           0        1.403009   -1.776340   -0.016954
     18          7           0       -0.937952   -1.411959    0.081112
 ---------------------------------------------------------------------

 SCF Done:  E(RHF) =  -560.022256747     A.U. after    2 cycles

 The electronic state is 1-A.
 Alpha  occ. eigenvalues --  -15.78718 -15.78144 -15.76485 -15.75555 -15.72774
 Alpha  occ. eigenvalues --  -15.70152 -11.54403 -11.51340 -11.48176 -11.47688
 Alpha  occ. eigenvalues --  -11.42130 -11.41446  -1.58440  -1.47541  -1.41639
 Alpha  occ. eigenvalues --   -1.34695  -1.27572  -1.25685  -1.13255  -0.98669
 Alpha  occ. eigenvalues --   -0.94124  -0.88960  -0.77360  -0.75724  -0.70509
 Alpha  occ. eigenvalues --   -0.68264  -0.66601  -0.64159  -0.62164  -0.58648
 Alpha  occ. eigenvalues --   -0.57877  -0.55571  -0.54432  -0.51464  -0.47914
 Alpha  occ. eigenvalues --   -0.43368  -0.42404  -0.39766  -0.38018  -0.34490
 Alpha  occ. eigenvalues --   -0.32142  -0.28984
 Alpha virt. eigenvalues --    0.03175   0.04665   0.05094   0.05440   0.06682
 Alpha virt. eigenvalues --    0.06746   0.07453   0.09102   0.10074   0.11066
 Alpha virt. eigenvalues --    0.11532   0.11670   0.12455   0.12798   0.13111

 Mulliken charges:
               1
     1  C    3.741826
     2  C    4.581615
     3  C    4.916731
     4  C   -0.090534
     5  C   -0.004861
     6  C    2.678818
     7  H    1.682009
     8  H    1.690308
     9  H    0.606409
    10  H    0.706102
    11  H    0.725507
    12  H    0.671846
    13  N   -3.101887
    14  N   -3.350859
    15  N   -3.538531
    16  N   -4.661187
    17  N   -3.782035
    18  N   -3.471278
 Sum of Mulliken charges =  -0.00000

 Dipole moment (field-independent basis, Debye):
    X=              0.8322    Y=              2.4981    Z=              0.4015  Tot=              2.6635

 Test job not archived.
 1\1\GINC-SE366\SP\RHF\Aug-CC-pVDZ\C6H6N6\OHZDE\08-Apr-2025\0\\#t hf au
 g-cc-pvdz iop(5/13=1,5/36=2,99/5=2) pseudo=read geom=check guess=(read
 ,tcheck) scf=(maxcycle=1)\\title\\0,1\C,0,-1.905,-0.547737,-0.0101624\
 C,0,-0.595207,1.32693,-0.0143338\C,0,0.526564,0.468037,0.00208279\C,0,
 2.77427,0.189185,0.0175502\C,0,2.58772,-1.19502,-0.019575\C,0,0.367224
 ,-0.899113,0.0127784\H,0,3.47246,-1.86471,0.0405415\H,0,3.76147,0.5766
 47,0.00425703\H,0,0.60977,2.92892,0.305498\H,0,-1.13945,3.22912,0.3191
 24\H,0,-3.36034,-2.03807,-0.0147444\H,0,-3.96659,-0.479015,-0.212424\N

 Normal termination of Gaussian 16 at Tue Apr  8 19:34:38 2025.
