 Gaussian 16, Revision C.01,

 ----------------------------------------------------------------------
 #t hf aug-cc-pvdz symm=none int=(grid=ultrafine) guess=(read,tcheck) s
 table=(opt,rrhf)
 ----------------------------------------------------------------------
 -----
 title
 -----
 Symbolic Z-matrix:
 Charge =  0 Multiplicity = 1

 SCF Done:  E(RHF) =  -311.843036353     A.U. after   15 cycles
 Normal termination of Gaussian 16 at Tue Apr  8 21:37:43 2025.
 Gaussian 16:  ES64L-G16RevC.01  3-Jul-2019

 ----------------------------------------------------------------------
 #t hf aug-cc-pvdz iop(5/13=1,5/36=2,99/5=2) pseudo=read geom=check gue
 ss=(read,tcheck) scf=(maxcycle=1)
 ----------------------------------------------------------------------
 -----
 title
 -----
 Structure from the checkpoint file:  "ANI1ccx_392_conf3_mol1.chk"
 Charge =  0 Multiplicity = 1

                         Standard orientation:
 ---------------------------------------------------------------------
 Center     Atomic      Atomic             Coordinates (Angstroms)
 Number     Number       Type             X           Y           Z
 ---------------------------------------------------------------------
      1          6           0        0.619134   -0.038401    0.015238
      2          1           0        2.486510    0.850531    0.034463
      3          1           0        2.516199   -0.910650    0.043208
      4          1           0       -2.218541   -1.066787    0.036329
      5          7           0        1.995619   -0.028643   -0.021112
      6          7           0       -0.096300    1.129181    0.008544
      7          7           0       -1.343240    0.769423   -0.010526
      8          7           0       -1.344491   -0.558121   -0.002984
      9          7           0       -0.140014   -1.117939   -0.003267
 ---------------------------------------------------------------------

 SCF Done:  E(RHF) =  -313.228625900     A.U. after    2 cycles

 The electronic state is 1-A.
 Alpha  occ. eigenvalues --  -15.84924 -15.82404 -15.77476 -15.76861 -15.76127
 Alpha  occ. eigenvalues --  -11.46407  -1.75757  -1.39222  -1.38761  -1.21319
 Alpha  occ. eigenvalues --   -0.92928  -0.84667  -0.76072  -0.68848  -0.67542
 Alpha  occ. eigenvalues --   -0.60786  -0.52913  -0.48438  -0.43760  -0.41319
 Alpha  occ. eigenvalues --   -0.40777  -0.30048
 Alpha virt. eigenvalues --    0.03823   0.04609   0.06276   0.11367   0.11816
 Alpha virt. eigenvalues --    0.12189   0.13874   0.14628   0.14812   0.15001
 Alpha virt. eigenvalues --    0.17026   0.17633   0.18012   0.19481   0.19680

 Mulliken charges:
               1
     1  C    4.626156
     2  H    0.689660
     3  H    0.671380
     4  H    0.970376
     5  N   -2.723666
     6  N   -1.499198
     7  N   -0.375159
     8  N   -0.409842
     9  N   -1.949707
 Sum of Mulliken charges =   0.00000

 Dipole moment (field-independent basis, Debye):
    X=              0.6464    Y=             -1.7836    Z=              0.2073  Tot=              1.9084

 Test job not archived.
 1\1\GINC-SE247\SP\RHF\Aug-CC-pVDZ\C1H3N5\OHZDE\08-Apr-2025\0\\#t hf au
 g-cc-pvdz iop(5/13=1,5/36=2,99/5=2) pseudo=read geom=check guess=(read
 ,tcheck) scf=(maxcycle=1)\\title\\0,1\C,0,0.619135,-0.0384012,0.015237
 6\H,0,2.48651,0.850532,0.0344632\H,0,2.5162,-0.910649,0.0432084\H,0,-2
 .21854,-1.06679,0.0363288\N,0,1.99562,-0.0286418,-0.0211124\N,0,-0.096
 3007,1.12918,0.00854371\N,0,-1.34324,0.769421,-0.010526\N,0,-1.34449,-
 0.558123,-0.00298445\N,0,-0.140012,-1.11794,-0.00326744\\Version=ES64L
 -G16RevC.01\State=1-A\HF=-313.2286259\RMSD=8.944e-02\Dipole=0.2543291,

 Normal termination of Gaussian 16 at Tue Apr  8 21:37:46 2025.
