 Gaussian 16, Revision C.01,

 ----------------------------------------------------------------------
 #t hf aug-cc-pvdz symm=none int=(grid=ultrafine) guess=(read,tcheck) s
 table=(opt,rrhf)
 ----------------------------------------------------------------------
 -----
 title
 -----
 Symbolic Z-matrix:
 Charge =  0 Multiplicity = 1

 SCF Done:  E(RHF) =  -456.250015159     A.U. after   11 cycles
 Normal termination of Gaussian 16 at Tue Apr  8 21:08:44 2025.
 Gaussian 16:  ES64L-G16RevC.01  3-Jul-2019

 ----------------------------------------------------------------------
 #t hf aug-cc-pvdz iop(5/13=1,5/36=2,99/5=2) pseudo=read geom=check gue
 ss=(read,tcheck) scf=(maxcycle=1)
 ----------------------------------------------------------------------
 -----
 title
 -----
 Structure from the checkpoint file:  "ANI1ccx_1844_conf206_mol1.chk"
 Charge =  0 Multiplicity = 1

                         Standard orientation:
 ---------------------------------------------------------------------
 Center     Atomic      Atomic             Coordinates (Angstroms)
 Number     Number       Type             X           Y           Z
 ---------------------------------------------------------------------
      1          1           0        2.280731    0.580958   -0.417983
      2          1           0       -2.253543   -1.663026   -1.298380
      3          1           0       -2.414681   -0.307870   -0.531703
      4          1           0        2.280898   -1.235654   -1.527030
      5          1           0        1.780267   -1.543993    0.027120
      6          1           0       -0.132773   -1.971570    1.661230
      7          1           0        3.011423    1.939965    0.001843
      8          1           0       -0.866237   -1.498628    0.422735
      9          1           0       -0.096008    0.321558    1.123020
     10          1           0        0.646011    1.572969    0.573898
     11          1           0       -1.391508    1.336543   -0.171276
     12          1           0       -2.918267    1.716895    0.072182
     13          8           0        2.582868   -1.198654   -0.487498
     14          8           0       -0.209198    1.284351    0.977059
     15          8           0       -2.204703   -1.292556   -0.383580
     16          8           0        0.036860   -1.537740    0.804447
     17          8           0        2.129662    1.560657   -0.325946
     18          8           0       -2.326278    1.277924   -0.576440
 ---------------------------------------------------------------------

 SCF Done:  E(RHF) =  -458.246413841     A.U. after    2 cycles

 The electronic state is 1-A.
 Alpha  occ. eigenvalues --  -21.09004 -21.08896 -21.08014 -21.07502 -21.06971
 Alpha  occ. eigenvalues --  -21.05951  -1.69916  -1.66848  -1.66318  -1.64306
 Alpha  occ. eigenvalues --   -1.62837  -1.61391  -0.66241  -0.64953  -0.63691
 Alpha  occ. eigenvalues --   -0.62700  -0.62318  -0.61875  -0.54061  -0.50177
 Alpha  occ. eigenvalues --   -0.49224  -0.45277  -0.45076  -0.40855  -0.36013
 Alpha  occ. eigenvalues --   -0.34869  -0.34470  -0.34224  -0.33061  -0.31971
 Alpha virt. eigenvalues --    0.03787   0.04895   0.05102   0.05525   0.06130
 Alpha virt. eigenvalues --    0.07649   0.08151   0.08539   0.09215   0.10056
 Alpha virt. eigenvalues --    0.11300   0.12112   0.17249   0.19373   0.20148

 Mulliken charges:
               1
     1  H    1.503066
     2  H    0.766643
     3  H    1.507191
     4  H    0.695856
     5  H    1.432861
     6  H    0.821746
     7  H    0.801292
     8  H    2.116531
     9  H    1.379934
    10  H    1.419492
    11  H    1.689339
    12  H    0.706586
    13  O   -2.041668
    14  O   -2.771145
    15  O   -2.420121
    16  O   -2.936861
    17  O   -2.273667
    18  O   -2.397075
 Sum of Mulliken charges =  -0.00000

 Dipole moment (field-independent basis, Debye):
    X=              0.2521    Y=             -0.8259    Z=              0.1067  Tot=              0.8700

 Test job not archived.
 1\1\GINC-SE150\SP\RHF\Aug-CC-pVDZ\H12O6\OHZDE\08-Apr-2025\0\\#t hf aug
 -cc-pvdz iop(5/13=1,5/36=2,99/5=2) pseudo=read geom=check guess=(read,
 tcheck) scf=(maxcycle=1)\\title\\0,1\H,0,2.28073,0.580962,-0.417983\H,
 0,-2.25354,-1.66303,-1.29838\H,0,-2.41468,-0.307874,-0.531703\H,0,2.28
 09,-1.23565,-1.52703\H,0,1.78027,-1.54399,0.0271203\H,0,-0.132769,-1.9
 7157,1.66123\H,0,3.01142,1.93997,0.00184304\H,0,-0.866234,-1.49863,0.4
 22735\H,0,-0.0960079,0.321558,1.12302\H,0,0.646009,1.57297,0.573898\H,
 0,-1.39151,1.33654,-0.171276\H,0,-2.91827,1.71689,0.0721818\O,0,2.5828

 Normal termination of Gaussian 16 at Tue Apr  8 21:08:49 2025.
