 Gaussian 16, Revision C.01,

 ----------------------------------------------------------------------
 #t hf aug-cc-pvdz symm=none int=(grid=ultrafine) guess=(read,tcheck) s
 table=(opt,rrhf)
 ----------------------------------------------------------------------
 -----
 title
 -----
 Symbolic Z-matrix:
 Charge =  0 Multiplicity = 1

 SCF Done:  E(RHF) =  -758.503230858     A.U. after   15 cycles
 Normal termination of Gaussian 16 at Tue Apr  8 21:04:17 2025.
 Gaussian 16:  ES64L-G16RevC.01  3-Jul-2019

 ----------------------------------------------------------------------
 #t hf aug-cc-pvdz iop(5/13=1,5/36=2,99/5=2) pseudo=read geom=check gue
 ss=(read,tcheck) scf=(maxcycle=1)
 ----------------------------------------------------------------------
 -----
 title
 -----
 Structure from the checkpoint file:  "ANI1ccx_1759_conf39_mol1.chk"
 Charge =  0 Multiplicity = 1

                         Standard orientation:
 ---------------------------------------------------------------------
 Center     Atomic      Atomic             Coordinates (Angstroms)
 Number     Number       Type             X           Y           Z
 ---------------------------------------------------------------------
      1          6           0       -1.978120    0.340762   -0.544146
      2          6           0        2.000551    2.300949    0.293564
      3          6           0        2.917161    1.187829   -0.342135
      4          6           0        2.349150   -1.211301    0.177846
      5          6           0        0.709008    1.514129    0.748766
      6          6           0       -2.252000   -0.302596    2.113460
      7          6           0       -2.675470   -0.373869    0.644975
      8          6           0       -0.548106   -0.143741   -0.806526
      9          6           0        1.900990    0.026403   -0.672644
     10          1           0        3.404001    1.552559   -1.242070
     11          1           0        0.860929   -2.182261   -0.535921
     12          1           0       -0.197022    2.215889    0.823490
     13          1           0        0.894152    1.097569    1.766760
     14          1           0        1.617041    2.828869   -0.559837
     15          1           0        2.521701    2.812309    1.022710
     16          1           0        3.763091    0.839344    0.231007
     17          1           0        1.829010   -0.341279   -1.735770
     18          1           0       -1.925739    0.739990    2.285720
     19          1           0       -1.339920   -0.896440    2.177540
     20          1           0       -4.274700    0.258084   -0.363562
     21          1           0       -2.662670   -1.398660    0.305802
     22          1           0       -1.894139    1.407690   -0.124633
     23          1           0       -2.537389    1.068740   -2.234420
     24          1           0       -2.084180   -0.521508   -2.215710
     25          1           0       -3.088890   -0.475741    2.771360
     26          7           0       -2.675830    0.204908   -1.685990
     27          7           0        0.588761    0.562160   -0.286073
     28          8           0        3.417550   -1.105631    0.848554
     29          8           0       -0.202130   -1.121031   -1.495570
     30          8           0       -4.036290    0.181920    0.532060
     31          8           0        1.469020   -2.256011    0.334077
 ---------------------------------------------------------------------

 SCF Done:  E(RHF) =  -761.966111677     A.U. after    2 cycles

 The electronic state is 1-A.
 Alpha  occ. eigenvalues --  -21.10629 -21.07031 -21.06171 -21.04276 -15.77549
 Alpha  occ. eigenvalues --  -15.76583 -11.58377 -11.54573 -11.51816 -11.50813
 Alpha  occ. eigenvalues --  -11.45788 -11.45299 -11.42287 -11.39880 -11.37966
 Alpha  occ. eigenvalues --   -1.79050  -1.75671  -1.70596  -1.62878  -1.48393
 Alpha  occ. eigenvalues --   -1.41717  -1.18398  -1.14767  -1.11468  -1.02911
 Alpha  occ. eigenvalues --   -0.94932  -0.87961  -0.87233  -0.80898  -0.77084
 Alpha  occ. eigenvalues --   -0.74547  -0.71779  -0.69642  -0.67499  -0.65232
 Alpha  occ. eigenvalues --   -0.63532  -0.62107  -0.60184  -0.57578  -0.56491
 Alpha  occ. eigenvalues --   -0.55363  -0.53759  -0.52212  -0.51218  -0.50794
 Alpha  occ. eigenvalues --   -0.49096  -0.48647  -0.47655  -0.46243  -0.44824
 Alpha  occ. eigenvalues --   -0.41300  -0.40015  -0.39670  -0.35508  -0.32979
 Alpha  occ. eigenvalues --   -0.31969  -0.30202  -0.27629
 Alpha virt. eigenvalues --    0.03300   0.03912   0.04058   0.04613   0.05190
 Alpha virt. eigenvalues --    0.05625   0.06008   0.06390   0.06713   0.07300
 Alpha virt. eigenvalues --    0.07487   0.07841   0.07882   0.08625   0.09203

 Mulliken charges:
               1
     1  C   -2.539570
     2  C   -3.317187
     3  C   -1.969737
     4  C    6.108525
     5  C   -2.657455
     6  C   -4.168550
     7  C    1.026522
     8  C    8.034109
     9  C   -3.761007
    10  H    1.234895
    11  H    1.095492
    12  H    1.780732
    13  H    1.666125
    14  H    1.429539
    15  H    1.375368
    16  H    1.451145
    17  H    1.928432
    18  H    1.366764
    19  H    1.464712
    20  H    0.957808
    21  H    1.431425
    22  H    2.042970
    23  H    0.489554
    24  H    0.502304
    25  H    1.130230
    26  N   -3.017036
    27  N   -1.896031
    28  O   -3.066516
    29  O   -3.868852
    30  O   -3.207017
    31  O   -3.047694
 Sum of Mulliken charges =   0.00000

 Dipole moment (field-independent basis, Debye):
    X=             -0.6909    Y=              2.5691    Z=             -0.7809  Tot=              2.7727

 Test job not archived.
 1\1\GINC-SE016\SP\RHF\Aug-CC-pVDZ\C9H16N2O4\OHZDE\08-Apr-2025\0\\#t hf
  aug-cc-pvdz iop(5/13=1,5/36=2,99/5=2) pseudo=read geom=check guess=(r
 ead,tcheck) scf=(maxcycle=1)\\title\\0,1\C,0,-1.97812,0.340762,-0.5441
 46\C,0,2.00055,2.30095,0.293564\C,0,2.91716,1.18783,-0.342135\C,0,2.34
 915,-1.2113,0.177846\C,0,0.709007,1.51413,0.748766\C,0,-2.252,-0.30259
 6,2.11346\C,0,-2.67547,-0.373869,0.644975\C,0,-0.548106,-0.143741,-0.8
 06526\C,0,1.90099,0.0264033,-0.672644\H,0,3.404,1.55256,-1.24207\H,0,0
 .860929,-2.18226,-0.535921\H,0,-0.197023,2.21589,0.82349\H,0,0.894151,

 Normal termination of Gaussian 16 at Tue Apr  8 21:04:56 2025.
