 Gaussian 16, Revision C.01,

 ----------------------------------------------------------------------
 #t hf aug-cc-pvdz symm=none int=(grid=ultrafine) guess=(read,tcheck) s
 table=(opt,rrhf)
 ----------------------------------------------------------------------
 -----
 title
 -----
 Symbolic Z-matrix:
 Charge =  0 Multiplicity = 1

 SCF Done:  E(RHF) =  -604.212043377     A.U. after   14 cycles
 Normal termination of Gaussian 16 at Tue Apr  8 22:13:14 2025.
 Gaussian 16:  ES64L-G16RevC.01  3-Jul-2019

 ----------------------------------------------------------------------
 #t hf aug-cc-pvdz iop(5/13=1,5/36=2,99/5=2) pseudo=read geom=check gue
 ss=(read,tcheck) scf=(maxcycle=1)
 ----------------------------------------------------------------------
 -----
 title
 -----
 Structure from the checkpoint file:  "ANI1ccx_934_conf6_mol1.chk"
 Charge =  0 Multiplicity = 1

                         Standard orientation:
 ---------------------------------------------------------------------
 Center     Atomic      Atomic             Coordinates (Angstroms)
 Number     Number       Type             X           Y           Z
 ---------------------------------------------------------------------
      1          6           0        0.624644   -0.978082   -0.023203
      2          6           0       -0.630320   -0.433335   -0.900198
      3          6           0       -1.195399    0.908722   -0.220158
      4          6           0        1.661790    0.098660    0.199284
      5          1           0       -0.668135   -1.944679    0.950149
      6          1           0        1.070149   -1.800780   -0.592968
      7          1           0       -0.426482   -0.336423   -1.934680
      8          1           0       -2.067291   -1.129488   -0.057966
      9          1           0       -2.404159    1.411012    1.040830
     10          1           0        2.542690   -0.571804   -1.205990
     11          8           0        0.114370   -1.464509    1.230510
     12          8           0       -1.556241   -1.490258   -0.758273
     13          8           0       -2.041720    0.604908    0.670382
     14          8           0       -0.786973    2.019341   -0.490317
     15          8           0        2.696350    0.207624   -0.715608
     16          8           0        1.472831    0.972441    0.996593
 ---------------------------------------------------------------------

 SCF Done:  E(RHF) =  -606.730541663     A.U. after    2 cycles

 The electronic state is 1-A.
 Alpha  occ. eigenvalues --  -21.17668 -21.14325 -21.11946 -21.10032 -21.06927
 Alpha  occ. eigenvalues --  -21.05914 -11.55606 -11.54810 -11.51684 -11.46759
 Alpha  occ. eigenvalues --   -1.90941  -1.83936  -1.78613  -1.71987  -1.68187
 Alpha  occ. eigenvalues --   -1.66621  -1.14396  -1.00263  -0.87500  -0.78917
 Alpha  occ. eigenvalues --   -0.73108  -0.72337  -0.68699  -0.65697  -0.63420
 Alpha  occ. eigenvalues --   -0.59126  -0.57769  -0.53863  -0.53226  -0.50614
 Alpha  occ. eigenvalues --   -0.47879  -0.46756  -0.44543  -0.38349  -0.38189
 Alpha  occ. eigenvalues --   -0.34348  -0.33101  -0.30762  -0.29660
 Alpha virt. eigenvalues --    0.02838   0.04698   0.04838   0.05277   0.06065
 Alpha virt. eigenvalues --    0.06796   0.08424   0.10753   0.11073   0.11931
 Alpha virt. eigenvalues --    0.12147   0.13511   0.13733   0.14003   0.14952

 Mulliken charges:
               1
     1  C   -0.149052
     2  C   -0.582171
     3  C    6.668105
     4  C    6.018573
     5  H    0.714079
     6  H    1.658986
     7  H    1.593286
     8  H    0.811838
     9  H    0.921990
    10  H    0.959688
    11  O   -2.914968
    12  O   -2.945748
    13  O   -3.338681
    14  O   -3.274061
    15  O   -3.076574
    16  O   -3.065292
 Sum of Mulliken charges =   0.00000

 Dipole moment (field-independent basis, Debye):
    X=             -1.8087    Y=             -1.5974    Z=             -0.4948  Tot=              2.4633

 Test job not archived.
 1\1\GINC-SE220\SP\RHF\Aug-CC-pVDZ\C4H6O6\OHZDE\08-Apr-2025\0\\#t hf au
 g-cc-pvdz iop(5/13=1,5/36=2,99/5=2) pseudo=read geom=check guess=(read
 ,tcheck) scf=(maxcycle=1)\\title\\0,1\C,0,0.624644,-0.978082,-0.023202
 5\C,0,-0.63032,-0.433336,-0.900198\C,0,-1.1954,0.908721,-0.220158\C,0,
 1.66179,0.09866,0.199284\H,0,-0.668134,-1.94468,0.950149\H,0,1.07015,-
 1.80078,-0.592968\H,0,-0.426482,-0.336424,-1.93468\H,0,-2.06729,-1.129
 49,-0.0579657\H,0,-2.40416,1.41101,1.04083\H,0,2.54269,-0.571803,-1.20
 599\O,0,0.114371,-1.46451,1.23051\O,0,-1.55624,-1.49026,-0.758273\O,0,

 Normal termination of Gaussian 16 at Tue Apr  8 22:13:22 2025.
