 Gaussian 16, Revision C.01,

 ----------------------------------------------------------------------
 #t hf aug-cc-pvdz symm=none int=(grid=ultrafine) guess=(read,tcheck) s
 table=(opt,rrhf)
 ----------------------------------------------------------------------
 -----
 title
 -----
 Symbolic Z-matrix:
 Charge =  0 Multiplicity = 1

 SCF Done:  E(RHF) =  -304.180025959     A.U. after   11 cycles
 Normal termination of Gaussian 16 at Tue Apr  8 21:15:26 2025.
 Gaussian 16:  ES64L-G16RevC.01  3-Jul-2019

 ----------------------------------------------------------------------
 #t hf aug-cc-pvdz iop(5/13=1,5/36=2,99/5=2) pseudo=read geom=check gue
 ss=(read,tcheck) scf=(maxcycle=1)
 ----------------------------------------------------------------------
 -----
 title
 -----
 Structure from the checkpoint file:  "ANI1ccx_1904_conf12_mol1.chk"
 Charge =  0 Multiplicity = 1

                         Standard orientation:
 ---------------------------------------------------------------------
 Center     Atomic      Atomic             Coordinates (Angstroms)
 Number     Number       Type             X           Y           Z
 ---------------------------------------------------------------------
      1          1           0        2.395589    0.375360    0.702688
      2          1           0        1.406467   -0.448286   -0.152287
      3          1           0        0.487928    1.390538    0.107095
      4          1           0       -0.414998    2.488600   -0.575433
      5          1           0       -1.483581    0.470401    0.062346
      6          1           0       -2.351543   -0.431353   -0.815333
      7          1           0       -0.494324   -1.429860    0.018356
      8          1           0        0.594999   -2.258152    0.784861
      9          8           0        1.888639    0.402332   -0.147055
     10          8           0       -0.404639    1.821820    0.135022
     11          8           0       -1.934823   -0.422366    0.072231
     12          8           0        0.433255   -1.821442   -0.076734
 ---------------------------------------------------------------------

 SCF Done:  E(RHF) =  -305.503416757     A.U. after    2 cycles

 The electronic state is 1-A.
 Alpha  occ. eigenvalues --  -21.08529 -21.08379 -21.08347 -21.08288  -1.68871
 Alpha  occ. eigenvalues --   -1.66159  -1.65788  -1.62883  -0.65130  -0.63988
 Alpha  occ. eigenvalues --   -0.63628  -0.62659  -0.52185  -0.48476  -0.46895
 Alpha  occ. eigenvalues --   -0.43894  -0.35483  -0.34658  -0.34406  -0.33159
 Alpha virt. eigenvalues --    0.03539   0.05074   0.05848   0.06091   0.08113
 Alpha virt. eigenvalues --    0.08844   0.09382   0.11027   0.17491   0.19052
 Alpha virt. eigenvalues --    0.20058   0.20708   0.21864   0.22669   0.23833

 Mulliken charges:
               1
     1  H    0.759398
     2  H    1.547668
     3  H    1.464557
     4  H    0.773135
     5  H    1.479191
     6  H    0.781832
     7  H    1.366314
     8  H    0.770045
     9  O   -2.239541
    10  O   -2.284262
    11  O   -2.188410
    12  O   -2.229928
 Sum of Mulliken charges =  -0.00000

 Dipole moment (field-independent basis, Debye):
    X=              0.1417    Y=              0.0919    Z=              0.0273  Tot=              0.1711

 Test job not archived.
 1\1\GINC-SE043\SP\RHF\Aug-CC-pVDZ\H8O4\OHZDE\08-Apr-2025\0\\#t hf aug-
 cc-pvdz iop(5/13=1,5/36=2,99/5=2) pseudo=read geom=check guess=(read,t
 check) scf=(maxcycle=1)\\title\\0,1\H,0,2.39559,0.375367,0.702688\H,0,
 1.40647,-0.448281,-0.152287\H,0,0.487927,1.39054,0.107095\H,0,-0.41500
 2,2.4886,-0.575433\H,0,-1.48358,0.470398,0.0623458\H,0,-2.35154,-0.431
 358,-0.815333\H,0,-0.494318,-1.42986,0.0183563\H,0,0.595007,-2.25815,0
 .784861\O,0,1.88864,0.402338,-0.147055\O,0,-0.404641,1.82182,0.135022\
 O,0,-1.93482,-0.42237,0.0722306\O,0,0.433262,-1.82144,-0.0767341\\Vers

 Normal termination of Gaussian 16 at Tue Apr  8 21:15:30 2025.
