 Gaussian 16, Revision C.01,

 ----------------------------------------------------------------------
 #t hf aug-cc-pvdz symm=none int=(grid=ultrafine) guess=(read,tcheck) s
 table=(opt,rrhf)
 ----------------------------------------------------------------------
 -----
 title
 -----
 Symbolic Z-matrix:
 Charge =  0 Multiplicity = 1

 SCF Done:  E(RHF) =  -431.383930344     A.U. after   15 cycles
 Normal termination of Gaussian 16 at Tue Apr  8 21:44:52 2025.
 Gaussian 16:  ES64L-G16RevC.01  3-Jul-2019

 ----------------------------------------------------------------------
 #t hf aug-cc-pvdz iop(5/13=1,5/36=2,99/5=2) pseudo=read geom=check gue
 ss=(read,tcheck) scf=(maxcycle=1)
 ----------------------------------------------------------------------
 -----
 title
 -----
 Structure from the checkpoint file:  "ANI1ccx_499_conf8_mol1.chk"
 Charge =  0 Multiplicity = 1

                         Standard orientation:
 ---------------------------------------------------------------------
 Center     Atomic      Atomic             Coordinates (Angstroms)
 Number     Number       Type             X           Y           Z
 ---------------------------------------------------------------------
      1          6           0        0.271860    0.322145    0.022821
      2          6           0       -1.219252    0.013198    0.007759
      3          1           0        2.387648    0.584599    0.324736
      4          1           0        0.986613   -1.696530   -0.115650
      5          1           0       -2.502863   -1.410348   -0.092366
      6          7           0        1.136638   -0.694067   -0.181530
      7          8           0        2.464628   -0.401930   -0.065732
      8          8           0        0.723348    1.449650    0.186382
      9          8           0       -1.561223   -1.283599    0.218019
     10          8           0       -2.019692    0.906965   -0.217356
 ---------------------------------------------------------------------

 SCF Done:  E(RHF) =  -433.165327213     A.U. after    2 cycles

 The electronic state is 1-A.
 Alpha  occ. eigenvalues --  -21.16414 -21.11472 -21.09667 -21.06781 -15.83441
 Alpha  occ. eigenvalues --  -11.58223 -11.52525  -1.87287  -1.83262  -1.71642
 Alpha  occ. eigenvalues --   -1.68028  -1.27615  -0.99090  -0.84786  -0.73706
 Alpha  occ. eigenvalues --   -0.66736  -0.63677  -0.62473  -0.56087  -0.54789
 Alpha  occ. eigenvalues --   -0.51541  -0.47157  -0.43267  -0.37066  -0.34670
 Alpha  occ. eigenvalues --   -0.32306  -0.28686
 Alpha virt. eigenvalues --    0.03075   0.05032   0.06266   0.09615   0.09900
 Alpha virt. eigenvalues --    0.11041   0.11426   0.12326   0.12948   0.13393
 Alpha virt. eigenvalues --    0.15192   0.16766   0.17193   0.18054   0.19807

 Mulliken charges:
               1
     1  C    3.616455
     2  C    5.414360
     3  H    0.823676
     4  H    0.858954
     5  H    0.824842
     6  N   -0.322188
     7  O   -2.588192
     8  O   -3.060597
     9  O   -2.831196
    10  O   -2.736115
 Sum of Mulliken charges =  -0.00000

 Dipole moment (field-independent basis, Debye):
    X=             -0.3859    Y=             -2.8678    Z=              0.1150  Tot=              2.8959

 Test job not archived.
 1\1\GINC-SE221\SP\RHF\Aug-CC-pVDZ\C2H3N1O4\OHZDE\08-Apr-2025\0\\#t hf
 aug-cc-pvdz iop(5/13=1,5/36=2,99/5=2) pseudo=read geom=check guess=(re
 ad,tcheck) scf=(maxcycle=1)\\title\\0,1\C,0,0.271862,0.322145,0.022821
 1\C,0,-1.21925,0.0131974,0.00775895\H,0,2.38765,0.5846,0.324736\H,0,0.
 986616,-1.69653,-0.11565\H,0,-2.50286,-1.41035,-0.0923656\N,0,1.13664,
 -0.694066,-0.18153\O,0,2.46463,-0.401929,-0.0657316\O,0,0.723349,1.449
 65,0.186382\O,0,-1.56122,-1.2836,0.218019\O,0,-2.01969,0.906964,-0.217
 356\\Version=ES64L-G16RevC.01\State=1-A\HF=-433.1653272\RMSD=1.954e-01

 Normal termination of Gaussian 16 at Tue Apr  8 21:44:55 2025.
