 Gaussian 16, Revision C.01,

 ----------------------------------------------------------------------
 #t hf aug-cc-pvdz symm=none int=(grid=ultrafine) guess=(read,tcheck) s
 table=(opt,rrhf)
 ----------------------------------------------------------------------
 -----
 title
 -----
 Symbolic Z-matrix:
 Charge =  0 Multiplicity = 1

 SCF Done:  E(RHF) =  -928.126877793     A.U. after   17 cycles
 Normal termination of Gaussian 16 at Tue Apr  8 21:52:55 2025.
 Gaussian 16:  ES64L-G16RevC.01  3-Jul-2019

 ----------------------------------------------------------------------
 #t hf aug-cc-pvdz iop(5/13=1,5/36=2,99/5=2) pseudo=read geom=check gue
 ss=(read,tcheck) scf=(maxcycle=1)
 ----------------------------------------------------------------------
 -----
 title
 -----
 Structure from the checkpoint file:  "ANI1ccx_347_conf1_mol1.chk"
 Charge =  0 Multiplicity = 1

                         Standard orientation:
 ---------------------------------------------------------------------
 Center     Atomic      Atomic             Coordinates (Angstroms)
 Number     Number       Type             X           Y           Z
 ---------------------------------------------------------------------
      1          6           0        1.715308    2.778811   -0.332634
      2          6           0       -4.016601    1.053308   -0.248394
      3          6           0       -3.123291    1.556369    0.726002
      4          6           0       -3.844760   -0.172413   -0.885205
      5          6           0       -2.724050   -0.924377   -0.515858
      6          6           0       -1.748160   -0.375107    0.377655
      7          6           0       -1.041619   -2.421641   -0.180216
      8          6           0       -1.931151    0.883321    0.948352
      9          6           0        0.496519   -1.251420    1.478460
     10          6           0        2.253531   -2.041899   -0.122371
     11          6           0        1.791500   -0.887502    0.763352
     12          6           0        0.328291    3.133140   -0.833481
     13          6           0        1.626329    1.576191    0.622935
     14          6           0       -0.710849   -1.321650    0.548563
     15          1           0       -0.564075   -3.375550   -0.330511
     16          1           0        3.007081   -2.407249   -1.730090
     17          1           0       -4.930451    1.637758   -0.416784
     18          1           0       -3.318001    2.554488    1.096560
     19          1           0       -4.508490   -0.475998   -1.715080
     20          1           0       -1.130751    1.379759    1.544930
     21          1           0       -2.508999   -2.787531   -1.559990
     22          1           0        0.632418   -2.253400    1.977810
     23          1           0       -0.195692    2.283760   -1.332450
     24          1           0        2.650100   -0.820636    1.465310
     25          1           0        1.959010    0.268374   -0.936195
     26          1           0        0.330568    4.037880   -1.430570
     27          1           0       -0.383439    3.347300   -0.018804
     28          1           0        2.155588    3.622511    0.225456
     29          1           0        3.598959    2.401932   -1.095860
     30          1           0        2.449469    2.723371   -2.306490
     31          1           0        0.292023   -0.575365    2.368530
     32          7           0        2.624339    2.354661   -1.375860
     33          7           0        1.690010    0.342979    0.013054
     34          7           0       -2.248009   -2.189041   -0.834785
     35          8           0        2.401541   -3.196389    0.203103
     36          8           0        1.434729    1.728841    1.811190
     37          8           0        2.610520   -1.611499   -1.327490
 ---------------------------------------------------------------------

 SCF Done:  E(RHF) =  -932.385015340     A.U. after    2 cycles

 The electronic state is 1-A.
 Alpha  occ. eigenvalues --  -21.13832 -21.06074 -21.02112 -15.77827 -15.74744
 Alpha  occ. eigenvalues --  -15.73785 -11.56025 -11.52534 -11.51280 -11.48996
 Alpha  occ. eigenvalues --  -11.46693 -11.44833 -11.44112 -11.43536 -11.43013
 Alpha  occ. eigenvalues --  -11.41999 -11.40531 -11.38782 -11.38540 -11.36129
 Alpha  occ. eigenvalues --   -1.85947  -1.70548  -1.66439  -1.51040  -1.41698
 Alpha  occ. eigenvalues --   -1.34790  -1.27858  -1.19392  -1.11736  -1.09521
 Alpha  occ. eigenvalues --   -1.06627  -1.03737  -0.96462  -0.92024  -0.87600
 Alpha  occ. eigenvalues --   -0.83572  -0.81662  -0.79251  -0.76265  -0.71159
 Alpha  occ. eigenvalues --   -0.69932  -0.68430  -0.67260  -0.64848  -0.64620
 Alpha  occ. eigenvalues --   -0.62736  -0.62541  -0.61638  -0.58500  -0.57970
 Alpha  occ. eigenvalues --   -0.56076  -0.55568  -0.54256  -0.53113  -0.52311
 Alpha  occ. eigenvalues --   -0.51261  -0.50359  -0.49606  -0.48430  -0.46964
 Alpha  occ. eigenvalues --   -0.45741  -0.45434  -0.44712  -0.43727  -0.41362
 Alpha  occ. eigenvalues --   -0.37036  -0.36343  -0.35385  -0.31487  -0.30203
 Alpha  occ. eigenvalues --   -0.28520  -0.27310  -0.25981
 Alpha virt. eigenvalues --    0.03658   0.04033   0.04292   0.04608   0.04980
 Alpha virt. eigenvalues --    0.05153   0.05850   0.06196   0.06500   0.06932
 Alpha virt. eigenvalues --    0.07098   0.07668   0.07880   0.08590   0.09178

 Mulliken charges:
               1
     1  C   -2.332678
     2  C   -2.368800
     3  C   -3.728392
     4  C   -3.497237
     5  C    2.381222
     6  C    1.346548
     7  C   -3.055546
     8  C    1.652394
     9  C   -3.406264
    10  C    8.335905
    11  C   -3.228945
    12  C   -4.565703
    13  C    7.406536
    14  C    3.779793
    15  H    1.545828
    16  H    0.946388
    17  H    1.426113
    18  H    1.550251
    19  H    1.641311
    20  H    2.383072
    21  H    0.829083
    22  H    1.062086
    23  H    1.721255
    24  H    1.622439
    25  H    0.978397
    26  H    1.189037
    27  H    1.511311
    28  H    1.770456
    29  H    0.646783
    30  H    0.662394
    31  H    1.143088
    32  N   -2.784714
    33  N   -2.565480
    34  N   -4.752473
    35  O   -3.713788
    36  O   -4.195211
    37  O   -3.336458
 Sum of Mulliken charges =   0.00000

 Dipole moment (field-independent basis, Debye):
    X=              0.9219    Y=             -0.0719    Z=             -4.1840  Tot=              4.2850

 Test job not archived.
 1\1\GINC-SE080\SP\RHF\Aug-CC-pVDZ\C14H17N3O3\OHZDE\08-Apr-2025\0\\#t h
 f aug-cc-pvdz iop(5/13=1,5/36=2,99/5=2) pseudo=read geom=check guess=(
 read,tcheck) scf=(maxcycle=1)\\title\\0,1\C,0,1.71531,2.77881,-0.33263
 4\C,0,-4.0166,1.05331,-0.248394\C,0,-3.12329,1.55637,0.726002\C,0,-3.8
 4476,-0.172411,-0.885205\C,0,-2.72405,-0.924376,-0.515858\C,0,-1.74816
 ,-0.375106,0.377655\C,0,-1.04162,-2.42164,-0.180216\C,0,-1.93115,0.883
 322,0.948352\C,0,0.496519,-1.25142,1.47846\C,0,2.25353,-2.0419,-0.1223
 71\C,0,1.7915,-0.887503,0.763352\C,0,0.328293,3.13314,-0.833481\C,0,1.

 Normal termination of Gaussian 16 at Tue Apr  8 21:54:13 2025.
