 Gaussian 16, Revision C.01,

 ----------------------------------------------------------------------
 #t hf aug-cc-pvdz symm=none int=(grid=ultrafine) guess=(read,tcheck) s
 table=(opt,rrhf)
 ----------------------------------------------------------------------
 -----
 title
 -----
 Symbolic Z-matrix:
 Charge =  0 Multiplicity = 1

 SCF Done:  E(RHF) =  -396.772056922     A.U. after   14 cycles
 Normal termination of Gaussian 16 at Tue Apr  8 21:55:16 2025.
 Gaussian 16:  ES64L-G16RevC.01  3-Jul-2019

 ----------------------------------------------------------------------
 #t hf aug-cc-pvdz iop(5/13=1,5/36=2,99/5=2) pseudo=read geom=check gue
 ss=(read,tcheck) scf=(maxcycle=1)
 ----------------------------------------------------------------------
 -----
 title
 -----
 Structure from the checkpoint file:  "ANI1ccx_744_conf12_mol2.chk"
 Charge =  0 Multiplicity = 1

                         Standard orientation:
 ---------------------------------------------------------------------
 Center     Atomic      Atomic             Coordinates (Angstroms)
 Number     Number       Type             X           Y           Z
 ---------------------------------------------------------------------
      1          6           0       -0.009862    0.612247    0.384516
      2          6           0        0.655931   -0.693897    0.057504
      3          6           0       -1.344637    0.700164   -0.305190
      4          1           0        0.852881    2.427738    0.674804
      5          1           0        0.548111    2.098918   -0.816063
      6          1           0       -0.126556    0.622337    1.513990
      7          1           0       -1.068397    0.803885   -1.363420
      8          1           0       -1.828865    1.637145    0.020660
      9          1           0       -1.640002   -1.145996   -0.121054
     10          1           0        2.194402    0.345700   -0.072360
     11          7           0        0.954636    1.664317    0.009858
     12          8           0        0.070114   -1.774280    0.056467
     13          8           0       -2.193180   -0.357623    0.056379
     14          8           0        1.945239   -0.636975   -0.203664
 ---------------------------------------------------------------------

 SCF Done:  E(RHF) =  -398.502778290     A.U. after    2 cycles

 The electronic state is 1-A.
 Alpha  occ. eigenvalues --  -21.11366 -21.06313 -21.04647 -15.78850 -11.53584
 Alpha  occ. eigenvalues --  -11.48468 -11.42499  -1.83737  -1.71677  -1.65007
 Alpha  occ. eigenvalues --   -1.39891  -1.10414  -0.95352  -0.78726  -0.75564
 Alpha  occ. eigenvalues --   -0.68344  -0.65698  -0.63809  -0.58097  -0.54723
 Alpha  occ. eigenvalues --   -0.51914  -0.50031  -0.47259  -0.44490  -0.40937
 Alpha  occ. eigenvalues --   -0.33681  -0.32444  -0.27794
 Alpha virt. eigenvalues --    0.02789   0.04450   0.04720   0.05036   0.06276
 Alpha virt. eigenvalues --    0.07225   0.08566   0.10467   0.11073   0.11972
 Alpha virt. eigenvalues --    0.12991   0.13376   0.14461   0.14879   0.15327

 Mulliken charges:
               1
     1  C   -1.951185
     2  C    6.350939
     3  C    0.005679
     4  H    0.469282
     5  H    0.623350
     6  H    1.566668
     7  H    1.249368
     8  H    1.182161
     9  H    0.969933
    10  H    1.022097
    11  N   -2.324789
    12  O   -3.146216
    13  O   -2.804233
    14  O   -3.213056
 Sum of Mulliken charges =   0.00000

 Dipole moment (field-independent basis, Debye):
    X=              0.6355    Y=              3.3583    Z=              0.2981  Tot=              3.4309

 Test job not archived.
 1\1\GINC-SE229\SP\RHF\Aug-CC-pVDZ\C3H7N1O3\OHZDE\08-Apr-2025\0\\#t hf
 aug-cc-pvdz iop(5/13=1,5/36=2,99/5=2) pseudo=read geom=check guess=(re
 ad,tcheck) scf=(maxcycle=1)\\title\\0,1\C,0,-0.00986445,0.612247,0.384
 516\C,0,0.655932,-0.693895,0.0575038\C,0,-1.34464,0.70016,-0.30519\H,0
 ,0.852874,2.42774,0.674804\H,0,0.548105,2.09892,-0.816063\H,0,-0.12655
 8,0.622337,1.51399\H,0,-1.0684,0.803882,-1.36342\H,0,-1.82887,1.63714,
 0.0206603\H,0,-1.64,-1.146,-0.121054\H,0,2.1944,0.345706,-0.07236\N,0,
 0.954631,1.66432,0.00985818\O,0,0.0701184,-1.77428,0.0564668\O,0,-2.19

 Normal termination of Gaussian 16 at Tue Apr  8 21:55:21 2025.
