 Gaussian 16, Revision C.01,

 ----------------------------------------------------------------------
 #t hf aug-cc-pvdz symm=none int=(grid=ultrafine) guess=(read,tcheck) s
 table=(opt,rrhf)
 ----------------------------------------------------------------------
 -----
 title
 -----
 Symbolic Z-matrix:
 Charge =  0 Multiplicity = 1

 SCF Done:  E(RHF) =  -371.289684533     A.U. after   14 cycles
 Normal termination of Gaussian 16 at Tue Apr  8 21:40:42 2025.
 Gaussian 16:  ES64L-G16RevC.01  3-Jul-2019

 ----------------------------------------------------------------------
 #t hf aug-cc-pvdz iop(5/13=1,5/36=2,99/5=2) pseudo=read geom=check gue
 ss=(read,tcheck) scf=(maxcycle=1)
 ----------------------------------------------------------------------
 -----
 title
 -----
 Structure from the checkpoint file:  "ANI1ccx_455_conf10_mol1.chk"
 Charge =  0 Multiplicity = 1

                         Standard orientation:
 ---------------------------------------------------------------------
 Center     Atomic      Atomic             Coordinates (Angstroms)
 Number     Number       Type             X           Y           Z
 ---------------------------------------------------------------------
      1          6           0        0.755111    0.009286   -0.034468
      2          7           0       -1.343470   -0.615619    0.035501
      3          7           0       -1.376331    0.608077    0.013072
      4          8           0        1.962570   -0.008464    0.037130
      5          8           0       -0.084106   -1.071171   -0.032907
      6          8           0       -0.064971    1.079269   -0.020873
 ---------------------------------------------------------------------

 SCF Done:  E(RHF) =  -372.773843150     A.U. after    2 cycles

 The electronic state is 1-A.
 Alpha  occ. eigenvalues --  -21.20763 -21.20047 -21.10827 -15.91793 -15.91229
 Alpha  occ. eigenvalues --  -11.59689  -2.11849  -1.85239  -1.75208  -1.47857
 Alpha  occ. eigenvalues --   -0.97651  -0.92333  -0.76468  -0.74933  -0.59793
 Alpha  occ. eigenvalues --   -0.58390  -0.56862  -0.52699  -0.49728  -0.46021
 Alpha  occ. eigenvalues --   -0.34962  -0.34211
 Alpha virt. eigenvalues --    0.07311   0.10283   0.10350   0.10629   0.10950
 Alpha virt. eigenvalues --    0.11794   0.12905   0.14616   0.15596   0.17408
 Alpha virt. eigenvalues --    0.18723   0.20025   0.21946   0.23115   0.23845

 Mulliken charges:
               1
     1  C    5.189208
     2  N    1.435639
     3  N    1.169539
     4  O   -2.627576
     5  O   -2.621584
     6  O   -2.545226
 Sum of Mulliken charges =  -0.00000

 Dipole moment (field-independent basis, Debye):
    X=             -0.5499    Y=             -0.0347    Z=             -0.0705  Tot=              0.5555

 Test job not archived.
 1\1\GINC-SE366\SP\RHF\Aug-CC-pVDZ\C1N2O3\OHZDE\08-Apr-2025\0\\#t hf au
 g-cc-pvdz iop(5/13=1,5/36=2,99/5=2) pseudo=read geom=check guess=(read
 ,tcheck) scf=(maxcycle=1)\\title\\0,1\C,0,0.755111,0.0092866,-0.034467
 9\N,0,-1.34347,-0.615617,0.0355005\N,0,-1.37633,0.608079,0.0130715\O,0
 ,1.96257,-0.00846423,0.0371302\O,0,-0.0841062,-1.07117,-0.0329072\O,0,
 -0.06497,1.07927,-0.0208726\\Version=ES64L-G16RevC.01\State=1-A\HF=-37
 2.7738431\RMSD=9.400e-02\Dipole=-0.2163625,-0.0136433,-0.0277409\Quadr
 upole=-2.9717328,0.687087,2.2846458,0.0656953,0.0190904,0.0138056\PG=C

 Normal termination of Gaussian 16 at Tue Apr  8 21:40:44 2025.
