 Gaussian 16, Revision C.01,

 ----------------------------------------------------------------------
 #t hf aug-cc-pvdz symm=none int=(grid=ultrafine) guess=(read,tcheck) s
 table=(opt,rrhf)
 ----------------------------------------------------------------------
 -----
 title
 -----
 Symbolic Z-matrix:
 Charge =  0 Multiplicity = 1

 SCF Done:  E(RHF) =  -380.190386618     A.U. after   11 cycles
 Normal termination of Gaussian 16 at Tue Apr  8 21:06:26 2025.
 Gaussian 16:  ES64L-G16RevC.01  3-Jul-2019

 ----------------------------------------------------------------------
 #t hf aug-cc-pvdz iop(5/13=1,5/36=2,99/5=2) pseudo=read geom=check gue
 ss=(read,tcheck) scf=(maxcycle=1)
 ----------------------------------------------------------------------
 -----
 title
 -----
 Structure from the checkpoint file:  "ANI1ccx_1843_conf387_mol1.chk"
 Charge =  0 Multiplicity = 1

                         Standard orientation:
 ---------------------------------------------------------------------
 Center     Atomic      Atomic             Coordinates (Angstroms)
 Number     Number       Type             X           Y           Z
 ---------------------------------------------------------------------
      1          1           0        2.743461   -0.335302   -0.322717
      2          1           0        2.817363   -1.940447   -0.926550
      3          1           0        2.191009    1.509222    1.042010
      4          1           0        1.106569    1.180751   -0.040930
      5          1           0       -1.549622    2.090268    0.073099
      6          1           0       -1.747030    0.775916   -0.681463
      7          1           0       -2.054168   -0.906447    0.326055
      8          1           0       -3.418188   -1.010825   -0.632424
      9          1           0       -0.551189   -0.129352    0.521364
     10          1           0        0.332569   -1.391620    0.156387
     11          8           0        2.495182   -1.323968   -0.200069
     12          8           0        2.001739    1.559182    0.055039
     13          8           0       -1.097741    1.313828   -0.177972
     14          8           0       -2.832449   -0.422031   -0.118507
     15          8           0       -0.550578   -1.107281    0.502155
 ---------------------------------------------------------------------

 SCF Done:  E(RHF) =  -381.836475464     A.U. after    2 cycles

 The electronic state is 1-A.
 Alpha  occ. eigenvalues --  -21.09785 -21.09193 -21.08500 -21.07169 -21.05761
 Alpha  occ. eigenvalues --   -1.71291  -1.66081  -1.65629  -1.63299  -1.62019
 Alpha  occ. eigenvalues --   -0.70471  -0.64766  -0.64042  -0.63504  -0.61535
 Alpha  occ. eigenvalues --   -0.50532  -0.49234  -0.46385  -0.44324  -0.39782
 Alpha  occ. eigenvalues --   -0.36687  -0.36249  -0.34845  -0.34298  -0.31693
 Alpha virt. eigenvalues --    0.03913   0.04710   0.05476   0.05827   0.07590
 Alpha virt. eigenvalues --    0.08281   0.08617   0.09398   0.09666   0.11577
 Alpha virt. eigenvalues --    0.18605   0.19362   0.19705   0.21053   0.21816

 Mulliken charges:
               1
     1  H    1.056198
     2  H    0.962382
     3  H    0.807810
     4  H    1.416243
     5  H    0.857318
     6  H    1.391135
     7  H    1.420066
     8  H    0.955819
     9  H    1.255850
    10  H    1.210964
    11  O   -2.062072
    12  O   -2.141778
    13  O   -2.286270
    14  O   -2.233110
    15  O   -2.610555
 Sum of Mulliken charges =  -0.00000

 Dipole moment (field-independent basis, Debye):
    X=              0.0154    Y=              0.1500    Z=             -0.6701  Tot=              0.6868

 Test job not archived.
 1\1\GINC-SE184\SP\RHF\Aug-CC-pVDZ\H10O5\OHZDE\08-Apr-2025\0\\#t hf aug
 -cc-pvdz iop(5/13=1,5/36=2,99/5=2) pseudo=read geom=check guess=(read,
 tcheck) scf=(maxcycle=1)\\title\\0,1\H,0,2.74346,-0.335305,-0.322717\H
 ,0,2.81736,-1.94045,-0.92655\H,0,2.19101,1.50922,1.04201\H,0,1.10657,1
 .18075,-0.0409302\H,0,-1.54962,2.09027,0.0730991\H,0,-1.74703,0.775919
 ,-0.681463\H,0,-2.05417,-0.906444,0.326055\H,0,-3.41819,-1.01082,-0.63
 2424\H,0,-0.55119,-0.129351,0.521364\H,0,0.332567,-1.39162,0.156387\O,
 0,2.49518,-1.32397,-0.200069\O,0,2.00174,1.55918,0.0550395\O,0,-1.0977

 Normal termination of Gaussian 16 at Tue Apr  8 21:06:29 2025.
