 Gaussian 16, Revision C.01,

 ----------------------------------------------------------------------
 #t hf aug-cc-pvdz symm=none int=(grid=ultrafine) guess=(read,tcheck) s
 table=(opt,rrhf)
 ----------------------------------------------------------------------
 -----
 title
 -----
 Symbolic Z-matrix:
 Charge =  0 Multiplicity = 1

 SCF Done:  E(RHF) =  -814.699004827     A.U. after   14 cycles
 Normal termination of Gaussian 16 at Tue Apr  8 21:19:38 2025.
 Gaussian 16:  ES64L-G16RevC.01  3-Jul-2019

 ----------------------------------------------------------------------
 #t hf aug-cc-pvdz iop(5/13=1,5/36=2,99/5=2) pseudo=read geom=check gue
 ss=(read,tcheck) scf=(maxcycle=1)
 ----------------------------------------------------------------------
 -----
 title
 -----
 Structure from the checkpoint file:  "ANI1ccx_1785_conf26_mol1.chk"
 Charge =  0 Multiplicity = 1

                         Standard orientation:
 ---------------------------------------------------------------------
 Center     Atomic      Atomic             Coordinates (Angstroms)
 Number     Number       Type             X           Y           Z
 ---------------------------------------------------------------------
      1          6           0       -3.086950   -0.327448    0.394977
      2          6           0        2.725190   -1.028450   -0.807817
      3          6           0        1.683670   -1.808750    0.017147
      4          6           0        0.858584   -1.232970    1.145420
      5          6           0        3.837320   -0.416958    0.077291
      6          6           0       -0.120788   -0.109584    0.598853
      7          6           0       -3.334960    1.132740   -0.155688
      8          6           0       -2.143860   -0.956000   -0.624206
      9          6           0        0.783272    1.058710    0.078535
     10          1           0        0.874962   -2.238020   -0.596414
     11          1           0        2.528810    1.613480    0.532508
     12          1           0        5.011060    1.381470    0.224632
     13          1           0        3.929610    1.350080   -1.121160
     14          1           0        3.745460   -0.676536    1.131740
     15          1           0        4.825070   -0.850582   -0.163129
     16          1           0        2.296970   -0.254184   -1.596910
     17          1           0        3.256430   -1.809660   -1.443520
     18          1           0        2.289720   -2.552830    0.410763
     19          1           0        0.069168   -1.974380    1.496610
     20          1           0       -0.625347    0.245363    1.440410
     21          1           0       -0.430090   -0.822704   -1.365800
     22          1           0       -1.911600    1.529370   -1.305860
     23          1           0       -3.827520    1.660420    0.662408
     24          1           0       -3.881410    1.046910   -1.044860
     25          1           0       -4.068560   -0.779961    0.214767
     26          1           0       -3.491910   -0.080511    2.426370
     27          1           0       -2.442560   -1.357170    2.022530
     28          1           0        1.414870   -0.757456    2.002100
     29          7           0       -2.635000   -0.341199    1.821810
     30          7           0       -0.871629   -0.654532   -0.484509
     31          7           0        4.019440    1.057150   -0.086429
     32          8           0        0.476115    1.654780   -0.938577
     33          8           0       -2.498810   -1.497130   -1.643170
     34          8           0       -2.142260    1.844760   -0.452122
     35          8           0        1.619740    1.376240    0.905079
 ---------------------------------------------------------------------

 SCF Done:  E(RHF) =  -818.435097870     A.U. after    2 cycles

 The electronic state is 1-A.
 Alpha  occ. eigenvalues --  -21.08506 -21.04883 -21.00873 -21.00814 -15.76424
 Alpha  occ. eigenvalues --  -15.74929 -15.74334 -11.52014 -11.50367 -11.47982
 Alpha  occ. eigenvalues --  -11.47023 -11.45671 -11.43581 -11.40937 -11.40439
 Alpha  occ. eigenvalues --  -11.37542  -1.84640  -1.71886  -1.69612  -1.63213
 Alpha  occ. eigenvalues --   -1.41979  -1.35176  -1.32444  -1.22046  -1.10363
 Alpha  occ. eigenvalues --   -1.06862  -1.00623  -0.91940  -0.90507  -0.83513
 Alpha  occ. eigenvalues --   -0.80833  -0.78020  -0.69677  -0.69366  -0.68331
 Alpha  occ. eigenvalues --   -0.65508  -0.64043  -0.63560  -0.63049  -0.62363
 Alpha  occ. eigenvalues --   -0.59778  -0.58284  -0.57530  -0.55149  -0.54820
 Alpha  occ. eigenvalues --   -0.53338  -0.52604  -0.51357  -0.51163  -0.47925
 Alpha  occ. eigenvalues --   -0.46799  -0.46554  -0.44309  -0.42943  -0.41468
 Alpha  occ. eigenvalues --   -0.40538  -0.36860  -0.34564  -0.31429  -0.30730
 Alpha  occ. eigenvalues --   -0.27772  -0.27121  -0.25573
 Alpha virt. eigenvalues --    0.03148   0.03979   0.04040   0.04526   0.04934
 Alpha virt. eigenvalues --    0.05331   0.05433   0.06341   0.06379   0.06776
 Alpha virt. eigenvalues --    0.07383   0.07791   0.08258   0.08520   0.08962

 Mulliken charges:
               1
     1  C   -2.963157
     2  C   -3.488403
     3  C   -2.380523
     4  C   -4.236456
     5  C   -2.461797
     6  C   -0.901507
     7  C   -0.917517
     8  C    6.961351
     9  C    8.490611
    10  H    1.511084
    11  H    1.401763
    12  H    0.558986
    13  H    0.594580
    14  H    1.608646
    15  H    1.426190
    16  H    1.502594
    17  H    1.128527
    18  H    1.294959
    19  H    1.218094
    20  H    2.566847
    21  H    0.568409
    22  H    0.823356
    23  H    1.356725
    24  H    1.438231
    25  H    1.552212
    26  H    0.502145
    27  H    0.563371
    28  H    1.346788
    29  N   -2.541856
    30  N   -1.408845
    31  N   -2.152915
    32  O   -3.703194
    33  O   -4.189791
    34  O   -2.869266
    35  O   -4.200243
 Sum of Mulliken charges =   0.00000

 Dipole moment (field-independent basis, Debye):
    X=              3.6794    Y=             -0.3105    Z=              2.0983  Tot=              4.2471

 Test job not archived.
 1\1\GINC-SE342\SP\RHF\Aug-CC-pVDZ\C9H19N3O4\OHZDE\08-Apr-2025\0\\#t hf
  aug-cc-pvdz iop(5/13=1,5/36=2,99/5=2) pseudo=read geom=check guess=(r
 ead,tcheck) scf=(maxcycle=1)\\title\\0,1\C,0,-3.08695,-0.327448,0.3949
 77\C,0,2.72519,-1.02845,-0.807817\C,0,1.68367,-1.80875,0.0171471\C,0,0
 .858584,-1.23297,1.14542\C,0,3.83732,-0.416958,0.0772912\C,0,-0.120788
 ,-0.109584,0.598853\C,0,-3.33496,1.13274,-0.155688\C,0,-2.14386,-0.956
 ,-0.624206\C,0,0.783272,1.05871,0.078535\H,0,0.874962,-2.23802,-0.5964
 14\H,0,2.52881,1.61348,0.532508\H,0,5.01106,1.38147,0.224632\H,0,3.929

 Normal termination of Gaussian 16 at Tue Apr  8 21:20:30 2025.
