 Gaussian 16, Revision C.01,

 ----------------------------------------------------------------------
 #t hf aug-cc-pvdz symm=none int=(grid=ultrafine) guess=(read,tcheck) s
 table=(opt,rrhf)
 ----------------------------------------------------------------------
 -----
 title
 -----
 Symbolic Z-matrix:
 Charge =  0 Multiplicity = 1

 SCF Done:  E(RHF) =  -603.548652168     A.U. after   15 cycles
 Normal termination of Gaussian 16 at Tue Apr  8 22:21:25 2025.
 Gaussian 16:  ES64L-G16RevC.01  3-Jul-2019

 ----------------------------------------------------------------------
 #t hf aug-cc-pvdz iop(5/13=1,5/36=2,99/5=2) pseudo=read geom=check gue
 ss=(read,tcheck) scf=(maxcycle=1)
 ----------------------------------------------------------------------
 -----
 title
 -----
 Structure from the checkpoint file:  "ANI1ccx_999_conf26_mol1.chk"
 Charge =  0 Multiplicity = 1

                         Standard orientation:
 ---------------------------------------------------------------------
 Center     Atomic      Atomic             Coordinates (Angstroms)
 Number     Number       Type             X           Y           Z
 ---------------------------------------------------------------------
      1          6           0        2.111070    0.116679   -0.901295
      2          6           0        1.701230   -0.251562    0.576771
      3          6           0       -0.746867   -0.214367   -0.214929
      4          6           0       -1.710391    0.981044   -0.051110
      5          6           0       -1.373479   -1.562161    0.133759
      6          1           0       -0.078697    1.885440    0.046678
      7          1           0       -3.257629   -1.151492   -0.570602
      8          1           0       -0.676271   -2.386981   -0.185707
      9          1           0       -1.610469   -1.684401    1.209290
     10          1           0       -0.430700   -0.299162   -1.329110
     11          1           0        1.698540   -0.789578   -1.388190
     12          1           0        1.772049    1.179991   -1.083860
     13          1           0        3.947599    1.050762   -0.609804
     14          1           0        4.060220   -0.516521   -0.643597
     15          1           0       -0.160329    0.240854    1.556150
     16          7           0        3.595110    0.195534   -1.099740
     17          7           0        0.347278    0.155257    0.686807
     18          8           0       -2.508519   -1.760652   -0.652258
     19          8           0        2.377050   -0.679227    1.529440
     20          8           0       -2.904381    0.991069    0.025428
     21          8           0       -1.057951    2.148529    0.176151
 ---------------------------------------------------------------------

 SCF Done:  E(RHF) =  -606.200722994     A.U. after    2 cycles

 The electronic state is 1-A.
 Alpha  occ. eigenvalues --  -21.12171 -21.07877 -21.07515 -21.07358 -15.79042
 Alpha  occ. eigenvalues --  -15.76190 -11.56443 -11.54952 -11.51851 -11.46209
 Alpha  occ. eigenvalues --  -11.45112  -1.84465  -1.73143  -1.71956  -1.66954
 Alpha  occ. eigenvalues --   -1.44695  -1.34180  -1.13898  -1.03929  -0.96230
 Alpha  occ. eigenvalues --   -0.83626  -0.80338  -0.73552  -0.72373  -0.68753
 Alpha  occ. eigenvalues --   -0.67581  -0.64998  -0.59716  -0.59329  -0.58023
 Alpha  occ. eigenvalues --   -0.57213  -0.54971  -0.52800  -0.52252  -0.48578
 Alpha  occ. eigenvalues --   -0.46629  -0.42760  -0.39795  -0.36730  -0.34435
 Alpha  occ. eigenvalues --   -0.34088  -0.31570  -0.29186
 Alpha virt. eigenvalues --    0.03177   0.04578   0.04760   0.05334   0.05728
 Alpha virt. eigenvalues --    0.06172   0.06724   0.07185   0.07628   0.08651
 Alpha virt. eigenvalues --    0.09520   0.10282   0.10866   0.12217   0.12644

 Mulliken charges:
               1
     1  C   -1.853786
     2  C    4.515840
     3  C   -2.881074
     4  C    6.415033
     5  C   -0.288510
     6  H    1.262624
     7  H    0.964595
     8  H    1.312775
     9  H    1.305535
    10  H    1.786676
    11  H    1.517677
    12  H    1.459621
    13  H    0.530693
    14  H    0.613376
    15  H    0.694895
    16  N   -2.710983
    17  N   -1.966297
    18  O   -2.944410
    19  O   -3.212249
    20  O   -3.226156
    21  O   -3.295876
 Sum of Mulliken charges =   0.00000

 Dipole moment (field-independent basis, Debye):
    X=              1.0920    Y=             -0.0584    Z=              0.5024  Tot=              1.2034

 Test job not archived.
 1\1\GINC-SE329\SP\RHF\Aug-CC-pVDZ\C5H10N2O4\OHZDE\08-Apr-2025\0\\#t hf
  aug-cc-pvdz iop(5/13=1,5/36=2,99/5=2) pseudo=read geom=check guess=(r
 ead,tcheck) scf=(maxcycle=1)\\title\\0,1\C,0,2.11107,0.116678,-0.90129
 5\C,0,1.70123,-0.251563,0.576771\C,0,-0.746867,-0.214366,-0.214929\C,0
 ,-1.71039,0.981045,-0.0511103\C,0,-1.37348,-1.56216,0.133759\H,0,-0.07
 8696,1.88544,0.0466781\H,0,-3.25763,-1.15149,-0.570602\H,0,-0.676272,-
 2.38698,-0.185707\H,0,-1.61047,-1.6844,1.20929\H,0,-0.4307,-0.299161,-
 1.32911\H,0,1.69854,-0.789579,-1.38819\H,0,1.77205,1.17999,-1.08386\H,

 Normal termination of Gaussian 16 at Tue Apr  8 22:21:38 2025.
