 Gaussian 16, Revision C.01,

 ----------------------------------------------------------------------
 #t hf aug-cc-pvdz symm=none int=(grid=ultrafine) guess=(read,tcheck) s
 table=(opt,rrhf)
 ----------------------------------------------------------------------
 -----
 title
 -----
 Symbolic Z-matrix:
 Charge =  0 Multiplicity = 1

 SCF Done:  E(RHF) =  -228.135807984     A.U. after   11 cycles
 Normal termination of Gaussian 16 at Tue Apr  8 21:14:21 2025.
 Gaussian 16:  ES64L-G16RevC.01  3-Jul-2019

 ----------------------------------------------------------------------
 #t hf aug-cc-pvdz iop(5/13=1,5/36=2,99/5=2) pseudo=read geom=check gue
 ss=(read,tcheck) scf=(maxcycle=1)
 ----------------------------------------------------------------------
 -----
 title
 -----
 Structure from the checkpoint file:  "ANI1ccx_1900_conf21_mol2.chk"
 Charge =  0 Multiplicity = 1

                         Standard orientation:
 ---------------------------------------------------------------------
 Center     Atomic      Atomic             Coordinates (Angstroms)
 Number     Number       Type             X           Y           Z
 ---------------------------------------------------------------------
      1          1           0        1.100669    0.347799   -0.149858
      2          1           0        1.949786   -0.560202    0.748355
      3          1           0       -0.901845    0.793020   -0.098359
      4          1           0       -0.352667    1.950220    0.760833
      5          1           0       -0.246791   -1.114227    0.076121
      6          1           0       -1.569885   -1.486238   -0.621983
      7          8           0        1.484906   -0.555236   -0.099617
      8          8           0       -0.273964    1.545332   -0.105681
      9          8           0       -1.208351   -0.981392    0.115910
 ---------------------------------------------------------------------

 SCF Done:  E(RHF) =  -229.118425339     A.U. after    2 cycles

 The electronic state is 1-A.
 Alpha  occ. eigenvalues --  -21.09167 -21.08995 -21.08942  -1.69135  -1.65436
 Alpha  occ. eigenvalues --   -1.65310  -0.66985  -0.63108  -0.62887  -0.49836
 Alpha  occ. eigenvalues --   -0.49072  -0.44414  -0.36491  -0.34759  -0.33673
 Alpha virt. eigenvalues --    0.03691   0.05464   0.05812   0.08200   0.08370
 Alpha virt. eigenvalues --    0.09583   0.18292   0.19084   0.19317   0.21341
 Alpha virt. eigenvalues --    0.22276   0.23846   0.24561   0.25760   0.27399

 Mulliken charges:
               1
     1  H    1.232686
     2  H    0.819938
     3  H    1.246565
     4  H    0.809111
     5  H    1.234084
     6  H    0.830126
     7  O   -2.049200
     8  O   -2.048855
     9  O   -2.074455
 Sum of Mulliken charges =   0.00000

 Dipole moment (field-independent basis, Debye):
    X=             -0.0399    Y=             -0.1043    Z=              0.6936  Tot=              0.7025

 Test job not archived.
 1\1\GINC-SE329\SP\RHF\Aug-CC-pVDZ\H6O3\OHZDE\08-Apr-2025\0\\#t hf aug-
 cc-pvdz iop(5/13=1,5/36=2,99/5=2) pseudo=read geom=check guess=(read,t
 check) scf=(maxcycle=1)\\title\\0,1\H,0,1.10068,0.347765,-0.149858\H,0
 ,1.94977,-0.560262,0.748355\H,0,-0.90182,0.793047,-0.0983593\H,0,-0.35
 2607,1.95023,0.760833\H,0,-0.246824,-1.11422,0.0761211\H,0,-1.56993,-1
 .48619,-0.621983\O,0,1.48489,-0.555282,-0.0996174\O,0,-0.273916,1.5453
 4,-0.105681\O,0,-1.20838,-0.981356,0.11591\\Version=ES64L-G16RevC.01\S
 tate=1-A\HF=-229.1184253\RMSD=2.988e-02\Dipole=-0.0156851,-0.0410446,0

 Normal termination of Gaussian 16 at Tue Apr  8 21:14:22 2025.
