 Gaussian 16, Revision C.01,

 ----------------------------------------------------------------------
 #t hf aug-cc-pvdz symm=none int=(grid=ultrafine) guess=(read,tcheck) s
 table=(opt,rrhf)
 ----------------------------------------------------------------------
 -----
 title
 -----
 Symbolic Z-matrix:
 Charge =  0 Multiplicity = 1

 SCF Done:  E(RHF) =  -410.441378059     A.U. after   14 cycles
 Normal termination of Gaussian 16 at Tue Apr  8 21:43:50 2025.
 Gaussian 16:  ES64L-G16RevC.01  3-Jul-2019

 ----------------------------------------------------------------------
 #t hf aug-cc-pvdz iop(5/13=1,5/36=2,99/5=2) pseudo=read geom=check gue
 ss=(read,tcheck) scf=(maxcycle=1)
 ----------------------------------------------------------------------
 -----
 title
 -----
 Structure from the checkpoint file:  "ANI1ccx_483_conf2_mol1.chk"
 Charge =  0 Multiplicity = 1

                         Standard orientation:
 ---------------------------------------------------------------------
 Center     Atomic      Atomic             Coordinates (Angstroms)
 Number     Number       Type             X           Y           Z
 ---------------------------------------------------------------------
      1          6           0        1.126280   -0.182157   -0.073630
      2          6           0       -1.143510   -0.212675    0.081809
      3          1           0        1.258629    1.645700    0.510581
      4          1           0       -1.265181    1.747298   -0.430282
      5          7           0        0.680329    1.162239   -0.184929
      6          7           0       -0.671957    1.129309    0.162507
      7          8           0        2.260670   -0.564831    0.067728
      8          8           0       -2.271590   -0.552703   -0.016435
      9          8           0        0.017336   -1.015571   -0.047846
 ---------------------------------------------------------------------

 SCF Done:  E(RHF) =  -412.136869405     A.U. after    2 cycles

 The electronic state is 1-A.
 Alpha  occ. eigenvalues --  -21.16278 -21.10263 -21.09124 -15.83675 -15.82855
 Alpha  occ. eigenvalues --  -11.58809 -11.56345  -1.93203  -1.76815  -1.69991
 Alpha  occ. eigenvalues --   -1.56030  -1.22648  -0.89623  -0.88969  -0.74538
 Alpha  occ. eigenvalues --   -0.73726  -0.63546  -0.59611  -0.57166  -0.54731
 Alpha  occ. eigenvalues --   -0.52048  -0.50661  -0.37533  -0.36797  -0.35182
 Alpha  occ. eigenvalues --   -0.32612
 Alpha virt. eigenvalues --    0.03183   0.04963   0.08496   0.09698   0.10871
 Alpha virt. eigenvalues --    0.11150   0.11632   0.11872   0.12146   0.14637
 Alpha virt. eigenvalues --    0.15306   0.15651   0.16166   0.17369   0.18619

 Mulliken charges:
               1
     1  C    5.396789
     2  C    5.167093
     3  H    0.679191
     4  H    0.690048
     5  N   -1.785885
     6  N   -1.691466
     7  O   -2.925201
     8  O   -2.911477
     9  O   -2.619091
 Sum of Mulliken charges =  -0.00000

 Dipole moment (field-independent basis, Debye):
    X=             -0.2013    Y=              1.9377    Z=              0.0030  Tot=              1.9481

 Test job not archived.
 1\1\GINC-SE177\SP\RHF\Aug-CC-pVDZ\C2H2N2O3\OHZDE\08-Apr-2025\0\\#t hf
 aug-cc-pvdz iop(5/13=1,5/36=2,99/5=2) pseudo=read geom=check guess=(re
 ad,tcheck) scf=(maxcycle=1)\\title\\0,1\C,0,1.12628,-0.182157,-0.07363
 01\C,0,-1.14351,-0.212673,0.0818088\H,0,1.25863,1.6457,0.510581\H,0,-1
 .26518,1.7473,-0.430282\N,0,0.68033,1.16224,-0.184929\N,0,-0.671956,1.
 12931,0.162507\O,0,2.26067,-0.564831,0.0677283\O,0,-2.27159,-0.552701,
 -0.0164349\O,0,0.0173359,-1.01557,-0.047846\\Version=ES64L-G16RevC.01\
 State=1-A\HF=-412.1368694\RMSD=6.070e-02\Dipole=-0.0792077,0.7623418,0

 Normal termination of Gaussian 16 at Tue Apr  8 21:43:53 2025.
