 Gaussian 16, Revision C.01,

 ----------------------------------------------------------------------
 #t hf aug-cc-pvdz symm=none int=(grid=ultrafine) guess=(read,tcheck) s
 table=(opt,rrhf)
 ----------------------------------------------------------------------
 -----
 title
 -----
 Symbolic Z-matrix:
 Charge =  0 Multiplicity = 1

 SCF Done:  E(RHF) =  -911.520292259     A.U. after   14 cycles
 Normal termination of Gaussian 16 at Tue Apr  8 21:41:56 2025.
 Gaussian 16:  ES64L-G16RevC.01  3-Jul-2019

 ----------------------------------------------------------------------
 #t hf aug-cc-pvdz iop(5/13=1,5/36=2,99/5=2) pseudo=read geom=check gue
 ss=(read,tcheck) scf=(maxcycle=1)
 ----------------------------------------------------------------------
 -----
 title
 -----
 Structure from the checkpoint file:  "ANI1ccx_191_conf16_mol1.chk"
 Charge =  0 Multiplicity = 1

                         Standard orientation:
 ---------------------------------------------------------------------
 Center     Atomic      Atomic             Coordinates (Angstroms)
 Number     Number       Type             X           Y           Z
 ---------------------------------------------------------------------
      1          6           0       -0.979628    2.139550    0.188555
      2          6           0        1.539480   -2.337091   -0.315294
      3          6           0        1.063130   -1.472440    2.090090
      4          6           0        2.019170   -1.420521    0.855449
      5          6           0        3.187671    0.178365   -0.695630
      6          6           0        0.018091   -2.191230   -0.635119
      7          6           0       -3.634470   -0.717602   -0.341121
      8          6           0       -2.718519    0.298341    0.429987
      9          6           0       -1.952879    1.165671   -0.579873
     10          6           0        0.090158    1.392450    0.965195
     11          6           0        2.168921    0.120007    0.399928
     12          1           0        1.085899   -2.533400    2.427310
     13          1           0        3.533230   -0.215132   -2.483080
     14          1           0       -0.577934   -2.653900    0.172028
     15          1           0       -0.318410   -1.126860   -0.808180
     16          1           0       -0.217541   -2.761960   -1.572950
     17          1           0        2.124920   -2.064551   -1.104220
     18          1           0        1.814669   -3.408031   -0.061370
     19          1           0        1.405940   -0.813420    2.896280
     20          1           0        0.047109   -1.143650    1.862250
     21          1           0        3.002170   -1.857511    1.205480
     22          1           0       -5.026080   -1.814908   -0.381165
     23          1           0        0.829902    0.850049   -0.935595
     24          1           0       -3.368589    0.905118    1.053360
     25          1           0       -1.831610   -0.135783    1.045270
     26          1           0       -2.581049    1.852331   -1.157450
     27          1           0       -1.395579    0.507018   -1.371630
     28          1           0       -1.577458    2.639901    0.934030
     29          1           0        0.013234    2.817160   -1.429590
     30          1           0        0.318163    3.620400   -0.233142
     31          1           0        2.607461    0.677133    1.250280
     32          7           0       -0.465283    3.159040   -0.647606
     33          7           0        0.968178    0.820133    0.081783
     34          8           0        4.362451    0.243890   -0.471668
     35          8           0        0.165727    1.322840    2.205650
     36          8           0       -3.688870   -0.702074   -1.564790
     37          8           0       -4.584600   -1.368558    0.368227
     38          8           0        2.718361   -0.011999   -1.977440
 ---------------------------------------------------------------------

 SCF Done:  E(RHF) =  -915.666849042     A.U. after    2 cycles

 The electronic state is 1-A.
 Alpha  occ. eigenvalues --  -21.14127 -21.13696 -21.07454 -21.06172 -21.04158
 Alpha  occ. eigenvalues --  -15.77906 -15.75724 -11.56452 -11.55306 -11.54617
 Alpha  occ. eigenvalues --  -11.48467 -11.47989 -11.45990 -11.45441 -11.42384
 Alpha  occ. eigenvalues --  -11.41159 -11.38994 -11.37102  -1.84764  -1.84051
 Alpha  occ. eigenvalues --   -1.70647  -1.67515  -1.65311  -1.45060  -1.38142
 Alpha  occ. eigenvalues --   -1.24512  -1.20056  -1.10449  -1.05778  -1.02033
 Alpha  occ. eigenvalues --   -0.94153  -0.91566  -0.84762  -0.82327  -0.79811
 Alpha  occ. eigenvalues --   -0.79188  -0.71329  -0.69085  -0.67795  -0.66213
 Alpha  occ. eigenvalues --   -0.64829  -0.63709  -0.62882  -0.62233  -0.61395
 Alpha  occ. eigenvalues --   -0.59684  -0.58863  -0.57837  -0.55933  -0.54835
 Alpha  occ. eigenvalues --   -0.53465  -0.52779  -0.52149  -0.51965  -0.50220
 Alpha  occ. eigenvalues --   -0.49169  -0.48473  -0.47923  -0.47331  -0.45682
 Alpha  occ. eigenvalues --   -0.44379  -0.43390  -0.41691  -0.39468  -0.35724
 Alpha  occ. eigenvalues --   -0.34469  -0.33244  -0.31079  -0.30149  -0.28024
 Alpha virt. eigenvalues --    0.03854   0.04055   0.04222   0.04586   0.05183
 Alpha virt. eigenvalues --    0.05568   0.05949   0.05965   0.06488   0.06594
 Alpha virt. eigenvalues --    0.06796   0.07065   0.07914   0.08199   0.08541

 Mulliken charges:
               1
     1  C   -1.824397
     2  C   -4.446269
     3  C   -5.473166
     4  C    0.437491
     5  C    7.254562
     6  C   -4.788545
     7  C    5.754426
     8  C   -4.945662
     9  C   -2.625432
    10  C    7.566708
    11  C   -4.018007
    12  H    0.890658
    13  H    0.804357
    14  H    1.333084
    15  H    2.898850
    16  H    1.078961
    17  H    1.795310
    18  H    1.345527
    19  H    1.229120
    20  H    2.497843
    21  H    1.603610
    22  H    0.783934
    23  H    0.637971
    24  H    1.164000
    25  H    2.207575
    26  H    1.519643
    27  H    1.785733
    28  H    1.650432
    29  H    0.626803
    30  H    0.595949
    31  H    1.656283
    32  N   -3.502389
    33  N   -0.408506
    34  O   -3.571953
    35  O   -4.228165
    36  O   -2.864363
    37  O   -3.156151
    38  O   -3.265825
 Sum of Mulliken charges =   0.00000

 Dipole moment (field-independent basis, Debye):
    X=             -0.1920    Y=             -1.0309    Z=             -1.3498  Tot=              1.7092

 Test job not archived.
 1\1\GINC-SE051\SP\RHF\Aug-CC-pVDZ\C11H20N2O5\OHZDE\08-Apr-2025\0\\#t h
 f aug-cc-pvdz iop(5/13=1,5/36=2,99/5=2) pseudo=read geom=check guess=(
 read,tcheck) scf=(maxcycle=1)\\title\\0,1\C,0,-0.979629,2.13955,0.1885
 55\C,0,1.53948,-2.33709,-0.315294\C,0,1.06313,-1.47244,2.09009\C,0,2.0
 1917,-1.42052,0.855449\C,0,3.18767,0.178366,-0.69563\C,0,0.018091,-2.1
 9123,-0.635119\C,0,-3.63447,-0.717604,-0.341121\C,0,-2.71852,0.29834,0
 .429987\C,0,-1.95288,1.16567,-0.579873\C,0,0.0901572,1.39245,0.965195\
 C,0,2.16892,0.120008,0.399928\H,0,1.0859,-2.5334,2.42731\H,0,3.53323,-

 Normal termination of Gaussian 16 at Tue Apr  8 21:43:12 2025.
