 Gaussian 16, Revision C.01,

 ----------------------------------------------------------------------
 #t hf aug-cc-pvdz symm=none int=(grid=ultrafine) guess=(read,tcheck) s
 table=(opt,rrhf)
 ----------------------------------------------------------------------
 -----
 title
 -----
 Symbolic Z-matrix:
 Charge =  0 Multiplicity = 1

 SCF Done:  E(RHF) =  -446.825834691     A.U. after   14 cycles
 Normal termination of Gaussian 16 at Tue Apr  8 21:48:19 2025.
 Gaussian 16:  ES64L-G16RevC.01  3-Jul-2019

 ----------------------------------------------------------------------
 #t hf aug-cc-pvdz iop(5/13=1,5/36=2,99/5=2) pseudo=read geom=check gue
 ss=(read,tcheck) scf=(maxcycle=1)
 ----------------------------------------------------------------------
 -----
 title
 -----
 Structure from the checkpoint file:  "ANI1ccx_555_conf4_mol1.chk"
 Charge =  0 Multiplicity = 1

                         Standard orientation:
 ---------------------------------------------------------------------
 Center     Atomic      Atomic             Coordinates (Angstroms)
 Number     Number       Type             X           Y           Z
 ---------------------------------------------------------------------
      1          6           0        1.416208    0.239234   -0.145928
      2          6           0       -1.511142   -0.046466   -0.004540
      3          1           0        3.374658    0.665532    0.329031
      4          1           0        3.137328   -0.888940    0.053424
      5          1           0        1.087538   -1.734020   -0.485283
      6          1           0       -0.807819   -0.468408   -1.787609
      7          1           0       -0.524458   -0.842402    1.500651
      8          1           0       -1.992322    0.032591    1.985881
      9          7           0        2.682108   -0.056424    0.424507
     10          7           0        0.612170   -0.872679   -0.383304
     11          7           0       -0.664389   -0.715153   -0.811479
     12          7           0       -1.343622   -0.313922    1.302151
     13          8           0        0.890502    1.367960   -0.187520
     14          8           0       -2.479152    0.605326   -0.364528
 ---------------------------------------------------------------------

 SCF Done:  E(RHF) =  -448.782852441     A.U. after    2 cycles

 The electronic state is 1-A.
 Alpha  occ. eigenvalues --  -21.04058 -20.99810 -15.81523 -15.80643 -15.79339
 Alpha  occ. eigenvalues --  -15.75722 -11.52688 -11.48676  -1.73417  -1.70074
 Alpha  occ. eigenvalues --   -1.54816  -1.37602  -1.33032  -1.19982  -0.88859
 Alpha  occ. eigenvalues --   -0.83409  -0.77041  -0.73665  -0.72073  -0.66251
 Alpha  occ. eigenvalues --   -0.63059  -0.59078  -0.56621  -0.49944  -0.47897
 Alpha  occ. eigenvalues --   -0.43504  -0.37564  -0.34602  -0.31920  -0.29669
 Alpha  occ. eigenvalues --   -0.28032
 Alpha virt. eigenvalues --    0.02054   0.04144   0.04959   0.05490   0.06448
 Alpha virt. eigenvalues --    0.07523   0.10029   0.11493   0.12318   0.12689
 Alpha virt. eigenvalues --    0.13860   0.15151   0.15392   0.16211   0.16712

 Mulliken charges:
               1
     1  C    5.245119
     2  C    6.004305
     3  H    0.653165
     4  H    0.626695
     5  H    0.857878
     6  H    0.585767
     7  H    0.756347
     8  H    0.671886
     9  N   -2.798476
    10  N   -1.710509
    11  N   -2.192412
    12  N   -2.828991
    13  O   -2.757857
    14  O   -3.112918
 Sum of Mulliken charges =  -0.00000

 Dipole moment (field-independent basis, Debye):
    X=              4.2660    Y=             -2.7666    Z=              0.2177  Tot=              5.0892

 Test job not archived.
 1\1\GINC-SE365\SP\RHF\Aug-CC-pVDZ\C2H6N4O2\OHZDE\08-Apr-2025\0\\#t hf
 aug-cc-pvdz iop(5/13=1,5/36=2,99/5=2) pseudo=read geom=check guess=(re
 ad,tcheck) scf=(maxcycle=1)\\title\\0,1\C,0,1.41621,0.239234,-0.145929
 \C,0,-1.51114,-0.046466,-0.00454057\H,0,3.37466,0.665533,0.32903\H,0,3
 .13733,-0.888939,0.0534232\H,0,1.08754,-1.73402,-0.485284\H,0,-0.80781
 7,-0.468408,-1.78761\H,0,-0.524456,-0.842402,1.50065\H,0,-1.99232,0.03
 25911,1.98588\N,0,2.68211,-0.0564235,0.424506\N,0,0.612172,-0.872679,-
 0.383305\N,0,-0.664387,-0.715153,-0.81148\N,0,-1.34362,-0.313922,1.302

 Normal termination of Gaussian 16 at Tue Apr  8 21:48:24 2025.
