 Gaussian 16, Revision C.01,

 ----------------------------------------------------------------------
 #t hf aug-cc-pvdz symm=none int=(grid=ultrafine) guess=(read,tcheck) s
 table=(opt,rrhf)
 ----------------------------------------------------------------------
 -----
 title
 -----
 Symbolic Z-matrix:
 Charge =  0 Multiplicity = 1

 SCF Done:  E(RHF) =  -480.777385868     A.U. after   14 cycles
 Normal termination of Gaussian 16 at Tue Apr  8 21:49:23 2025.
 Gaussian 16:  ES64L-G16RevC.01  3-Jul-2019

 ----------------------------------------------------------------------
 #t hf aug-cc-pvdz iop(5/13=1,5/36=2,99/5=2) pseudo=read geom=check gue
 ss=(read,tcheck) scf=(maxcycle=1)
 ----------------------------------------------------------------------
 -----
 title
 -----
 Structure from the checkpoint file:  "ANI1ccx_558_conf3_mol2.chk"
 Charge =  0 Multiplicity = 1

                         Standard orientation:
 ---------------------------------------------------------------------
 Center     Atomic      Atomic             Coordinates (Angstroms)
 Number     Number       Type             X           Y           Z
 ---------------------------------------------------------------------
      1          6           0        1.181699   -0.719287   -0.094107
      2          6           0       -1.102081   -0.679812    0.126145
      3          1           0       -2.026026    1.943834    0.397841
      4          1           0       -1.979437    1.280843   -1.095390
      5          1           0        1.215255    2.522947   -0.252139
      6          1           0        1.424554    1.825267    1.216580
      7          1           0       -0.038107   -2.491960    0.012357
      8          1           0       -2.544514   -1.979775    0.046019
      9          7           0       -1.396746    1.630362   -0.328664
     10          7           0       -0.648334    0.641246    0.281957
     11          7           0        0.689464    0.593053   -0.210195
     12          7           0        1.507194    1.648807    0.214871
     13          7           0        0.048425   -1.501871    0.066503
     14          7           0       -2.359542   -0.978106    0.084758
     15          8           0        2.323418   -1.117625   -0.160263
 ---------------------------------------------------------------------

 SCF Done:  E(RHF) =  -482.907467831     A.U. after    2 cycles

 The electronic state is 1-A.
 Alpha  occ. eigenvalues --  -21.04788 -15.81061 -15.80659 -15.79807 -15.78295
 Alpha  occ. eigenvalues --  -15.77692 -15.74169 -11.54012 -11.51279  -1.75611
 Alpha  occ. eigenvalues --   -1.66703  -1.46044  -1.43807  -1.29701  -1.20264
 Alpha  occ. eigenvalues --   -1.07133  -0.89545  -0.83821  -0.75047  -0.74314
 Alpha  occ. eigenvalues --   -0.69396  -0.66320  -0.63849  -0.62587  -0.59397
 Alpha  occ. eigenvalues --   -0.53097  -0.49950  -0.47531  -0.42920  -0.42215
 Alpha  occ. eigenvalues --   -0.38745  -0.34119  -0.31128  -0.30188
 Alpha virt. eigenvalues --    0.03434   0.04781   0.05477   0.06150   0.06427
 Alpha virt. eigenvalues --    0.07079   0.10244   0.10445   0.11710   0.12577
 Alpha virt. eigenvalues --    0.13149   0.13669   0.14894   0.15038   0.15392

 Mulliken charges:
               1
     1  C    5.480659
     2  C    4.257331
     3  H    0.687327
     4  H    0.677446
     5  H    0.752095
     6  H    0.627201
     7  H    0.725713
     8  H    0.629536
     9  N   -2.163776
    10  N   -0.614975
    11  N   -0.783598
    12  N   -1.807832
    13  N   -2.322213
    14  N   -2.923325
    15  O   -3.221590
 Sum of Mulliken charges =  -0.00000

 Dipole moment (field-independent basis, Debye):
    X=             -1.4982    Y=              0.2303    Z=              0.4907  Tot=              1.5932

 Test job not archived.
 1\1\GINC-SE009\SP\RHF\Aug-CC-pVDZ\C2H6N6O1\OHZDE\08-Apr-2025\0\\#t hf
 aug-cc-pvdz iop(5/13=1,5/36=2,99/5=2) pseudo=read geom=check guess=(re
 ad,tcheck) scf=(maxcycle=1)\\title\\0,1\C,0,1.1817,-0.719284,-0.094106
 8\C,0,-1.10208,-0.679814,0.126145\H,0,-2.02603,1.94383,0.397841\H,0,-1
 .97944,1.28084,-1.09539\H,0,1.21525,2.52295,-0.252139\H,0,1.42455,1.82
 527,1.21658\H,0,-0.0381025,-2.49196,0.0123571\H,0,-2.54451,-1.97978,0.
 0460192\N,0,-1.39675,1.63036,-0.328664\N,0,-0.648336,0.641245,0.281957
 \N,0,0.689463,0.593055,-0.210195\N,0,1.50719,1.64881,0.214871\N,0,0.04

 Normal termination of Gaussian 16 at Tue Apr  8 21:49:29 2025.
