 Gaussian 16, Revision C.01,

 ----------------------------------------------------------------------
 #t hf aug-cc-pvdz symm=none int=(grid=ultrafine) guess=(read,tcheck) s
 table=(opt,rrhf)
 ----------------------------------------------------------------------
 -----
 title
 -----
 Symbolic Z-matrix:
 Charge =  0 Multiplicity = 1

 SCF Done:  E(RHF) =  -466.562127552     A.U. after   14 cycles
 Normal termination of Gaussian 16 at Tue Apr  8 21:47:14 2025.
 Gaussian 16:  ES64L-G16RevC.01  3-Jul-2019

 ----------------------------------------------------------------------
 #t hf aug-cc-pvdz iop(5/13=1,5/36=2,99/5=2) pseudo=read geom=check gue
 ss=(read,tcheck) scf=(maxcycle=1)
 ----------------------------------------------------------------------
 -----
 title
 -----
 Structure from the checkpoint file:  "ANI1ccx_540_conf24_mol1.chk"
 Charge =  0 Multiplicity = 1

                         Standard orientation:
 ---------------------------------------------------------------------
 Center     Atomic      Atomic             Coordinates (Angstroms)
 Number     Number       Type             X           Y           Z
 ---------------------------------------------------------------------
      1          6           0       -1.745609    0.006296    0.003122
      2          6           0        0.874976   -0.545253    0.011668
      3          1           0       -0.482279    1.546850   -0.761768
      4          1           0       -2.218779    1.864610   -0.335927
      5          1           0       -0.818735   -1.775640    0.535685
      6          1           0        0.742981    1.182990    0.830362
      7          1           0        2.763181   -0.014102    0.080502
      8          7           0       -1.429169    1.373040   -0.178973
      9          7           0       -0.492738   -0.764931    0.517721
     10          7           0        1.163631    0.744466    0.045625
     11          8           0       -2.841559   -0.554745   -0.074135
     12          8           0        1.684400   -1.474530   -0.422211
     13          8           0        2.475331    0.899402    0.105320
 ---------------------------------------------------------------------

 SCF Done:  E(RHF) =  -468.569588628     A.U. after    2 cycles

 The electronic state is 1-A.
 Alpha  occ. eigenvalues --  -21.12296 -21.08216 -21.07501 -15.84116 -15.80733
 Alpha  occ. eigenvalues --  -15.79985 -11.55904 -11.54807  -1.91166  -1.73551
 Alpha  occ. eigenvalues --   -1.68831  -1.42326  -1.33692  -1.25419  -0.90553
 Alpha  occ. eigenvalues --   -0.85745  -0.75948  -0.74808  -0.71180  -0.62927
 Alpha  occ. eigenvalues --   -0.60156  -0.58906  -0.54862  -0.52587  -0.48366
 Alpha  occ. eigenvalues --   -0.45334  -0.40429  -0.37205  -0.33912  -0.32701
 Alpha  occ. eigenvalues --   -0.30936
 Alpha virt. eigenvalues --    0.03397   0.05339   0.06015   0.06119   0.07044
 Alpha virt. eigenvalues --    0.09957   0.10824   0.11079   0.11614   0.12494
 Alpha virt. eigenvalues --    0.14045   0.14646   0.14848   0.15593   0.16269

 Mulliken charges:
               1
     1  C    4.597129
     2  C    4.758788
     3  H    0.652244
     4  H    0.635809
     5  H    0.422277
     6  H    0.869628
     7  H    0.694989
     8  N   -2.433709
     9  N   -2.107681
    10  N    0.192182
    11  O   -2.702743
    12  O   -2.700727
    13  O   -2.878187
 Sum of Mulliken charges =  -0.00000

 Dipole moment (field-independent basis, Debye):
    X=             -0.3644    Y=              1.5781    Z=             -0.0180  Tot=              1.6197

 Test job not archived.
 1\1\GINC-SE343\SP\RHF\Aug-CC-pVDZ\C2H5N3O3\OHZDE\08-Apr-2025\0\\#t hf
 aug-cc-pvdz iop(5/13=1,5/36=2,99/5=2) pseudo=read geom=check guess=(re
 ad,tcheck) scf=(maxcycle=1)\\title\\0,1\C,0,-1.74561,0.00629625,0.0031
 2146\C,0,0.874975,-0.545253,0.0116676\H,0,-0.48228,1.54685,-0.761768\H
 ,0,-2.21878,1.86461,-0.335927\H,0,-0.818735,-1.77564,0.535685\H,0,0.74
 298,1.18299,0.830362\H,0,2.76318,-0.0141018,0.0805018\N,0,-1.42917,1.3
 7304,-0.178973\N,0,-0.492739,-0.764931,0.517721\N,0,1.16363,0.744466,0
 .045625\O,0,-2.84156,-0.554745,-0.0741346\O,0,1.6844,-1.47453,-0.42221

 Normal termination of Gaussian 16 at Tue Apr  8 21:47:18 2025.
