 Gaussian 16, Revision C.01,

 ----------------------------------------------------------------------
 #t hf aug-cc-pvdz symm=none int=(grid=ultrafine) guess=(read,tcheck) s
 table=(opt,rrhf)
 ----------------------------------------------------------------------
 -----
 title
 -----
 Symbolic Z-matrix:
 Charge =  0 Multiplicity = 1

 SCF Done:  E(RHF) =  -848.840395353     A.U. after   15 cycles
 Normal termination of Gaussian 16 at Tue Apr  8 21:28:44 2025.
 Gaussian 16:  ES64L-G16RevC.01  3-Jul-2019

 ----------------------------------------------------------------------
 #t hf aug-cc-pvdz iop(5/13=1,5/36=2,99/5=2) pseudo=read geom=check gue
 ss=(read,tcheck) scf=(maxcycle=1)
 ----------------------------------------------------------------------
 -----
 title
 -----
 Structure from the checkpoint file:  "ANI1ccx_1786_conf16_mol2.chk"
 Charge =  0 Multiplicity = 1

                         Standard orientation:
 ---------------------------------------------------------------------
 Center     Atomic      Atomic             Coordinates (Angstroms)
 Number     Number       Type             X           Y           Z
 ---------------------------------------------------------------------
      1          6           0        2.121467   -1.259247    0.554035
      2          6           0       -2.192612   -0.794526   -0.641181
      3          6           0       -1.688674   -1.515666    0.653464
      4          6           0       -0.392604    2.500040    0.051130
      5          6           0       -2.539503   -1.180603    1.866190
      6          6           0        2.609124    1.284641   -0.051785
      7          6           0        2.392651    0.220285    1.059650
      8          6           0        0.712855   -1.656693    0.182273
      9          6           0        1.509815    1.447565   -1.083230
     10          1           0       -2.366954    1.902936   -0.465872
     11          1           0       -0.923605   -1.941998   -1.475060
     12          1           0       -2.152164   -1.639355    2.796030
     13          1           0       -3.601264   -1.429370    1.777760
     14          1           0       -2.452910   -0.099970    2.036420
     15          1           0       -1.674527   -2.601686    0.498657
     16          1           0       -0.159401   -0.116281    1.049740
     17          1           0       -2.070700    3.429685    0.201081
     18          1           0        1.062629    3.037036    1.188830
     19          1           0        1.657067    2.336864   -1.748380
     20          1           0        3.995835   -1.653243   -0.117458
     21          1           0        1.622482    0.560459   -1.748180
     22          1           0        3.556544    1.130909   -0.609642
     23          1           0        2.719937    2.287561    0.423889
     24          1           0        1.630352    0.541868    1.786620
     25          1           0        3.363761    0.172132    1.592340
     26          1           0        2.380555   -1.926238    1.417970
     27          1           0        2.754193   -2.493769   -0.899435
     28          1           0       -0.471649    1.029980   -1.327420
     29          7           0        3.057846   -1.608180   -0.516845
     30          7           0        0.131324    1.401759   -0.598530
     31          7           0        0.108882    3.286599    0.916872
     32          7           0       -1.706012    2.692014   -0.382508
     33          7           0       -0.283479   -1.123540    0.949065
     34          8           0       -2.985569    0.119201   -0.629212
     35          8           0        0.444061   -2.509252   -0.688130
     36          8           0       -1.611643   -1.277806   -1.744850
 ---------------------------------------------------------------------

 SCF Done:  E(RHF) =  -852.742589785     A.U. after    2 cycles

 The electronic state is 1-A.
 Alpha  occ. eigenvalues --  -21.11368 -21.06547 -21.06464 -15.78353 -15.74877
 Alpha  occ. eigenvalues --  -15.74864 -15.73017 -15.69864 -11.57386 -11.56476
 Alpha  occ. eigenvalues --  -11.48736 -11.47657 -11.47392 -11.47166 -11.44033
 Alpha  occ. eigenvalues --  -11.39829 -11.39148  -1.83190  -1.75045  -1.67458
 Alpha  occ. eigenvalues --   -1.49744  -1.43573  -1.37031  -1.31477  -1.22260
 Alpha  occ. eigenvalues --   -1.18548  -1.16236  -1.05273  -0.98398  -0.95266
 Alpha  occ. eigenvalues --   -0.87322  -0.81339  -0.80191  -0.78871  -0.74064
 Alpha  occ. eigenvalues --   -0.72720  -0.71747  -0.68264  -0.68088  -0.66299
 Alpha  occ. eigenvalues --   -0.63613  -0.62699  -0.61274  -0.59892  -0.57256
 Alpha  occ. eigenvalues --   -0.56878  -0.56279  -0.55204  -0.54432  -0.53074
 Alpha  occ. eigenvalues --   -0.51573  -0.50482  -0.49250  -0.48967  -0.47757
 Alpha  occ. eigenvalues --   -0.46762  -0.46068  -0.44892  -0.38538  -0.37860
 Alpha  occ. eigenvalues --   -0.37057  -0.35579  -0.34130  -0.32410  -0.31708
 Alpha  occ. eigenvalues --   -0.29421
 Alpha virt. eigenvalues --    0.03245   0.03977   0.04211   0.04672   0.04772
 Alpha virt. eigenvalues --    0.05349   0.05679   0.06149   0.06678   0.06716
 Alpha virt. eigenvalues --    0.07307   0.07579   0.07899   0.08349   0.08531

 Mulliken charges:
               1
     1  C    0.257459
     2  C    6.712233
     3  C   -2.877072
     4  C    5.456545
     5  C   -3.972161
     6  C   -1.679062
     7  C   -3.421862
     8  C    6.613983
     9  C   -4.187175
    10  H    0.817394
    11  H    1.531312
    12  H    1.365709
    13  H    1.197729
    14  H    1.394703
    15  H    2.104014
    16  H    1.348616
    17  H    0.585978
    18  H    0.665859
    19  H    1.281327
    20  H    0.554477
    21  H    1.739083
    22  H    1.164404
    23  H    1.433917
    24  H    1.420946
    25  H    1.305808
    26  H    1.584956
    27  H    0.649343
    28  H    0.515381
    29  N   -3.164884
    30  N   -0.474866
    31  N   -3.651327
    32  N   -3.213550
    33  N   -3.825267
    34  O   -3.645673
    35  O   -4.053457
    36  O   -3.534819
 Sum of Mulliken charges =  -0.00000

 Dipole moment (field-independent basis, Debye):
    X=              2.0573    Y=             -3.4757    Z=              0.4931  Tot=              4.0689

 Test job not archived.
 1\1\GINC-SE127\SP\RHF\Aug-CC-pVDZ\C9H19N5O3\OHZDE\08-Apr-2025\0\\#t hf
  aug-cc-pvdz iop(5/13=1,5/36=2,99/5=2) pseudo=read geom=check guess=(r
 ead,tcheck) scf=(maxcycle=1)\\title\\0,1\C,0,2.12147,-1.25924,0.554035
 \C,0,-2.19261,-0.794531,-0.641181\C,0,-1.68867,-1.51567,0.653464\C,0,-
 0.392612,2.50004,0.0511304\C,0,-2.5395,-1.18061,1.86619\C,0,2.60912,1.
 28465,-0.0517852\C,0,2.39265,0.220293,1.05965\C,0,0.71286,-1.65669,0.1
 82273\C,0,1.50981,1.44757,-1.08323\H,0,-2.36696,1.90293,-0.465872\H,0,
 -0.9236,-1.942,-1.47506\H,0,-2.15216,-1.63936,2.79603\H,0,-3.60126,-1.

 Normal termination of Gaussian 16 at Tue Apr  8 21:29:48 2025.
