 Gaussian 16, Revision C.01,

 ----------------------------------------------------------------------
 #t hf aug-cc-pvdz symm=none int=(grid=ultrafine) guess=(read,tcheck) s
 table=(opt,rrhf)
 ----------------------------------------------------------------------
 -----
 title
 -----
 Symbolic Z-matrix:
 Charge =  0 Multiplicity = 1

 SCF Done:  E(RHF) =  -456.266790540     A.U. after   11 cycles
 Normal termination of Gaussian 16 at Tue Apr  8 21:07:46 2025.
 Gaussian 16:  ES64L-G16RevC.01  3-Jul-2019

 ----------------------------------------------------------------------
 #t hf aug-cc-pvdz iop(5/13=1,5/36=2,99/5=2) pseudo=read geom=check gue
 ss=(read,tcheck) scf=(maxcycle=1)
 ----------------------------------------------------------------------
 -----
 title
 -----
 Structure from the checkpoint file:  "ANI1ccx_1844_conf114_mol1.chk"
 Charge =  0 Multiplicity = 1

                         Standard orientation:
 ---------------------------------------------------------------------
 Center     Atomic      Atomic             Coordinates (Angstroms)
 Number     Number       Type             X           Y           Z
 ---------------------------------------------------------------------
      1          1           0       -2.331711   -0.616366   -0.674423
      2          1           0        1.921472    1.965017   -1.332420
      3          1           0        2.356460    0.507589   -0.685266
      4          1           0       -2.468809    1.627313   -1.196200
      5          1           0       -1.763859    1.394222    0.090081
      6          1           0       -0.021097    2.022420    1.671450
      7          1           0       -2.922173   -1.892137    0.012503
      8          1           0        0.713017    1.557199    0.339570
      9          1           0        0.015845   -0.524076    1.114570
     10          1           0       -0.574829   -1.742420    0.326834
     11          1           0        1.602188   -1.354922   -0.063258
     12          1           0        3.106458   -1.416224    0.342631
     13          8           0       -2.589519    1.159533   -0.371624
     14          8           0        0.219891   -1.482061    0.827474
     15          8           0        2.133541    1.476197   -0.473407
     16          8           0       -0.105839    1.441070    0.933367
     17          8           0       -2.112712   -1.555998   -0.453762
     18          8           0        2.500518   -1.229693   -0.455307
 ---------------------------------------------------------------------

 SCF Done:  E(RHF) =  -458.251544654     A.U. after    2 cycles

 The electronic state is 1-A.
 Alpha  occ. eigenvalues --  -21.10061 -21.09429 -21.08941 -21.07834 -21.06385
 Alpha  occ. eigenvalues --  -21.05276  -1.69578  -1.67804  -1.66268  -1.65059
 Alpha  occ. eigenvalues --   -1.63666  -1.60876  -0.66675  -0.64643  -0.64337
 Alpha  occ. eigenvalues --   -0.62848  -0.62630  -0.60859  -0.53750  -0.50044
 Alpha  occ. eigenvalues --   -0.48738  -0.46200  -0.44694  -0.40730  -0.36401
 Alpha  occ. eigenvalues --   -0.35517  -0.35150  -0.33833  -0.33194  -0.31710
 Alpha virt. eigenvalues --    0.03235   0.04735   0.05145   0.05659   0.06017
 Alpha virt. eigenvalues --    0.07567   0.08118   0.08588   0.09313   0.09939
 Alpha virt. eigenvalues --    0.11308   0.12326   0.16845   0.19113   0.20192

 Mulliken charges:
               1
     1  H    1.403997
     2  H    0.771520
     3  H    1.315215
     4  H    0.773276
     5  H    1.562689
     6  H    0.927375
     7  H    0.804537
     8  H    1.909361
     9  H    1.287781
    10  H    1.508111
    11  H    1.766347
    12  H    0.700885
    13  O   -2.143682
    14  O   -2.819684
    15  O   -2.240234
    16  O   -2.962865
    17  O   -2.270531
    18  O   -2.294099
 Sum of Mulliken charges =  -0.00000

 Dipole moment (field-independent basis, Debye):
    X=             -0.4268    Y=              1.7419    Z=             -0.0174  Tot=              1.7935

 Test job not archived.
 1\1\GINC-SE393\SP\RHF\Aug-CC-pVDZ\H12O6\OHZDE\08-Apr-2025\0\\#t hf aug
 -cc-pvdz iop(5/13=1,5/36=2,99/5=2) pseudo=read geom=check guess=(read,
 tcheck) scf=(maxcycle=1)\\title\\0,1\H,0,-2.33171,-0.616368,-0.674423\
 H,0,1.92147,1.96502,-1.33242\H,0,2.35646,0.507592,-0.685266\H,0,-2.468
 81,1.62731,-1.1962\H,0,-1.76386,1.39422,0.0900811\H,0,-0.0210985,2.022
 42,1.67145\H,0,-2.92217,-1.89214,0.0125029\H,0,0.713016,1.5572,0.33957
 \H,0,0.0158463,-0.524076,1.11457\H,0,-0.574826,-1.74242,0.326834\H,0,1
 .60219,-1.35492,-0.0632578\H,0,3.10646,-1.41622,0.342631\O,0,-2.58952,

 Normal termination of Gaussian 16 at Tue Apr  8 21:07:51 2025.
