 Gaussian 16, Revision C.01,

 ----------------------------------------------------------------------
 #t hf aug-cc-pvdz symm=none int=(grid=ultrafine) guess=(read,tcheck) s
 table=(opt,rrhf)
 ----------------------------------------------------------------------
 -----
 title
 -----
 Symbolic Z-matrix:
 Charge =  0 Multiplicity = 1

 SCF Done:  E(RHF) =  -542.445388868     A.U. after   14 cycles
 Normal termination of Gaussian 16 at Tue Apr  8 22:11:03 2025.
 Gaussian 16:  ES64L-G16RevC.01  3-Jul-2019

 ----------------------------------------------------------------------
 #t hf aug-cc-pvdz iop(5/13=1,5/36=2,99/5=2) pseudo=read geom=check gue
 ss=(read,tcheck) scf=(maxcycle=1)
 ----------------------------------------------------------------------
 -----
 title
 -----
 Structure from the checkpoint file:  "ANI1ccx_904_conf1_mol2.chk"
 Charge =  0 Multiplicity = 1

                         Standard orientation:
 ---------------------------------------------------------------------
 Center     Atomic      Atomic             Coordinates (Angstroms)
 Number     Number       Type             X           Y           Z
 ---------------------------------------------------------------------
      1          6           0        1.200191    0.048411   -0.321076
      2          6           0        0.301593    1.324451   -0.194268
      3          6           0       -1.677339   -0.131070    0.050047
      4          6           0        0.485538   -1.257149   -0.206636
      5          1           0        2.849040   -0.561311    0.590573
      6          1           0        2.545441    1.046250    0.760450
      7          1           0        1.557441    0.089147   -1.324860
      8          1           0       -1.620389    1.904681    0.024039
      9          1           0       -1.340710   -2.022839    0.497788
     10          7           0        2.167561    0.131776    0.650016
     11          7           0       -1.070489    1.125601   -0.307368
     12          7           0       -0.872760   -1.296119    0.044550
     13          8           0        0.773097    2.403430   -0.014592
     14          8           0       -2.851109   -0.145174    0.309460
     15          8           0        1.150400   -2.269830   -0.198215
 ---------------------------------------------------------------------

 SCF Done:  E(RHF) =  -544.775014806     A.U. after    2 cycles

 The electronic state is 1-A.
 Alpha  occ. eigenvalues --  -21.08042 -21.07902 -21.07178 -15.83161 -15.81875
 Alpha  occ. eigenvalues --  -15.76172 -11.56753 -11.56128 -11.55272 -11.46177
 Alpha  occ. eigenvalues --   -1.78839  -1.76311  -1.74816  -1.47121  -1.39689
 Alpha  occ. eigenvalues --   -1.38313  -1.09548  -0.92722  -0.91836  -0.83078
 Alpha  occ. eigenvalues --   -0.78220  -0.72786  -0.67832  -0.63471  -0.62596
 Alpha  occ. eigenvalues --   -0.60327  -0.58667  -0.56878  -0.53620  -0.51569
 Alpha  occ. eigenvalues --   -0.47126  -0.40066  -0.38492  -0.35925  -0.35122
 Alpha  occ. eigenvalues --   -0.33692  -0.29548
 Alpha virt. eigenvalues --    0.03325   0.05391   0.06012   0.06250   0.07124
 Alpha virt. eigenvalues --    0.08923   0.09507   0.10112   0.10163   0.11307
 Alpha virt. eigenvalues --    0.12267   0.12798   0.13650   0.13753   0.14261

 Mulliken charges:
               1
     1  C   -2.286347
     2  C    5.777727
     3  C    4.772998
     4  C    5.711538
     5  H    0.579558
     6  H    0.607716
     7  H    1.687851
     8  H    0.533988
     9  H    0.610524
    10  N   -2.623821
    11  N   -2.695157
    12  N   -2.560782
    13  O   -3.506582
    14  O   -3.096567
    15  O   -3.512642
 Sum of Mulliken charges =  -0.00000

 Dipole moment (field-independent basis, Debye):
    X=              0.7720    Y=              0.1342    Z=             -0.0009  Tot=              0.7836

 Test job not archived.
 1\1\GINC-SE250\SP\RHF\Aug-CC-pVDZ\C4H5N3O3\OHZDE\08-Apr-2025\0\\#t hf
 aug-cc-pvdz iop(5/13=1,5/36=2,99/5=2) pseudo=read geom=check guess=(re
 ad,tcheck) scf=(maxcycle=1)\\title\\0,1\C,0,1.20019,0.0484103,-0.32107
 6\C,0,0.301592,1.32445,-0.194268\C,0,-1.67734,-0.131071,0.0500472\C,0,
 0.485538,-1.25715,-0.206636\H,0,2.84904,-0.561311,0.590573\H,0,2.54544
 ,1.04625,0.76045\H,0,1.55744,0.0891465,-1.32486\H,0,-1.62039,1.90468,0
 .0240389\H,0,-1.34071,-2.02284,0.497788\N,0,2.16756,0.131776,0.650016\
 N,0,-1.07049,1.1256,-0.307368\N,0,-0.87276,-1.29612,0.0445502\O,0,0.77

 Normal termination of Gaussian 16 at Tue Apr  8 22:11:10 2025.
