 Gaussian 16, Revision C.01,

 ----------------------------------------------------------------------
 #t hf aug-cc-pvdz symm=none int=(grid=ultrafine) guess=(read,tcheck) s
 table=(opt,rrhf)
 ----------------------------------------------------------------------
 -----
 title
 -----
 Symbolic Z-matrix:
 Charge =  0 Multiplicity = 1

 SCF Done:  E(RHF) =  -532.268721000     A.U. after   11 cycles
 Normal termination of Gaussian 16 at Tue Apr  8 21:12:17 2025.
 Gaussian 16:  ES64L-G16RevC.01  3-Jul-2019

 ----------------------------------------------------------------------
 #t hf aug-cc-pvdz iop(5/13=1,5/36=2,99/5=2) pseudo=read geom=check gue
 ss=(read,tcheck) scf=(maxcycle=1)
 ----------------------------------------------------------------------
 -----
 title
 -----
 Structure from the checkpoint file:  "ANI1ccx_1845_conf465_mol1.chk"
 Charge =  0 Multiplicity = 1

                         Standard orientation:
 ---------------------------------------------------------------------
 Center     Atomic      Atomic             Coordinates (Angstroms)
 Number     Number       Type             X           Y           Z
 ---------------------------------------------------------------------
      1          1           0        0.933604   -1.204969    0.501689
      2          1           0       -2.013759   -0.439684   -1.219770
      3          1           0       -2.735769   -1.194528   -0.117733
      4          1           0       -2.452429    0.679161    0.677198
      5          1           0        1.948451   -0.002946    2.232190
      6          1           0        2.548071   -1.319499    1.856700
      7          1           0       -0.617942    1.802661    0.345934
      8          1           0       -3.844909    1.335492    0.462859
      9          1           0        3.219261   -0.079823   -1.992560
     10          1           0        1.979191   -0.875089   -1.007180
     11          1           0        2.111861    1.275671   -0.408331
     12          1           0        1.136331    2.288431   -0.832932
     13          1           0       -0.564376   -1.494099   -0.436029
     14          1           0       -0.180174    0.384725   -0.041549
     15          8           0       -3.409179    0.514261    0.655657
     16          8           0        0.393919   -1.264179   -0.311348
     17          8           0        1.531411    2.008061   -0.022579
     18          8           0        2.712111   -0.228106   -1.119160
     19          8           0       -0.948959    1.037651   -0.217734
     20          8           0        1.716271   -0.903417    1.948230
     21          8           0       -2.178999   -1.308709   -0.935628
 ---------------------------------------------------------------------

 SCF Done:  E(RHF) =  -534.559173228     A.U. after    2 cycles

 The electronic state is 1-A.
 Alpha  occ. eigenvalues --  -21.13604 -21.08466 -21.07913 -21.07236 -21.07146
 Alpha  occ. eigenvalues --  -21.06810 -21.05171  -1.71930  -1.68929  -1.66661
 Alpha  occ. eigenvalues --   -1.65440  -1.64450  -1.64159  -1.61699  -0.70901
 Alpha  occ. eigenvalues --   -0.66879  -0.65840  -0.64819  -0.63371  -0.61893
 Alpha  occ. eigenvalues --   -0.60146  -0.52244  -0.50870  -0.49353  -0.47878
 Alpha  occ. eigenvalues --   -0.44578  -0.43141  -0.39966  -0.37819  -0.36165
 Alpha  occ. eigenvalues --   -0.35446  -0.33896  -0.32869  -0.32398  -0.30485
 Alpha virt. eigenvalues --    0.03497   0.04303   0.04780   0.05809   0.06287
 Alpha virt. eigenvalues --    0.07420   0.07620   0.07895   0.08882   0.09693
 Alpha virt. eigenvalues --    0.10131   0.10733   0.11356   0.13365   0.18451

 Mulliken charges:
               1
     1  H    1.686210
     2  H    1.296211
     3  H    0.931890
     4  H    1.484990
     5  H    0.921887
     6  H    0.871998
     7  H    0.747716
     8  H    0.835424
     9  H    0.961370
    10  H    1.375510
    11  H    1.374863
    12  H    0.871741
    13  H    1.579377
    14  H    1.919830
    15  O   -2.092569
    16  O   -3.107555
    17  O   -1.962588
    18  O   -2.410307
    19  O   -2.559195
    20  O   -2.179877
    21  O   -2.546925
 Sum of Mulliken charges =  -0.00000

 Dipole moment (field-independent basis, Debye):
    X=              1.6441    Y=              0.3787    Z=              0.2033  Tot=              1.6994

 Test job not archived.
 1\1\GINC-SE099\SP\RHF\Aug-CC-pVDZ\H14O7\OHZDE\08-Apr-2025\0\\#t hf aug
 -cc-pvdz iop(5/13=1,5/36=2,99/5=2) pseudo=read geom=check guess=(read,
 tcheck) scf=(maxcycle=1)\\title\\0,1\H,0,0.933603,-1.20497,0.501689\H,
 0,-2.01376,-0.439685,-1.21977\H,0,-2.73577,-1.19453,-0.117733\H,0,-2.4
 5243,0.679159,0.677198\H,0,1.94845,-0.00294667,2.23219\H,0,2.54807,-1.
 3195,1.8567\H,0,-0.617943,1.80266,0.345934\H,0,-3.84491,1.33549,0.4628
 59\H,0,3.21926,-0.0798234,-1.99256\H,0,1.97919,-0.87509,-1.00718\H,0,2
 .11186,1.27567,-0.408331\H,0,1.13633,2.28843,-0.832932\H,0,-0.564377,-

 Normal termination of Gaussian 16 at Tue Apr  8 21:12:25 2025.
