 Gaussian 16, Revision C.01,

 ----------------------------------------------------------------------
 #t hf aug-cc-pvdz symm=none int=(grid=ultrafine) guess=(read,tcheck) s
 table=(opt,rrhf)
 ----------------------------------------------------------------------
 -----
 title
 -----
 Symbolic Z-matrix:
 Charge =  0 Multiplicity = 1

 SCF Done:  E(RHF) =  -276.582015858     A.U. after   15 cycles
 Normal termination of Gaussian 16 at Tue Apr  8 21:32:30 2025.
 Gaussian 16:  ES64L-G16RevC.01  3-Jul-2019

 ----------------------------------------------------------------------
 #t hf aug-cc-pvdz iop(5/13=1,5/36=2,99/5=2) pseudo=read geom=check gue
 ss=(read,tcheck) scf=(maxcycle=1)
 ----------------------------------------------------------------------
 -----
 title
 -----
 Structure from the checkpoint file:  "ANI1ccx_370_conf81_mol1.chk"
 Charge =  0 Multiplicity = 1

                         Standard orientation:
 ---------------------------------------------------------------------
 Center     Atomic      Atomic             Coordinates (Angstroms)
 Number     Number       Type             X           Y           Z
 ---------------------------------------------------------------------
      1          6           0       -1.053330    0.208845    0.071721
      2          1           0       -2.168110    0.197089   -0.059383
      3          7           0       -0.150813    1.164281   -0.024060
      4          7           0        1.059631    0.505598   -0.013068
      5          7           0        0.856295   -0.759867    0.036507
      6          8           0       -0.483463   -0.977530   -0.045824
 ---------------------------------------------------------------------

 SCF Done:  E(RHF) =  -277.748109889     A.U. after    2 cycles

 The electronic state is 1-A.
 Alpha  occ. eigenvalues --  -21.19029 -15.85842 -15.84000 -15.79713 -11.50556
 Alpha  occ. eigenvalues --   -2.00741  -1.54542  -1.33069  -0.91751  -0.90431
 Alpha  occ. eigenvalues --   -0.76037  -0.70068  -0.59330  -0.49639  -0.45820
 Alpha  occ. eigenvalues --   -0.43877  -0.42585  -0.42226
 Alpha virt. eigenvalues --    0.03083   0.08910   0.08948   0.09951   0.13177
 Alpha virt. eigenvalues --    0.13504   0.14317   0.14667   0.15969   0.17065
 Alpha virt. eigenvalues --    0.18613   0.19647   0.20760   0.22643   0.24290

 Mulliken charges:
               1
     1  C    1.362244
     2  H    1.560779
     3  N   -1.724094
     4  N    0.636460
     5  N    0.651991
     6  O   -2.487381
 Sum of Mulliken charges =   0.00000

 Dipole moment (field-independent basis, Debye):
    X=             -2.9113    Y=             -1.1645    Z=             -0.0848  Tot=              3.1367

 Test job not archived.
 1\1\GINC-SE109\SP\RHF\Aug-CC-pVDZ\C1H1N3O1\OHZDE\08-Apr-2025\0\\#t hf
 aug-cc-pvdz iop(5/13=1,5/36=2,99/5=2) pseudo=read geom=check guess=(re
 ad,tcheck) scf=(maxcycle=1)\\title\\0,1\C,0,-1.05333,0.208841,0.071721
 \H,0,-2.16811,0.19708,-0.0593827\N,0,-0.150817,1.16428,-0.0240603\N,0,
 1.05963,0.505602,-0.013068\N,0,0.856299,-0.759864,0.0365069\O,0,-0.483
 458,-0.977532,-0.0458241\\Version=ES64L-G16RevC.01\State=1-A\HF=-277.7
 481099\RMSD=9.309e-02\Dipole=-1.1453931,-0.45817,-0.0333584\Quadrupole
 =1.9643887,-2.6933259,0.7289372,0.2340454,0.0512975,0.0685902\PG=C01 [

 Normal termination of Gaussian 16 at Tue Apr  8 21:32:32 2025.
