 Gaussian 16, Revision C.01,

 ----------------------------------------------------------------------
 #t hf aug-cc-pvdz symm=none int=(grid=ultrafine) guess=(read,tcheck) s
 table=(opt,rrhf)
 ----------------------------------------------------------------------
 -----
 title
 -----
 Symbolic Z-matrix:
 Charge =  0 Multiplicity = 1

 SCF Done:  E(RHF) =  -241.018760283     A.U. after   14 cycles
 Normal termination of Gaussian 16 at Tue Apr  8 21:14:22 2025.
 Gaussian 16:  ES64L-G16RevC.01  3-Jul-2019

 ----------------------------------------------------------------------
 #t hf aug-cc-pvdz iop(5/13=1,5/36=2,99/5=2) pseudo=read geom=check gue
 ss=(read,tcheck) scf=(maxcycle=1)
 ----------------------------------------------------------------------
 -----
 title
 -----
 Structure from the checkpoint file:  "ANI1ccx_1892_conf12_mol2.chk"
 Charge =  0 Multiplicity = 1

                         Standard orientation:
 ---------------------------------------------------------------------
 Center     Atomic      Atomic             Coordinates (Angstroms)
 Number     Number       Type             X           Y           Z
 ---------------------------------------------------------------------
      1          1           0       -3.335419   -0.225152   -0.078827
      2          1           0       -1.514269   -0.746037    1.061340
      3          1           0       -1.237819   -0.982056   -0.554185
      4          1           0        2.860281    1.069070    0.515999
      5          1           0        1.031351    0.303389    0.236346
      6          7           0       -1.392919   -0.257744    0.157101
      7          7           0        2.914311    0.171347   -0.013701
      8          7           0        1.777411   -0.305249   -0.161294
      9          8           0       -2.611969    0.415289   -0.131927
 ---------------------------------------------------------------------

 SCF Done:  E(RHF) =  -242.069069857     A.U. after    2 cycles

 The electronic state is 1-A.
 Alpha  occ. eigenvalues --  -21.09988 -15.80522 -15.79808 -15.78938  -1.76459
 Alpha  occ. eigenvalues --   -1.49591  -1.16601  -0.94895  -0.71954  -0.67817
 Alpha  occ. eigenvalues --   -0.65924  -0.51975  -0.48523  -0.48067  -0.39275
 Alpha  occ. eigenvalues --   -0.36195  -0.34480
 Alpha virt. eigenvalues --    0.03415   0.04795   0.05724   0.06385   0.08931
 Alpha virt. eigenvalues --    0.12156   0.15451   0.15962   0.17177   0.17776
 Alpha virt. eigenvalues --    0.18494   0.20239   0.20629   0.20945   0.22708

 Mulliken charges:
               1
     1  H    0.701943
     2  H    0.696678
     3  H    0.770819
     4  H    0.697830
     5  H    0.688126
     6  N   -0.192366
     7  N   -0.780859
     8  N   -0.609445
     9  O   -1.972726
 Sum of Mulliken charges =  -0.00000

 Dipole moment (field-independent basis, Debye):
    X=             -2.1204    Y=              0.0366    Z=              1.3391  Tot=              2.5081

 Test job not archived.
 1\1\GINC-SE092\SP\RHF\Aug-CC-pVDZ\H5N3O1\OHZDE\08-Apr-2025\0\\#t hf au
 g-cc-pvdz iop(5/13=1,5/36=2,99/5=2) pseudo=read geom=check guess=(read
 ,tcheck) scf=(maxcycle=1)\\title\\0,1\H,0,-3.33542,-0.225152,-0.078827
 5\H,0,-1.51427,-0.746037,1.06134\H,0,-1.23782,-0.982056,-0.554185\H,0,
 2.86028,1.06907,0.515999\H,0,1.03135,0.303389,0.236346\N,0,-1.39292,-0
 .257744,0.157101\N,0,2.91431,0.171347,-0.0137014\N,0,1.77741,-0.305249
 ,-0.161294\O,0,-2.61197,0.415289,-0.131927\\Version=ES64L-G16RevC.01\S
 tate=1-A\HF=-242.0690699\RMSD=6.100e-02\Dipole=-0.8342185,0.0144035,0.

 Normal termination of Gaussian 16 at Tue Apr  8 21:14:24 2025.
