 Gaussian 16, Revision C.01,

 ----------------------------------------------------------------------
 #t hf aug-cc-pvdz symm=none int=(grid=ultrafine) guess=(read,tcheck) s
 table=(opt,rrhf)
 ----------------------------------------------------------------------
 -----
 title
 -----
 Symbolic Z-matrix:
 Charge =  0 Multiplicity = 1

 SCF Done:  E(RHF) =  -484.002617182     A.U. after   16 cycles
 Normal termination of Gaussian 16 at Tue Apr  8 21:49:40 2025.
 Gaussian 16:  ES64L-G16RevC.01  3-Jul-2019

 ----------------------------------------------------------------------
 #t hf aug-cc-pvdz iop(5/13=1,5/36=2,99/5=2) pseudo=read geom=check gue
 ss=(read,tcheck) scf=(maxcycle=1)
 ----------------------------------------------------------------------
 -----
 title
 -----
 Structure from the checkpoint file:  "ANI1ccx_606_conf6_mol1.chk"
 Charge =  0 Multiplicity = 1

                         Standard orientation:
 ---------------------------------------------------------------------
 Center     Atomic      Atomic             Coordinates (Angstroms)
 Number     Number       Type             X           Y           Z
 ---------------------------------------------------------------------
      1          6           0       -1.245030   -0.292587   -0.152285
      2          6           0        1.158000   -0.406299    0.051953
      3          7           0       -1.134159    1.131651   -0.247883
      4          7           0       -0.021242    1.668561   -0.077812
      5          8           0       -2.253630   -0.954704    0.214552
      6          8           0        1.009671    0.828016    0.396428
      7          8           0        2.318570   -0.755704   -0.151535
      8          8           0        0.001637   -1.043629   -0.099212
 ---------------------------------------------------------------------

 SCF Done:  E(RHF) =  -485.957957389     A.U. after    2 cycles

 The electronic state is 1-A.
 Alpha  occ. eigenvalues --  -21.19657 -21.18748 -21.15528 -21.09822 -15.97560
 Alpha  occ. eigenvalues --  -15.90315 -11.62577 -11.60442  -2.05030  -1.87001
 Alpha  occ. eigenvalues --   -1.75925  -1.70252  -1.56753  -1.12874  -0.98658
 Alpha  occ. eigenvalues --   -0.81265  -0.76323  -0.74187  -0.66647  -0.62133
 Alpha  occ. eigenvalues --   -0.58809  -0.57652  -0.56022  -0.49558  -0.47425
 Alpha  occ. eigenvalues --   -0.39619  -0.37998  -0.37073  -0.34705
 Alpha virt. eigenvalues --    0.02195   0.05589   0.09208   0.09429   0.09656
 Alpha virt. eigenvalues --    0.10276   0.10859   0.11139   0.11698   0.13071
 Alpha virt. eigenvalues --    0.14304   0.14863   0.17576   0.18893   0.19588

 Mulliken charges:
               1
     1  C    4.788655
     2  C    5.713075
     3  N   -0.881163
     4  N    0.770857
     5  O   -2.329194
     6  O   -2.719760
     7  O   -2.673923
     8  O   -2.668546
 Sum of Mulliken charges =  -0.00000

 Dipole moment (field-independent basis, Debye):
    X=             -0.0424    Y=             -0.5188    Z=              0.3607  Tot=              0.6333

 Test job not archived.
 1\1\GINC-SE127\SP\RHF\Aug-CC-pVDZ\C2N2O4\OHZDE\08-Apr-2025\0\\#t hf au
 g-cc-pvdz iop(5/13=1,5/36=2,99/5=2) pseudo=read geom=check guess=(read
 ,tcheck) scf=(maxcycle=1)\\title\\0,1\C,0,-1.24503,-0.292589,-0.152285
 \C,0,1.158,-0.406299,0.0519532\N,0,-1.13416,1.13165,-0.247883\N,0,-0.0
 212433,1.66856,-0.0778121\O,0,-2.25363,-0.954706,0.214552\O,0,1.00967,
 0.828016,0.396428\O,0,2.31857,-0.755704,-0.151535\O,0,0.00163661,-1.04
 363,-0.0992123\\Version=ES64L-G16RevC.01\State=1-A\HF=-485.9579574\RMS
 D=7.344e-02\Dipole=-0.0166987,-0.2041079,0.1419067\Quadrupole=-1.52207

 Normal termination of Gaussian 16 at Tue Apr  8 21:49:44 2025.
