 Gaussian 16, Revision C.01,

 ----------------------------------------------------------------------
 #t hf aug-cc-pvdz symm=none int=(grid=ultrafine) guess=(read,tcheck) s
 table=(opt,rrhf)
 ----------------------------------------------------------------------
 -----
 title
 -----
 Symbolic Z-matrix:
 Charge =  0 Multiplicity = 1

 SCF Done:  E(RHF) =  -923.173187900     A.U. after   15 cycles
 Normal termination of Gaussian 16 at Tue Apr  8 20:24:27 2025.
 Gaussian 16:  ES64L-G16RevC.01  3-Jul-2019

 ----------------------------------------------------------------------
 #t hf aug-cc-pvdz iop(5/13=1,5/36=2,99/5=2) pseudo=read geom=check gue
 ss=(read,tcheck) scf=(maxcycle=1)
 ----------------------------------------------------------------------
 -----
 title
 -----
 Structure from the checkpoint file:  "ANI1ccx_1584_conf25_mol1.chk"
 Charge =  0 Multiplicity = 1

                         Standard orientation:
 ---------------------------------------------------------------------
 Center     Atomic      Atomic             Coordinates (Angstroms)
 Number     Number       Type             X           Y           Z
 ---------------------------------------------------------------------
      1          6           0       -1.498680   -1.622729   -0.400100
      2          6           0       -0.168399   -1.033510    0.112896
      3          6           0       -2.816420   -1.034158    0.451518
      4          6           0       -2.871899    0.448818    0.197695
      5          6           0        1.948721    0.097358   -0.662882
      6          6           0        2.983641   -0.771660   -0.093664
      7          6           0        1.818382    1.415359    0.162571
      8          6           0        0.667620    2.237270   -0.157478
      9          1           0        1.776300   -0.879171    1.419800
     10          1           0        1.249623    3.623349    1.114220
     11          1           0       -0.356630    3.793160    0.672486
     12          1           0        2.782382    1.998048    0.025269
     13          1           0        1.761322    1.055669    1.203860
     14          1           0        2.269511    0.341100   -1.685870
     15          1           0        0.221949   -0.306737   -1.725030
     16          1           0       -2.750928    1.580302   -1.169440
     17          1           0       -3.790460   -1.405838    0.060408
     18          1           0       -2.604690   -1.351168    1.512400
     19          1           0       -1.654120   -1.295119   -1.362960
     20          1           0       -0.792153   -3.668139   -0.249678
     21          1           0       -2.213361   -3.400769    0.502540
     22          7           0       -1.699541   -3.146559   -0.309605
     23          7           0        0.642699   -0.563600   -0.895621
     24          7           0        0.347640    3.089290    0.891175
     25          8           0        0.030644   -1.026600    1.344620
     26          8           0       -2.698398    1.294292    0.957338
     27          8           0       -2.998119    0.643096   -1.137930
     28          8           0        4.051420   -1.074682   -0.629973
     29          8           0       -0.019944    2.159610   -1.166930
     30          8           0        2.720380   -1.265602    1.160000
 ---------------------------------------------------------------------

 SCF Done:  E(RHF) =  -927.204301858     A.U. after    2 cycles

 The electronic state is 1-A.
 Alpha  occ. eigenvalues --  -21.12296 -21.09768 -21.07182 -21.06984 -21.06947
 Alpha  occ. eigenvalues --  -21.05609 -15.81262 -15.79115 -15.75928 -11.58247
 Alpha  occ. eigenvalues --  -11.56211 -11.55854 -11.54157 -11.51083 -11.47576
 Alpha  occ. eigenvalues --  -11.44436 -11.42720  -1.85595  -1.80512  -1.74376
 Alpha  occ. eigenvalues --   -1.73920  -1.68169  -1.63472  -1.45574  -1.37006
 Alpha  occ. eigenvalues --   -1.33244  -1.20628  -1.13193  -1.05690  -0.98327
 Alpha  occ. eigenvalues --   -0.86340  -0.82329  -0.79690  -0.77152  -0.75342
 Alpha  occ. eigenvalues --   -0.71435  -0.70518  -0.68493  -0.66351  -0.65370
 Alpha  occ. eigenvalues --   -0.64242  -0.63587  -0.62226  -0.59408  -0.58737
 Alpha  occ. eigenvalues --   -0.56417  -0.55030  -0.54243  -0.53060  -0.51443
 Alpha  occ. eigenvalues --   -0.50254  -0.49203  -0.48578  -0.48052  -0.47233
 Alpha  occ. eigenvalues --   -0.45270  -0.39567  -0.38463  -0.36306  -0.35189
 Alpha  occ. eigenvalues --   -0.32854  -0.32307  -0.30998  -0.29926  -0.29414
 Alpha virt. eigenvalues --    0.02709   0.04343   0.04533   0.04892   0.05365
 Alpha virt. eigenvalues --    0.05718   0.05994   0.06436   0.07222   0.07521
 Alpha virt. eigenvalues --    0.08166   0.08596   0.08974   0.09468   0.10295

 Mulliken charges:
               1
     1  C   -3.071976
     2  C    7.269133
     3  C   -4.303948
     4  C    7.362712
     5  C   -1.947964
     6  C    6.710324
     7  C   -3.354738
     8  C    5.654876
     9  H    1.490055
    10  H    0.586773
    11  H    0.797348
    12  H    1.415964
    13  H    1.615505
    14  H    1.738626
    15  H    0.895780
    16  H    0.930515
    17  H    1.472260
    18  H    1.439173
    19  H    2.137989
    20  H    0.612583
    21  H    0.562893
    22  N   -2.576433
    23  N   -2.967686
    24  N   -3.391181
    25  O   -3.623534
    26  O   -3.690242
    27  O   -3.212949
    28  O   -3.548437
    29  O   -3.600497
    30  O   -3.402926
 Sum of Mulliken charges =   0.00000

 Dipole moment (field-independent basis, Debye):
    X=             -1.7185    Y=              2.3362    Z=             -0.3690  Tot=              2.9236

 Test job not archived.
 1\1\GINC-SE368\SP\RHF\Aug-CC-pVDZ\C8H13N3O6\OHZDE\08-Apr-2025\0\\#t hf
  aug-cc-pvdz iop(5/13=1,5/36=2,99/5=2) pseudo=read geom=check guess=(r
 ead,tcheck) scf=(maxcycle=1)\\title\\0,1\C,0,-1.49868,-1.62273,-0.4001
 \C,0,-0.168399,-1.03351,0.112896\C,0,-2.81642,-1.03416,0.451518\C,0,-2
 .8719,0.448816,0.197695\C,0,1.94872,0.0973594,-0.662882\C,0,2.98364,-0
 .771658,-0.0936641\C,0,1.81838,1.41536,0.162571\C,0,0.667618,2.23727,-
 0.157478\H,0,1.7763,-0.87917,1.4198\H,0,1.24962,3.62335,1.11422\H,0,-0
 .356633,3.79316,0.672486\H,0,2.78238,1.99805,0.0252691\H,0,1.76132,1.0

 Normal termination of Gaussian 16 at Tue Apr  8 20:25:02 2025.
