 Gaussian 16, Revision C.01,

 ----------------------------------------------------------------------
 #t hf aug-cc-pvdz symm=none int=(grid=ultrafine) guess=(read,tcheck) s
 table=(opt,rrhf)
 ----------------------------------------------------------------------
 -----
 title
 -----
 Symbolic Z-matrix:
 Charge =  0 Multiplicity = 1

 SCF Done:  E(RHF) =  -509.520888041     A.U. after   14 cycles
 Normal termination of Gaussian 16 at Tue Apr  8 22:14:26 2025.
 Gaussian 16:  ES64L-G16RevC.01  3-Jul-2019

 ----------------------------------------------------------------------
 #t hf aug-cc-pvdz iop(5/13=1,5/36=2,99/5=2) pseudo=read geom=check gue
 ss=(read,tcheck) scf=(maxcycle=1)
 ----------------------------------------------------------------------
 -----
 title
 -----
 Structure from the checkpoint file:  "ANI1ccx_939_conf85_mol1.chk"
 Charge =  0 Multiplicity = 1

                         Standard orientation:
 ---------------------------------------------------------------------
 Center     Atomic      Atomic             Coordinates (Angstroms)
 Number     Number       Type             X           Y           Z
 ---------------------------------------------------------------------
      1          6           0        0.469613    0.324448    0.445662
      2          6           0        1.840009   -0.154592    0.130801
      3          6           0       -0.625392   -0.786176    0.120226
      4          6           0       -2.022101   -0.209294    0.020769
      5          1           0        0.872795    1.335009   -1.239170
      6          1           0        0.722975    2.376669    0.004767
      7          1           0        0.379192    0.640131    1.530190
      8          1           0       -0.703927   -1.510919    0.881389
      9          1           0       -0.356313   -1.353480   -0.718701
     10          1           0       -1.256279    1.520731   -0.307949
     11          1           0        2.594788   -1.776182   -0.518712
     12          7           0        0.414150    1.540470   -0.348439
     13          8           0        2.895290    0.397902    0.071323
     14          8           0       -2.955061   -0.991897   -0.132929
     15          8           0       -2.112039    1.151582    0.069682
     16          8           0        1.781178   -1.440281   -0.195262
 ---------------------------------------------------------------------

 SCF Done:  E(RHF) =  -511.712781316     A.U. after    2 cycles

 The electronic state is 1-A.
 Alpha  occ. eigenvalues --  -21.14236 -21.08726 -21.07541 -21.04004 -15.78872
 Alpha  occ. eigenvalues --  -11.56166 -11.52530 -11.48646 -11.42564  -1.88253
 Alpha  occ. eigenvalues --   -1.78693  -1.68126  -1.63789  -1.41710  -1.16587
 Alpha  occ. eigenvalues --   -1.02213  -0.84361  -0.79494  -0.75505  -0.71911
 Alpha  occ. eigenvalues --   -0.65934  -0.65305  -0.61440  -0.58873  -0.56552
 Alpha  occ. eigenvalues --   -0.54145  -0.51282  -0.50697  -0.48327  -0.44123
 Alpha  occ. eigenvalues --   -0.37351  -0.34758  -0.32627  -0.32190  -0.27677
 Alpha virt. eigenvalues --    0.02900   0.04333   0.04603   0.04968   0.06209
 Alpha virt. eigenvalues --    0.06541   0.07599   0.09448   0.10642   0.11108
 Alpha virt. eigenvalues --    0.11756   0.12242   0.13144   0.13503   0.13969

 Mulliken charges:
               1
     1  C   -2.429815
     2  C    6.909132
     3  C   -2.709922
     4  C    5.029870
     5  H    0.588077
     6  H    0.670826
     7  H    1.702504
     8  H    1.397347
     9  H    1.580727
    10  H    1.419532
    11  H    0.913486
    12  N   -2.527531
    13  O   -3.350380
    14  O   -3.054802
    15  O   -3.132262
    16  O   -3.006792
 Sum of Mulliken charges =  -0.00000

 Dipole moment (field-independent basis, Debye):
    X=              3.3319    Y=              0.5466    Z=             -0.2099  Tot=              3.3829

 Test job not archived.
 1\1\GINC-SE184\SP\RHF\Aug-CC-pVDZ\C4H7N1O4\OHZDE\08-Apr-2025\0\\#t hf
 aug-cc-pvdz iop(5/13=1,5/36=2,99/5=2) pseudo=read geom=check guess=(re
 ad,tcheck) scf=(maxcycle=1)\\title\\0,1\C,0,0.469613,0.324448,0.445662
 \C,0,1.84001,-0.154591,0.130801\C,0,-0.625391,-0.786176,0.120226\C,0,-
 2.0221,-0.209296,0.0207695\H,0,0.872794,1.33501,-1.23917\H,0,0.722974,
 2.37667,0.00476727\H,0,0.379192,0.640131,1.53019\H,0,-0.703925,-1.5109
 2,0.881389\H,0,-0.356312,-1.35348,-0.718701\H,0,-1.25628,1.52073,-0.30
 7949\H,0,2.59479,-1.77618,-0.518712\N,0,0.414149,1.54047,-0.348439\O,0

 Normal termination of Gaussian 16 at Tue Apr  8 22:14:32 2025.
