 Gaussian 16, Revision C.01,

 ----------------------------------------------------------------------
 #t hf aug-cc-pvdz symm=none int=(grid=ultrafine) guess=(read,tcheck) s
 table=(opt,rrhf)
 ----------------------------------------------------------------------
 -----
 title
 -----
 Symbolic Z-matrix:
 Charge =  0 Multiplicity = 1

 SCF Done:  E(RHF) =  -659.101900611     A.U. after   13 cycles
 Normal termination of Gaussian 16 at Tue Apr  8 19:36:11 2025.
 Gaussian 16:  ES64L-G16RevC.01  3-Jul-2019

 ----------------------------------------------------------------------
 #t hf aug-cc-pvdz iop(5/13=1,5/36=2,99/5=2) pseudo=read geom=check gue
 ss=(read,tcheck) scf=(maxcycle=1)
 ----------------------------------------------------------------------
 -----
 title
 -----
 Structure from the checkpoint file:  "ANI1ccx_1265_conf7_mol1.chk"
 Charge =  0 Multiplicity = 1

                         Standard orientation:
 ---------------------------------------------------------------------
 Center     Atomic      Atomic             Coordinates (Angstroms)
 Number     Number       Type             X           Y           Z
 ---------------------------------------------------------------------
      1          6           0       -2.171731    0.128917   -0.626411
      2          6           0       -0.744718    1.993159    0.062311
      3          6           0        0.729327    1.821539   -0.394249
      4          6           0        1.608809    1.288819    0.768013
      5          6           0        2.525959    0.111037    0.484259
      6          6           0        1.811560   -1.165581   -0.072154
      7          1           0        0.024429   -0.415505    0.462922
      8          1           0        3.979639   -0.524296   -0.686648
      9          1           0        4.274299    0.993885    0.009272
     10          1           0        2.881329   -0.190530    1.484710
     11          1           0        0.960192    1.014309    1.608240
     12          1           0        2.237349    2.140279    1.129190
     13          1           0        0.651333    1.284589   -1.353840
     14          1           0        1.190979    2.798059   -0.702418
     15          1           0       -0.885276    2.684969    0.871680
     16          1           0       -1.335371    2.389859   -0.776368
     17          1           0       -2.121571    1.009689    1.124560
     18          1           0       -3.846081    0.456984    0.343323
     19          1           0       -4.091601    0.275289   -1.293090
     20          1           0       -1.724991    0.409346   -1.584540
     21          1           0       -1.381080   -1.728011   -0.718748
     22          1           0       -1.839610   -1.339371    1.611440
     23          1           0       -2.921040   -2.548021    0.988649
     24          7           0       -2.564430   -1.575131    0.917432
     25          7           0       -2.235770   -1.324681   -0.405581
     26          7           0       -3.494851    0.710706   -0.583199
     27          7           0       -1.388601    0.734335    0.492540
     28          7           0        3.564639    0.408741   -0.491087
     29          8           0        0.536885   -1.270341    0.162072
     30          8           0        2.491230   -2.036741   -0.582030
 ---------------------------------------------------------------------

 SCF Done:  E(RHF) =  -662.180361645     A.U. after    2 cycles

 The electronic state is 1-A.
 Alpha  occ. eigenvalues --  -21.09888 -21.03180 -15.74751 -15.74080 -15.73199
 Alpha  occ. eigenvalues --  -15.73003 -15.72892 -11.52017 -11.48593 -11.46604
 Alpha  occ. eigenvalues --  -11.44611 -11.41511 -11.38118  -1.81981  -1.64506
 Alpha  occ. eigenvalues --   -1.53001  -1.40205  -1.35173  -1.28673  -1.17404
 Alpha  occ. eigenvalues --   -1.10480  -1.04278  -0.94120  -0.89104  -0.84788
 Alpha  occ. eigenvalues --   -0.78712  -0.73127  -0.72015  -0.68345  -0.67656
 Alpha  occ. eigenvalues --   -0.66484  -0.65967  -0.61882  -0.61064  -0.58648
 Alpha  occ. eigenvalues --   -0.57622  -0.54242  -0.53953  -0.52569  -0.51458
 Alpha  occ. eigenvalues --   -0.49957  -0.48038  -0.47286  -0.44918  -0.42745
 Alpha  occ. eigenvalues --   -0.38431  -0.36711  -0.36537  -0.35831  -0.33756
 Alpha  occ. eigenvalues --   -0.31515  -0.28403
 Alpha virt. eigenvalues --    0.03909   0.04121   0.04420   0.04462   0.04903
 Alpha virt. eigenvalues --    0.05124   0.05868   0.06472   0.06603   0.07451
 Alpha virt. eigenvalues --    0.07790   0.08354   0.08617   0.09300   0.09713

 Mulliken charges:
               1
     1  C    1.694487
     2  C   -3.074706
     3  C   -3.130916
     4  C   -1.843408
     5  C   -0.875799
     6  C    6.351208
     7  H    1.821750
     8  H    0.591600
     9  H    0.474276
    10  H    1.718931
    11  H    1.455168
    12  H    1.215027
    13  H    1.615515
    14  H    1.279033
    15  H    1.655754
    16  H    1.391374
    17  H    0.560429
    18  H    0.605983
    19  H    0.528379
    20  H    2.026573
    21  H    0.838384
    22  H    0.696941
    23  H    0.736878
    24  N   -2.177986
    25  N   -1.650595
    26  N   -2.914402
    27  N   -1.380099
    28  N   -2.828415
    29  O   -3.886478
    30  O   -3.494888
 Sum of Mulliken charges =  -0.00000

 Dipole moment (field-independent basis, Debye):
    X=             -1.0011    Y=              1.3478    Z=              1.8595  Tot=              2.5053

 Test job not archived.
 1\1\GINC-SE332\SP\RHF\Aug-CC-pVDZ\C6H17N5O2\OHZDE\08-Apr-2025\0\\#t hf
  aug-cc-pvdz iop(5/13=1,5/36=2,99/5=2) pseudo=read geom=check guess=(r
 ead,tcheck) scf=(maxcycle=1)\\title\\0,1\C,0,-2.17173,0.128918,-0.6264
 11\C,0,-0.744717,1.99316,0.062311\C,0,0.729328,1.82154,-0.394249\C,0,1
 .60881,1.28882,0.768013\C,0,2.52596,0.111038,0.484259\C,0,1.81156,-1.1
 6558,-0.0721537\H,0,0.02443,-0.415504,0.462922\H,0,3.97964,-0.524295,-
 0.686648\H,0,4.2743,0.993886,0.00927174\H,0,2.88133,-0.190529,1.48471\
 H,0,0.960193,1.01431,1.60824\H,0,2.23735,2.14028,1.12919\H,0,0.651334,

 Normal termination of Gaussian 16 at Tue Apr  8 19:36:40 2025.
