 Gaussian 16, Revision C.01,

 ----------------------------------------------------------------------
 #t hf aug-cc-pvdz symm=none int=(grid=ultrafine) guess=(read,tcheck) s
 table=(opt,rrhf)
 ----------------------------------------------------------------------
 -----
 title
 -----
 Symbolic Z-matrix:
 Charge =  0 Multiplicity = 1

 SCF Done:  E(RHF) =  -456.255828904     A.U. after   11 cycles
 Normal termination of Gaussian 16 at Tue Apr  8 21:07:47 2025.
 Gaussian 16:  ES64L-G16RevC.01  3-Jul-2019

 ----------------------------------------------------------------------
 #t hf aug-cc-pvdz iop(5/13=1,5/36=2,99/5=2) pseudo=read geom=check gue
 ss=(read,tcheck) scf=(maxcycle=1)
 ----------------------------------------------------------------------
 -----
 title
 -----
 Structure from the checkpoint file:  "ANI1ccx_1844_conf174_mol1.chk"
 Charge =  0 Multiplicity = 1

                         Standard orientation:
 ---------------------------------------------------------------------
 Center     Atomic      Atomic             Coordinates (Angstroms)
 Number     Number       Type             X           Y           Z
 ---------------------------------------------------------------------
      1          1           0        2.551771    0.458201   -0.549726
      2          1           0       -2.494288   -1.565089   -1.289540
      3          1           0       -2.593389   -0.467559   -0.223139
      4          1           0        2.675232   -2.018658   -1.096670
      5          1           0        1.686732   -1.590158    0.026289
      6          1           0        0.110806   -2.013248    1.481880
      7          1           0        2.973161    1.713962    0.325691
      8          1           0       -0.811474   -1.501898    0.317723
      9          1           0        0.051813    0.632302    1.029360
     10          1           0        0.712962    1.704442    0.134753
     11          1           0       -1.419979    1.584302   -0.163440
     12          1           0       -2.910709    1.905881    0.099743
     13          8           0        2.585291   -1.392828   -0.340910
     14          8           0       -0.125175    1.562122    0.701535
     15          8           0       -2.560968   -1.457599   -0.282199
     16          8           0        0.032980   -1.282438    0.798920
     17          8           0        2.391181    1.438432   -0.410575
     18          8           0       -2.389889    1.277001   -0.478385
 ---------------------------------------------------------------------

 SCF Done:  E(RHF) =  -458.250052564     A.U. after    2 cycles

 The electronic state is 1-A.
 Alpha  occ. eigenvalues --  -21.10752 -21.09950 -21.08506 -21.07778 -21.06152
 Alpha  occ. eigenvalues --  -21.04778  -1.69209  -1.66898  -1.66258  -1.64393
 Alpha  occ. eigenvalues --   -1.63742  -1.59692  -0.65962  -0.64225  -0.63174
 Alpha  occ. eigenvalues --   -0.61567  -0.61153  -0.60757  -0.53705  -0.50733
 Alpha  occ. eigenvalues --   -0.48265  -0.47931  -0.44686  -0.40824  -0.37293
 Alpha  occ. eigenvalues --   -0.36361  -0.34568  -0.34492  -0.33084  -0.30649
 Alpha virt. eigenvalues --    0.03344   0.04783   0.05333   0.05406   0.06166
 Alpha virt. eigenvalues --    0.07718   0.08184   0.08855   0.09091   0.10005
 Alpha virt. eigenvalues --    0.10961   0.12451   0.17677   0.18427   0.20233

 Mulliken charges:
               1
     1  H    1.350062
     2  H    0.721707
     3  H    1.544190
     4  H    0.793454
     5  H    1.539192
     6  H    0.885252
     7  H    0.844525
     8  H    1.483639
     9  H    1.331877
    10  H    1.378384
    11  H    1.707574
    12  H    0.711831
    13  O   -2.196584
    14  O   -2.791845
    15  O   -2.164807
    16  O   -2.702396
    17  O   -2.210346
    18  O   -2.225707
 Sum of Mulliken charges =  -0.00000

 Dipole moment (field-independent basis, Debye):
    X=              1.1136    Y=             -1.4718    Z=              0.3384  Tot=              1.8764

 Test job not archived.
 1\1\GINC-SE328\SP\RHF\Aug-CC-pVDZ\H12O6\OHZDE\08-Apr-2025\0\\#t hf aug
 -cc-pvdz iop(5/13=1,5/36=2,99/5=2) pseudo=read geom=check guess=(read,
 tcheck) scf=(maxcycle=1)\\title\\0,1\H,0,2.55177,0.458199,-0.549726\H,
 0,-2.49429,-1.56509,-1.28954\H,0,-2.59339,-0.46756,-0.223139\H,0,2.675
 23,-2.01866,-1.09667\H,0,1.68673,-1.59016,0.0262889\H,0,0.110804,-2.01
 325,1.48188\H,0,2.97316,1.71396,0.325691\H,0,-0.811476,-1.5019,0.31772
 3\H,0,0.0518118,0.6323,1.02936\H,0,0.712961,1.70444,0.134753\H,0,-1.41
 998,1.5843,-0.16344\H,0,-2.91071,1.90588,0.0997435\O,0,2.58529,-1.3928

 Normal termination of Gaussian 16 at Tue Apr  8 21:07:52 2025.
