 Gaussian 16, Revision C.01,

 ----------------------------------------------------------------------
 #t hf aug-cc-pvdz symm=none int=(grid=ultrafine) guess=(read,tcheck) s
 table=(opt,rrhf)
 ----------------------------------------------------------------------
 -----
 title
 -----
 Symbolic Z-matrix:
 Charge =  0 Multiplicity = 1

 SCF Done:  E(RHF) =  -833.434709151     A.U. after   14 cycles
 Normal termination of Gaussian 16 at Tue Apr  8 21:07:57 2025.
 Gaussian 16:  ES64L-G16RevC.01  3-Jul-2019

 ----------------------------------------------------------------------
 #t hf aug-cc-pvdz iop(5/13=1,5/36=2,99/5=2) pseudo=read geom=check gue
 ss=(read,tcheck) scf=(maxcycle=1)
 ----------------------------------------------------------------------
 -----
 title
 -----
 Structure from the checkpoint file:  "ANI1ccx_1760_conf34_mol1.chk"
 Charge =  0 Multiplicity = 1

                         Standard orientation:
 ---------------------------------------------------------------------
 Center     Atomic      Atomic             Coordinates (Angstroms)
 Number     Number       Type             X           Y           Z
 ---------------------------------------------------------------------
      1          6           0        1.881779    0.964160   -0.780898
      2          6           0       -1.994098   -1.906191    0.484066
      3          6           0       -2.173549   -0.983024   -0.789555
      4          6           0       -2.073711    1.011919    0.837849
      5          6           0       -3.574979   -1.187812   -1.308760
      6          6           0        2.926481   -0.965445    0.473481
      7          6           0        2.941140    0.591228    0.298342
      8          6           0        0.551979    0.204863   -0.531299
      9          6           0       -1.836360    0.496227   -0.582702
     10          1           0       -1.001668   -2.275410    0.752706
     11          1           0       -1.497512    2.208539    2.229220
     12          1           0       -3.814949   -0.636542   -2.180900
     13          1           0       -4.206649   -0.911679   -0.447877
     14          1           0       -3.791428   -2.259553   -1.472710
     15          1           0       -2.391709   -1.547351    1.440000
     16          1           0       -2.583748   -2.858022    0.225644
     17          1           0       -1.517459   -1.391371   -1.566420
     18          1           0       -0.446053    1.681820   -1.551930
     19          1           0        3.106751   -1.042757   -1.492870
     20          1           0        3.924989    0.984173    0.030509
     21          1           0        2.566549    1.100702    1.186960
     22          1           0        2.233160    0.544370   -1.733660
     23          1           0        1.648208    2.782662    0.041507
     24          1           0        2.429338    2.899402   -1.324880
     25          1           0       -2.565711    1.099268   -1.146800
     26          7           0        1.653388    2.395242   -0.890158
     27          7           0       -0.530706    0.824190   -1.051320
     28          8           0       -2.758130    0.472789    1.666350
     29          8           0        0.509517   -0.777391    0.180301
     30          8           0        2.910431   -1.592007    1.531040
     31          8           0        3.182581   -1.607397   -0.648561
     32          8           0       -1.324771    1.970279    1.270710
 ---------------------------------------------------------------------

 SCF Done:  E(RHF) =  -837.168789644     A.U. after    2 cycles

 The electronic state is 1-A.
 Alpha  occ. eigenvalues --  -21.12441 -21.11551 -21.03985 -21.03507 -21.02086
 Alpha  occ. eigenvalues --  -15.77625 -15.77536 -11.55290 -11.54834 -11.52355
 Alpha  occ. eigenvalues --  -11.49604 -11.48428 -11.42843 -11.41936 -11.37095
 Alpha  occ. eigenvalues --  -11.34051  -1.86468  -1.81707  -1.73893  -1.64413
 Alpha  occ. eigenvalues --   -1.61963  -1.45168  -1.38309  -1.22476  -1.14882
 Alpha  occ. eigenvalues --   -1.07187  -0.97670  -0.97128  -0.87247  -0.83879
 Alpha  occ. eigenvalues --   -0.80397  -0.76585  -0.75479  -0.71406  -0.68652
 Alpha  occ. eigenvalues --   -0.66822  -0.63308  -0.62461  -0.62041  -0.60330
 Alpha  occ. eigenvalues --   -0.59593  -0.58510  -0.57013  -0.53540  -0.52812
 Alpha  occ. eigenvalues --   -0.52302  -0.51070  -0.49414  -0.48974  -0.47474
 Alpha  occ. eigenvalues --   -0.45960  -0.45052  -0.43922  -0.42941  -0.42525
 Alpha  occ. eigenvalues --   -0.39892  -0.34530  -0.32932  -0.32203  -0.28480
 Alpha  occ. eigenvalues --   -0.27742  -0.27208
 Alpha virt. eigenvalues --    0.02542   0.03326   0.03502   0.03862   0.04499
 Alpha virt. eigenvalues --    0.05055   0.06351   0.06422   0.06616   0.07225
 Alpha virt. eigenvalues --    0.07475   0.07884   0.08315   0.08613   0.09633

 Mulliken charges:
               1
     1  C    0.506819
     2  C   -4.416841
     3  C   -0.129521
     4  C    7.496135
     5  C   -5.296657
     6  C    6.750027
     7  C   -4.734431
     8  C    6.561038
     9  C   -3.878205
    10  H    1.820320
    11  H    0.955800
    12  H    1.209334
    13  H    1.291504
    14  H    1.134193
    15  H    1.555411
    16  H    1.026829
    17  H    1.902456
    18  H    0.769343
    19  H    1.071959
    20  H    1.381800
    21  H    1.414774
    22  H    1.799522
    23  H    0.607330
    24  H    0.581594
    25  H    2.325508
    26  N   -3.029872
    27  N   -3.094795
    28  O   -3.282645
    29  O   -3.947347
    30  O   -3.334370
    31  O   -3.423817
    32  O   -3.593192
 Sum of Mulliken charges =  -0.00000

 Dipole moment (field-independent basis, Debye):
    X=              0.6244    Y=              4.2368    Z=             -2.5109  Tot=              4.9644

 Test job not archived.
 1\1\GINC-SE028\SP\RHF\Aug-CC-pVDZ\C9H16N2O5\OHZDE\08-Apr-2025\0\\#t hf
  aug-cc-pvdz iop(5/13=1,5/36=2,99/5=2) pseudo=read geom=check guess=(r
 ead,tcheck) scf=(maxcycle=1)\\title\\0,1\C,0,1.88178,0.964158,-0.78089
 8\C,0,-1.9941,-1.90619,0.484066\C,0,-2.17355,-0.983023,-0.789555\C,0,-
 2.07371,1.01192,0.837849\C,0,-3.57498,-1.18781,-1.30876\C,0,2.92648,-0
 .965448,0.473481\C,0,2.94114,0.591225,0.298342\C,0,0.551979,0.204862,-
 0.531299\C,0,-1.83636,0.496228,-0.582702\H,0,-1.00167,-2.27541,0.75270
 6\H,0,-1.49751,2.20854,2.22922\H,0,-3.81495,-0.636539,-2.1809\H,0,-4.2

 Normal termination of Gaussian 16 at Tue Apr  8 21:08:38 2025.
