 Gaussian 16, Revision C.01,

 ----------------------------------------------------------------------
 #t hf aug-cc-pvdz symm=none int=(grid=ultrafine) guess=(read,tcheck) s
 table=(opt,rrhf)
 ----------------------------------------------------------------------
 -----
 title
 -----
 Symbolic Z-matrix:
 Charge =  0 Multiplicity = 1

 SCF Done:  E(RHF) =  -528.658053643     A.U. after   15 cycles
 Normal termination of Gaussian 16 at Tue Apr  8 22:20:04 2025.
 Gaussian 16:  ES64L-G16RevC.01  3-Jul-2019

 ----------------------------------------------------------------------
 #t hf aug-cc-pvdz iop(5/13=1,5/36=2,99/5=2) pseudo=read geom=check gue
 ss=(read,tcheck) scf=(maxcycle=1)
 ----------------------------------------------------------------------
 -----
 title
 -----
 Structure from the checkpoint file:  "ANI1ccx_998_conf129_mol1.chk"
 Charge =  0 Multiplicity = 1

                         Standard orientation:
 ---------------------------------------------------------------------
 Center     Atomic      Atomic             Coordinates (Angstroms)
 Number     Number       Type             X           Y           Z
 ---------------------------------------------------------------------
      1          6           0       -0.572490    0.008271   -0.183652
      2          6           0       -2.073900   -0.325931   -0.186442
      3          6           0        0.196620   -0.423100    1.139740
      4          6           0        1.497820    0.283119    1.261310
      5          6           0        2.131260   -0.300411    0.062778
      6          1           0       -3.683560    0.350749    0.443965
      7          1           0        3.028120    1.535619   -0.543696
      8          1           0        2.581310    0.302607   -1.929000
      9          1           0        1.164430    1.289169    1.085080
     10          1           0        2.103730    0.538966    2.065090
     11          1           0        0.245760   -1.455900    1.102150
     12          1           0       -0.497112   -0.018368    2.050930
     13          1           0       -0.095515   -0.494625   -1.150980
     14          1           0        0.322329    1.702600   -0.942536
     15          1           0       -1.355599    1.915190   -0.620538
     16          7           0       -0.479644    1.461220   -0.431420
     17          7           0        2.468800    0.678515   -0.916887
     18          8           0       -2.555141   -1.309749   -0.640075
     19          8           0        2.174099   -1.418171   -0.285511
     20          8           0       -2.720690    0.715941    0.339995
 ---------------------------------------------------------------------

 SCF Done:  E(RHF) =  -531.029742245     A.U. after    2 cycles

 The electronic state is 1-A.
 Alpha  occ. eigenvalues --  -21.12690 -21.06220 -21.03820 -15.75421 -15.72216
 Alpha  occ. eigenvalues --  -11.53771 -11.50962 -11.48074 -11.43245 -11.39456
 Alpha  occ. eigenvalues --   -1.84085  -1.74396  -1.66920  -1.35787  -1.30140
 Alpha  occ. eigenvalues --   -1.19574  -1.03276  -0.90969  -0.80301  -0.77152
 Alpha  occ. eigenvalues --   -0.69960  -0.69425  -0.67222  -0.65137  -0.60121
 Alpha  occ. eigenvalues --   -0.59802  -0.59146  -0.56272  -0.51348  -0.50399
 Alpha  occ. eigenvalues --   -0.47919  -0.47671  -0.46414  -0.43473  -0.35805
 Alpha  occ. eigenvalues --   -0.33916  -0.33446  -0.29459  -0.28841
 Alpha virt. eigenvalues --    0.03621   0.04493   0.04586   0.05223   0.05637
 Alpha virt. eigenvalues --    0.06715   0.07068   0.07935   0.08311   0.08577
 Alpha virt. eigenvalues --    0.09982   0.10813   0.11722   0.13140   0.13767

 Mulliken charges:
               1
     1  C   -2.072348
     2  C    7.421782
     3  C   -2.520908
     4  C   -3.477450
     5  C    5.682297
     6  H    0.839137
     7  H    0.576656
     8  H    0.555047
     9  H    1.790442
    10  H    1.082718
    11  H    1.355131
    12  H    1.040082
    13  H    1.480719
    14  H    0.663548
    15  H    0.700231
    16  N   -2.593383
    17  N   -2.457836
    18  O   -3.429247
    19  O   -3.583212
    20  O   -3.053405
 Sum of Mulliken charges =  -0.00000

 Dipole moment (field-independent basis, Debye):
    X=              0.8100    Y=              2.7802    Z=              0.1753  Tot=              2.9011

 Test job not archived.
 1\1\GINC-SE073\SP\RHF\Aug-CC-pVDZ\C5H10N2O3\OHZDE\08-Apr-2025\0\\#t hf
  aug-cc-pvdz iop(5/13=1,5/36=2,99/5=2) pseudo=read geom=check guess=(r
 ead,tcheck) scf=(maxcycle=1)\\title\\0,1\C,0,-0.57249,0.00827144,-0.18
 3652\C,0,-2.0739,-0.325931,-0.186442\C,0,0.19662,-0.4231,1.13974\C,0,1
 .49782,0.28312,1.26131\C,0,2.13126,-0.30041,0.0627778\H,0,-3.68356,0.3
 50748,0.443965\H,0,3.02812,1.53562,-0.543696\H,0,2.58131,0.302608,-1.9
 29\H,0,1.16443,1.28917,1.08508\H,0,2.10373,0.538967,2.06509\H,0,0.2457
 61,-1.4559,1.10215\H,0,-0.497112,-0.0183674,2.05093\H,0,-0.0955152,-0.

 Normal termination of Gaussian 16 at Tue Apr  8 22:20:15 2025.
