 Gaussian 16, Revision C.01,

 ----------------------------------------------------------------------
 #t hf aug-cc-pvdz symm=none int=(grid=ultrafine) guess=(read,tcheck) s
 table=(opt,rrhf)
 ----------------------------------------------------------------------
 -----
 title
 -----
 Symbolic Z-matrix:
 Charge =  0 Multiplicity = 1

 SCF Done:  E(RHF) =  -456.211521217     A.U. after   12 cycles
 Normal termination of Gaussian 16 at Tue Apr  8 21:09:46 2025.
 Gaussian 16:  ES64L-G16RevC.01  3-Jul-2019

 ----------------------------------------------------------------------
 #t hf aug-cc-pvdz iop(5/13=1,5/36=2,99/5=2) pseudo=read geom=check gue
 ss=(read,tcheck) scf=(maxcycle=1)
 ----------------------------------------------------------------------
 -----
 title
 -----
 Structure from the checkpoint file:  "ANI1ccx_1844_conf541_mol1.chk"
 Charge =  0 Multiplicity = 1

                         Standard orientation:
 ---------------------------------------------------------------------
 Center     Atomic      Atomic             Coordinates (Angstroms)
 Number     Number       Type             X           Y           Z
 ---------------------------------------------------------------------
      1          1           0       -0.620215   -1.020431   -1.002550
      2          1           0        2.123713   -0.989610    1.965280
      3          1           0        0.581705   -0.263505    1.394340
      4          1           0        1.466373   -0.875596   -0.460967
      5          1           0        1.258981   -0.146493   -1.930560
      6          1           0        1.738063    2.320986   -0.783039
      7          1           0       -1.890645   -1.734415   -1.625330
      8          1           0        1.812787    0.984388    0.120130
      9          1           0       -0.694546    1.482178   -0.415161
     10          1           0       -2.107263    0.951724   -0.681867
     11          1           0       -1.205312    0.620945    1.366150
     12          1           0       -1.432167   -0.927773    1.089000
     13          8           0        1.120463   -1.027606   -1.382920
     14          8           0       -1.699025    1.624765   -0.116431
     15          8           0        1.635952   -0.522134    1.263920
     16          8           0        1.322766    1.477995   -0.580891
     17          8           0       -1.618776   -1.289744   -0.710964
     18          8           0       -0.890314   -0.313575    1.647860
 ---------------------------------------------------------------------

 SCF Done:  E(RHF) =  -458.211795839     A.U. after    2 cycles

 The electronic state is 1-A.
 Alpha  occ. eigenvalues --  -21.10763 -21.08055 -21.07563 -21.07433 -21.06732
 Alpha  occ. eigenvalues --  -21.05882  -1.69283  -1.67758  -1.64513  -1.63662
 Alpha  occ. eigenvalues --   -1.62558  -1.60619  -0.69197  -0.65901  -0.63918
 Alpha  occ. eigenvalues --   -0.62454  -0.60420  -0.59144  -0.52975  -0.51193
 Alpha  occ. eigenvalues --   -0.47779  -0.46948  -0.44665  -0.40369  -0.36245
 Alpha  occ. eigenvalues --   -0.35097  -0.34587  -0.33556  -0.32683  -0.32546
 Alpha virt. eigenvalues --    0.03618   0.04455   0.04814   0.06277   0.07158
 Alpha virt. eigenvalues --    0.07599   0.07858   0.08176   0.08612   0.10488
 Alpha virt. eigenvalues --    0.11411   0.11861   0.17548   0.19240   0.19561

 Mulliken charges:
               1
     1  H    1.577071
     2  H    0.983832
     3  H    2.043032
     4  H    1.737715
     5  H    1.005137
     6  H    1.039383
     7  H    0.798026
     8  H    1.362139
     9  H    1.375795
    10  H    1.002450
    11  H    1.284513
    12  H    1.368233
    13  O   -2.624910
    14  O   -2.261736
    15  O   -2.807712
    16  O   -2.482706
    17  O   -2.216267
    18  O   -3.183996
 Sum of Mulliken charges =   0.00000

 Dipole moment (field-independent basis, Debye):
    X=              0.6782    Y=              0.3479    Z=             -0.0280  Tot=              0.7627

 Test job not archived.
 1\1\GINC-SE249\SP\RHF\Aug-CC-pVDZ\H12O6\OHZDE\08-Apr-2025\0\\#t hf aug
 -cc-pvdz iop(5/13=1,5/36=2,99/5=2) pseudo=read geom=check guess=(read,
 tcheck) scf=(maxcycle=1)\\title\\0,1\H,0,-0.620218,-1.02043,-1.00255\H
 ,0,2.12371,-0.989617,1.96528\H,0,0.581704,-0.263507,1.39434\H,0,1.4663
 7,-0.875601,-0.460967\H,0,1.25898,-0.146497,-1.93056\H,0,1.73807,2.320
 98,-0.783039\H,0,-1.89065,-1.73441,-1.62533\H,0,1.81279,0.984382,0.120
 13\H,0,-0.694542,1.48218,-0.415161\H,0,-2.10726,0.95173,-0.681867\H,0,
 -1.20531,0.620948,1.36615\H,0,-1.43217,-0.927769,1.089\O,0,1.12046,-1.

 Normal termination of Gaussian 16 at Tue Apr  8 21:09:52 2025.
