 Gaussian 16, Revision C.01,

 ----------------------------------------------------------------------
 #t hf aug-cc-pvdz symm=none int=(grid=ultrafine) guess=(read,tcheck) s
 table=(opt,rrhf)
 ----------------------------------------------------------------------
 -----
 title
 -----
 Symbolic Z-matrix:
 Charge =  0 Multiplicity = 1

 SCF Done:  E(RHF) =  -355.353392654     A.U. after   13 cycles
 Normal termination of Gaussian 16 at Tue Apr  8 21:42:07 2025.
 Gaussian 16:  ES64L-G16RevC.01  3-Jul-2019

 ----------------------------------------------------------------------
 #t hf aug-cc-pvdz iop(5/13=1,5/36=2,99/5=2) pseudo=read geom=check gue
 ss=(read,tcheck) scf=(maxcycle=1)
 ----------------------------------------------------------------------
 -----
 title
 -----
 Structure from the checkpoint file:  "ANI1ccx_469_conf3_mol1.chk"
 Charge =  0 Multiplicity = 1

                         Standard orientation:
 ---------------------------------------------------------------------
 Center     Atomic      Atomic             Coordinates (Angstroms)
 Number     Number       Type             X           Y           Z
 ---------------------------------------------------------------------
      1          6           0       -0.784858   -0.010622    0.003160
      2          6           0        1.296770    0.572263    0.012112
      3          1           0        2.157151    1.235228    0.056788
      4          7           0        1.403799   -0.686456   -0.000210
      5          8           0       -1.969030    0.034336    0.011964
      6          8           0        0.050625    1.079590   -0.021909
      7          8           0        0.036503   -1.088910   -0.008424
 ---------------------------------------------------------------------

 SCF Done:  E(RHF) =  -356.790178204     A.U. after    2 cycles

 The electronic state is 1-A.
 Alpha  occ. eigenvalues --  -21.17965 -21.15588 -21.09106 -15.83618 -11.58661
 Alpha  occ. eigenvalues --  -11.51346  -2.03296  -1.78877  -1.73525  -1.31760
 Alpha  occ. eigenvalues --   -0.92179  -0.86749  -0.75513  -0.71006  -0.60628
 Alpha  occ. eigenvalues --   -0.56088  -0.52782  -0.50998  -0.46463  -0.44627
 Alpha  occ. eigenvalues --   -0.33962  -0.31288
 Alpha virt. eigenvalues --    0.02736   0.07988   0.08623   0.08668   0.11476
 Alpha virt. eigenvalues --    0.11591   0.11734   0.13100   0.14621   0.15437
 Alpha virt. eigenvalues --    0.16547   0.18969   0.19072   0.19537   0.22670

 Mulliken charges:
               1
     1  C    5.729133
     2  C    1.518401
     3  H    1.681868
     4  N   -0.730229
     5  O   -2.998826
     6  O   -2.775988
     7  O   -2.424359
 Sum of Mulliken charges =  -0.00000

 Dipole moment (field-independent basis, Debye):
    X=              2.0424    Y=              1.7171    Z=              0.0133  Tot=              2.6683

 Test job not archived.
 1\1\GINC-SE393\SP\RHF\Aug-CC-pVDZ\C2H1N1O3\OHZDE\08-Apr-2025\0\\#t hf
 aug-cc-pvdz iop(5/13=1,5/36=2,99/5=2) pseudo=read geom=check guess=(re
 ad,tcheck) scf=(maxcycle=1)\\title\\0,1\C,0,-0.784858,-0.0106225,0.003
 15978\C,0,1.29677,0.572264,0.0121124\H,0,2.15715,1.23523,0.0567885\N,0
 ,1.4038,-0.686455,-0.00021017\O,0,-1.96903,0.0343348,0.0119643\O,0,0.0
 506238,1.07959,-0.0219086\O,0,0.0365038,-1.08891,-0.00842447\\Version=
 ES64L-G16RevC.01\State=1-A\HF=-356.7901782\RMSD=6.645e-02\Dipole=0.803
 5373,0.6755698,0.0052413\Quadrupole=-1.3579775,0.3224211,1.0355564,3.0

 Normal termination of Gaussian 16 at Tue Apr  8 21:42:09 2025.
