 Gaussian 16, Revision C.01,

 ----------------------------------------------------------------------
 #t hf aug-cc-pvdz symm=none int=(grid=ultrafine) guess=(read,tcheck) s
 table=(opt,rrhf)
 ----------------------------------------------------------------------
 -----
 title
 -----
 Symbolic Z-matrix:
 Charge =  0 Multiplicity = 1

 SCF Done:  E(RHF) =  -869.299051020     A.U. after   14 cycles
 Normal termination of Gaussian 16 at Tue Apr  8 20:29:18 2025.
 Gaussian 16:  ES64L-G16RevC.01  3-Jul-2019

 ----------------------------------------------------------------------
 #t hf aug-cc-pvdz iop(5/13=1,5/36=2,99/5=2) pseudo=read geom=check gue
 ss=(read,tcheck) scf=(maxcycle=1)
 ----------------------------------------------------------------------
 -----
 title
 -----
 Structure from the checkpoint file:  "ANI1ccx_1593_conf11_mol1.chk"
 Charge =  0 Multiplicity = 1

                         Standard orientation:
 ---------------------------------------------------------------------
 Center     Atomic      Atomic             Coordinates (Angstroms)
 Number     Number       Type             X           Y           Z
 ---------------------------------------------------------------------
      1          6           0       -2.253401   -1.161238   -0.208472
      2          6           0       -0.901758   -1.063619    0.566740
      3          6           0       -2.349340   -0.049526   -1.242769
      4          6           0       -1.861579    1.320402   -0.824254
      5          6           0        1.450710   -0.526055    0.461796
      6          6           0        1.448801    0.919051    1.100131
      7          6           0        2.592030   -0.610109   -0.577685
      8          6           0        2.673219   -2.061782   -1.084989
      9          1           0        2.270802    1.944889    2.139321
     10          1           0        3.249128   -2.234272   -1.986999
     11          1           0        3.098908   -2.748052   -0.375676
     12          1           0        1.670948   -2.434701   -1.325439
     13          1           0        1.906521    1.084579   -1.276689
     14          1           0        3.490760   -0.262451   -0.104165
     15          1           0        1.487229   -1.227111    1.328311
     16          1           0        0.089581   -0.731050   -1.250279
     17          1           0       -0.185484    2.170931   -0.677273
     18          1           0       -3.425770    0.029119   -1.448789
     19          1           0       -1.788680   -0.301410   -2.153199
     20          1           0       -2.229472   -2.104408   -0.678785
     21          1           0       -3.614422   -2.303457    0.690371
     22          1           0       -2.771141   -1.323967    1.698061
     23          7           0       -3.271121   -1.390957    0.817337
     24          7           0        0.183984   -0.800468   -0.215173
     25          8           0       -0.800576   -1.246969    1.765841
     26          8           0       -2.414918    1.972122    0.069708
     27          8           0       -0.706229    1.687061   -1.334469
     28          8           0        1.072332    1.965040    0.577376
     29          8           0        2.261730    0.281528   -1.674769
     30          8           0        2.283781    0.988542    2.104201
 ---------------------------------------------------------------------

 SCF Done:  E(RHF) =  -873.103592929     A.U. after    2 cycles

 The electronic state is 1-A.
 Alpha  occ. eigenvalues --  -21.16699 -21.10413 -21.09003 -21.08806 -21.04873
 Alpha  occ. eigenvalues --  -21.03555 -15.77633 -15.72924 -11.57952 -11.54342
 Alpha  occ. eigenvalues --  -11.52936 -11.52249 -11.48378 -11.47243 -11.41947
 Alpha  occ. eigenvalues --  -11.40337  -1.90197  -1.82626  -1.74357  -1.72910
 Alpha  occ. eigenvalues --   -1.69187  -1.63113  -1.42579  -1.35884  -1.18983
 Alpha  occ. eigenvalues --   -1.14523  -1.07281  -0.96885  -0.90353  -0.85965
 Alpha  occ. eigenvalues --   -0.80430  -0.79245  -0.74574  -0.70333  -0.69178
 Alpha  occ. eigenvalues --   -0.68572  -0.66697  -0.65363  -0.62908  -0.60985
 Alpha  occ. eigenvalues --   -0.59305  -0.59181  -0.57769  -0.56454  -0.55152
 Alpha  occ. eigenvalues --   -0.53495  -0.52490  -0.51887  -0.51305  -0.50063
 Alpha  occ. eigenvalues --   -0.47795  -0.47020  -0.43427  -0.41346  -0.37217
 Alpha  occ. eigenvalues --   -0.36128  -0.35642  -0.35033  -0.33911  -0.30796
 Alpha  occ. eigenvalues --   -0.29850  -0.28011
 Alpha virt. eigenvalues --    0.03142   0.03896   0.04643   0.04712   0.05185
 Alpha virt. eigenvalues --    0.05466   0.05720   0.06502   0.07101   0.07435
 Alpha virt. eigenvalues --    0.08067   0.08761   0.09011   0.09964   0.10300

 Mulliken charges:
               1
     1  C   -0.661760
     2  C    5.821323
     3  C   -4.875979
     4  C    7.036857
     5  C   -2.879223
     6  C    7.022658
     7  C    0.583075
     8  C   -4.466420
     9  H    0.631339
    10  H    1.272199
    11  H    1.334445
    12  H    1.600187
    13  H    0.894818
    14  H    1.961942
    15  H    1.921708
    16  H    0.816532
    17  H    1.387277
    18  H    1.254361
    19  H    1.560928
    20  H    2.023758
    21  H    0.437622
    22  H    0.456147
    23  N   -2.946963
    24  N   -1.568072
    25  O   -3.728879
    26  O   -3.253679
    27  O   -3.509108
    28  O   -3.254582
    29  O   -3.344006
    30  O   -3.528506
 Sum of Mulliken charges =   0.00000

 Dipole moment (field-independent basis, Debye):
    X=              3.7065    Y=             -2.2787    Z=             -0.8186  Tot=              4.4272

 Test job not archived.
 1\1\GINC-SE084\SP\RHF\Aug-CC-pVDZ\C8H14N2O6\OHZDE\08-Apr-2025\0\\#t hf
  aug-cc-pvdz iop(5/13=1,5/36=2,99/5=2) pseudo=read geom=check guess=(r
 ead,tcheck) scf=(maxcycle=1)\\title\\0,1\C,0,-2.2534,-1.16124,-0.20847
 3\C,0,-0.901757,-1.06362,0.566739\C,0,-2.34934,-0.0495287,-1.24277\C,0
 ,-1.86158,1.3204,-0.824255\C,0,1.45071,-0.526054,0.461795\C,0,1.4488,0
 .919052,1.10013\C,0,2.59203,-0.610107,-0.577686\C,0,2.67322,-2.06178,-
 1.08499\H,0,2.2708,1.94489,2.13932\H,0,3.24913,-2.23427,-1.987\H,0,3.0
 9891,-2.74805,-0.375677\H,0,1.67095,-2.4347,-1.32544\H,0,1.90652,1.084

 Normal termination of Gaussian 16 at Tue Apr  8 20:29:59 2025.
