 Gaussian 16, Revision C.01,

 ----------------------------------------------------------------------
 #t hf aug-cc-pvdz symm=none int=(grid=ultrafine) guess=(read,tcheck) s
 table=(opt,rrhf)
 ----------------------------------------------------------------------
 -----
 title
 -----
 Symbolic Z-matrix:
 Charge =  0 Multiplicity = 1

 SCF Done:  E(RHF) =  -396.766324843     A.U. after   14 cycles
 Normal termination of Gaussian 16 at Tue Apr  8 21:55:17 2025.
 Gaussian 16:  ES64L-G16RevC.01  3-Jul-2019

 ----------------------------------------------------------------------
 #t hf aug-cc-pvdz iop(5/13=1,5/36=2,99/5=2) pseudo=read geom=check gue
 ss=(read,tcheck) scf=(maxcycle=1)
 ----------------------------------------------------------------------
 -----
 title
 -----
 Structure from the checkpoint file:  "ANI1ccx_744_conf15_mol1.chk"
 Charge =  0 Multiplicity = 1

                         Standard orientation:
 ---------------------------------------------------------------------
 Center     Atomic      Atomic             Coordinates (Angstroms)
 Number     Number       Type             X           Y           Z
 ---------------------------------------------------------------------
      1          6           0       -0.023695    0.741817    0.386626
      2          6           0        1.041039   -0.301651    0.085642
      3          6           0       -1.264251    0.055242    0.829202
      4          1           0       -0.751037    1.330850   -1.419460
      5          1           0        0.733931    1.835650   -1.132010
      6          1           0        0.376713    1.339570    1.223420
      7          1           0       -0.987676   -0.596177    1.629880
      8          1           0       -1.997401    0.763567    1.129370
      9          1           0       -2.506372   -1.335939    0.199906
     10          1           0       -0.299553   -1.033020   -0.909802
     11          7           0       -0.165039    1.708190   -0.669308
     12          8           0        2.184689   -0.214703    0.528914
     13          8           0       -1.845251   -0.742871   -0.228403
     14          8           0        0.669077   -1.196710   -0.781132
 ---------------------------------------------------------------------

 SCF Done:  E(RHF) =  -398.486520753     A.U. after    2 cycles

 The electronic state is 1-A.
 Alpha  occ. eigenvalues --  -21.11312 -21.11292 -21.03461 -15.75672 -11.51805
 Alpha  occ. eigenvalues --  -11.48686 -11.42638  -1.83903  -1.75040  -1.64000
 Alpha  occ. eigenvalues --   -1.37535  -1.11736  -0.93614  -0.79622  -0.74980
 Alpha  occ. eigenvalues --   -0.72185  -0.65185  -0.61770  -0.59071  -0.54432
 Alpha  occ. eigenvalues --   -0.52372  -0.50182  -0.48541  -0.43762  -0.38937
 Alpha  occ. eigenvalues --   -0.36131  -0.31861  -0.27442
 Alpha virt. eigenvalues --    0.02753   0.04650   0.04729   0.05677   0.05882
 Alpha virt. eigenvalues --    0.06981   0.07955   0.10128   0.11223   0.11878
 Alpha virt. eigenvalues --    0.13147   0.13527   0.14736   0.15586   0.16277

 Mulliken charges:
               1
     1  C   -1.424438
     2  C    6.451003
     3  C   -0.941799
     4  H    0.530571
     5  H    0.621037
     6  H    1.519419
     7  H    1.440071
     8  H    1.319776
     9  H    0.835789
    10  H    1.517705
    11  N   -2.636860
    12  O   -3.259770
    13  O   -2.705157
    14  O   -3.267347
 Sum of Mulliken charges =  -0.00000

 Dipole moment (field-independent basis, Debye):
    X=             -3.3298    Y=             -0.4639    Z=             -0.2901  Tot=              3.3745

 Test job not archived.
 1\1\GINC-SE393\SP\RHF\Aug-CC-pVDZ\C3H7N1O3\OHZDE\08-Apr-2025\0\\#t hf
 aug-cc-pvdz iop(5/13=1,5/36=2,99/5=2) pseudo=read geom=check guess=(re
 ad,tcheck) scf=(maxcycle=1)\\title\\0,1\C,0,-0.0236943,0.741817,0.3866
 26\C,0,1.04104,-0.30165,0.0856423\C,0,-1.26425,0.0552419,0.829202\H,0,
 -0.751037,1.33085,-1.41946\H,0,0.733931,1.83565,-1.13201\H,0,0.376713,
 1.33957,1.22342\H,0,-0.987675,-0.596177,1.62988\H,0,-1.9974,0.763566,1
 .12937\H,0,-2.50637,-1.33594,0.199906\H,0,-0.299552,-1.03302,-0.909802
 \N,0,-0.165039,1.70819,-0.669308\O,0,2.18469,-0.214702,0.528914\O,0,-1

 Normal termination of Gaussian 16 at Tue Apr  8 21:55:21 2025.
