 Gaussian 16, Revision C.01,

 ----------------------------------------------------------------------
 #t hf aug-cc-pvdz symm=none int=(grid=ultrafine) guess=(read,tcheck) s
 table=(opt,rrhf)
 ----------------------------------------------------------------------
 -----
 title
 -----
 Symbolic Z-matrix:
 Charge =  0 Multiplicity = 1

 SCF Done:  E(RHF) =  -456.279328482     A.U. after   11 cycles
 Normal termination of Gaussian 16 at Tue Apr  8 21:09:44 2025.
 Gaussian 16:  ES64L-G16RevC.01  3-Jul-2019

 ----------------------------------------------------------------------
 #t hf aug-cc-pvdz iop(5/13=1,5/36=2,99/5=2) pseudo=read geom=check gue
 ss=(read,tcheck) scf=(maxcycle=1)
 ----------------------------------------------------------------------
 -----
 title
 -----
 Structure from the checkpoint file:  "ANI1ccx_1844_conf68_mol1.chk"
 Charge =  0 Multiplicity = 1

                         Standard orientation:
 ---------------------------------------------------------------------
 Center     Atomic      Atomic             Coordinates (Angstroms)
 Number     Number       Type             X           Y           Z
 ---------------------------------------------------------------------
      1          1           0       -1.383597   -2.033612    1.610040
      2          1           0       -2.081991    0.880850   -0.225454
      3          1           0       -3.330710   -0.039127   -0.629224
      4          1           0        1.830078    1.171052    0.466628
      5          1           0        1.223447    1.903652    1.722400
      6          1           0       -0.068197    2.045720   -0.358723
      7          1           0       -1.929778   -1.276863    0.376790
      8          1           0       -1.289574    2.965328   -0.525063
      9          1           0        1.189554   -2.988518   -0.709486
     10          1           0        0.160136   -1.928280   -0.176117
     11          1           0        2.192891   -0.983362   -0.194188
     12          1           0        3.241910   -0.020355   -0.757136
     13          8           0        1.316487    1.985242    0.752640
     14          8           0        0.979847   -2.039709   -0.762324
     15          8           0       -2.751800    0.224162    0.097659
     16          8           0       -0.921407    2.118799   -0.849845
     17          8           0       -1.348537   -2.048262    0.631285
     18          8           0        2.756140   -0.202293    0.055527
 ---------------------------------------------------------------------

 SCF Done:  E(RHF) =  -458.261192565     A.U. after    2 cycles

 The electronic state is 1-A.
 Alpha  occ. eigenvalues --  -21.08769 -21.08469 -21.07995 -21.07885 -21.07742
 Alpha  occ. eigenvalues --  -21.07241  -1.68703  -1.67303  -1.66635  -1.64242
 Alpha  occ. eigenvalues --   -1.63619  -1.62623  -0.65048  -0.63910  -0.63731
 Alpha  occ. eigenvalues --   -0.63249  -0.63096  -0.62387  -0.52903  -0.50442
 Alpha  occ. eigenvalues --   -0.49491  -0.44070  -0.43895  -0.41075  -0.35486
 Alpha  occ. eigenvalues --   -0.34960  -0.34639  -0.34159  -0.33904  -0.33293
 Alpha virt. eigenvalues --    0.03873   0.04892   0.05158   0.05392   0.06346
 Alpha virt. eigenvalues --    0.06779   0.08695   0.09190   0.09543   0.10257
 Alpha virt. eigenvalues --    0.11202   0.11576   0.18649   0.19469   0.19655

 Mulliken charges:
               1
     1  H    0.814264
     2  H    1.483774
     3  H    0.755604
     4  H    1.636209
     5  H    0.877072
     6  H    1.507163
     7  H    1.520691
     8  H    0.785346
     9  H    0.826994
    10  H    1.606912
    11  H    1.497498
    12  H    0.796294
    13  O   -2.478887
    14  O   -2.366281
    15  O   -2.227372
    16  O   -2.260527
    17  O   -2.458937
    18  O   -2.315817
 Sum of Mulliken charges =  -0.00000

 Dipole moment (field-independent basis, Debye):
    X=             -0.4175    Y=             -0.4344    Z=              0.3717  Tot=              0.7079

 Test job not archived.
 1\1\GINC-SE079\SP\RHF\Aug-CC-pVDZ\H12O6\OHZDE\08-Apr-2025\0\\#t hf aug
 -cc-pvdz iop(5/13=1,5/36=2,99/5=2) pseudo=read geom=check guess=(read,
 tcheck) scf=(maxcycle=1)\\title\\0,1\H,0,-1.3836,-2.03361,1.61004\H,0,
 -2.08199,0.880853,-0.225454\H,0,-3.33071,-0.0391227,-0.629224\H,0,1.83
 008,1.17105,0.466628\H,0,1.22345,1.90365,1.7224\H,0,-0.0681942,2.04572
 ,-0.358723\H,0,-1.92978,-1.27686,0.37679\H,0,-1.28957,2.96533,-0.52506
 3\H,0,1.18955,-2.98852,-0.709486\H,0,0.160134,-1.92828,-0.176117\H,0,2
 .19289,-0.983365,-0.194188\H,0,3.24191,-0.0203596,-0.757136\O,0,1.3164

 Normal termination of Gaussian 16 at Tue Apr  8 21:09:49 2025.
