 Gaussian 16, Revision C.01,

 ----------------------------------------------------------------------
 #t hf aug-cc-pvdz symm=none int=(grid=ultrafine) guess=(read,tcheck) s
 table=(opt,rrhf)
 ----------------------------------------------------------------------
 -----
 title
 -----
 Symbolic Z-matrix:
 Charge =  0 Multiplicity = 1

 SCF Done:  E(RHF) =  -532.259453238     A.U. after   11 cycles
 Normal termination of Gaussian 16 at Tue Apr  8 21:12:10 2025.
 Gaussian 16:  ES64L-G16RevC.01  3-Jul-2019

 ----------------------------------------------------------------------
 #t hf aug-cc-pvdz iop(5/13=1,5/36=2,99/5=2) pseudo=read geom=check gue
 ss=(read,tcheck) scf=(maxcycle=1)
 ----------------------------------------------------------------------
 -----
 title
 -----
 Structure from the checkpoint file:  "ANI1ccx_1845_conf463_mol1.chk"
 Charge =  0 Multiplicity = 1

                         Standard orientation:
 ---------------------------------------------------------------------
 Center     Atomic      Atomic             Coordinates (Angstroms)
 Number     Number       Type             X           Y           Z
 ---------------------------------------------------------------------
      1          1           0       -1.246009   -2.781811    0.817250
      2          1           0        1.644761   -2.603169   -0.855264
      3          1           0        0.319337   -1.745160   -0.327449
      4          1           0       -2.988251    0.227657    0.015195
      5          1           0       -3.902360   -0.868749   -0.658695
      6          1           0       -2.053260   -1.663261    0.070249
      7          1           0       -1.356922    1.979419   -0.054075
      8          1           0        2.758778    0.940092   -0.017627
      9          1           0       -2.162043    2.200059    1.272230
     10          1           0        2.590340   -1.082568    0.667925
     11          1           0        3.008849   -0.255276    2.030030
     12          1           0        0.071825    3.444820   -0.612471
     13          1           0        1.040137    2.090401   -0.543627
     14          1           0        1.986729   -0.139117   -1.021570
     15          8           0       -1.258179   -2.317391   -0.021110
     16          8           0        2.215518    0.799305   -0.907616
     17          8           0       -3.411601   -0.728695    0.094142
     18          8           0        3.203319   -0.443267    1.054700
     19          8           0        1.299740   -1.681689   -0.548862
     20          8           0       -2.293412    1.791839    0.277809
     21          8           0        0.280626    2.611980   -0.046823
 ---------------------------------------------------------------------

 SCF Done:  E(RHF) =  -534.589573377     A.U. after    2 cycles

 The electronic state is 1-A.
 Alpha  occ. eigenvalues --  -21.09099 -21.08215 -21.07860 -21.07856 -21.07742
 Alpha  occ. eigenvalues --  -21.07260 -21.03565  -1.68759  -1.67352  -1.65516
 Alpha  occ. eigenvalues --   -1.64202  -1.63167  -1.61562  -1.59562  -0.66323
 Alpha  occ. eigenvalues --   -0.65416  -0.64223  -0.63641  -0.62662  -0.60954
 Alpha  occ. eigenvalues --   -0.59335  -0.52820  -0.50617  -0.49243  -0.46005
 Alpha  occ. eigenvalues --   -0.43828  -0.42463  -0.39215  -0.35974  -0.35096
 Alpha  occ. eigenvalues --   -0.34870  -0.34228  -0.33406  -0.31996  -0.31020
 Alpha virt. eigenvalues --    0.03766   0.04568   0.04942   0.05230   0.05903
 Alpha virt. eigenvalues --    0.06194   0.08197   0.08588   0.09145   0.09462
 Alpha virt. eigenvalues --    0.10074   0.10968   0.11219   0.11580   0.17056

 Mulliken charges:
               1
     1  H    0.754680
     2  H    0.903537
     3  H    1.826193
     4  H    1.492876
     5  H    0.786980
     6  H    1.674510
     7  H    1.470825
     8  H    1.199258
     9  H    0.826870
    10  H    1.493387
    11  H    0.802156
    12  H    0.786716
    13  H    1.367445
    14  H    1.696876
    15  O   -2.424740
    16  O   -2.898567
    17  O   -2.263423
    18  O   -2.065016
    19  O   -2.908060
    20  O   -2.425888
    21  O   -2.096616
 Sum of Mulliken charges =  -0.00000

 Dipole moment (field-independent basis, Debye):
    X=             -1.1750    Y=             -0.8456    Z=              0.4940  Tot=              1.5296

 Test job not archived.
 1\1\GINC-SE088\SP\RHF\Aug-CC-pVDZ\H14O7\OHZDE\08-Apr-2025\0\\#t hf aug
 -cc-pvdz iop(5/13=1,5/36=2,99/5=2) pseudo=read geom=check guess=(read,
 tcheck) scf=(maxcycle=1)\\title\\0,1\H,0,-1.24601,-2.78181,0.81725\H,0
 ,1.64476,-2.60317,-0.855264\H,0,0.319337,-1.74516,-0.327449\H,0,-2.988
 25,0.227659,0.0151952\H,0,-3.90236,-0.868747,-0.658695\H,0,-2.05326,-1
 .66326,0.0702496\H,0,-1.35692,1.97942,-0.0540745\H,0,2.75878,0.94009,-
 0.0176266\H,0,-2.16204,2.20006,1.27223\H,0,2.59034,-1.08257,0.667925\H
 ,0,3.00885,-0.255278,2.03003\H,0,0.0718285,3.44482,-0.612471\H,0,1.040

 Normal termination of Gaussian 16 at Tue Apr  8 21:12:18 2025.
