 Gaussian 16, Revision C.01,

 ----------------------------------------------------------------------
 #t hf aug-cc-pvdz symm=none int=(grid=ultrafine) guess=(read,tcheck) s
 table=(opt,rrhf)
 ----------------------------------------------------------------------
 -----
 title
 -----
 Symbolic Z-matrix:
 Charge =  0 Multiplicity = 1

 SCF Done:  E(RHF) =  -380.200938290     A.U. after   11 cycles
 Normal termination of Gaussian 16 at Tue Apr  8 21:04:26 2025.
 Gaussian 16:  ES64L-G16RevC.01  3-Jul-2019

 ----------------------------------------------------------------------
 #t hf aug-cc-pvdz iop(5/13=1,5/36=2,99/5=2) pseudo=read geom=check gue
 ss=(read,tcheck) scf=(maxcycle=1)
 ----------------------------------------------------------------------
 -----
 title
 -----
 Structure from the checkpoint file:  "ANI1ccx_1843_conf188_mol1.chk"
 Charge =  0 Multiplicity = 1

                         Standard orientation:
 ---------------------------------------------------------------------
 Center     Atomic      Atomic             Coordinates (Angstroms)
 Number     Number       Type             X           Y           Z
 ---------------------------------------------------------------------
      1          1           0       -0.128333    1.493232    0.640016
      2          1           0        1.017274    1.427628    1.904869
      3          1           0       -1.868408    0.674500   -0.251829
      4          1           0       -1.372515    1.828285   -1.270761
      5          1           0       -2.729634   -1.601831    0.172793
      6          1           0       -1.172593   -1.146376   -0.000570
      7          1           0        1.056506   -1.369622   -0.139488
      8          1           0        0.533295   -0.667812    1.135829
      9          1           0        3.127449   -0.303166   -0.687994
     10          1           0        1.968092    0.586114   -0.421847
     11          8           0        0.700586    0.997695    0.971583
     12          8           0       -1.376126    1.520455   -0.349269
     13          8           0       -2.097363   -1.020033   -0.351012
     14          8           0        0.468770   -1.506010    0.627241
     15          8           0        2.250240   -0.107226   -1.033671
 ---------------------------------------------------------------------

 SCF Done:  E(RHF) =  -381.852645861     A.U. after    2 cycles

 The electronic state is 1-A.
 Alpha  occ. eigenvalues --  -21.08767 -21.08502 -21.07955 -21.07295 -21.04820
 Alpha  occ. eigenvalues --   -1.69364  -1.66703  -1.64466  -1.64266  -1.60909
 Alpha  occ. eigenvalues --   -0.66995  -0.65651  -0.63078  -0.62376  -0.61933
 Alpha  occ. eigenvalues --   -0.52111  -0.48703  -0.47145  -0.44352  -0.39192
 Alpha  occ. eigenvalues --   -0.35889  -0.35227  -0.34061  -0.33026  -0.31717
 Alpha virt. eigenvalues --    0.03572   0.04879   0.05369   0.05717   0.07405
 Alpha virt. eigenvalues --    0.07757   0.08595   0.09008   0.10736   0.11436
 Alpha virt. eigenvalues --    0.17698   0.18708   0.20956   0.21447   0.21842

 Mulliken charges:
               1
     1  H    1.790370
     2  H    0.912651
     3  H    1.410551
     4  H    0.896163
     5  H    0.771334
     6  H    1.535360
     7  H    1.120122
     8  H    1.636507
     9  H    0.804552
    10  H    1.322566
    11  O   -3.089313
    12  O   -2.436006
    13  O   -2.318048
    14  O   -2.495536
    15  O   -1.861273
 Sum of Mulliken charges =  -0.00000

 Dipole moment (field-independent basis, Debye):
    X=              0.1061    Y=              1.1092    Z=              0.5210  Tot=              1.2301

 Test job not archived.
 1\1\GINC-SE364\SP\RHF\Aug-CC-pVDZ\H10O5\OHZDE\08-Apr-2025\0\\#t hf aug
 -cc-pvdz iop(5/13=1,5/36=2,99/5=2) pseudo=read geom=check guess=(read,
 tcheck) scf=(maxcycle=1)\\title\\0,1\H,0,-0.128337,1.49323,0.640017\H,
 0,1.01727,1.42763,1.90487\H,0,-1.86841,0.674494,-0.251828\H,0,-1.37252
 ,1.82828,-1.27076\H,0,-2.72963,-1.60184,0.172794\H,0,-1.17259,-1.14638
 ,-0.0005696\H,0,1.05651,-1.36962,-0.139487\H,0,0.533297,-0.667812,1.13
 583\H,0,3.12745,-0.303159,-0.687993\H,0,1.96809,0.586118,-0.421846\O,0
 ,0.700583,0.997696,0.971584\O,0,-1.37613,1.52045,-0.349268\O,0,-2.0973

 Normal termination of Gaussian 16 at Tue Apr  8 21:04:30 2025.
