 Gaussian 16, Revision C.01,

 ----------------------------------------------------------------------
 #t hf aug-cc-pvdz symm=none int=(grid=ultrafine) guess=(read,tcheck) s
 table=(opt,rrhf)
 ----------------------------------------------------------------------
 -----
 title
 -----
 Symbolic Z-matrix:
 Charge =  0 Multiplicity = 1

 SCF Done:  E(RHF) =  -674.271326489     A.U. after   18 cycles
 Normal termination of Gaussian 16 at Tue Apr  8 19:39:48 2025.
 Gaussian 16:  ES64L-G16RevC.01  3-Jul-2019

 ----------------------------------------------------------------------
 #t hf aug-cc-pvdz iop(5/13=1,5/36=2,99/5=2) pseudo=read geom=check gue
 ss=(read,tcheck) scf=(maxcycle=1)
 ----------------------------------------------------------------------
 -----
 title
 -----
 Structure from the checkpoint file:  "ANI1ccx_1351_conf2_mol2.chk"
 Charge =  0 Multiplicity = 1

                         Standard orientation:
 ---------------------------------------------------------------------
 Center     Atomic      Atomic             Coordinates (Angstroms)
 Number     Number       Type             X           Y           Z
 ---------------------------------------------------------------------
      1          6           0        3.446121    0.542011    0.007190
      2          6           0        1.138561    0.040967    0.020702
      3          6           0       -0.326780    1.771631   -0.008774
      4          6           0       -1.222039   -0.301529    0.012006
      5          6           0       -3.566090   -0.497107    0.011887
      6          6           0        0.060872   -0.885477    0.016143
      7          1           0       -3.694229    0.092957    0.929011
      8          1           0       -4.284000   -1.311706   -0.029923
      9          1           0       -3.680879    0.165486   -0.846933
     10          1           0       -1.445626    3.476082   -0.072169
     11          1           0        3.399012    1.173407    0.901051
     12          1           0        4.357531   -0.053337   -0.000198
     13          1           0        3.389142    1.170457   -0.894846
     14          1           0        0.288286    3.724660   -0.075013
     15          7           0        0.949743    1.352739    0.011209
     16          7           0       -0.512323    3.104551   -0.008515
     17          7           0       -1.429278    1.006992   -0.019486
     18          7           0        0.114000   -2.290890   -0.045200
     19          8           0       -2.269560   -1.121048    0.020547
     20          8           0        2.376550   -0.419333    0.022559
     21          8           0        1.221998   -2.793961   -0.022100
 ---------------------------------------------------------------------

 SCF Done:  E(RHF) =  -677.240608177     A.U. after    2 cycles

 The electronic state is 1-A.
 Alpha  occ. eigenvalues --  -21.09800 -21.09738 -21.07412 -15.83550 -15.79383
 Alpha  occ. eigenvalues --  -15.73206 -15.73109 -11.55942 -11.55195 -11.51323
 Alpha  occ. eigenvalues --  -11.42210 -11.42150 -11.40853  -1.84918  -1.81684
 Alpha  occ. eigenvalues --   -1.80423  -1.54080  -1.34089  -1.31232  -1.20522
 Alpha  occ. eigenvalues --   -1.04679  -1.02599  -0.96994  -0.87609  -0.86058
 Alpha  occ. eigenvalues --   -0.74821  -0.71667  -0.67640  -0.67023  -0.63142
 Alpha  occ. eigenvalues --   -0.62929  -0.61870  -0.60140  -0.59871  -0.58847
 Alpha  occ. eigenvalues --   -0.54314  -0.54045  -0.49692  -0.49312  -0.47134
 Alpha  occ. eigenvalues --   -0.46007  -0.42589  -0.42350  -0.36161  -0.36051
 Alpha  occ. eigenvalues --   -0.32766  -0.27973  -0.23650
 Alpha virt. eigenvalues --    0.03148   0.04034   0.04737   0.05762   0.05815
 Alpha virt. eigenvalues --    0.06449   0.06579   0.07431   0.08634   0.09723
 Alpha virt. eigenvalues --    0.11243   0.11708   0.11849   0.12291   0.13260

 Mulliken charges:
               1
     1  C   -3.396508
     2  C    6.943381
     3  C    3.650970
     4  C    7.322261
     5  C   -3.510696
     6  C   -0.303248
     7  H    1.344681
     8  H    1.549014
     9  H    1.348539
    10  H    0.698448
    11  H    1.381018
    12  H    1.560321
    13  H    1.361927
    14  H    0.699108
    15  N   -3.291948
    16  N   -3.008883
    17  N   -3.453120
    18  N    0.315999
    19  O   -4.432181
    20  O   -4.267916
    21  O   -2.511168
 Sum of Mulliken charges =  -0.00000

 Dipole moment (field-independent basis, Debye):
    X=              0.0524    Y=              3.8770    Z=             -0.1197  Tot=              3.8792

 Test job not archived.
 1\1\GINC-SE462\SP\RHF\Aug-CC-pVDZ\C6H8N4O3\OHZDE\08-Apr-2025\0\\#t hf
 aug-cc-pvdz iop(5/13=1,5/36=2,99/5=2) pseudo=read geom=check guess=(re
 ad,tcheck) scf=(maxcycle=1)\\title\\0,1\C,0,3.44612,0.542014,0.0071899
 5\C,0,1.13856,0.0409681,0.0207018\C,0,-0.326783,1.77163,-0.00877418\C,
 0,-1.22204,-0.30153,0.0120056\C,0,-3.56609,-0.497111,0.0118872\C,0,0.0
 608716,-0.885477,0.0161427\H,0,-3.69423,0.0929534,0.929011\H,0,-4.284,
 -1.31171,-0.0299234\H,0,-3.68088,0.165482,-0.846933\H,0,-1.44563,3.476
 08,-0.0721691\H,0,3.39901,1.17341,0.901051\H,0,4.35753,-0.0533331,-0.0

 Normal termination of Gaussian 16 at Tue Apr  8 19:40:02 2025.
