 Gaussian 16, Revision C.01,

 ----------------------------------------------------------------------
 #t hf aug-cc-pvdz symm=none int=(grid=ultrafine) guess=(read,tcheck) s
 table=(opt,rrhf)
 ----------------------------------------------------------------------
 -----
 title
 -----
 Symbolic Z-matrix:
 Charge =  0 Multiplicity = 1

 SCF Done:  E(RHF) =  -331.688801970     A.U. after   14 cycles
 Normal termination of Gaussian 16 at Tue Apr  8 21:35:40 2025.
 Gaussian 16:  ES64L-G16RevC.01  3-Jul-2019

 ----------------------------------------------------------------------
 #t hf aug-cc-pvdz iop(5/13=1,5/36=2,99/5=2) pseudo=read geom=check gue
 ss=(read,tcheck) scf=(maxcycle=1)
 ----------------------------------------------------------------------
 -----
 title
 -----
 Structure from the checkpoint file:  "ANI1ccx_378_conf1_mol2.chk"
 Charge =  0 Multiplicity = 1

                         Standard orientation:
 ---------------------------------------------------------------------
 Center     Atomic      Atomic             Coordinates (Angstroms)
 Number     Number       Type             X           Y           Z
 ---------------------------------------------------------------------
      1          6           0        0.791191    0.011723   -0.005954
      2          1           0        0.167481   -2.021131    0.005238
      3          1           0        0.079660    2.050599    0.039054
      4          7           0       -0.098904   -1.050651    0.038938
      5          7           0       -1.381201   -0.647501   -0.024019
      6          7           0       -1.405921    0.614172   -0.017133
      7          7           0       -0.117546    1.065929    0.024477
      8          8           0        2.003839    0.003319   -0.020552
 ---------------------------------------------------------------------

 SCF Done:  E(RHF) =  -333.102294645     A.U. after    2 cycles

 The electronic state is 1-A.
 Alpha  occ. eigenvalues --  -21.04875 -15.84477 -15.83936 -15.83067 -15.82837
 Alpha  occ. eigenvalues --  -11.53766  -1.79524  -1.69324  -1.41801  -1.30240
 Alpha  occ. eigenvalues --   -0.94012  -0.93512  -0.75931  -0.71484  -0.67325
 Alpha  occ. eigenvalues --   -0.57335  -0.50548  -0.49812  -0.47576  -0.46685
 Alpha  occ. eigenvalues --   -0.31411  -0.29752
 Alpha virt. eigenvalues --    0.03521   0.05022   0.10786   0.10811   0.11443
 Alpha virt. eigenvalues --    0.11594   0.13409   0.14107   0.15052   0.16793
 Alpha virt. eigenvalues --    0.17239   0.17299   0.18178   0.19440   0.20505

 Mulliken charges:
               1
     1  C    5.068929
     2  H    0.830604
     3  H    0.832074
     4  N   -1.677836
     5  N   -0.238557
     6  N   -0.295353
     7  N   -1.703252
     8  O   -2.816609
 Sum of Mulliken charges =   0.00000

 Dipole moment (field-independent basis, Debye):
    X=             -0.0716    Y=              0.0077    Z=              0.0405  Tot=              0.0826

 Test job not archived.
 1\1\GINC-SE455\SP\RHF\Aug-CC-pVDZ\C1H2N4O1\OHZDE\08-Apr-2025\0\\#t hf
 aug-cc-pvdz iop(5/13=1,5/36=2,99/5=2) pseudo=read geom=check guess=(re
 ad,tcheck) scf=(maxcycle=1)\\title\\0,1\C,0,0.791192,0.0117236,-0.0059
 5436\H,0,0.167481,-2.02113,0.00523799\H,0,0.079661,2.0506,0.0390539\N,
 0,-0.0989038,-1.05065,0.0389385\N,0,-1.3812,-0.6475,-0.0240188\N,0,-1.
 40592,0.614173,-0.0171326\N,0,-0.117545,1.06593,0.0244769\O,0,2.00384,
 0.00331939,-0.0205517\\Version=ES64L-G16RevC.01\State=1-A\HF=-333.1022
 946\RMSD=8.807e-02\Dipole=-0.0281524,0.0030196,0.0159418\Quadrupole=-7

 Normal termination of Gaussian 16 at Tue Apr  8 21:35:43 2025.
