 Gaussian 16, Revision C.01,

 ----------------------------------------------------------------------
 #t hf aug-cc-pvdz symm=none int=(grid=ultrafine) guess=(read,tcheck) s
 table=(opt,rrhf)
 ----------------------------------------------------------------------
 -----
 title
 -----
 Symbolic Z-matrix:
 Charge =  0 Multiplicity = 1

 SCF Done:  E(RHF) =  -585.404230974     A.U. after   15 cycles
 Normal termination of Gaussian 16 at Tue Apr  8 22:18:07 2025.
 Gaussian 16:  ES64L-G16RevC.01  3-Jul-2019

 ----------------------------------------------------------------------
 #t hf aug-cc-pvdz iop(5/13=1,5/36=2,99/5=2) pseudo=read geom=check gue
 ss=(read,tcheck) scf=(maxcycle=1)
 ----------------------------------------------------------------------
 -----
 title
 -----
 Structure from the checkpoint file:  "ANI1ccx_978_conf3_mol1.chk"
 Charge =  0 Multiplicity = 1

                         Standard orientation:
 ---------------------------------------------------------------------
 Center     Atomic      Atomic             Coordinates (Angstroms)
 Number     Number       Type             X           Y           Z
 ---------------------------------------------------------------------
      1          6           0       -0.255180   -1.491960    0.160076
      2          6           0        0.165294   -0.151238   -0.434716
      3          6           0        1.545550   -0.185859   -0.993519
      4          6           0       -0.918211    0.432425   -1.403431
      5          1           0       -2.424860   -0.091810   -0.256858
      6          1           0       -0.965819   -0.264990   -2.311971
      7          1           0       -0.567364    1.394060   -1.761481
      8          1           0        1.937480    0.859927   -1.204871
      9          1           0        3.285390   -0.636486   -0.329562
     10          1           0       -0.308622   -2.231930   -0.582841
     11          1           0        0.600602   -1.750260    0.829976
     12          1           0       -1.325440   -1.033730    1.626169
     13          1           0        1.531770   -0.717778   -1.993911
     14          7           0        0.271119    0.882651    0.737614
     15          8           0       -0.251747    0.667137    1.817749
     16          8           0       -1.505410   -1.528590    0.813941
     17          8           0        2.379980   -0.872762   -0.029918
     18          8           0       -2.226760    0.614253   -0.918736
     19          8           0        0.743225    1.954240    0.423410
 ---------------------------------------------------------------------

 SCF Done:  E(RHF) =  -587.945161720     A.U. after    2 cycles

 The electronic state is 1-A.
 Alpha  occ. eigenvalues --  -21.10631 -21.10311 -21.10082 -21.08923 -21.07452
 Alpha  occ. eigenvalues --  -15.99336 -11.52244 -11.49638 -11.48170 -11.42723
 Alpha  occ. eigenvalues --   -2.01247  -1.75843  -1.73121  -1.71449  -1.69738
 Alpha  occ. eigenvalues --   -1.28092  -1.01100  -1.00294  -0.98935  -0.79669
 Alpha  occ. eigenvalues --   -0.74824  -0.72442  -0.68436  -0.66921  -0.62589
 Alpha  occ. eigenvalues --   -0.60579  -0.60008  -0.59212  -0.56800  -0.54578
 Alpha  occ. eigenvalues --   -0.53465  -0.46716  -0.46254  -0.41802  -0.36698
 Alpha  occ. eigenvalues --   -0.35174  -0.33808  -0.31864  -0.31531  -0.31062
 Alpha virt. eigenvalues --    0.03283   0.04296   0.04985   0.05118   0.05551
 Alpha virt. eigenvalues --    0.06032   0.07156   0.07676   0.08797   0.11268
 Alpha virt. eigenvalues --    0.11783   0.12208   0.12697   0.13823   0.14239

 Mulliken charges:
               1
     1  C    0.668652
     2  C   -0.693433
     3  C   -0.481185
     4  C    0.176115
     5  H    0.993026
     6  H    1.121067
     7  H    1.465104
     8  H    1.631275
     9  H    0.744962
    10  H    1.250845
    11  H    1.232990
    12  H    0.784419
    13  H    1.311801
    14  N    4.391322
    15  O   -2.930268
    16  O   -2.732362
    17  O   -2.695927
    18  O   -3.004363
    19  O   -3.234042
 Sum of Mulliken charges =   0.00000

 Dipole moment (field-independent basis, Debye):
    X=              1.5191    Y=             -1.4365    Z=             -1.2499  Tot=              2.4359

 Test job not archived.
 1\1\GINC-SE094\SP\RHF\Aug-CC-pVDZ\C4H9N1O5\OHZDE\08-Apr-2025\0\\#t hf
 aug-cc-pvdz iop(5/13=1,5/36=2,99/5=2) pseudo=read geom=check guess=(re
 ad,tcheck) scf=(maxcycle=1)\\title\\0,1\C,0,-0.25518,-1.49196,0.160077
 \C,0,0.165294,-0.151238,-0.434715\C,0,1.54555,-0.185859,-0.993518\C,0,
 -0.918211,0.432425,-1.40343\H,0,-2.42486,-0.0918103,-0.256857\H,0,-0.9
 65819,-0.26499,-2.31197\H,0,-0.567364,1.39406,-1.76148\H,0,1.93748,0.8
 59927,-1.20487\H,0,3.28539,-0.636486,-0.329561\H,0,-0.308622,-2.23193,
 -0.58284\H,0,0.600602,-1.75026,0.829977\H,0,-1.32544,-1.03373,1.62617\

 Normal termination of Gaussian 16 at Tue Apr  8 22:18:17 2025.
