 Gaussian 16, Revision C.01,

 ----------------------------------------------------------------------
 #t hf aug-cc-pvdz symm=none int=(grid=ultrafine) guess=(read,tcheck) s
 table=(opt,rrhf)
 ----------------------------------------------------------------------
 -----
 title
 -----
 Symbolic Z-matrix:
 Charge =  0 Multiplicity = 1

 SCF Done:  E(RHF) =  -463.362015119     A.U. after   16 cycles
 Normal termination of Gaussian 16 at Tue Apr  8 19:20:46 2025.
 Gaussian 16:  ES64L-G16RevC.01  3-Jul-2019

 ----------------------------------------------------------------------
 #t hf aug-cc-pvdz iop(5/13=1,5/36=2,99/5=2) pseudo=read geom=check gue
 ss=(read,tcheck) scf=(maxcycle=1)
 ----------------------------------------------------------------------
 -----
 title
 -----
 Structure from the checkpoint file:  "ANI1ccx_1081_conf2_mol1.chk"
 Charge =  0 Multiplicity = 1

                         Standard orientation:
 ---------------------------------------------------------------------
 Center     Atomic      Atomic             Coordinates (Angstroms)
 Number     Number       Type             X           Y           Z
 ---------------------------------------------------------------------
      1          6           0       -0.622025    0.915179    0.013192
      2          6           0        1.266899   -0.202149    0.004503
      3          6           0       -0.855070   -0.395330   -0.004705
      4          6           0       -2.162521   -1.065329   -0.017532
      5          6           0        2.684409   -0.348565    0.002188
      6          1           0       -1.354380    2.813541    0.549292
      7          1           0       -2.481060    1.741251   -0.087030
      8          1           0        1.271760    1.918151   -0.132651
      9          7           0       -1.499860    2.006801   -0.071142
     10          7           0        0.731491    1.072511   -0.009377
     11          7           0        0.310466   -1.101339   -0.036510
     12          7           0       -3.262481   -1.429458    0.042737
     13          7           0        3.819459   -0.533626    0.029222
 ---------------------------------------------------------------------

 SCF Done:  E(RHF) =  -465.416362636     A.U. after    2 cycles

 The electronic state is 1-A.
 Alpha  occ. eigenvalues --  -15.85211 -15.81247 -15.79908 -15.78775 -15.77764
 Alpha  occ. eigenvalues --  -11.54589 -11.53402 -11.48340 -11.46771 -11.44274
 Alpha  occ. eigenvalues --   -1.64992  -1.39742  -1.34968  -1.32856  -1.29797
 Alpha  occ. eigenvalues --   -1.14493  -0.95910  -0.93226  -0.81763  -0.73444
 Alpha  occ. eigenvalues --   -0.69844  -0.68545  -0.64192  -0.63930  -0.55325
 Alpha  occ. eigenvalues --   -0.53245  -0.53007  -0.50166  -0.48430  -0.46727
 Alpha  occ. eigenvalues --   -0.45723  -0.43671  -0.40766  -0.31430
 Alpha virt. eigenvalues --    0.01952   0.04012   0.05343   0.07570   0.07963
 Alpha virt. eigenvalues --    0.09530   0.09981   0.10385   0.10858   0.11340
 Alpha virt. eigenvalues --    0.11620   0.12348   0.12935   0.13088   0.14042

 Mulliken charges:
               1
     1  C    3.140087
     2  C    3.483207
     3  C    3.290894
     4  C    2.381078
     5  C    2.108343
     6  H    0.629170
     7  H    0.512836
     8  H    0.818902
     9  N   -3.362215
    10  N   -3.650916
    11  N   -3.926864
    12  N   -2.600680
    13  N   -2.823844
 Sum of Mulliken charges =   0.00000

 Dipole moment (field-independent basis, Debye):
    X=             -0.2310    Y=              6.2468    Z=              0.5234  Tot=              6.2729

 Test job not archived.
 1\1\GINC-SE458\SP\RHF\Aug-CC-pVDZ\C5H3N5\OHZDE\08-Apr-2025\0\\#t hf au
 g-cc-pvdz iop(5/13=1,5/36=2,99/5=2) pseudo=read geom=check guess=(read
 ,tcheck) scf=(maxcycle=1)\\title\\0,1\C,0,-0.622025,0.915178,0.0131919
 \C,0,1.2669,-0.20215,0.00450334\C,0,-0.855069,-0.395331,-0.00470475\C,
 0,-2.16252,-1.06533,-0.0175324\C,0,2.68441,-0.348565,0.00218797\H,0,-1
 .35438,2.81354,0.549292\H,0,-2.48106,1.74125,-0.08703\H,0,1.27176,1.91
 815,-0.132651\N,0,-1.49986,2.0068,-0.0711422\N,0,0.731491,1.07251,-0.0
 093769\N,0,0.310467,-1.10134,-0.0365101\N,0,-3.26248,-1.42946,0.042737

 Normal termination of Gaussian 16 at Tue Apr  8 19:20:51 2025.
