 Gaussian 16, Revision C.01,

 ----------------------------------------------------------------------
 #t hf aug-cc-pvdz symm=none int=(grid=ultrafine) guess=(read,tcheck) s
 table=(opt,rrhf)
 ----------------------------------------------------------------------
 -----
 title
 -----
 Symbolic Z-matrix:
 Charge =  0 Multiplicity = 1

 SCF Done:  E(RHF) =  -466.626747633     A.U. after   13 cycles
 Normal termination of Gaussian 16 at Tue Apr  8 21:47:11 2025.
 Gaussian 16:  ES64L-G16RevC.01  3-Jul-2019

 ----------------------------------------------------------------------
 #t hf aug-cc-pvdz iop(5/13=1,5/36=2,99/5=2) pseudo=read geom=check gue
 ss=(read,tcheck) scf=(maxcycle=1)
 ----------------------------------------------------------------------
 -----
 title
 -----
 Structure from the checkpoint file:  "ANI1ccx_540_conf3_mol1.chk"
 Charge =  0 Multiplicity = 1

                         Standard orientation:
 ---------------------------------------------------------------------
 Center     Atomic      Atomic             Coordinates (Angstroms)
 Number     Number       Type             X           Y           Z
 ---------------------------------------------------------------------
      1          6           0        1.648260   -0.010284    0.006038
      2          6           0       -0.758831   -0.559987    0.010091
      3          1           0        2.320590    1.834620   -0.242880
      4          1           0        0.623889    1.699811   -0.498239
      5          1           0        0.982028   -1.804659   -0.161068
      6          1           0       -0.776441    1.211661    0.848059
      7          1           0       -2.855970   -0.124001    0.173608
      8          7           0        1.476450    1.366871   -0.076079
      9          7           0        0.562181   -0.838687   -0.014188
     10          7           0       -1.153470    0.765273    0.013074
     11          8           0        2.767250   -0.496935    0.107105
     12          8           0       -1.642060   -1.391439   -0.082850
     13          8           0       -2.603540    0.832123    0.016257
 ---------------------------------------------------------------------

 SCF Done:  E(RHF) =  -468.614854592     A.U. after    2 cycles

 The electronic state is 1-A.
 Alpha  occ. eigenvalues --  -21.10916 -21.06666 -21.04689 -15.82355 -15.82287
 Alpha  occ. eigenvalues --  -15.80021 -11.55610 -11.53827  -1.83585  -1.74909
 Alpha  occ. eigenvalues --   -1.71115  -1.46196  -1.35027  -1.27208  -0.93677
 Alpha  occ. eigenvalues --   -0.85837  -0.77330  -0.75182  -0.70426  -0.63659
 Alpha  occ. eigenvalues --   -0.63069  -0.59011  -0.54164  -0.51778  -0.47925
 Alpha  occ. eigenvalues --   -0.45044  -0.38687  -0.35577  -0.34844  -0.32366
 Alpha  occ. eigenvalues --   -0.31523
 Alpha virt. eigenvalues --    0.03429   0.05231   0.05988   0.06480   0.06953
 Alpha virt. eigenvalues --    0.09463   0.10510   0.11136   0.12540   0.13616
 Alpha virt. eigenvalues --    0.14075   0.15003   0.15154   0.15764   0.16432

 Mulliken charges:
               1
     1  C    5.154628
     2  C    4.856590
     3  H    0.559105
     4  H    0.715936
     5  H    0.457833
     6  H    0.737763
     7  H    0.730604
     8  N   -2.531656
     9  N   -2.186632
    10  N   -0.402256
    11  O   -2.976342
    12  O   -2.896505
    13  O   -2.219069
 Sum of Mulliken charges =  -0.00000

 Dipole moment (field-independent basis, Debye):
    X=             -0.2686    Y=              1.4091    Z=             -0.0681  Tot=              1.4361

 Test job not archived.
 1\1\GINC-SE334\SP\RHF\Aug-CC-pVDZ\C2H5N3O3\OHZDE\08-Apr-2025\0\\#t hf
 aug-cc-pvdz iop(5/13=1,5/36=2,99/5=2) pseudo=read geom=check guess=(re
 ad,tcheck) scf=(maxcycle=1)\\title\\0,1\C,0,1.64826,-0.0102845,0.00603
 759\C,0,-0.758831,-0.559988,0.0100912\H,0,2.32059,1.83462,-0.24288\H,0
 ,0.623889,1.69981,-0.498239\H,0,0.982028,-1.80466,-0.161068\H,0,-0.776
 441,1.21166,0.848059\H,0,-2.85597,-0.124003,0.173608\N,0,1.47645,1.366
 87,-0.0760786\N,0,0.562181,-0.838688,-0.0141885\N,0,-1.15347,0.765272,
 0.0130742\O,0,2.76725,-0.496935,0.107105\O,0,-1.64206,-1.39144,-0.0828

 Normal termination of Gaussian 16 at Tue Apr  8 21:47:16 2025.
