 Gaussian 16, Revision C.01,

 ----------------------------------------------------------------------
 #t hf aug-cc-pvdz symm=none int=(grid=ultrafine) guess=(read,tcheck) s
 table=(opt,rrhf)
 ----------------------------------------------------------------------
 -----
 title
 -----
 Symbolic Z-matrix:
 Charge =  0 Multiplicity = 1

 SCF Done:  E(RHF) =  -460.274808803     A.U. after   16 cycles
 Normal termination of Gaussian 16 at Tue Apr  8 21:34:39 2025.
 Gaussian 16:  ES64L-G16RevC.01  3-Jul-2019

 ----------------------------------------------------------------------
 #t hf aug-cc-pvdz iop(5/13=1,5/36=2,99/5=2) pseudo=read geom=check gue
 ss=(read,tcheck) scf=(maxcycle=1)
 ----------------------------------------------------------------------
 -----
 title
 -----
 Structure from the checkpoint file:  "ANI1ccx_373_conf1_mol1.chk"
 Charge =  0 Multiplicity = 1

                         Standard orientation:
 ---------------------------------------------------------------------
 Center     Atomic      Atomic             Coordinates (Angstroms)
 Number     Number       Type             X           Y           Z
 ---------------------------------------------------------------------
      1          6           0        0.035452    0.019543   -0.010730
      2          1           0        2.780490   -1.076489   -0.259796
      3          7           0       -1.412250   -0.010241    0.005012
      4          7           0        0.739229    1.147761    0.273884
      5          7           0        1.951420    0.712057    0.208630
      6          7           0        1.955170   -0.559510   -0.142387
      7          7           0        0.748980   -1.035939   -0.323585
      8          8           0       -2.007070    0.971823   -0.380995
      9          8           0       -1.851810   -1.074280    0.402657
 ---------------------------------------------------------------------

 SCF Done:  E(RHF) =  -462.229434516     A.U. after    2 cycles

 The electronic state is 1-A.
 Alpha  occ. eigenvalues --  -21.12627 -21.11963 -16.03380 -15.91353 -15.86259
 Alpha  occ. eigenvalues --  -15.84664 -15.83129 -11.50757  -2.03244  -1.82293
 Alpha  occ. eigenvalues --   -1.72821  -1.45784  -1.35625  -1.10227  -0.98440
 Alpha  occ. eigenvalues --   -0.85412  -0.80175  -0.75726  -0.71634  -0.68006
 Alpha  occ. eigenvalues --   -0.63620  -0.58841  -0.48636  -0.47409  -0.46365
 Alpha  occ. eigenvalues --   -0.43433  -0.37354  -0.33561  -0.33490
 Alpha virt. eigenvalues --    0.02711   0.08877   0.09579   0.10356   0.10556
 Alpha virt. eigenvalues --    0.11819   0.12595   0.12897   0.13470   0.15329
 Alpha virt. eigenvalues --    0.15519   0.16551   0.17603   0.18152   0.19113

 Mulliken charges:
               1
     1  C    4.788885
     2  H    1.025023
     3  N    3.580767
     4  N   -1.770113
     5  N   -0.010522
     6  N   -0.318435
     7  N   -1.873650
     8  O   -2.739317
     9  O   -2.682638
 Sum of Mulliken charges =  -0.00000

 Dipole moment (field-independent basis, Debye):
    X=              3.3508    Y=             -1.9052    Z=             -0.5317  Tot=              3.8911

 Test job not archived.
 1\1\GINC-SE094\SP\RHF\Aug-CC-pVDZ\C1H1N5O2\OHZDE\08-Apr-2025\0\\#t hf
 aug-cc-pvdz iop(5/13=1,5/36=2,99/5=2) pseudo=read geom=check guess=(re
 ad,tcheck) scf=(maxcycle=1)\\title\\0,1\C,0,0.035452,0.0195427,-0.0107
 295\H,0,2.78049,-1.07649,-0.259796\N,0,-1.41225,-0.0102407,0.00501234\
 N,0,0.739229,1.14776,0.273884\N,0,1.95142,0.712056,0.20863\N,0,1.95517
 ,-0.559511,-0.142387\N,0,0.74898,-1.03594,-0.323585\O,0,-2.00707,0.971
 823,-0.380995\O,0,-1.85181,-1.07428,0.402657\\Version=ES64L-G16RevC.01
 \State=1-A\HF=-462.2294345\RMSD=9.798e-02\Dipole=1.3183236,-0.7495639,

 Normal termination of Gaussian 16 at Tue Apr  8 21:34:43 2025.
