 Gaussian 16, Revision C.01,

 ----------------------------------------------------------------------
 #t hf aug-cc-pvdz symm=none int=(grid=ultrafine) guess=(read,tcheck) s
 table=(opt,rrhf)
 ----------------------------------------------------------------------
 -----
 title
 -----
 Symbolic Z-matrix:
 Charge =  0 Multiplicity = 1

 SCF Done:  E(RHF) =  -258.501247805     A.U. after   53 cycles
 Normal termination of Gaussian 16 at Tue Apr  8 21:16:21 2025.
 Gaussian 16:  ES64L-G16RevC.01  3-Jul-2019

 ----------------------------------------------------------------------
 #t hf aug-cc-pvdz iop(5/13=1,5/36=2,99/5=2) pseudo=read geom=check gue
 ss=(read,tcheck) scf=(maxcycle=1)
 ----------------------------------------------------------------------
 -----
 title
 -----
 Structure from the checkpoint file:  "ANI1ccx_1907_conf25_mol1.chk"
 Charge =  0 Multiplicity = 1

                         Standard orientation:
 ---------------------------------------------------------------------
 Center     Atomic      Atomic             Coordinates (Angstroms)
 Number     Number       Type             X           Y           Z
 ---------------------------------------------------------------------
      1          7           0       -2.089498   -0.410508    0.004591
      2          7           0       -1.376758    0.435624   -0.017998
      3          8           0        2.104832   -0.174521   -0.020546
      4          8           0        0.928143    0.152544    0.032277
 ---------------------------------------------------------------------

 SCF Done:  E(RHF) =  -259.519746580     A.U. after    2 cycles

 The electronic state is 1-A.
 Alpha  occ. eigenvalues --  -21.23153 -21.22360 -15.87079 -15.86831  -2.10546
 Alpha  occ. eigenvalues --   -1.56035  -1.22995  -0.79414  -0.61573  -0.60676
 Alpha  occ. eigenvalues --   -0.57766  -0.57328  -0.53660  -0.52310  -0.28025
 Alpha virt. eigenvalues --    0.09236   0.11389   0.12119   0.13803   0.14119
 Alpha virt. eigenvalues --    0.15137   0.15736   0.17006   0.18969   0.21790
 Alpha virt. eigenvalues --    0.24360   0.27427   0.28722   0.29086   0.30214

 Mulliken charges:
               1
     1  N   -0.263211
     2  N    0.034538
     3  O    0.797551
     4  O   -0.568878
 Sum of Mulliken charges =   0.00000

 Dipole moment (field-independent basis, Debye):
    X=              0.1406    Y=              0.0608    Z=             -0.0147  Tot=              0.1539

 Test job not archived.
 1\1\GINC-SE099\SP\RHF\Aug-CC-pVDZ\N2O2\OHZDE\08-Apr-2025\0\\#t hf aug-
 cc-pvdz iop(5/13=1,5/36=2,99/5=2) pseudo=read geom=check guess=(read,t
 check) scf=(maxcycle=1)\\title\\0,1\N,0,-2.0895,-0.410508,0.00459094\N
 ,0,-1.37676,0.435624,-0.0179981\O,0,2.10483,-0.174521,-0.0205459\O,0,0
 .928141,0.152544,0.0322772\\Version=ES64L-G16RevC.01\State=1-A\HF=-259
 .5197466\RMSD=1.380e-01\Dipole=0.0553259,0.0239266,-0.0057746\Quadrupo
 le=0.0387455,0.7402795,-0.779025,-0.1130206,-0.017757,0.0955833\PG=C01
  [X(N2O2)]\\@

 Normal termination of Gaussian 16 at Tue Apr  8 21:16:23 2025.
