 Gaussian 16, Revision C.01,

 ----------------------------------------------------------------------
 #t hf aug-cc-pvdz symm=none int=(grid=ultrafine) guess=(read,tcheck) s
 table=(opt,rrhf)
 ----------------------------------------------------------------------
 -----
 title
 -----
 Symbolic Z-matrix:
 Charge =  0 Multiplicity = 1

 SCF Done:  E(RHF) =  -394.470421927     A.U. after   14 cycles
 Normal termination of Gaussian 16 at Tue Apr  8 21:51:58 2025.
 Gaussian 16:  ES64L-G16RevC.01  3-Jul-2019

 ----------------------------------------------------------------------
 #t hf aug-cc-pvdz iop(5/13=1,5/36=2,99/5=2) pseudo=read geom=check gue
 ss=(read,tcheck) scf=(maxcycle=1)
 ----------------------------------------------------------------------
 -----
 title
 -----
 Structure from the checkpoint file:  "ANI1ccx_671_conf1_mol2.chk"
 Charge =  0 Multiplicity = 1

                         Standard orientation:
 ---------------------------------------------------------------------
 Center     Atomic      Atomic             Coordinates (Angstroms)
 Number     Number       Type             X           Y           Z
 ---------------------------------------------------------------------
      1          6           0       -1.102880   -0.216128   -0.061812
      2          6           0       -0.708631    1.232940    0.100542
      3          6           0        1.155970   -0.112425    0.026693
      4          1           0       -0.939395    1.647510    1.127290
      5          1           0       -1.153510    1.840170   -0.725338
      6          1           0       -0.009253   -1.867120    0.051838
      7          7           0        0.020395   -0.885515    0.001125
      8          8           0       -2.230340   -0.686041   -0.012934
      9          8           0        0.718379    1.168420   -0.123614
     10          8           0        2.248540   -0.588413    0.029773
 ---------------------------------------------------------------------

 SCF Done:  E(RHF) =  -396.114381167     A.U. after    2 cycles

 The electronic state is 1-A.
 Alpha  occ. eigenvalues --  -21.13143 -21.07964 -21.06404 -15.82367 -11.56723
 Alpha  occ. eigenvalues --  -11.54159 -11.47634  -1.90469  -1.73703  -1.71392
 Alpha  occ. eigenvalues --   -1.44792  -1.10635  -0.90792  -0.88783  -0.73108
 Alpha  occ. eigenvalues --   -0.69676  -0.63499  -0.60826  -0.57320  -0.53215
 Alpha  occ. eigenvalues --   -0.52459  -0.47610  -0.36787  -0.35300  -0.34605
 Alpha  occ. eigenvalues --   -0.29926
 Alpha virt. eigenvalues --    0.02773   0.05231   0.05803   0.08160   0.09389
 Alpha virt. eigenvalues --    0.10115   0.10715   0.10997   0.11589   0.12386
 Alpha virt. eigenvalues --    0.13737   0.14127   0.15421   0.16604   0.16850

 Mulliken charges:
               1
     1  C    3.961139
     2  C   -1.672366
     3  C    5.598403
     4  H    1.360701
     5  H    1.364760
     6  H    0.722786
     7  N   -2.298377
     8  O   -3.190655
     9  O   -2.765367
    10  O   -3.081023
 Sum of Mulliken charges =  -0.00000

 Dipole moment (field-independent basis, Debye):
    X=             -0.6712    Y=              0.6127    Z=              0.2138  Tot=              0.9336

 Test job not archived.
 1\1\GINC-SE126\SP\RHF\Aug-CC-pVDZ\C3H3N1O3\OHZDE\08-Apr-2025\0\\#t hf
 aug-cc-pvdz iop(5/13=1,5/36=2,99/5=2) pseudo=read geom=check guess=(re
 ad,tcheck) scf=(maxcycle=1)\\title\\0,1\C,0,-1.10288,-0.216128,-0.0618
 12\C,0,-0.708631,1.23294,0.100542\C,0,1.15597,-0.112424,0.0266931\H,0,
 -0.939395,1.64751,1.12729\H,0,-1.15351,1.84017,-0.725338\H,0,-0.009252
 8,-1.86712,0.0518385\N,0,0.0203952,-0.885515,0.00112517\O,0,-2.23034,-
 0.686041,-0.0129338\O,0,0.718379,1.16842,-0.123614\O,0,2.24854,-0.5884
 12,0.0297728\\Version=ES64L-G16RevC.01\State=1-A\HF=-396.1143812\RMSD=

 Normal termination of Gaussian 16 at Tue Apr  8 21:52:01 2025.
