 Gaussian 16, Revision C.01,

 ----------------------------------------------------------------------
 #t hf aug-cc-pvdz symm=none int=(grid=ultrafine) guess=(read,tcheck) s
 table=(opt,rrhf)
 ----------------------------------------------------------------------
 -----
 title
 -----
 Symbolic Z-matrix:
 Charge =  0 Multiplicity = 1

 SCF Done:  E(RHF) =  -681.672797588     A.U. after   14 cycles
 Normal termination of Gaussian 16 at Tue Apr  8 19:53:23 2025.
 Gaussian 16:  ES64L-G16RevC.01  3-Jul-2019

 ----------------------------------------------------------------------
 #t hf aug-cc-pvdz iop(5/13=1,5/36=2,99/5=2) pseudo=read geom=check gue
 ss=(read,tcheck) scf=(maxcycle=1)
 ----------------------------------------------------------------------
 -----
 title
 -----
 Structure from the checkpoint file:  "ANI1ccx_1434_conf2_mol2.chk"
 Charge =  0 Multiplicity = 1

                         Standard orientation:
 ---------------------------------------------------------------------
 Center     Atomic      Atomic             Coordinates (Angstroms)
 Number     Number       Type             X           Y           Z
 ---------------------------------------------------------------------
      1          6           0        1.926419    0.653445    0.106389
      2          6           0        0.513509    1.191750    0.034930
      3          6           0        2.051469   -0.683298   -0.563647
      4          6           0        3.481089   -1.018909   -0.944491
      5          6           0       -1.819491    0.551914    0.004980
      6          6           0       -2.680831   -0.685791    0.310772
      7          6           0       -2.326802    1.289820   -1.271741
      8          1           0       -1.552231   -1.599870   -0.969379
      9          1           0       -3.392972    1.464520   -1.127881
     10          1           0       -1.911832    2.309430   -1.326941
     11          1           0       -2.177231    0.683736   -2.149351
     12          1           0       -1.999952    1.275320    0.824094
     13          1           0       -0.097553   -0.646264    0.486473
     14          1           0        3.434789   -2.061799   -1.367721
     15          1           0        3.861109   -0.311569   -1.644941
     16          1           0        4.095159   -1.022669   -0.054240
     17          1           0        1.904559   -1.307870    1.156269
     18          1           0        1.454499   -0.627871   -1.451141
     19          1           0        2.441268    1.460521   -0.436729
     20          1           0        3.473449    0.853934    1.373249
     21          1           0        2.044218    1.288951    2.071849
     22          7           0        2.478429    0.570158    1.509639
     23          7           0       -0.438213    0.178502   -0.043146
     24          8           0        0.288595    2.358860   -0.012730
     25          8           0        1.549939   -1.662370    0.302592
     26          8           0       -3.605341   -0.735859    1.088809
     27          8           0       -2.324561   -1.809720   -0.342701
 ---------------------------------------------------------------------

 SCF Done:  E(RHF) =  -684.727760978     A.U. after    2 cycles

 The electronic state is 1-A.
 Alpha  occ. eigenvalues --  -21.11962 -21.07887 -21.06018 -21.04932 -15.77771
 Alpha  occ. eigenvalues --  -15.76819 -11.55276 -11.53452 -11.50311 -11.46218
 Alpha  occ. eigenvalues --  -11.44870 -11.39421 -11.38989  -1.82183  -1.76951
 Alpha  occ. eigenvalues --   -1.73853  -1.64413  -1.43191  -1.36381  -1.17581
 Alpha  occ. eigenvalues --   -1.14348  -1.04303  -0.95915  -0.87490  -0.80832
 Alpha  occ. eigenvalues --   -0.79657  -0.75340  -0.72127  -0.68495  -0.68069
 Alpha  occ. eigenvalues --   -0.64618  -0.60486  -0.59495  -0.58245  -0.57642
 Alpha  occ. eigenvalues --   -0.56764  -0.55045  -0.53100  -0.51732  -0.51104
 Alpha  occ. eigenvalues --   -0.49722  -0.49704  -0.46842  -0.44634  -0.42614
 Alpha  occ. eigenvalues --   -0.40766  -0.35461  -0.33932  -0.33325  -0.30249
 Alpha  occ. eigenvalues --   -0.29149
 Alpha virt. eigenvalues --    0.03060   0.04077   0.04548   0.04923   0.05046
 Alpha virt. eigenvalues --    0.05666   0.05914   0.06533   0.07038   0.07138
 Alpha virt. eigenvalues --    0.07465   0.08230   0.09265   0.09756   0.10724

 Mulliken charges:
               1
     1  C   -3.529384
     2  C    8.074616
     3  C    2.891900
     4  C   -4.878457
     5  C   -2.243212
     6  C    6.407750
     7  C   -4.160964
     8  H    1.032765
     9  H    1.106382
    10  H    1.288670
    11  H    1.491352
    12  H    1.686688
    13  H    0.995318
    14  H    0.978581
    15  H    1.205468
    16  H    1.356008
    17  H    0.766769
    18  H    2.123009
    19  H    1.655200
    20  H    0.514722
    21  H    0.667139
    22  N   -2.612999
    23  N   -2.790001
    24  O   -4.014528
    25  O   -3.295507
    26  O   -3.384417
    27  O   -3.332869
 Sum of Mulliken charges =   0.00000

 Dipole moment (field-independent basis, Debye):
    X=              3.3147    Y=              0.6070    Z=             -0.8574  Tot=              3.4772

 Test job not archived.
 1\1\GINC-SE068\SP\RHF\Aug-CC-pVDZ\C7H14N2O4\OHZDE\08-Apr-2025\0\\#t hf
  aug-cc-pvdz iop(5/13=1,5/36=2,99/5=2) pseudo=read geom=check guess=(r
 ead,tcheck) scf=(maxcycle=1)\\title\\0,1\C,0,1.92642,0.653444,0.10639\
 C,0,0.513511,1.19175,0.0349306\C,0,2.05147,-0.683299,-0.563646\C,0,3.4
 8109,-1.01891,-0.94449\C,0,-1.81949,0.551914,0.00498012\C,0,-2.68083,-
 0.685791,0.310773\C,0,-2.3268,1.28982,-1.27174\H,0,-1.55223,-1.59987,-
 0.969378\H,0,-3.39297,1.46452,-1.12788\H,0,-1.91183,2.30943,-1.32694\H
 ,0,-2.17723,0.683736,-2.14935\H,0,-1.99995,1.27532,0.824095\H,0,-0.097

 Normal termination of Gaussian 16 at Tue Apr  8 19:53:47 2025.
