 Gaussian 16, Revision C.01,

 ----------------------------------------------------------------------
 #t hf aug-cc-pvdz symm=none int=(grid=ultrafine) guess=(read,tcheck) s
 table=(opt,rrhf)
 ----------------------------------------------------------------------
 -----
 title
 -----
 Symbolic Z-matrix:
 Charge =  0 Multiplicity = 1

 SCF Done:  E(RHF) =  -389.476766528     A.U. after   15 cycles
 Normal termination of Gaussian 16 at Tue Apr  8 21:42:47 2025.
 Gaussian 16:  ES64L-G16RevC.01  3-Jul-2019

 ----------------------------------------------------------------------
 #t hf aug-cc-pvdz iop(5/13=1,5/36=2,99/5=2) pseudo=read geom=check gue
 ss=(read,tcheck) scf=(maxcycle=1)
 ----------------------------------------------------------------------
 -----
 title
 -----
 Structure from the checkpoint file:  "ANI1ccx_473_conf15_mol1.chk"
 Charge =  0 Multiplicity = 1

                         Standard orientation:
 ---------------------------------------------------------------------
 Center     Atomic      Atomic             Coordinates (Angstroms)
 Number     Number       Type             X           Y           Z
 ---------------------------------------------------------------------
      1          6           0       -1.191560    1.039852   -0.045275
      2          6           0       -1.284841   -1.335808    0.010300
      3          1           0       -2.097802   -2.002338   -0.067902
      4          7           0       -1.824741   -0.010134    0.061238
      5          7           0        3.011379   -0.150870    0.065105
      6          7           0        1.992659    0.282647   -0.068714
      7          8           0       -0.569652    2.013971    0.007886
      8          8           0       -0.092707   -1.648149   -0.023592
 ---------------------------------------------------------------------

 SCF Done:  E(RHF) =  -391.074698945     A.U. after    2 cycles

 The electronic state is 1-A.
 Alpha  occ. eigenvalues --  -21.17117 -21.09102 -15.86156 -15.85950 -15.79540
 Alpha  occ. eigenvalues --  -11.61853 -11.53606  -1.81363  -1.73109  -1.54286
 Alpha  occ. eigenvalues --   -1.41158  -0.97880  -0.78318  -0.73956  -0.67248
 Alpha  occ. eigenvalues --   -0.64042  -0.61910  -0.57685  -0.55931  -0.55795
 Alpha  occ. eigenvalues --   -0.54457  -0.49618  -0.42171  -0.35330  -0.32996
 Alpha virt. eigenvalues --    0.03532   0.07366   0.09287   0.10079   0.10213
 Alpha virt. eigenvalues --    0.10864   0.10906   0.11589   0.13151   0.13470
 Alpha virt. eigenvalues --    0.14508   0.15275   0.15582   0.16699   0.17320

 Mulliken charges:
               1
     1  C    3.570331
     2  C    1.760588
     3  H    1.724077
     4  N   -2.385944
     5  N    0.550152
     6  N   -0.488749
     7  O   -2.310285
     8  O   -2.420170
 Sum of Mulliken charges =  -0.00000

 Dipole moment (field-independent basis, Debye):
    X=              0.0611    Y=              0.8616    Z=             -0.1491  Tot=              0.8766

 Test job not archived.
 1\1\GINC-SE041\SP\RHF\Aug-CC-pVDZ\C2H1N3O2\OHZDE\08-Apr-2025\0\\#t hf
 aug-cc-pvdz iop(5/13=1,5/36=2,99/5=2) pseudo=read geom=check guess=(re
 ad,tcheck) scf=(maxcycle=1)\\title\\0,1\C,0,-1.19156,1.03985,-0.045275
 2\C,0,-1.28484,-1.33581,0.0102998\H,0,-2.0978,-2.00234,-0.0679021\N,0,
 -1.82474,-0.0101362,0.0612385\N,0,3.01138,-0.15087,0.0651051\N,0,1.992
 66,0.282647,-0.0687144\O,0,-0.569652,2.01397,0.0078859\O,0,-0.0927055,
 -1.64815,-0.0235921\\Version=ES64L-G16RevC.01\State=1-A\HF=-391.074698
 9\RMSD=8.305e-02\Dipole=0.0240285,0.3389947,-0.0586412\Quadrupole=-2.2

 Normal termination of Gaussian 16 at Tue Apr  8 21:42:50 2025.
