 Gaussian 16, Revision C.01,

 ----------------------------------------------------------------------
 #t hf aug-cc-pvdz symm=none int=(grid=ultrafine) guess=(read,tcheck) s
 table=(opt,rrhf)
 ----------------------------------------------------------------------
 -----
 title
 -----
 Symbolic Z-matrix:
 Charge =  0 Multiplicity = 1

 SCF Done:  E(RHF) =  -337.208892081     A.U. after   13 cycles

 1\1\GINC-SE273\Stability\RHF\Aug-CC-pVDZ\C3H10N4\OHZDE\08-Apr-2025\0\\
 #t hf aug-cc-pvdz symm=none int=(grid=ultrafine) guess=(read,tcheck) s
 table=(opt,rrhf)\\title\\0,1\C,0,2.55428,0.0272224,0.261695\C,0,0.1074
 09,-0.298724,-0.0617632\C,0,-1.16885,1.74031,-0.347485\H,0,-2.07854,1.
 14501,-0.536721\H,0,-0.719311,2.01027,-1.30548\H,0,-1.43647,2.64805,0.
 202109\H,0,0.582398,1.50334,0.720044\H,0,1.52924,-1.4592,-0.759509\H,0
 ,3.47722,-0.384856,-0.151658\H,0,2.5323,-0.23697,1.33927\H,0,2.60835,1
 .11663,0.15933\H,0,-2.04184,-0.500244,1.08607\H,0,-2.47458,-1.90622,0.

 Normal termination of Gaussian 16 at Tue Apr  8 21:50:26 2025.
 Gaussian 16:  ES64L-G16RevC.01  3-Jul-2019

 ----------------------------------------------------------------------
 #t hf aug-cc-pvdz iop(5/13=1,5/36=2,99/5=2) pseudo=read geom=check gue
 ss=(read,tcheck) scf=(maxcycle=1)
 ----------------------------------------------------------------------
 -----
 title
 -----
 Structure from the checkpoint file:  "ANI1ccx_616_conf2_mol2.chk"
 Charge =  0 Multiplicity = 1

                         Standard orientation:
 ---------------------------------------------------------------------
 Center     Atomic      Atomic             Coordinates (Angstroms)
 Number     Number       Type             X           Y           Z
 ---------------------------------------------------------------------
      1          6           0        2.554280    0.027224    0.261695
      2          6           0        0.107409   -0.298723   -0.061763
      3          6           0       -1.168851    1.740310   -0.347485
      4          1           0       -2.078541    1.145010   -0.536721
      5          1           0       -0.719312    2.010271   -1.305480
      6          1           0       -1.436471    2.648050    0.202109
      7          1           0        0.582397    1.503341    0.720044
      8          1           0        1.529240   -1.459199   -0.759509
      9          1           0        3.477220   -0.384854   -0.151658
     10          1           0        2.532300   -0.236968    1.339270
     11          1           0        2.608349    1.116632    0.159330
     12          1           0       -2.041840   -0.500244    1.086070
     13          1           0       -2.474579   -1.906220    0.353661
     14          7           0       -2.042300   -1.007440    0.188017
     15          7           0       -0.710450   -1.278139   -0.188714
     16          7           0       -0.238717    0.955085    0.476000
     17          7           0        1.429210   -0.490747   -0.506986
 ---------------------------------------------------------------------

 SCF Done:  E(RHF) =  -338.823445872     A.U. after    2 cycles

 The electronic state is 1-A.
 Alpha  occ. eigenvalues --  -15.74010 -15.73805 -15.73709 -15.71014 -11.44651
 Alpha  occ. eigenvalues --  -11.40227 -11.38763  -1.52219  -1.37992  -1.32739
 Alpha  occ. eigenvalues --   -1.12442  -0.98022  -0.96747  -0.77937  -0.71730
 Alpha  occ. eigenvalues --   -0.65942  -0.63348  -0.61057  -0.59120  -0.57708
 Alpha  occ. eigenvalues --   -0.55091  -0.53653  -0.51825  -0.48925  -0.40880
 Alpha  occ. eigenvalues --   -0.36338  -0.35639  -0.25877
 Alpha virt. eigenvalues --    0.03496   0.04744   0.05736   0.05866   0.06084
 Alpha virt. eigenvalues --    0.06418   0.06816   0.07636   0.08457   0.09077
 Alpha virt. eigenvalues --    0.11439   0.12555   0.13410   0.14105   0.14258

 Mulliken charges:
               1
     1  C   -3.530965
     2  C    5.637381
     3  C   -3.693551
     4  H    1.377941
     5  H    1.333614
     6  H    1.219818
     7  H    0.794385
     8  H    0.615324
     9  H    1.293422
    10  H    1.273028
    11  H    1.354942
    12  H    0.576383
    13  H    0.712373
    14  N   -1.730188
    15  N   -1.886287
    16  N   -2.497100
    17  N   -2.850522
 Sum of Mulliken charges =   0.00000

 Dipole moment (field-independent basis, Debye):
    X=              1.4842    Y=              1.2525    Z=              1.1798  Tot=              2.2723

 Test job not archived.
 1\1\GINC-SE273\SP\RHF\Aug-CC-pVDZ\C3H10N4\OHZDE\08-Apr-2025\0\\#t hf a
 ug-cc-pvdz iop(5/13=1,5/36=2,99/5=2) pseudo=read geom=check guess=(rea
 d,tcheck) scf=(maxcycle=1)\\title\\0,1\C,0,2.55428,0.0272224,0.261695\
 C,0,0.107409,-0.298724,-0.0617632\C,0,-1.16885,1.74031,-0.347485\H,0,-
 2.07854,1.14501,-0.536721\H,0,-0.719311,2.01027,-1.30548\H,0,-1.43647,
 2.64805,0.202109\H,0,0.582398,1.50334,0.720044\H,0,1.52924,-1.4592,-0.
 759509\H,0,3.47722,-0.384856,-0.151658\H,0,2.5323,-0.23697,1.33927\H,0
 ,2.60835,1.11663,0.15933\H,0,-2.04184,-0.500244,1.08607\H,0,-2.47458,-

 Normal termination of Gaussian 16 at Tue Apr  8 21:50:32 2025.
