 Gaussian 16, Revision C.01,

 ----------------------------------------------------------------------
 #t hf aug-cc-pvdz symm=none int=(grid=ultrafine) guess=(read,tcheck) s
 table=(opt,rrhf)
 ----------------------------------------------------------------------
 -----
 title
 -----
 Symbolic Z-matrix:
 Charge =  0 Multiplicity = 1

 SCF Done:  E(RHF) =  -744.722666813     A.U. after   13 cycles
 Normal termination of Gaussian 16 at Tue Apr  8 22:28:35 2025.
 Gaussian 16:  ES64L-G16RevC.01  3-Jul-2019

 ----------------------------------------------------------------------
 #t hf aug-cc-pvdz iop(5/13=1,5/36=2,99/5=2) pseudo=read geom=check gue
 ss=(read,tcheck) scf=(maxcycle=1)
 ----------------------------------------------------------------------
 -----
 title
 -----
 Structure from the checkpoint file:  "ANI1ccx_96_conf2_mol1.chk"
 Charge =  0 Multiplicity = 1

                         Standard orientation:
 ---------------------------------------------------------------------
 Center     Atomic      Atomic             Coordinates (Angstroms)
 Number     Number       Type             X           Y           Z
 ---------------------------------------------------------------------
      1          6           0        2.699069    0.414236   -0.526923
      2          6           0        1.016388   -2.203691   -0.727453
      3          6           0       -0.963665   -2.027480    0.611921
      4          6           0       -2.128172   -1.154850    1.097890
      5          6           0       -2.826991   -0.105088   -0.955950
      6          6           0        2.166508   -1.971151    0.213336
      7          6           0       -0.620808    2.377290    0.413173
      8          6           0        0.710711    2.639099   -0.323134
      9          6           0        1.904219    0.797951    0.734954
     10          6           0       -2.519191    1.312340   -0.470849
     11          1           0       -2.576812   -1.770920    1.889870
     12          1           0        4.108168   -1.121652   -0.131941
     13          1           0        2.661348   -2.954322    0.408278
     14          1           0        1.810348   -1.693041    1.251350
     15          1           0        0.657216   -3.224021   -0.593465
     16          1           0        1.242018   -2.017571   -1.780340
     17          1           0       -0.320796   -2.110790    1.508390
     18          1           0       -1.276782   -2.903100    0.217882
     19          1           0       -1.782921   -0.199816    1.479350
     20          1           0       -1.990851   -0.464181   -1.489540
     21          1           0       -1.486210    3.155340    0.267558
     22          1           0       -3.162941    1.547811    0.374746
     23          1           0       -2.731251    2.037430   -1.269980
     24          1           0       -0.490715    2.297070    1.522420
     25          1           0        0.695561    2.069919   -1.245900
     26          1           0        0.801866    3.701679   -0.599516
     27          1           0        2.563839    0.597644    1.691690
     28          1           0        0.822152    0.372413    0.804042
     29          1           0        2.104609    0.503804   -1.419150
     30          1           0        3.541089    1.064708   -0.851435
     31          1           0       -3.777321   -0.206136   -1.438390
     32          7           0        3.142868   -0.964474   -0.321522
     33          8           0       -3.054222   -1.052919    0.099979
     34          8           0        1.777320    2.220649    0.567907
     35          8           0       -1.123941    1.162980   -0.101896
     36          8           0       -0.104169   -1.381071   -0.409371
 ---------------------------------------------------------------------

 SCF Done:  E(RHF) =  -748.190172044     A.U. after    2 cycles

 The electronic state is 1-A.
 Alpha  occ. eigenvalues --  -21.03443 -21.02426 -21.01763 -21.01624 -15.69508
 Alpha  occ. eigenvalues --  -11.48606 -11.47690 -11.47229 -11.45733 -11.45184
 Alpha  occ. eigenvalues --  -11.39672 -11.39103 -11.38944 -11.38236 -11.37685
 Alpha  occ. eigenvalues --   -1.78282  -1.74691  -1.71671  -1.69959  -1.34973
 Alpha  occ. eigenvalues --   -1.13374  -1.11317  -1.06241  -1.04482  -0.97055
 Alpha  occ. eigenvalues --   -0.91407  -0.87584  -0.85178  -0.82972  -0.80510
 Alpha  occ. eigenvalues --   -0.68893  -0.68281  -0.67606  -0.66051  -0.64834
 Alpha  occ. eigenvalues --   -0.62591  -0.60739  -0.60092  -0.59095  -0.57740
 Alpha  occ. eigenvalues --   -0.56104  -0.54775  -0.54725  -0.53184  -0.51504
 Alpha  occ. eigenvalues --   -0.50266  -0.48649  -0.47622  -0.46908  -0.45972
 Alpha  occ. eigenvalues --   -0.44463  -0.41110  -0.35577  -0.35347  -0.34367
 Alpha  occ. eigenvalues --   -0.31537  -0.30384  -0.27631  -0.26209  -0.24258
 Alpha virt. eigenvalues --    0.03857   0.03995   0.04477   0.04732   0.04960
 Alpha virt. eigenvalues --    0.05402   0.05676   0.05884   0.06675   0.06684
 Alpha virt. eigenvalues --    0.07023   0.07429   0.07643   0.07822   0.08570

 Mulliken charges:
               1
     1  C   -2.584088
     2  C   -1.874327
     3  C   -1.992107
     4  C   -1.934569
     5  C   -2.339582
     6  C   -2.578799
     7  C   -1.637452
     8  C   -2.022284
     9  C   -1.523457
    10  C   -1.969898
    11  H    1.020362
    12  H    0.658403
    13  H    1.224968
    14  H    1.969050
    15  H    1.661885
    16  H    1.584139
    17  H    1.723798
    18  H    1.654021
    19  H    2.031898
    20  H    1.868629
    21  H    1.292834
    22  H    1.615966
    23  H    1.461603
    24  H    1.691583
    25  H    2.207890
    26  H    1.338483
    27  H    1.510530
    28  H    2.487807
    29  H    2.054685
    30  H    1.448674
    31  H    1.267233
    32  N   -2.598411
    33  O   -3.582782
    34  O   -3.611729
    35  O   -1.975546
    36  O   -1.549410
 Sum of Mulliken charges =   0.00000

 Dipole moment (field-independent basis, Debye):
    X=              0.3949    Y=              0.0814    Z=             -0.2644  Tot=              0.4822

 Test job not archived.
 1\1\GINC-SE177\SP\RHF\Aug-CC-pVDZ\C10H21N1O4\OHZDE\08-Apr-2025\0\\#t h
 f aug-cc-pvdz iop(5/13=1,5/36=2,99/5=2) pseudo=read geom=check guess=(
 read,tcheck) scf=(maxcycle=1)\\title\\0,1\C,0,2.69907,0.414238,-0.5269
 23\C,0,1.01639,-2.20369,-0.727453\C,0,-0.963663,-2.02748,0.611921\C,0,
 -2.12817,-1.15485,1.09789\C,0,-2.82699,-0.105088,-0.95595\C,0,2.16651,
 -1.97115,0.213336\C,0,-0.620808,2.37729,0.413173\C,0,0.710711,2.6391,-
 0.323134\C,0,1.90422,0.797952,0.734954\C,0,-2.51919,1.31234,-0.470849\
 H,0,-2.57681,-1.77092,1.88987\H,0,4.10817,-1.12165,-0.131941\H,0,2.661

 Normal termination of Gaussian 16 at Tue Apr  8 22:29:30 2025.
