 Gaussian 16, Revision C.01,

 ----------------------------------------------------------------------
 #t hf aug-cc-pvdz symm=none int=(grid=ultrafine) guess=(read,tcheck) s
 table=(opt,rrhf)
 ----------------------------------------------------------------------
 -----
 title
 -----
 Symbolic Z-matrix:
 Charge =  0 Multiplicity = 1

 SCF Done:  E(RHF) =  -872.545308428     A.U. after   14 cycles
 Normal termination of Gaussian 16 at Tue Apr  8 22:14:26 2025.
 Gaussian 16:  ES64L-G16RevC.01  3-Jul-2019

 ----------------------------------------------------------------------
 #t hf aug-cc-pvdz iop(5/13=1,5/36=2,99/5=2) pseudo=read geom=check gue
 ss=(read,tcheck) scf=(maxcycle=1)
 ----------------------------------------------------------------------
 -----
 title
 -----
 Structure from the checkpoint file:  "ANI1ccx_68_conf1_mol2.chk"
 Charge =  0 Multiplicity = 1

                         Standard orientation:
 ---------------------------------------------------------------------
 Center     Atomic      Atomic             Coordinates (Angstroms)
 Number     Number       Type             X           Y           Z
 ---------------------------------------------------------------------
      1          6           0       -1.400942    1.424220   -0.233903
      2          6           0        3.506228    1.932121    0.393550
      3          6           0        3.109849    0.428407    0.489210
      4          6           0        1.905749   -1.542209   -0.770893
      5          6           0        2.166339   -0.042402   -0.653696
      6          6           0        2.560749    0.116463    1.907240
      7          6           0       -2.851011   -0.682447   -0.801144
      8          6           0       -2.310321    0.674985   -1.224590
      9          6           0       -0.191057    0.529105    0.095072
     10          6           0       -3.523571   -0.688196    0.556901
     11          1           0        4.005169   -0.177670    0.296570
     12          1           0        2.790190   -3.166679   -0.617268
     13          1           0        1.635089    0.702201    2.021530
     14          1           0        2.348179   -0.949462    2.034820
     15          1           0        3.278489    0.414994    2.666570
     16          1           0        4.129208    2.200042    1.237440
     17          1           0        4.023208    2.194352   -0.526991
     18          1           0        2.627078    2.594921    0.457602
     19          1           0        2.762819    0.096689   -1.565170
     20          1           0       -1.795191   -0.865139    1.351030
     21          1           0       -3.593461   -0.941916   -1.554170
     22          1           0       -2.013841   -1.370471   -0.821297
     23          1           0       -3.089552    1.431039   -1.433600
     24          1           0       -1.792621    0.541255   -2.163690
     25          1           0       -1.958912    1.521729    0.706320
     26          1           0       -1.730652    3.263579   -0.951717
     27          1           0       -0.384526    3.105830   -0.029968
     28          1           0        0.779288    1.362190   -1.455770
     29          7           0       -0.896475    2.663320   -0.789101
     30          7           0        0.881161    0.693863   -0.735384
     31          8           0        0.997986   -2.067440   -1.339110
     32          8           0       -0.239306   -0.387407    0.926335
     33          8           0       -4.661961   -0.383674    0.654545
     34          8           0       -2.736331   -0.950417    1.610840
     35          8           0        2.921510   -2.255819   -0.293528
 ---------------------------------------------------------------------

 SCF Done:  E(RHF) =  -876.473452216     A.U. after    2 cycles

 The electronic state is 1-A.
 Alpha  occ. eigenvalues --  -21.13265 -21.07473 -21.06000 -21.04631 -21.02483
 Alpha  occ. eigenvalues --  -15.78427 -15.76981 -11.56602 -11.55729 -11.50758
 Alpha  occ. eigenvalues --  -11.50037 -11.48275 -11.44180 -11.43925 -11.40183
 Alpha  occ. eigenvalues --  -11.39053 -11.37449  -1.85571  -1.79858  -1.73574
 Alpha  occ. eigenvalues --   -1.66592  -1.63578  -1.44540  -1.37711  -1.23736
 Alpha  occ. eigenvalues --   -1.20051  -1.08568  -1.03034  -1.01189  -0.92666
 Alpha  occ. eigenvalues --   -0.86652  -0.83940  -0.78521  -0.76397  -0.73162
 Alpha  occ. eigenvalues --   -0.69175  -0.67841  -0.66868  -0.65744  -0.65219
 Alpha  occ. eigenvalues --   -0.63880  -0.60963  -0.59755  -0.58618  -0.56120
 Alpha  occ. eigenvalues --   -0.55837  -0.55305  -0.54195  -0.54123  -0.53528
 Alpha  occ. eigenvalues --   -0.50857  -0.50288  -0.48974  -0.48068  -0.46877
 Alpha  occ. eigenvalues --   -0.45606  -0.44640  -0.44078  -0.41217  -0.39862
 Alpha  occ. eigenvalues --   -0.35384  -0.33170  -0.31670  -0.30479  -0.29276
 Alpha  occ. eigenvalues --   -0.27002
 Alpha virt. eigenvalues --    0.03182   0.03398   0.03993   0.04240   0.04480
 Alpha virt. eigenvalues --    0.05106   0.05258   0.06116   0.06343   0.06673
 Alpha virt. eigenvalues --    0.07189   0.07756   0.08087   0.08562   0.08846

 Mulliken charges:
               1
     1  C   -0.895740
     2  C   -4.676968
     3  C   -0.530785
     4  C    7.362070
     5  C   -2.057354
     6  C   -4.861211
     7  C   -4.059540
     8  C   -2.775080
     9  C    7.102374
    10  C    6.265954
    11  H    1.801341
    12  H    0.920931
    13  H    1.589349
    14  H    1.407510
    15  H    1.092807
    16  H    1.237572
    17  H    1.261455
    18  H    1.570408
    19  H    2.147332
    20  H    1.809520
    21  H    1.092364
    22  H    1.718920
    23  H    1.338811
    24  H    1.390382
    25  H    1.899196
    26  H    0.598270
    27  H    0.529914
    28  H    0.655554
    29  N   -3.406251
    30  N   -2.914813
    31  O   -3.712822
    32  O   -4.538665
    33  O   -3.424792
    34  O   -3.410441
    35  O   -3.527572
 Sum of Mulliken charges =   0.00000

 Dipole moment (field-independent basis, Debye):
    X=              5.0818    Y=              2.3009    Z=             -1.6263  Tot=              5.8106

 Test job not archived.
 1\1\GINC-SE044\SP\RHF\Aug-CC-pVDZ\C10H18N2O5\OHZDE\08-Apr-2025\0\\#t h
 f aug-cc-pvdz iop(5/13=1,5/36=2,99/5=2) pseudo=read geom=check guess=(
 read,tcheck) scf=(maxcycle=1)\\title\\0,1\C,0,-1.40094,1.42422,-0.2339
 03\C,0,3.50623,1.93212,0.39355\C,0,3.10985,0.428406,0.48921\C,0,1.9057
 5,-1.54221,-0.770893\C,0,2.16634,-0.0424032,-0.653696\C,0,2.56075,0.11
 6462,1.90724\C,0,-2.85101,-0.682446,-0.801144\C,0,-2.31032,0.674986,-1
 .22459\C,0,-0.191056,0.529105,0.0950715\C,0,-3.52357,-0.688195,0.55690
 1\H,0,4.00517,-0.177672,0.29657\H,0,2.79019,-3.16668,-0.617268\H,0,1.6

 Normal termination of Gaussian 16 at Tue Apr  8 22:15:21 2025.
